<event>
 6    1  0.2975432E-002  0.9936798E+02  0.7546771E-02  0.1338255E+00
          2   -1    0    0  501    0  0.00000000000E+00  0.00000000000E+00  0.13159573604E+04  0.13159573604E+04  0.00000000000E+00 0.  1.
         -2   -1    0    0    0  501 -0.00000000000E+00 -0.00000000000E+00 -0.48172332066E+01  0.48172332066E+01  0.00000000000E+00 0. -1.
         23    2    1    2    0    0  0.18317100692E+02  0.30453701066E+02  0.11996317979E+04  0.12037401902E+04  0.92795747775E+02 0.  0.
         13    1    3    3    0    0  0.53534929604E+02  0.27171653753E+01  0.73435615430E+03  0.73630994359E+03  0.00000000000E+00 0. -1.
        -13    1    3    3    0    0 -0.35217828912E+02  0.27736535690E+02  0.46527564363E+03  0.46743024661E+03  0.00000000000E+00 0.  1.
         22    1    1    2    0    0 -0.18317100692E+02 -0.30453701066E+02  0.11150832927E+03  0.11703440342E+03  0.00000000000E+00 0. -1.
<mgrwt>
<rscale>  0 0.76843626E+02</rscale>
<asrwt>0</asrwt>
<pdfrwt beam="1">  1        2 0.20245469E+00 0.99367977E+02</pdfrwt>
<pdfrwt beam="2">  1       -2 0.74111385E-03 0.99367977E+02</pdfrwt>
<totfact> 0.51963677E+04</totfact>
</mgrwt>
</event>
<event>
 6    1  0.2975432E-002  0.1024411E+03  0.7546771E-02  0.1354542E+00
         -2   -1    0    0    0  501 -0.00000000000E+00  0.00000000000E+00  0.82032092959E+01  0.82032092959E+01  0.00000000000E+00 0. -1.
          2   -1    0    0  501    0  0.00000000000E+00 -0.00000000000E+00 -0.52050732204E+03  0.52050732204E+03  0.00000000000E+00 0.  1.
         23    2    1    2    0    0  0.78012520769E+01 -0.23253572100E+02 -0.45479371157E+03  0.46618826016E+03  0.99461478377E+02 0.  0.
         11    1    3    3    0    0 -0.18349742094E+02 -0.35433277858E+02 -0.41565889420E+03  0.41756981039E+03  0.00000000000E+00 0.  1.
        -11    1    3    3    0    0  0.26150994171E+02  0.12179705758E+02 -0.39134817366E+02  0.48618449777E+02  0.00000000000E+00 0. -1.
         22    1    1    2    0    0 -0.78012520769E+01  0.23253572100E+02 -0.57510401172E+02  0.62522271171E+02  0.00000000000E+00 0. -1.
<mgrwt>
<rscale>  0 0.71658548E+02</rscale>
<asrwt>0</asrwt>
<pdfrwt beam="1">  1        2 0.80078041E-01 0.10244107E+03</pdfrwt>
<pdfrwt beam="2">  1       -2 0.12620323E-02 0.10244107E+03</pdfrwt>
<totfact> 0.80171750E+04</totfact>
</mgrwt>
</event>
<event>
 6    1  0.2975432E-002  0.9469386E+02  0.7546771E-02  0.1341053E+00
         -2   -1    0    0    0  501 -0.00000000000E+00  0.00000000000E+00  0.12881045178E+02  0.12881045178E+02  0.00000000000E+00 0.  1.
          2   -1    0    0  501    0  0.00000000000E+00 -0.00000000000E+00 -0.63157921207E+03  0.63157921207E+03  0.00000000000E+00 0. -1.
         23    2    1    2    0    0  0.38787551503E+02  0.50946077844E+01 -0.58562859849E+03  0.59323501411E+03  0.86235128678E+02 0.  0.
         11    1    3    3    0    0 -0.30795951933E+01 -0.35782768900E+02 -0.20157972317E+03  0.20475418250E+03  0.00000000000E+00 0. -1.
        -11    1    3    3    0    0  0.41867146697E+02  0.40877376684E+02 -0.38404887532E+03  0.38848083161E+03  0.00000000000E+00 0.  1.
         22    1    1    2    0    0 -0.38787551503E+02 -0.50946077844E+01 -0.33069568401E+02  0.51225243136E+02  0.00000000000E+00 0.  1.
<mgrwt>
<rscale>  0 0.75917694E+02</rscale>
<asrwt>0</asrwt>
<pdfrwt beam="1">  1        2 0.97166005E-01 0.94693857E+02</pdfrwt>
<pdfrwt beam="2">  1       -2 0.19816998E-02 0.94693857E+02</pdfrwt>
<totfact> 0.33569619E+04</totfact>
</mgrwt>
</event>
<event>
 6    1  0.2975432E-002  0.9154069E+02  0.7546771E-02  0.1396958E+00
          2   -1    0    0  501    0  0.00000000000E+00  0.00000000000E+00  0.49179970507E+03  0.49179970507E+03  0.00000000000E+00 0. -1.
         -2   -1    0    0    0  501 -0.00000000000E+00 -0.00000000000E+00 -0.82492106406E+01  0.82492106406E+01  0.00000000000E+00 0.  1.
         23    2    1    2    0    0 -0.77490175937E+01  0.15278823812E+02  0.46814008985E+03  0.47700612291E+03  0.89923344239E+02 0.  0.
         11    1    3    3    0    0 -0.25210680433E+02 -0.13655828398E+02  0.51061193403E+02  0.58560272616E+02  0.00000000000E+00 0.  1.
        -11    1    3    3    0    0  0.17461662839E+02  0.28934652210E+02  0.41707889645E+03  0.41844585029E+03  0.00000000000E+00 0. -1.
         22    1    1    2    0    0  0.77490175937E+01 -0.15278823812E+02  0.15410404582E+02  0.23042792802E+02  0.00000000000E+00 0.  1.
<mgrwt>
<rscale>  0 0.60208768E+02</rscale>
<asrwt>0</asrwt>
<pdfrwt beam="1">  1        2 0.75661470E-01 0.91540688E+02</pdfrwt>
<pdfrwt beam="2">  1       -2 0.12691097E-02 0.91540688E+02</pdfrwt>
<totfact> 0.83312444E+04</totfact>
</mgrwt>
</event>
<event>
 6    1  0.2975432E-002  0.9980179E+02  0.7546771E-02  0.1381642E+00
          2   -1    0    0  501    0  0.00000000000E+00  0.00000000000E+00  0.83784799264E+02  0.83784799264E+02  0.00000000000E+00 0. -1.
         -2   -1    0    0    0  501 -0.00000000000E+00 -0.00000000000E+00 -0.45223002379E+02  0.45223002379E+02  0.00000000000E+00 0.  1.
         23    2    1    2    0    0  0.21593140434E+01 -0.16775002704E+02  0.46759150857E+02  0.11021259042E+03  0.98358190025E+02 0.  0.
         13    1    3    3    0    0 -0.11749559968E+02 -0.11911928427E+02  0.75812295706E+02  0.77636656152E+02  0.00000000000E+00 0. -1.
        -13    1    3    3    0    0  0.13908874011E+02 -0.48630742772E+01 -0.29053144849E+02  0.32575934266E+02  0.00000000000E+00 0.  1.
         22    1    1    2    0    0 -0.21593140434E+01  0.16775002704E+02 -0.81973539716E+01  0.18795211225E+02  0.00000000000E+00 0. -1.
<mgrwt>
<rscale>  0 0.64034131E+02</rscale>
<asrwt>0</asrwt>
<pdfrwt beam="1">  1        2 0.12889969E-01 0.99801788E+02</pdfrwt>
<pdfrwt beam="2">  1       -2 0.69573850E-02 0.99801788E+02</pdfrwt>
<totfact> 0.48176728E+04</totfact>
</mgrwt>
</event>
<event>
 6    1  0.2975432E-002  0.9090599E+02  0.7546771E-02  0.1410363E+00
          2   -1    0    0  501    0  0.00000000000E+00  0.00000000000E+00  0.19806456095E+02  0.19806456095E+02  0.00000000000E+00 0. -1.
         -2   -1    0    0    0  501 -0.00000000000E+00 -0.00000000000E+00 -0.14388494618E+03  0.14388494618E+03  0.00000000000E+00 0.  1.
         23    2    1    2    0    0  0.37699388115E+01 -0.13652289035E+02 -0.11603241306E+03  0.14740224054E+03  0.89795891901E+02 0.  0.
         11    1    3    3    0    0 -0.37232723095E+02 -0.27525468818E+02 -0.72408200270E+02  0.85946928794E+02  0.00000000000E+00 0. -1.
        -11    1    3    3    0    0  0.41002661907E+02  0.13873179782E+02 -0.43624212787E+02  0.61455311748E+02  0.00000000000E+00 0.  1.
         22    1    1    2    0    0 -0.37699388115E+01  0.13652289035E+02 -0.80460770321E+01  0.16289161739E+02  0.00000000000E+00 0. -1.
<mgrwt>
<rscale>  0 0.57113011E+02</rscale>
<asrwt>0</asrwt>
<pdfrwt beam="1">  1        2 0.30471470E-02 0.90905993E+02</pdfrwt>
<pdfrwt beam="2">  1       -2 0.22136146E-01 0.90905993E+02</pdfrwt>
<totfact> 0.46489899E+04</totfact>
</mgrwt>
</event>
<event>
 6    1  0.2975432E-002  0.9318073E+02  0.7546771E-02  0.1376200E+00
         -4   -1    0    0    0  501 -0.00000000000E+00  0.00000000000E+00  0.40787470691E+02  0.40787470691E+02  0.00000000000E+00 0. -1.
          4   -1    0    0  501    0  0.00000000000E+00 -0.00000000000E+00 -0.82390716441E+02  0.82390716441E+02  0.00000000000E+00 0.  1.
         23    2    1    2    0    0  0.14030593282E+02  0.17861601267E+02 -0.32065836952E+02  0.98543729268E+02  0.90370096442E+02 0.  0.
         11    1    3    3    0    0 -0.31455108771E+01  0.20104248059E+02  0.28798614883E+02  0.35262377229E+02  0.00000000000E+00 0. -1.
        -11    1    3    3    0    0  0.17176104159E+02 -0.22426467916E+01 -0.60864451835E+02  0.63281352039E+02  0.00000000000E+00 0.  1.
         22    1    1    2    0    0 -0.14030593282E+02 -0.17861601267E+02 -0.95374087975E+01  0.24634457864E+02  0.00000000000E+00 0.  1.
<mgrwt>
<rscale>  0 0.65473368E+02</rscale>
<asrwt>0</asrwt>
<pdfrwt beam="1">  1        4 0.12675495E-01 0.93180731E+02</pdfrwt>
<pdfrwt beam="2">  1       -4 0.62749955E-02 0.93180731E+02</pdfrwt>
<totfact> 0.12169197E+04</totfact>
</mgrwt>
</event>
<event>
 6    1  0.2975432E-002  0.9081056E+02  0.7546771E-02  0.1413405E+00
         -3   -1    0    0    0  501 -0.00000000000E+00  0.00000000000E+00  0.67639874584E+02  0.67639874584E+02  0.00000000000E+00 0.  1.
          3   -1    0    0  501    0  0.00000000000E+00 -0.00000000000E+00 -0.67361123517E+02  0.67361123517E+02  0.00000000000E+00 0. -1.
         23    2    1    2    0    0  0.76978791467E+00  0.13528905576E+02 -0.34912845643E+02  0.97290623685E+02  0.89793846151E+02 0.  0.
         11    1    3    3    0    0 -0.38068847937E+02  0.18251831700E+01 -0.41332236081E+02  0.56222079438E+02  0.00000000000E+00 0. -1.
        -11    1    3    3    0    0  0.38838635852E+02  0.11703722407E+02  0.64193904376E+01  0.41068544247E+02  0.00000000000E+00 0.  1.
         22    1    1    2    0    0 -0.76978791467E+00 -0.13528905576E+02  0.35191596711E+02  0.37710374416E+02  0.00000000000E+00 0.  1.
<mgrwt>
<rscale>  0 0.56440834E+02</rscale>
<asrwt>0</asrwt>
<pdfrwt beam="1">  1        3 0.10363250E-01 0.90810565E+02</pdfrwt>
<pdfrwt beam="2">  1       -3 0.10406135E-01 0.90810565E+02</pdfrwt>
<totfact> 0.99065590E+03</totfact>
</mgrwt>
</event>
<event>
 6    1  0.2975432E-002  0.9118147E+02  0.7546771E-02  0.1413606E+00
          4   -1    0    0  501    0  0.00000000000E+00  0.00000000000E+00  0.12077708069E+03  0.12077708069E+03  0.00000000000E+00 0. -1.
         -4   -1    0    0    0  501 -0.00000000000E+00 -0.00000000000E+00 -0.25854467463E+02  0.25854467463E+02  0.00000000000E+00 0.  1.
         23    2    1    2    0    0 -0.13325856846E+02 -0.70466068045E+00  0.96998139723E+02  0.13312662988E+03  0.90199697711E+02 0.  0.
         11    1    3    3    0    0 -0.18585279929E+02  0.43104303370E+02  0.46617286178E+02  0.66155611778E+02  0.00000000000E+00 0.  1.
        -11    1    3    3    0    0  0.52594230827E+01 -0.43808964050E+02  0.50380853544E+02  0.66971018106E+02  0.00000000000E+00 0. -1.
         22    1    1    2    0    0  0.13325856846E+02  0.70466068045E+00 -0.20755264908E+01  0.13504918273E+02  0.00000000000E+00 0. -1.
<mgrwt>
<rscale>  0 0.56396911E+02</rscale>
<asrwt>0</asrwt>
<pdfrwt beam="1">  1        4 0.18581089E-01 0.91181470E+02</pdfrwt>
<pdfrwt beam="2">  1       -4 0.39776105E-02 0.91181470E+02</pdfrwt>
<totfact> 0.12877779E+04</totfact>
</mgrwt>
</event>
<event>
 6    1  0.2975432E-002  0.9479769E+02  0.7546771E-02  0.1371337E+00
         -2   -1    0    0    0  501 -0.00000000000E+00  0.00000000000E+00  0.52218030324E+01  0.52218030324E+01  0.00000000000E+00 0. -1.
          2   -1    0    0  501    0  0.00000000000E+00 -0.00000000000E+00 -0.12856823309E+04  0.12856823309E+04  0.00000000000E+00 0.  1.
         23    2    1    2    0    0  0.15425414820E+02  0.17554153637E+02 -0.12439405259E+04  0.12475474473E+04  0.91872245746E+02 0.  0.
         11    1    3    3    0    0  0.28999342193E+02 -0.20743334705E+02 -0.96547865876E+03  0.96613678550E+03  0.00000000000E+00 0.  1.
        -11    1    3    3    0    0 -0.13573927372E+02  0.38297488342E+02 -0.27846186716E+03  0.28141066180E+03  0.00000000000E+00 0. -1.
         22    1    1    2    0    0 -0.15425414820E+02 -0.17554153637E+02 -0.36520001942E+02  0.43356686614E+02  0.00000000000E+00 0. -1.
<mgrwt>
<rscale>  0 0.66796930E+02</rscale>
<asrwt>0</asrwt>
<pdfrwt beam="1">  1        2 0.19779757E+00 0.94797686E+02</pdfrwt>
<pdfrwt beam="2">  1       -2 0.80335315E-03 0.94797686E+02</pdfrwt>
<totfact> 0.47892194E+04</totfact>
</mgrwt>
</event>
<event>
 6    1  0.2975432E-002  0.9568268E+02  0.7546771E-02  0.1369928E+00
          1   -1    0    0  501    0  0.00000000000E+00  0.00000000000E+00  0.55819482262E+03  0.55819482262E+03  0.00000000000E+00 0. -1.
         -1   -1    0    0    0  501 -0.00000000000E+00 -0.00000000000E+00 -0.75964320730E+01  0.75964320730E+01  0.00000000000E+00 0.  1.
         23    2    1    2    0    0 -0.12332164304E+02 -0.19724086324E+02  0.51087367997E+03  0.51975676232E+03  0.92811923977E+02 0.  0.
         11    1    3    3    0    0  0.24734947070E+02  0.21226457307E+02  0.99773958521E+02  0.10496295963E+03  0.00000000000E+00 0. -1.
        -11    1    3    3    0    0 -0.37067111374E+02 -0.40950543632E+02  0.41109972145E+03  0.41479380269E+03  0.00000000000E+00 0.  1.
         22    1    1    2    0    0  0.12332164304E+02  0.19724086324E+02  0.39724710579E+02  0.46034492376E+02  0.00000000000E+00 0. -1.
<mgrwt>
<rscale>  0 0.67187252E+02</rscale>
<asrwt>0</asrwt>
<pdfrwt beam="1">  1        1 0.85876094E-01 0.95682679E+02</pdfrwt>
<pdfrwt beam="2">  1       -1 0.11686823E-02 0.95682679E+02</pdfrwt>
<totfact> 0.51949876E+04</totfact>
</mgrwt>
</event>
<event>
 6    1  0.2975432E-002  0.1035907E+03  0.7546771E-02  0.1330133E+00
          2   -1    0    0  501    0  0.00000000000E+00  0.00000000000E+00  0.16825137196E+04  0.16825137196E+04  0.00000000000E+00 0. -1.
         -2   -1    0    0    0  501 -0.00000000000E+00 -0.00000000000E+00 -0.33269933096E+01  0.33269933096E+01  0.00000000000E+00 0.  1.
         23    2    1    2    0    0 -0.36150720911E+02 -0.26183048474E+00  0.14620320608E+04  0.14656973689E+04  0.97077737665E+02 0.  0.
         11    1    3    3    0    0 -0.36783142913E+01  0.44878624957E+02  0.83137672362E+03  0.83259526636E+03  0.00000000000E+00 0. -1.
        -11    1    3    3    0    0 -0.32472406619E+02 -0.45140455442E+02  0.63065533717E+03  0.63310210252E+03  0.00000000000E+00 0.  1.
         22    1    1    2    0    0  0.36150720911E+02  0.26183048474E+00  0.21715466553E+03  0.22014334408E+03  0.00000000000E+00 0.  1.
<mgrwt>
<rscale>  0 0.79620082E+02</rscale>
<asrwt>0</asrwt>
<pdfrwt beam="1">  1        2 0.25884758E+00 0.10359069E+03</pdfrwt>
<pdfrwt beam="2">  1       -2 0.51184647E-03 0.10359069E+03</pdfrwt>
<totfact> 0.56903719E+04</totfact>
</mgrwt>
</event>
<event>
 6    1  0.2975432E-002  0.1183235E+03  0.7546771E-02  0.1267525E+00
          2   -1    0    0  501    0  0.00000000000E+00  0.00000000000E+00  0.15449970963E+04  0.15449970963E+04  0.00000000000E+00 0. -1.
         -2   -1    0    0    0  501 -0.00000000000E+00 -0.00000000000E+00 -0.67331575185E+01  0.67331575185E+01  0.00000000000E+00 0.  1.
         23    2    1    2    0    0 -0.45672875983E+02 -0.62187852206E+02  0.11350225728E+04  0.11411733883E+04  0.89705746191E+02 0.  0.
         11    1    3    3    0    0  0.59590238747E+01  0.10048266793E+02  0.24886481096E+02  0.27492081996E+02  0.00000000000E+00 0.  1.
        -11    1    3    3    0    0 -0.51631899858E+02 -0.72236119000E+02  0.11101360917E+04  0.11136813063E+04  0.00000000000E+00 0. -1.
         22    1    1    2    0    0  0.45672875983E+02  0.62187852206E+02  0.40324136596E+03  0.41055686547E+03  0.00000000000E+00 0.  1.
<mgrwt>
<rscale>  0 0.10632820E+03</rscale>
<asrwt>0</asrwt>
<pdfrwt beam="1">  1        2 0.23769158E+00 0.11832355E+03</pdfrwt>
<pdfrwt beam="2">  1       -2 0.10358716E-02 0.11832355E+03</pdfrwt>
<totfact> 0.24908940E+04</totfact>
</mgrwt>
</event>
<event>
 6    1  0.2975432E-002  0.1068473E+03  0.7546771E-02  0.1300857E+00
         -2   -1    0    0    0  501 -0.00000000000E+00  0.00000000000E+00  0.79082050402E+01  0.79082050402E+01  0.00000000000E+00 0.  1.
          2   -1    0    0  501    0  0.00000000000E+00 -0.00000000000E+00 -0.12469469436E+04  0.12469469436E+04  0.00000000000E+00 0. -1.
         23    2    1    2    0    0 -0.51525289398E+02  0.21409637956E+02 -0.10979111974E+04  0.11030980700E+04  0.91121493664E+02 0.  0.
         13    1    3    3    0    0 -0.21525002966E+02 -0.34781343351E+02 -0.54420968236E+03  0.54574467104E+03  0.00000000000E+00 0. -1.
        -13    1    3    3    0    0 -0.30000286432E+02  0.56190981307E+02 -0.55370151502E+03  0.55735339894E+03  0.00000000000E+00 0.  1.
         22    1    1    2    0    0  0.51525289398E+02 -0.21409637956E+02 -0.14112754117E+03  0.15175707865E+03  0.00000000000E+00 0.  1.
<mgrwt>
<rscale>  0 0.90828922E+02</rscale>
<asrwt>0</asrwt>
<pdfrwt beam="1">  1        2 0.19183791E+00 0.10684734E+03</pdfrwt>
<pdfrwt beam="2">  1       -2 0.12166474E-02 0.10684734E+03</pdfrwt>
<totfact> 0.28179171E+04</totfact>
</mgrwt>
</event>
<event>
 6    1  0.2975432E-002  0.9686809E+02  0.7546771E-02  0.1358750E+00
          4   -1    0    0  501    0  0.00000000000E+00  0.00000000000E+00  0.11252576053E+03  0.11252576053E+03  0.00000000000E+00 0. -1.
         -4   -1    0    0    0  501 -0.00000000000E+00 -0.00000000000E+00 -0.52639053709E+02  0.52639053709E+02  0.00000000000E+00 0.  1.
         23    2    1    2    0    0  0.23605875092E+02 -0.13143705338E+02  0.84553813033E+02  0.12857983839E+03  0.93023831421E+02 0.  0.
         13    1    3    3    0    0  0.47324085977E+02 -0.13117115457E+02  0.91517154738E+02  0.10386056731E+03  0.00000000000E+00 0. -1.
        -13    1    3    3    0    0 -0.23718210885E+02 -0.26589880684E-01 -0.69633417054E+01  0.24719271072E+02  0.00000000000E+00 0.  1.
         22    1    1    2    0    0 -0.23605875092E+02  0.13143705338E+02 -0.24667106215E+02  0.36584975849E+02  0.00000000000E+00 0.  1.
<mgrwt>
<rscale>  0 0.70396408E+02</rscale>
<asrwt>0</asrwt>
<pdfrwt beam="1">  1        4 0.17311655E-01 0.96868094E+02</pdfrwt>
<pdfrwt beam="2">  1       -4 0.80983160E-02 0.96868094E+02</pdfrwt>
<totfact> 0.47327523E+03</totfact>
</mgrwt>
</event>
<event>
 6    1  0.2975432E-002  0.9438772E+02  0.7546771E-02  0.1387203E+00
         -2   -1    0    0    0  501 -0.00000000000E+00  0.00000000000E+00  0.11573918671E+03  0.11573918671E+03  0.00000000000E+00 0.  1.
          2   -1    0    0  501    0  0.00000000000E+00 -0.00000000000E+00 -0.41672366283E+02  0.41672366283E+02  0.00000000000E+00 0. -1.
         23    2    1    2    0    0 -0.17281296090E+02 -0.59325565141E+01  0.14986018657E+02  0.95569984780E+02  0.92602390975E+02 0.  0.
         11    1    3    3    0    0 -0.33672689224E+02 -0.18213002268E+01 -0.31476554998E+02  0.46129607073E+02  0.00000000000E+00 0. -1.
        -11    1    3    3    0    0  0.16391393134E+02 -0.41112562873E+01  0.46462573655E+02  0.49440377707E+02  0.00000000000E+00 0.  1.
         22    1    1    2    0    0  0.17281296090E+02  0.59325565141E+01  0.59080801774E+02  0.61841568218E+02  0.00000000000E+00 0.  1.
<mgrwt>
<rscale>  0 0.62607830E+02</rscale>
<asrwt>0</asrwt>
<pdfrwt beam="1">  1        2 0.64111333E-02 0.94387718E+02</pdfrwt>
<pdfrwt beam="2">  1       -2 0.17806029E-01 0.94387718E+02</pdfrwt>
<totfact> 0.25591599E+04</totfact>
</mgrwt>
</event>
<event>
 6    1  0.2975432E-002  0.9573923E+02  0.7546771E-02  0.1356818E+00
          1   -1    0    0  501    0  0.00000000000E+00  0.00000000000E+00  0.46625095285E+02  0.46625095285E+02  0.00000000000E+00 0. -1.
         -1   -1    0    0    0  501 -0.00000000000E+00 -0.00000000000E+00 -0.86604831199E+02  0.86604831199E+02  0.00000000000E+00 0.  1.
         23    2    1    2    0    0  0.26632608196E+02 -0.11252650223E+02 -0.19253207511E+02  0.97655962185E+02  0.91269288342E+02 0.  0.
         11    1    3    3    0    0  0.41108675217E+01 -0.27487701063E+02 -0.49394248791E+02  0.56676844964E+02  0.00000000000E+00 0.  1.
        -11    1    3    3    0    0  0.22521740674E+02  0.16235050840E+02  0.30141041279E+02  0.40979117220E+02  0.00000000000E+00 0. -1.
         22    1    1    2    0    0 -0.26632608196E+02  0.11252650223E+02 -0.20726528403E+02  0.35573964300E+02  0.00000000000E+00 0.  1.
<mgrwt>
<rscale>  0 0.70972143E+02</rscale>
<asrwt>0</asrwt>
<pdfrwt beam="1">  1        1 0.71730917E-02 0.95739234E+02</pdfrwt>
<pdfrwt beam="2">  1       -1 0.13323820E-01 0.95739234E+02</pdfrwt>
<totfact> 0.34310995E+04</totfact>
</mgrwt>
</event>
<event>
 6    1  0.2975432E-002  0.9152466E+02  0.7546771E-02  0.1411683E+00
          2   -1    0    0  501    0  0.00000000000E+00  0.00000000000E+00  0.11932526524E+04  0.11932526524E+04  0.00000000000E+00 0. -1.
         -2   -1    0    0    0  501 -0.00000000000E+00 -0.00000000000E+00 -0.36478128830E+01  0.36478128830E+01  0.00000000000E+00 0.  1.
         23    2    1    2    0    0  0.27426019907E+00  0.13592580673E+02  0.11665550723E+04  0.11701399489E+04  0.90509280397E+02 0.  0.
         13    1    3    3    0    0 -0.17110319590E+02  0.45854096957E+02  0.45117673614E+03  0.45382354333E+03  0.00000000000E+00 0.  1.
        -13    1    3    3    0    0  0.17384579789E+02 -0.32261516285E+02  0.71537833618E+03  0.71631640560E+03  0.00000000000E+00 0. -1.
         22    1    1    2    0    0 -0.27426019907E+00 -0.13592580673E+02  0.23049767182E+02  0.26760516347E+02  0.00000000000E+00 0.  1.
<mgrwt>
<rscale>  0 0.56819992E+02</rscale>
<asrwt>0</asrwt>
<pdfrwt beam="1">  1        2 0.18357702E+00 0.91524660E+02</pdfrwt>
<pdfrwt beam="2">  1       -2 0.56120293E-03 0.91524660E+02</pdfrwt>
<totfact> 0.88634631E+04</totfact>
</mgrwt>
</event>
<event>
 6    1  0.2975432E-002  0.9430602E+02  0.7546771E-02  0.1370022E+00
          1   -1    0    0  501    0  0.00000000000E+00  0.00000000000E+00  0.11230938707E+02  0.11230938707E+02  0.00000000000E+00 0. -1.
         -1   -1    0    0    0  501 -0.00000000000E+00 -0.00000000000E+00 -0.31296002597E+03  0.31296002597E+03  0.00000000000E+00 0.  1.
         23    2    1    2    0    0 -0.15711093354E+02 -0.18482452568E+02 -0.23843673330E+03  0.25640924459E+03  0.91132790031E+02 0.  0.
         11    1    3    3    0    0  0.15140351728E+02 -0.42497935426E+02 -0.18360432160E+03  0.18906573375E+03  0.00000000000E+00 0.  1.
        -11    1    3    3    0    0 -0.30851445083E+02  0.24015482859E+02 -0.54832411699E+02  0.67343510848E+02  0.00000000000E+00 0. -1.
         22    1    1    2    0    0  0.15711093354E+02  0.18482452568E+02 -0.63292353961E+02  0.67781720082E+02  0.00000000000E+00 0. -1.
<mgrwt>
<rscale>  0 0.67161020E+02</rscale>
<asrwt>0</asrwt>
<pdfrwt beam="1">  1        1 0.17278369E-02 0.94306017E+02</pdfrwt>
<pdfrwt beam="2">  1       -1 0.48147690E-01 0.94306017E+02</pdfrwt>
<totfact> 0.28923100E+04</totfact>
</mgrwt>
</event>
<event>
 6    1  0.2975432E-002  0.9166102E+02  0.7546771E-02  0.1399224E+00
         -2   -1    0    0    0  501 -0.00000000000E+00  0.00000000000E+00  0.30012879810E+01  0.30012879810E+01  0.00000000000E+00 0.  1.
          2   -1    0    0  501    0  0.00000000000E+00 -0.00000000000E+00 -0.11101522494E+04  0.11101522494E+04  0.00000000000E+00 0. -1.
         23    2    1    2    0    0  0.16346706753E+02  0.19355468251E+01 -0.10393079741E+04  0.10433421337E+04  0.90170846991E+02 0.  0.
         11    1    3    3    0    0  0.83932445950E+00  0.92987019116E+01 -0.10043812472E+04  0.10044246413E+04  0.00000000000E+00 0. -1.
        -11    1    3    3    0    0  0.15507382294E+02 -0.73631550866E+01 -0.34926726897E+02  0.38917492342E+02  0.00000000000E+00 0.  1.
         22    1    1    2    0    0 -0.16346706753E+02 -0.19355468251E+01 -0.67842987289E+02  0.69811403707E+02  0.00000000000E+00 0.  1.
<mgrwt>
<rscale>  0 0.59669431E+02</rscale>
<asrwt>0</asrwt>
<pdfrwt beam="1">  1        2 0.17079282E+00 0.91661021E+02</pdfrwt>
<pdfrwt beam="2">  1       -2 0.46173616E-03 0.91661021E+02</pdfrwt>
<totfact> 0.12951090E+05</totfact>
</mgrwt>
</event>
<event>
 6    1  0.2975432E-002  0.9177141E+02  0.7546771E-02  0.1392428E+00
         -2   -1    0    0    0  501 -0.00000000000E+00  0.00000000000E+00  0.56031017946E+02  0.56031017946E+02  0.00000000000E+00 0.  1.
          2   -1    0    0  501    0  0.00000000000E+00 -0.00000000000E+00 -0.55366810370E+02  0.55366810370E+02  0.00000000000E+00 0. -1.
         23    2    1    2    0    0  0.18127351635E+02  0.23372273562E+01 -0.59410389771E+01  0.91963508388E+02  0.89932905112E+02 0.  0.
         11    1    3    3    0    0  0.10175006232E+02  0.37663975859E+02  0.23280901245E+02  0.45432435463E+02  0.00000000000E+00 0.  1.
        -11    1    3    3    0    0  0.79523454033E+01 -0.35326748503E+02 -0.29221940223E+02  0.46531072925E+02  0.00000000000E+00 0. -1.
         22    1    1    2    0    0 -0.18127351635E+02 -0.23372273562E+01  0.66052465537E+01  0.19434319928E+02  0.00000000000E+00 0. -1.
<mgrwt>
<rscale>  0 0.61306873E+02</rscale>
<asrwt>0</asrwt>
<pdfrwt beam="1">  1        2 0.85179708E-02 0.91771406E+02</pdfrwt>
<pdfrwt beam="2">  1       -2 0.86201566E-02 0.91771406E+02</pdfrwt>
<totfact> 0.56618842E+04</totfact>
</mgrwt>
</event>
<event>
 6    1  0.2975432E-002  0.9129240E+02  0.7546771E-02  0.1420712E+00
         -2   -1    0    0    0  501 -0.00000000000E+00  0.00000000000E+00  0.60570847743E+02  0.60570847743E+02  0.00000000000E+00 0.  1.
          2   -1    0    0  501    0  0.00000000000E+00 -0.00000000000E+00 -0.46473171778E+02  0.46473171778E+02  0.00000000000E+00 0. -1.
         23    2    1    2    0    0  0.11886696421E+02  0.80394386426E+00  0.39228646646E+01  0.91376643782E+02  0.90511669325E+02 0.  0.
         11    1    3    3    0    0  0.27477559884E+01 -0.30455761418E+02 -0.31055358683E+02  0.43583699584E+02  0.00000000000E+00 0. -1.
        -11    1    3    3    0    0  0.91389404326E+01  0.31259705282E+02  0.34978223348E+02  0.47792944198E+02  0.00000000000E+00 0.  1.
         22    1    1    2    0    0 -0.11886696421E+02 -0.80394386426E+00  0.10174811301E+02  0.15667375739E+02  0.00000000000E+00 0. -1.
<mgrwt>
<rscale>  0 0.54870513E+02</rscale>
<asrwt>0</asrwt>
<pdfrwt beam="1">  1        2 0.71497187E-02 0.91292399E+02</pdfrwt>
<pdfrwt beam="2">  1       -2 0.93185920E-02 0.91292399E+02</pdfrwt>
<totfact> 0.62374822E+04</totfact>
</mgrwt>
</event>
<event>
 6    1  0.2975432E-002  0.1018063E+03  0.7546771E-02  0.1324016E+00
         -2   -1    0    0    0  501 -0.00000000000E+00  0.00000000000E+00  0.21814089608E+02  0.21814089608E+02  0.00000000000E+00 0. -1.
          2   -1    0    0  501    0  0.00000000000E+00 -0.00000000000E+00 -0.26014930141E+03  0.26014930141E+03  0.00000000000E+00 0.  1.
         23    2    1    2    0    0  0.18116552349E+02 -0.38372687648E+02 -0.12669438454E+03  0.16252994956E+03  0.92541043889E+02 0.  0.
         11    1    3    3    0    0  0.28689153150E+02  0.18343542500E+02 -0.84352225861E+02  0.90966208383E+02  0.00000000000E+00 0.  1.
        -11    1    3    3    0    0 -0.10572600801E+02 -0.56716230147E+02 -0.42342158678E+02  0.71563741178E+02  0.00000000000E+00 0. -1.
         22    1    1    2    0    0 -0.18116552349E+02  0.38372687648E+02 -0.11164082726E+03  0.11943344146E+03  0.00000000000E+00 0.  1.
<mgrwt>
<rscale>  0 0.81801309E+02</rscale>
<asrwt>0</asrwt>
<pdfrwt beam="1">  1        2 0.40022969E-01 0.10180627E+03</pdfrwt>
<pdfrwt beam="2">  1       -2 0.33560139E-02 0.10180627E+03</pdfrwt>
<totfact> 0.40722751E+04</totfact>
</mgrwt>
</event>
<event>
 6    1  0.2975432E-002  0.9566774E+02  0.7546771E-02  0.1382437E+00
         -2   -1    0    0    0  501 -0.00000000000E+00  0.00000000000E+00  0.15945846394E+02  0.15945846394E+02  0.00000000000E+00 0.  1.
          2   -1    0    0  501    0  0.00000000000E+00 -0.00000000000E+00 -0.42997533738E+03  0.42997533738E+03  0.00000000000E+00 0. -1.
         23    2    1    2    0    0 -0.91565847739E+01  0.16597165434E+02 -0.41600457377E+03  0.42686311732E+03  0.93771032767E+02 0.  0.
         11    1    3    3    0    0 -0.87362435112E+01  0.12924505942E+02 -0.42064280748E+03  0.42093198535E+03  0.00000000000E+00 0. -1.
        -11    1    3    3    0    0 -0.42034126266E+00  0.36726594924E+01  0.46382337103E+01  0.59311319726E+01  0.00000000000E+00 0.  1.
         22    1    1    2    0    0  0.91565847739E+01 -0.16597165434E+02  0.19750827783E+01  0.19058066459E+02  0.00000000000E+00 0.  1.
<mgrwt>
<rscale>  0 0.63827469E+02</rscale>
<asrwt>0</asrwt>
<pdfrwt beam="1">  1        2 0.66150052E-01 0.95667735E+02</pdfrwt>
<pdfrwt beam="2">  1       -2 0.24532071E-02 0.95667735E+02</pdfrwt>
<totfact> 0.37605122E+04</totfact>
</mgrwt>
</event>
<event>
 6    1  0.2975432E-002  0.9428750E+02  0.7546771E-02  0.1367263E+00
          1   -1    0    0  501    0  0.00000000000E+00  0.00000000000E+00  0.24450290223E+02  0.24450290223E+02  0.00000000000E+00 0. -1.
         -1   -1    0    0    0  501 -0.00000000000E+00 -0.00000000000E+00 -0.21934603429E+03  0.21934603429E+03  0.00000000000E+00 0.  1.
         23    2    1    2    0    0 -0.23320838671E+02 -0.10086911352E+02 -0.19689743276E+03  0.21830879709E+03  0.90799364323E+02 0.  0.
         13    1    3    3    0    0 -0.52906380136E+02  0.15485559741E+02 -0.11886286757E+03  0.13102392494E+03  0.00000000000E+00 0.  1.
        -13    1    3    3    0    0  0.29585541465E+02 -0.25572471093E+02 -0.78034565185E+02  0.87284872144E+02  0.00000000000E+00 0. -1.
         22    1    1    2    0    0  0.23320838671E+02  0.10086911352E+02  0.20016886870E+01  0.25487527431E+02  0.00000000000E+00 0. -1.
<mgrwt>
<rscale>  0 0.67933913E+02</rscale>
<asrwt>0</asrwt>
<pdfrwt beam="1">  1        1 0.37615831E-02 0.94287496E+02</pdfrwt>
<pdfrwt beam="2">  1       -1 0.33745543E-01 0.94287496E+02</pdfrwt>
<totfact> 0.18428998E+04</totfact>
</mgrwt>
</event>
<event>
 6    1  0.2975432E-002  0.9272949E+02  0.7546771E-02  0.1418169E+00
         -2   -1    0    0    0  501 -0.00000000000E+00  0.00000000000E+00  0.50094406578E+02  0.50094406578E+02  0.00000000000E+00 0.  1.
          2   -1    0    0  501    0  0.00000000000E+00 -0.00000000000E+00 -0.10509206651E+03  0.10509206651E+03  0.00000000000E+00 0. -1.
         23    2    1    2    0    0  0.69204212387E+01  0.95852539412E+01 -0.83214523863E+02  0.12459299774E+03  0.91972761086E+02 0.  0.
         11    1    3    3    0    0 -0.17043622556E+02 -0.12094284489E+01 -0.94468930644E+02  0.96001701256E+02  0.00000000000E+00 0. -1.
        -11    1    3    3    0    0  0.23964043794E+02  0.10794682390E+02  0.11254406781E+02  0.28591296488E+02  0.00000000000E+00 0.  1.
         22    1    1    2    0    0 -0.69204212387E+01 -0.95852539412E+01  0.28216863934E+02  0.30593475342E+02  0.00000000000E+00 0.  1.
<mgrwt>
<rscale>  0 0.55410221E+02</rscale>
<asrwt>0</asrwt>
<pdfrwt beam="1">  1        2 0.16168010E-01 0.92729489E+02</pdfrwt>
<pdfrwt beam="2">  1       -2 0.77068319E-02 0.92729489E+02</pdfrwt>
<totfact> 0.31380263E+04</totfact>
</mgrwt>
</event>
<event>
 6    1  0.2975432E-002  0.9188378E+02  0.7546771E-02  0.1427946E+00
         -2   -1    0    0    0  501 -0.00000000000E+00  0.00000000000E+00  0.76659557211E+01  0.76659557211E+01  0.00000000000E+00 0.  1.
          2   -1    0    0  501    0  0.00000000000E+00 -0.00000000000E+00 -0.45474236419E+03  0.45474236419E+03  0.00000000000E+00 0. -1.
         23    2    1    2    0    0 -0.42222268975E+01  0.95722738389E+01 -0.44065504205E+03  0.45013275177E+03  0.91286212050E+02 0.  0.
         13    1    3    3    0    0  0.32537772215E+02  0.34310120377E+02 -0.20958766834E+03  0.21485549028E+03  0.00000000000E+00 0.  1.
        -13    1    3    3    0    0 -0.36759999113E+02 -0.24737846538E+02 -0.23106737370E+03  0.23527726149E+03  0.00000000000E+00 0. -1.
         22    1    1    2    0    0  0.42222268975E+01 -0.95722738389E+01 -0.64213664238E+01  0.12275568140E+02  0.00000000000E+00 0. -1.
<mgrwt>
<rscale>  0 0.53374508E+02</rscale>
<asrwt>0</asrwt>
<pdfrwt beam="1">  1        2 0.69960367E-01 0.91883775E+02</pdfrwt>
<pdfrwt beam="2">  1       -2 0.11793777E-02 0.91883775E+02</pdfrwt>
<totfact> 0.10061867E+05</totfact>
</mgrwt>
</event>
<event>
 6    1  0.2975432E-002  0.9675008E+02  0.7546771E-02  0.1348983E+00
          2   -1    0    0  501    0  0.00000000000E+00  0.00000000000E+00  0.85732981286E+01  0.85732981286E+01  0.00000000000E+00 0. -1.
         -2   -1    0    0    0  501 -0.00000000000E+00 -0.00000000000E+00 -0.13921885938E+04  0.13921885938E+04  0.00000000000E+00 0.  1.
         23    2    1    2    0    0  0.31963922884E+02  0.16010545307E+01 -0.13530577291E+04  0.13565123651E+04  0.91303465949E+02 0.  0.
         13    1    3    3    0    0 -0.27842507905E+01  0.41109472077E+02 -0.76368605923E+03  0.76479679511E+03  0.00000000000E+00 0. -1.
        -13    1    3    3    0    0  0.34748173675E+02 -0.39508417546E+02 -0.58937166982E+03  0.59171557003E+03  0.00000000000E+00 0.  1.
         22    1    1    2    0    0 -0.31963922884E+02 -0.16010545307E+01 -0.30557566569E+02  0.44249526736E+02  0.00000000000E+00 0. -1.
<mgrwt>
<rscale>  0 0.73373555E+02</rscale>
<asrwt>0</asrwt>
<pdfrwt beam="1">  1        2 0.13189696E-02 0.96750083E+02</pdfrwt>
<pdfrwt beam="2">  1       -2 0.21418276E+00 0.96750083E+02</pdfrwt>
<totfact> 0.10885010E+03</totfact>
</mgrwt>
</event>
<event>
 6    1  0.2975432E-002  0.8944369E+02  0.7546771E-02  0.1413466E+00
          4   -1    0    0  501    0  0.00000000000E+00  0.00000000000E+00  0.15282992066E+02  0.15282992066E+02  0.00000000000E+00 0.  1.
         -4   -1    0    0    0  501 -0.00000000000E+00 -0.00000000000E+00 -0.19169938929E+03  0.19169938929E+03  0.00000000000E+00 0. -1.
         23    2    1    2    0    0  0.11912111698E+02  0.76706873451E+01 -0.12536765278E+03  0.15400396916E+03  0.88314417305E+02 0.  0.
         13    1    3    3    0    0  0.83197834985E+01 -0.40387592946E+02 -0.59248319412E+02  0.72185454314E+02  0.00000000000E+00 0. -1.
        -13    1    3    3    0    0  0.35923282000E+01  0.48058280291E+02 -0.66119333364E+02  0.81818514842E+02  0.00000000000E+00 0.  1.
         22    1    1    2    0    0 -0.11912111698E+02 -0.76706873451E+01 -0.51048744449E+02  0.52978412201E+02  0.00000000000E+00 0.  1.
<mgrwt>
<rscale>  0 0.56427518E+02</rscale>
<asrwt>0</asrwt>
<pdfrwt beam="1">  1        4 0.23512297E-02 0.89443693E+02</pdfrwt>
<pdfrwt beam="2">  1       -4 0.29492212E-01 0.89443693E+02</pdfrwt>
<totfact> 0.12522995E+04</totfact>
</mgrwt>
</event>
<event>
 6    1  0.2975432E-002  0.9405685E+02  0.7546771E-02  0.1402074E+00
          2   -1    0    0  501    0  0.00000000000E+00  0.00000000000E+00  0.45598947042E+03  0.45598947042E+03  0.00000000000E+00 0. -1.
         -2   -1    0    0    0  501 -0.00000000000E+00 -0.00000000000E+00 -0.69571481448E+01  0.69571481448E+01  0.00000000000E+00 0.  1.
         23    2    1    2    0    0 -0.20821425354E+01 -0.14413652074E+02  0.42075191100E+03  0.43113670902E+03  0.92922562205E+02 0.  0.
         11    1    3    3    0    0  0.16050376071E+02 -0.31969608729E+02  0.38869025202E+03  0.39033291236E+03  0.00000000000E+00 0. -1.
        -11    1    3    3    0    0 -0.18132518606E+02  0.17555956655E+02  0.32061658977E+02  0.40803796654E+02  0.00000000000E+00 0.  1.
         22    1    1    2    0    0  0.20821425354E+01  0.14413652074E+02  0.28280411273E+02  0.31809909547E+02  0.00000000000E+00 0. -1.
<mgrwt>
<rscale>  0 0.59000747E+02</rscale>
<asrwt>0</asrwt>
<pdfrwt beam="1">  1        2 0.70152203E-01 0.94056851E+02</pdfrwt>
<pdfrwt beam="2">  1       -2 0.10703308E-02 0.94056851E+02</pdfrwt>
<totfact> 0.11552737E+05</totfact>
</mgrwt>
</event>
<event>
 6    1  0.2975432E-002  0.9083085E+02  0.7546771E-02  0.1426680E+00
         -2   -1    0    0    0  501 -0.00000000000E+00  0.00000000000E+00  0.96087421441E+01  0.96087421441E+01  0.00000000000E+00 0.  1.
          2   -1    0    0  501    0  0.00000000000E+00 -0.00000000000E+00 -0.27001644931E+03  0.27001644931E+03  0.00000000000E+00 0. -1.
         23    2    1    2    0    0 -0.69635517320E+01  0.85679754889E+01 -0.23178102860E+03  0.24894314488E+03  0.90157323072E+02 0.  0.
         11    1    3    3    0    0  0.16668362986E+02  0.20457313353E+02 -0.14601879625E+02  0.30158761295E+02  0.00000000000E+00 0.  1.
        -11    1    3    3    0    0 -0.23631914718E+02 -0.11889337864E+02 -0.21717914898E+03  0.21878438358E+03  0.00000000000E+00 0. -1.
         22    1    1    2    0    0  0.69635517320E+01 -0.85679754889E+01 -0.28626678560E+02  0.30682046576E+02  0.00000000000E+00 0.  1.
<mgrwt>
<rscale>  0 0.53632257E+02</rscale>
<asrwt>0</asrwt>
<pdfrwt beam="1">  1        2 0.41540994E-01 0.90830855E+02</pdfrwt>
<pdfrwt beam="2">  1       -2 0.14782680E-02 0.90830855E+02</pdfrwt>
<totfact> 0.12590340E+05</totfact>
</mgrwt>
</event>
<event>
 6    1  0.2975432E-002  0.9128505E+02  0.7546771E-02  0.1385175E+00
         -1   -1    0    0    0  501 -0.00000000000E+00  0.00000000000E+00  0.91149195853E+02  0.91149195853E+02  0.00000000000E+00 0.  1.
          1   -1    0    0  501    0  0.00000000000E+00 -0.00000000000E+00 -0.49899995249E+02  0.49899995249E+02  0.00000000000E+00 0. -1.
         23    2    1    2    0    0 -0.20860491528E+02  0.66397567073E+00 -0.38379272268E+01  0.91365692165E+02  0.88867086421E+02 0.  0.
         11    1    3    3    0    0 -0.26988296050E+01 -0.23839796887E+02  0.34719811009E+02  0.42202901243E+02  0.00000000000E+00 0.  1.
        -11    1    3    3    0    0 -0.18161661924E+02  0.24503772558E+02 -0.38557738236E+02  0.49162790922E+02  0.00000000000E+00 0. -1.
         22    1    1    2    0    0  0.20860491528E+02 -0.66397567073E+00  0.45087127831E+02  0.49683498937E+02  0.00000000000E+00 0. -1.
<mgrwt>
<rscale>  0 0.63122740E+02</rscale>
<asrwt>0</asrwt>
<pdfrwt beam="1">  1        1 0.76769223E-02 0.91285048E+02</pdfrwt>
<pdfrwt beam="2">  1       -1 0.14022953E-01 0.91285048E+02</pdfrwt>
<totfact> 0.28797746E+04</totfact>
</mgrwt>
</event>
<event>
 6    1  0.2975432E-002  0.9154946E+02  0.7546771E-02  0.1420253E+00
         -2   -1    0    0    0  501 -0.00000000000E+00  0.00000000000E+00  0.12859433658E+02  0.12859433658E+02  0.00000000000E+00 0.  1.
          2   -1    0    0  501    0  0.00000000000E+00 -0.00000000000E+00 -0.47254993027E+03  0.47254993027E+03  0.00000000000E+00 0. -1.
         23    2    1    2    0    0 -0.85044740798E+01  0.83199373237E+01 -0.46385583368E+03  0.47280390998E+03  0.90773098555E+02 0.  0.
         11    1    3    3    0    0 -0.11621651042E+02  0.31043962087E+02 -0.43345680440E+03  0.43472243056E+03  0.00000000000E+00 0. -1.
        -11    1    3    3    0    0  0.31171769623E+01 -0.22724024763E+02 -0.30399029279E+02  0.38081479419E+02  0.00000000000E+00 0.  1.
         22    1    1    2    0    0  0.85044740798E+01 -0.83199373237E+01  0.41653370609E+01  0.12605453950E+02  0.00000000000E+00 0.  1.
<mgrwt>
<rscale>  0 0.54967322E+02</rscale>
<asrwt>0</asrwt>
<pdfrwt beam="1">  1        2 0.72699983E-01 0.91549456E+02</pdfrwt>
<pdfrwt beam="2">  1       -2 0.19783746E-02 0.91549456E+02</pdfrwt>
<totfact> 0.46120672E+04</totfact>
</mgrwt>
</event>
<event>
 6    1  0.2975432E-002  0.9226716E+02  0.7546771E-02  0.1411335E+00
          3   -1    0    0  501    0  0.00000000000E+00  0.00000000000E+00  0.45211487455E+02  0.45211487455E+02  0.00000000000E+00 0. -1.
         -3   -1    0    0    0  501 -0.00000000000E+00 -0.00000000000E+00 -0.10110115487E+03  0.10110115487E+03  0.00000000000E+00 0.  1.
         23    2    1    2    0    0  0.46470948215E+01 -0.12506414813E+02 -0.35888930738E+01  0.92336935766E+02  0.91297446029E+02 0.  0.
         11    1    3    3    0    0 -0.78309958502E+01  0.35689534619E+02  0.14580042590E+02  0.39340119715E+02  0.00000000000E+00 0. -1.
        -11    1    3    3    0    0  0.12478090672E+02 -0.48195949431E+02 -0.18168935664E+02  0.52996816051E+02  0.00000000000E+00 0.  1.
         22    1    1    2    0    0 -0.46470948215E+01  0.12506414813E+02 -0.52300774340E+02  0.53975706556E+02  0.00000000000E+00 0.  1.
<mgrwt>
<rscale>  0 0.56897041E+02</rscale>
<asrwt>0</asrwt>
<pdfrwt beam="1">  1        3 0.69556135E-02 0.92267164E+02</pdfrwt>
<pdfrwt beam="2">  1       -3 0.15554024E-01 0.92267164E+02</pdfrwt>
<totfact> 0.96897813E+03</totfact>
</mgrwt>
</event>
<event>
 6    1  0.2975432E-002  0.9385361E+02  0.7546771E-02  0.1400586E+00
          2   -1    0    0  501    0  0.00000000000E+00  0.00000000000E+00  0.36908490085E+03  0.36908490085E+03  0.00000000000E+00 0. -1.
         -2   -1    0    0    0  501 -0.00000000000E+00 -0.00000000000E+00 -0.80717011704E+01  0.80717011704E+01  0.00000000000E+00 0.  1.
         23    2    1    2    0    0 -0.58216856366E+01  0.13831522313E+02  0.30081707189E+03  0.31511809112E+03  0.92646087780E+02 0.  0.
         13    1    3    3    0    0  0.41930406247E+02  0.18548083510E+02  0.14377681617E+03  0.15091044775E+03  0.00000000000E+00 0. -1.
        -13    1    3    3    0    0 -0.47752091883E+02 -0.47165611970E+01  0.15704025571E+03  0.16420764338E+03  0.00000000000E+00 0.  1.
         22    1    1    2    0    0  0.58216856366E+01 -0.13831522313E+02  0.60196127789E+02  0.62038510894E+02  0.00000000000E+00 0.  1.
<mgrwt>
<rscale>  0 0.59348538E+02</rscale>
<asrwt>0</asrwt>
<pdfrwt beam="1">  1        2 0.56782279E-01 0.93853613E+02</pdfrwt>
<pdfrwt beam="2">  1       -2 0.12418005E-02 0.93853613E+02</pdfrwt>
<totfact> 0.11694069E+05</totfact>
</mgrwt>
</event>
<event>
 6    1  0.2975432E-002  0.1030167E+03  0.7546771E-02  0.1403423E+00
          2   -1    0    0  501    0  0.00000000000E+00  0.00000000000E+00  0.53972953018E+03  0.53972953018E+03  0.00000000000E+00 0. -1.
         -2   -1    0    0    0  501 -0.00000000000E+00 -0.00000000000E+00 -0.67219759550E+01  0.67219759550E+01  0.00000000000E+00 0.  1.
         23    2    1    2    0    0  0.10459646439E+02  0.28871324098E+01  0.51666272935E+03  0.52683281512E+03  0.10244364033E+03 0.  0.
         11    1    3    3    0    0 -0.12585549835E+01  0.16035038944E+01 -0.48114344122E+01  0.52254269193E+01  0.00000000000E+00 0.  1.
        -11    1    3    3    0    0  0.11718201423E+02  0.12836285154E+01  0.52147416376E+03  0.52160738820E+03  0.00000000000E+00 0. -1.
         22    1    1    2    0    0 -0.10459646439E+02 -0.28871324098E+01  0.16344824869E+02  0.19618691016E+02  0.00000000000E+00 0.  1.
<mgrwt>
<rscale>  0 0.58687565E+02</rscale>
<asrwt>0</asrwt>
<pdfrwt beam="1">  1        2 0.83035279E-01 0.10301669E+03</pdfrwt>
<pdfrwt beam="2">  1       -2 0.10341506E-02 0.10301669E+03</pdfrwt>
<totfact> 0.10237598E+05</totfact>
</mgrwt>
</event>
<event>
 6    1  0.2975432E-002  0.9337132E+02  0.7546771E-02  0.1417424E+00
          2   -1    0    0  501    0  0.00000000000E+00  0.00000000000E+00  0.66363584708E+02  0.66363584708E+02  0.00000000000E+00 0. -1.
         -2   -1    0    0    0  501 -0.00000000000E+00 -0.00000000000E+00 -0.42035211388E+02  0.42035211388E+02  0.00000000000E+00 0.  1.
         23    2    1    2    0    0 -0.35704804727E+01  0.11156727124E+02  0.25016354324E+02  0.96664478528E+02  0.92633592906E+02 0.  0.
         13    1    3    3    0    0 -0.16060373270E+01  0.40367943927E+02  0.45564840991E+02  0.60895853613E+02  0.00000000000E+00 0. -1.
        -13    1    3    3    0    0 -0.19644431457E+01 -0.29211216803E+02 -0.20548486667E+02  0.35768624915E+02  0.00000000000E+00 0.  1.
         22    1    1    2    0    0  0.35704804727E+01 -0.11156727124E+02 -0.68798100398E+00  0.11734317568E+02  0.00000000000E+00 0.  1.
<mgrwt>
<rscale>  0 0.55569649E+02</rscale>
<asrwt>0</asrwt>
<pdfrwt beam="1">  1        2 0.10209782E-01 0.93371320E+02</pdfrwt>
<pdfrwt beam="2">  1       -2 0.64669556E-02 0.93371320E+02</pdfrwt>
<totfact> 0.70453082E+04</totfact>
</mgrwt>
</event>
<event>
 6    1  0.2975432E-002  0.9420866E+02  0.7546771E-02  0.1417743E+00
          2   -1    0    0  501    0  0.00000000000E+00  0.00000000000E+00  0.15401900157E+03  0.15401900157E+03  0.00000000000E+00 0.  1.
         -2   -1    0    0    0  501 -0.00000000000E+00 -0.00000000000E+00 -0.47144260839E+02  0.47144260839E+02  0.00000000000E+00 0. -1.
         23    2    1    2    0    0 -0.32046476144E+01  0.10886591432E+02  0.13853376080E+03  0.16753171187E+03  0.93522638770E+02 0.  0.
         11    1    3    3    0    0  0.36751072238E+02  0.26011330702E+01  0.19473457303E+02  0.41672805800E+02  0.00000000000E+00 0. -1.
        -11    1    3    3    0    0 -0.39955719852E+02  0.82854583615E+01  0.11906030350E+03  0.12585890607E+03  0.00000000000E+00 0.  1.
         22    1    1    2    0    0  0.32046476144E+01 -0.10886591432E+02 -0.31659020072E+02  0.33631550533E+02  0.00000000000E+00 0. -1.
<mgrwt>
<rscale>  0 0.55501202E+02</rscale>
<asrwt>0</asrwt>
<pdfrwt beam="1">  1        2 0.23695231E-01 0.94208660E+02</pdfrwt>
<pdfrwt beam="2">  1       -2 0.72529633E-02 0.94208660E+02</pdfrwt>
<totfact> 0.22463503E+04</totfact>
</mgrwt>
</event>
<event>
 6    1  0.2975432E-002  0.9518592E+02  0.7546771E-02  0.1381946E+00
          2   -1    0    0  501    0  0.00000000000E+00  0.00000000000E+00  0.13112830556E+03  0.13112830556E+03  0.00000000000E+00 0. -1.
         -2   -1    0    0    0  501 -0.00000000000E+00 -0.00000000000E+00 -0.34685547443E+02  0.34685547443E+02  0.00000000000E+00 0.  1.
         23    2    1    2    0    0 -0.11858369865E+01 -0.19362772042E+02  0.10741948244E+03  0.14352458143E+03  0.93188181216E+02 0.  0.
         11    1    3    3    0    0 -0.12308547279E+02  0.12351103844E+02  0.10850705201E+03  0.10989918306E+03  0.00000000000E+00 0. -1.
        -11    1    3    3    0    0  0.11122710293E+02 -0.31713875887E+02 -0.10875695729E+01  0.33625398371E+02  0.00000000000E+00 0.  1.
         22    1    1    2    0    0  0.11858369865E+01  0.19362772042E+02 -0.10976724316E+02  0.22289271572E+02  0.00000000000E+00 0. -1.
<mgrwt>
<rscale>  0 0.63955024E+02</rscale>
<asrwt>0</asrwt>
<pdfrwt beam="1">  1        2 0.20173585E-01 0.95185925E+02</pdfrwt>
<pdfrwt beam="2">  1       -2 0.53362381E-02 0.95185925E+02</pdfrwt>
<totfact> 0.42658214E+04</totfact>
</mgrwt>
</event>
<event>
 6    1  0.2975432E-002  0.9752122E+02  0.7546771E-02  0.1380701E+00
          2   -1    0    0  501    0  0.00000000000E+00  0.00000000000E+00  0.34264636225E+03  0.34264636225E+03  0.00000000000E+00 0. -1.
         -2   -1    0    0    0  501 -0.00000000000E+00 -0.00000000000E+00 -0.12643681682E+02  0.12643681682E+02  0.00000000000E+00 0.  1.
         23    2    1    2    0    0 -0.23031162691E+01  0.18263272061E+02  0.31959695013E+03  0.33414457925E+03  0.95768146352E+02 0.  0.
         13    1    3    3    0    0  0.13198574418E+01 -0.36085674407E+02  0.19265538620E+03  0.19601024400E+03  0.00000000000E+00 0.  1.
        -13    1    3    3    0    0 -0.36229737109E+01  0.54348946468E+02  0.12694156393E+03  0.13813433524E+03  0.00000000000E+00 0. -1.
         22    1    1    2    0    0  0.23031162691E+01 -0.18263272061E+02  0.10405730438E+02  0.21145464688E+02  0.00000000000E+00 0.  1.
<mgrwt>
<rscale>  0 0.64279950E+02</rscale>
<asrwt>0</asrwt>
<pdfrwt beam="1">  1        2 0.52714818E-01 0.97521225E+02</pdfrwt>
<pdfrwt beam="2">  1       -2 0.19451821E-02 0.97521225E+02</pdfrwt>
<totfact> 0.66916679E+04</totfact>
</mgrwt>
</event>
<event>
 6    1  0.2975432E-002  0.9090053E+02  0.7546771E-02  0.1410225E+00
          2   -1    0    0  501    0  0.00000000000E+00  0.00000000000E+00  0.40789638440E+02  0.40789638440E+02  0.00000000000E+00 0. -1.
         -2   -1    0    0    0  501 -0.00000000000E+00 -0.00000000000E+00 -0.10091912587E+03  0.10091912587E+03  0.00000000000E+00 0.  1.
         23    2    1    2    0    0  0.23496970487E+01  0.14000312170E+02 -0.12193301138E+02  0.91714686927E+02  0.89785173545E+02 0.  0.
         13    1    3    3    0    0 -0.55730755912E+01  0.38612896677E+02 -0.38512225021E+02  0.54819763201E+02  0.00000000000E+00 0.  1.
        -13    1    3    3    0    0  0.79227726399E+01 -0.24612584507E+02  0.26318923883E+02  0.36894923727E+02  0.00000000000E+00 0. -1.
         22    1    1    2    0    0 -0.23496970487E+01 -0.14000312170E+02 -0.47936186288E+02  0.49994077379E+02  0.00000000000E+00 0. -1.
<mgrwt>
<rscale>  0 0.57143553E+02</rscale>
<asrwt>0</asrwt>
<pdfrwt beam="1">  1        2 0.62753291E-02 0.90900535E+02</pdfrwt>
<pdfrwt beam="2">  1       -2 0.15526019E-01 0.90900535E+02</pdfrwt>
<totfact> 0.32755350E+04</totfact>
</mgrwt>
</event>
<event>
 6    1  0.2975432E-002  0.9294034E+02  0.7546771E-02  0.1419673E+00
         -2   -1    0    0    0  501 -0.00000000000E+00  0.00000000000E+00  0.10758990284E+03  0.10758990284E+03  0.00000000000E+00 0.  1.
          2   -1    0    0  501    0  0.00000000000E+00 -0.00000000000E+00 -0.25783787674E+02  0.25783787674E+02  0.00000000000E+00 0. -1.
         23    2    1    2    0    0 -0.14709779860E+01 -0.11378450068E+02  0.66667114334E+02  0.11437836876E+03  0.92229464951E+02 0.  0.
         11    1    3    3    0    0  0.27678709287E+02 -0.30150329504E+02  0.19691787417E+01  0.40975980549E+02  0.00000000000E+00 0. -1.
        -11    1    3    3    0    0 -0.29149687273E+02  0.18771879436E+02  0.64697935593E+02  0.73402388215E+02  0.00000000000E+00 0.  1.
         22    1    1    2    0    0  0.14709779860E+01  0.11378450068E+02  0.15139000831E+02  0.18995321749E+02  0.00000000000E+00 0.  1.
<mgrwt>
<rscale>  0 0.55090125E+02</rscale>
<asrwt>0</asrwt>
<pdfrwt beam="1">  1        2 0.39667366E-02 0.92940342E+02</pdfrwt>
<pdfrwt beam="2">  1       -2 0.16552293E-01 0.92940342E+02</pdfrwt>
<totfact> 0.53479151E+04</totfact>
</mgrwt>
</event>
<event>
 6    1  0.2975432E-002  0.9349993E+02  0.7546771E-02  0.1376451E+00
         -2   -1    0    0    0  501 -0.00000000000E+00  0.00000000000E+00  0.26928919358E+02  0.26928919358E+02  0.00000000000E+00 0.  1.
          2   -1    0    0  501    0  0.00000000000E+00 -0.00000000000E+00 -0.14859020853E+03  0.14859020853E+03  0.00000000000E+00 0. -1.
         23    2    1    2    0    0  0.22388915353E+02 -0.10729404127E+00 -0.12126614566E+03  0.15312646880E+03  0.90779746203E+02 0.  0.
         11    1    3    3    0    0  0.15050495482E+02  0.19349063956E+02 -0.12872245445E+03  0.13103577362E+03  0.00000000000E+00 0. -1.
        -11    1    3    3    0    0  0.73384198711E+01 -0.19456357997E+02  0.74563087841E+01  0.22090695177E+02  0.00000000000E+00 0.  1.
         22    1    1    2    0    0 -0.22388915353E+02  0.10729404127E+00 -0.39514351240E+00  0.22392659090E+02  0.00000000000E+00 0. -1.
<mgrwt>
<rscale>  0 0.65406059E+02</rscale>
<asrwt>0</asrwt>
<pdfrwt beam="1">  1        2 0.22860032E-01 0.93499932E+02</pdfrwt>
<pdfrwt beam="2">  1       -2 0.41429107E-02 0.93499932E+02</pdfrwt>
<totfact> 0.53924222E+04</totfact>
</mgrwt>
</event>
<event>
 6    1  0.2975432E-002  0.9660179E+02  0.7546771E-02  0.1381786E+00
          4   -1    0    0  501    0  0.00000000000E+00  0.00000000000E+00  0.16525002733E+03  0.16525002733E+03  0.00000000000E+00 0.  1.
         -4   -1    0    0    0  501 -0.00000000000E+00 -0.00000000000E+00 -0.41362804306E+02  0.41362804306E+02  0.00000000000E+00 0. -1.
         23    2    1    2    0    0 -0.10995640221E+02  0.15010225246E+02  0.14764273108E+03  0.17643775701E+03  0.94792906327E+02 0.  0.
         11    1    3    3    0    0  0.27726092558E+00  0.31379271988E+02  0.15273109906E+03  0.15592153220E+03  0.00000000000E+00 0.  1.
        -11    1    3    3    0    0 -0.11272901147E+02 -0.16369046742E+02 -0.50883679776E+01  0.20516224804E+02  0.00000000000E+00 0. -1.
         22    1    1    2    0    0  0.10995640221E+02 -0.15010225246E+02 -0.23755508058E+02  0.30175074630E+02  0.00000000000E+00 0. -1.
<mgrwt>
<rscale>  0 0.63996539E+02</rscale>
<asrwt>0</asrwt>
<pdfrwt beam="1">  1        4 0.25423081E-01 0.96601791E+02</pdfrwt>
<pdfrwt beam="2">  1       -4 0.63635085E-02 0.96601791E+02</pdfrwt>
<totfact> 0.35154438E+03</totfact>
</mgrwt>
</event>
<event>
 6    1  0.2975432E-002  0.8963258E+02  0.7546771E-02  0.1405131E+00
          1   -1    0    0  501    0  0.00000000000E+00  0.00000000000E+00  0.49134077835E+03  0.49134077835E+03  0.00000000000E+00 0. -1.
         -1   -1    0    0    0  501 -0.00000000000E+00 -0.00000000000E+00 -0.60835965718E+01  0.60835965718E+01  0.00000000000E+00 0.  1.
         23    2    1    2    0    0 -0.15830735548E+02 -0.25626633949E+01  0.44773705065E+03  0.45662070264E+03  0.88186280817E+02 0.  0.
         13    1    3    3    0    0  0.31714434058E+02 -0.20506744644E+02  0.15722499864E+03  0.16169734723E+03  0.00000000000E+00 0. -1.
        -13    1    3    3    0    0 -0.47545169606E+02  0.17944081249E+02  0.29051205201E+03  0.29492335541E+03  0.00000000000E+00 0.  1.
         22    1    1    2    0    0  0.15830735548E+02  0.25626633949E+01  0.37520131129E+02  0.40803672281E+02  0.00000000000E+00 0. -1.
<mgrwt>
<rscale>  0 0.58294684E+02</rscale>
<asrwt>0</asrwt>
<pdfrwt beam="1">  1        1 0.75590858E-01 0.89632581E+02</pdfrwt>
<pdfrwt beam="2">  1       -1 0.93593832E-03 0.89632581E+02</pdfrwt>
<totfact> 0.83162722E+04</totfact>
</mgrwt>
</event>
<event>
 6    1  0.2975432E-002  0.8884021E+02  0.7546771E-02  0.1420026E+00
          2   -1    0    0  501    0  0.00000000000E+00  0.00000000000E+00  0.68440113127E+03  0.68440113127E+03  0.00000000000E+00 0. -1.
         -2   -1    0    0    0  501 -0.00000000000E+00 -0.00000000000E+00 -0.42258828969E+01  0.42258828969E+01  0.00000000000E+00 0.  1.
         23    2    1    2    0    0 -0.10369507065E+02 -0.79477910586E+01  0.64526571662E+03  0.65135276747E+03  0.87874277172E+02 0.  0.
         11    1    3    3    0    0 -0.21689925199E+02 -0.32685924413E+02  0.56952378410E+03  0.57087315856E+03  0.00000000000E+00 0. -1.
        -11    1    3    3    0    0  0.11320418134E+02  0.24738133354E+02  0.75741932522E+02  0.80479608913E+02  0.00000000000E+00 0.  1.
         22    1    1    2    0    0  0.10369507065E+02  0.79477910586E+01  0.34909531754E+02  0.37274246696E+02  0.00000000000E+00 0. -1.
<mgrwt>
<rscale>  0 0.55015426E+02</rscale>
<asrwt>0</asrwt>
<pdfrwt beam="1">  1        2 0.10529239E+00 0.88840209E+02</pdfrwt>
<pdfrwt beam="2">  1       -2 0.65013637E-03 0.88840209E+02</pdfrwt>
<totfact> 0.14777895E+05</totfact>
</mgrwt>
</event>
<event>
 6    1  0.2975432E-002  0.9297243E+02  0.7546771E-02  0.1403904E+00
         -2   -1    0    0    0  501 -0.00000000000E+00  0.00000000000E+00  0.49765086470E+01  0.49765086470E+01  0.00000000000E+00 0.  1.
          2   -1    0    0  501    0  0.00000000000E+00 -0.00000000000E+00 -0.62575253686E+03  0.62575253686E+03  0.00000000000E+00 0. -1.
         23    2    1    2    0    0  0.12918676337E+02  0.69086008485E+01 -0.57993096799E+03  0.58733619001E+03  0.91810955186E+02 0.  0.
         13    1    3    3    0    0 -0.18195675972E+02 -0.32371040147E+02 -0.35248405502E+03  0.35443472729E+03  0.00000000000E+00 0. -1.
        -13    1    3    3    0    0  0.31114352309E+02  0.39279640995E+02 -0.22744691297E+03  0.23290146272E+03  0.00000000000E+00 0.  1.
         22    1    1    2    0    0 -0.12918676337E+02 -0.69086008485E+01 -0.40845060224E+02  0.43392855503E+02  0.00000000000E+00 0.  1.
<mgrwt>
<rscale>  0 0.58576666E+02</rscale>
<asrwt>0</asrwt>
<pdfrwt beam="1">  1        2 0.96269600E-01 0.92972428E+02</pdfrwt>
<pdfrwt beam="2">  1       -2 0.76561688E-03 0.92972428E+02</pdfrwt>
<totfact> 0.13095032E+05</totfact>
</mgrwt>
</event>
<event>
 6    1  0.2975432E-002  0.9145902E+02  0.7546771E-02  0.1429715E+00
          2   -1    0    0  501    0  0.00000000000E+00  0.00000000000E+00  0.51782511355E+03  0.51782511355E+03  0.00000000000E+00 0. -1.
         -2   -1    0    0    0  501 -0.00000000000E+00 -0.00000000000E+00 -0.51716814902E+01  0.51716814902E+01  0.00000000000E+00 0.  1.
         23    2    1    2    0    0 -0.21743079524E+01 -0.10095842812E+02  0.48334995688E+03  0.49192675618E+03  0.90874083066E+02 0.  0.
         11    1    3    3    0    0 -0.30443857037E+02 -0.39986147759E+02  0.25678783533E+03  0.26165953607E+03  0.00000000000E+00 0. -1.
        -11    1    3    3    0    0  0.28269549085E+02  0.29890304947E+02  0.22656212155E+03  0.23026722011E+03  0.00000000000E+00 0.  1.
         22    1    1    2    0    0  0.21743079524E+01  0.10095842812E+02  0.29303475188E+02  0.31070038868E+02  0.00000000000E+00 0.  1.
<mgrwt>
<rscale>  0 0.53017212E+02</rscale>
<asrwt>0</asrwt>
<pdfrwt beam="1">  1        2 0.79665361E-01 0.91459022E+02</pdfrwt>
<pdfrwt beam="2">  1       -2 0.79564371E-03 0.91459022E+02</pdfrwt>
<totfact> 0.15259264E+05</totfact>
</mgrwt>
</event>
<event>
 6    1  0.2975432E-002  0.9381810E+02  0.7546771E-02  0.1425892E+00
          1   -1    0    0  501    0  0.00000000000E+00  0.00000000000E+00  0.29049862105E+02  0.29049862105E+02  0.00000000000E+00 0. -1.
         -1   -1    0    0    0  501 -0.00000000000E+00 -0.00000000000E+00 -0.94074902733E+02  0.94074902733E+02  0.00000000000E+00 0.  1.
         23    2    1    2    0    0 -0.98808815369E+01  0.22803105013E+01 -0.54453458443E+02  0.10847587458E+03  0.93268454438E+02 0.  0.
         11    1    3    3    0    0  0.21880064950E+02  0.24557788963E+02 -0.60837314835E+02  0.69159244627E+02  0.00000000000E+00 0.  1.
        -11    1    3    3    0    0 -0.31760946487E+02 -0.22277478462E+02  0.63838563918E+01  0.39316629952E+02  0.00000000000E+00 0. -1.
         22    1    1    2    0    0  0.98808815369E+01 -0.22803105013E+01 -0.10571582185E+02  0.14648890259E+02  0.00000000000E+00 0. -1.
<mgrwt>
<rscale>  0 0.53793627E+02</rscale>
<asrwt>0</asrwt>
<pdfrwt beam="1">  1        1 0.44692096E-02 0.93818102E+02</pdfrwt>
<pdfrwt beam="2">  1       -1 0.14473062E-01 0.93818102E+02</pdfrwt>
<totfact> 0.56928820E+04</totfact>
</mgrwt>
</event>
<event>
 6    1  0.2975432E-002  0.8923166E+02  0.7546771E-02  0.1373145E+00
         -2   -1    0    0    0  501 -0.00000000000E+00  0.00000000000E+00  0.10064412353E+02  0.10064412353E+02  0.00000000000E+00 0.  1.
          2   -1    0    0  501    0  0.00000000000E+00 -0.00000000000E+00 -0.41446726911E+03  0.41446726911E+03  0.00000000000E+00 0. -1.
         23    2    1    2    0    0 -0.22595725522E+02 -0.15135292748E+02 -0.37036759066E+03  0.38096514343E+03  0.84986142364E+02 0.  0.
         13    1    3    3    0    0  0.19615342908E+01 -0.70382676515E+01 -0.34384879907E+03  0.34392641866E+03  0.00000000000E+00 0. -1.
        -13    1    3    3    0    0 -0.24557259813E+02 -0.80970250968E+01 -0.26518791590E+02  0.37038724767E+02  0.00000000000E+00 0.  1.
         22    1    1    2    0    0  0.22595725522E+02  0.15135292748E+02 -0.34035266095E+02  0.43566538037E+02  0.00000000000E+00 0. -1.
<mgrwt>
<rscale>  0 0.66300537E+02</rscale>
<asrwt>0</asrwt>
<pdfrwt beam="1">  1        2 0.63764194E-01 0.89231655E+02</pdfrwt>
<pdfrwt beam="2">  1       -2 0.15483712E-02 0.89231655E+02</pdfrwt>
<totfact> 0.75044808E+04</totfact>
</mgrwt>
</event>
<event>
 6    1  0.2975432E-002  0.9610470E+02  0.7546771E-02  0.1336901E+00
          2   -1    0    0  501    0  0.00000000000E+00  0.00000000000E+00  0.13277956913E+04  0.13277956913E+04  0.00000000000E+00 0. -1.
         -2   -1    0    0    0  501 -0.00000000000E+00 -0.00000000000E+00 -0.19167071601E+03  0.19167071601E+03  0.00000000000E+00 0.  1.
         23    2    1    2    0    0 -0.39074183338E+02  0.95261467709E+01  0.13239247672E+04  0.13274083403E+04  0.87284438897E+02 0.  0.
         13    1    3    3    0    0  0.16715310726E+02  0.11257701186E+02  0.90300301360E+02  0.92521791348E+02  0.00000000000E+00 0.  1.
        -13    1    3    3    0    0 -0.55789494064E+02 -0.17315544152E+01  0.12336244659E+04  0.12348865489E+04  0.00000000000E+00 0. -1.
         22    1    1    2    0    0  0.39074183338E+02 -0.95261467709E+01 -0.18779979192E+03  0.19205806705E+03  0.00000000000E+00 0.  1.
<mgrwt>
<rscale>  0 0.77297476E+02</rscale>
<asrwt>0</asrwt>
<pdfrwt beam="1">  1        2 0.20427625E+00 0.96104696E+02</pdfrwt>
<pdfrwt beam="2">  1       -2 0.29487803E-01 0.96104696E+02</pdfrwt>
<totfact> 0.19025858E+02</totfact>
</mgrwt>
</event>
<event>
 6    1  0.2975432E-002  0.8037289E+02  0.7546771E-02  0.1419851E+00
         -2   -1    0    0    0  501 -0.00000000000E+00  0.00000000000E+00  0.69867332210E+01  0.69867332210E+01  0.00000000000E+00 0.  1.
          2   -1    0    0  501    0  0.00000000000E+00 -0.00000000000E+00 -0.43231981777E+03  0.43231981777E+03  0.00000000000E+00 0. -1.
         23    2    1    2    0    0 -0.17488057726E+02 -0.26793903503E+01 -0.40236837128E+03  0.41031708133E+03  0.78401465088E+02 0.  0.
         11    1    3    3    0    0  0.30061942796E+02 -0.75417013924E+01 -0.12034573881E+03  0.12427266198E+03  0.00000000000E+00 0.  1.
        -11    1    3    3    0    0 -0.47550000522E+02  0.48623110421E+01 -0.28202263247E+03  0.28604441936E+03  0.00000000000E+00 0. -1.
         22    1    1    2    0    0  0.17488057726E+02  0.26793903503E+01 -0.22964713261E+02  0.28989469654E+02  0.00000000000E+00 0. -1.
<mgrwt>
<rscale>  0 0.55052517E+02</rscale>
<asrwt>0</asrwt>
<pdfrwt beam="1">  1        2 0.66510750E-01 0.80372887E+02</pdfrwt>
<pdfrwt beam="2">  1       -2 0.10748819E-02 0.80372887E+02</pdfrwt>
<totfact> 0.11864321E+05</totfact>
</mgrwt>
</event>
<event>
 6    1  0.2975432E-002  0.9242529E+02  0.7546771E-02  0.1425553E+00
         -2   -1    0    0    0  501 -0.00000000000E+00  0.00000000000E+00  0.52377415795E+01  0.52377415795E+01  0.00000000000E+00 0. -1.
          2   -1    0    0  501    0  0.00000000000E+00 -0.00000000000E+00 -0.58313159131E+03  0.58313159131E+03  0.00000000000E+00 0.  1.
         23    2    1    2    0    0 -0.75179629703E+01 -0.75588713726E+01 -0.55971725674E+03  0.56729696149E+03  0.91808380446E+02 0.  0.
         13    1    3    3    0    0 -0.35204939250E+02 -0.26859088908E+02 -0.15575248004E+03  0.16192477711E+03  0.00000000000E+00 0. -1.
        -13    1    3    3    0    0  0.27686976280E+02  0.19300217535E+02 -0.40396477670E+03  0.40537218438E+03  0.00000000000E+00 0.  1.
         22    1    1    2    0    0  0.75179629703E+01  0.75588713726E+01 -0.18176592993E+02  0.21072371402E+02  0.00000000000E+00 0. -1.
<mgrwt>
<rscale>  0 0.53863221E+02</rscale>
<asrwt>0</asrwt>
<pdfrwt beam="1">  1        2 0.89712547E-01 0.92425294E+02</pdfrwt>
<pdfrwt beam="2">  1       -2 0.80580644E-03 0.92425294E+02</pdfrwt>
<totfact> 0.13175052E+05</totfact>
</mgrwt>
</event>
<event>
 6    1  0.2975432E-002  0.9497356E+02  0.7546771E-02  0.1375477E+00
         -1   -1    0    0    0  501 -0.00000000000E+00  0.00000000000E+00  0.55655510175E+01  0.55655510175E+01  0.00000000000E+00 0.  1.
          1   -1    0    0  501    0  0.00000000000E+00 -0.00000000000E+00 -0.69067362401E+03  0.69067362401E+03  0.00000000000E+00 0. -1.
         23    2    1    2    0    0  0.17388237348E+02  0.12994387938E+02 -0.62806974289E+03  0.63520987046E+03  0.92459573170E+02 0.  0.
         11    1    3    3    0    0  0.54643603666E+02  0.16606284214E+02 -0.34920370287E+03  0.35384307001E+03  0.00000000000E+00 0. -1.
        -11    1    3    3    0    0 -0.37255366318E+02 -0.36118962763E+01 -0.27886604002E+03  0.28136680044E+03  0.00000000000E+00 0.  1.
         22    1    1    2    0    0 -0.17388237348E+02 -0.12994387938E+02 -0.57038330100E+02  0.61029304572E+02  0.00000000000E+00 0.  1.
<mgrwt>
<rscale>  0 0.65667922E+02</rscale>
<asrwt>0</asrwt>
<pdfrwt beam="1">  1        1 0.10625737E+00 0.94973563E+02</pdfrwt>
<pdfrwt beam="2">  1       -1 0.85623955E-03 0.94973563E+02</pdfrwt>
<totfact> 0.60321869E+04</totfact>
</mgrwt>
</event>
<event>
 6    1  0.2975432E-002  0.9131527E+02  0.7546771E-02  0.1409801E+00
         -4   -1    0    0    0  501 -0.00000000000E+00  0.00000000000E+00  0.12579989543E+03  0.12579989543E+03  0.00000000000E+00 0.  1.
          4   -1    0    0  501    0  0.00000000000E+00 -0.00000000000E+00 -0.22811429845E+02  0.22811429845E+02  0.00000000000E+00 0. -1.
         23    2    1    2    0    0 -0.91120147020E+01 -0.10755850222E+02  0.78799212959E+02  0.12061423492E+03  0.90220621676E+02 0.  0.
         11    1    3    3    0    0  0.52772297048E+01 -0.78403079983E+01  0.96870660453E+02  0.97330593543E+02  0.00000000000E+00 0.  1.
        -11    1    3    3    0    0 -0.14389244407E+02 -0.29155422237E+01 -0.18071447494E+02  0.23283641373E+02  0.00000000000E+00 0. -1.
         22    1    1    2    0    0  0.91120147020E+01  0.10755850222E+02  0.24189252627E+02  0.27997090359E+02  0.00000000000E+00 0.  1.
<mgrwt>
<rscale>  0 0.57238330E+02</rscale>
<asrwt>0</asrwt>
<pdfrwt beam="1">  1        4 0.35094508E-02 0.91315265E+02</pdfrwt>
<pdfrwt beam="2">  1       -4 0.19353830E-01 0.91315265E+02</pdfrwt>
<totfact> 0.14587929E+04</totfact>
</mgrwt>
</event>
<event>
 6    1  0.2975432E-002  0.9349853E+02  0.7546771E-02  0.1391050E+00
          2   -1    0    0  501    0  0.00000000000E+00  0.00000000000E+00  0.13725677028E+04  0.13725677028E+04  0.00000000000E+00 0. -1.
         -2   -1    0    0    0  501 -0.00000000000E+00 -0.00000000000E+00 -0.27150109709E+01  0.27150109709E+01  0.00000000000E+00 0.  1.
         23    2    1    2    0    0 -0.15800592692E+02  0.79078409090E+01  0.12950833525E+04  0.12984540292E+04  0.91813850835E+02 0.  0.
         13    1    3    3    0    0 -0.95919537377E+01 -0.32111324924E+02  0.21363590255E+03  0.21624856444E+03  0.00000000000E+00 0.  1.
        -13    1    3    3    0    0 -0.62086389542E+01  0.40019165833E+02  0.10814474500E+04  0.10822054647E+04  0.00000000000E+00 0. -1.
         22    1    1    2    0    0  0.15800592692E+02 -0.79078409090E+01  0.74769339268E+02  0.76828684564E+02  0.00000000000E+00 0. -1.
<mgrwt>
<rscale>  0 0.61646218E+02</rscale>
<asrwt>0</asrwt>
<pdfrwt beam="1">  1        2 0.21116371E+00 0.93498534E+02</pdfrwt>
<pdfrwt beam="2">  1       -2 0.41769509E-03 0.93498534E+02</pdfrwt>
<totfact> 0.10790876E+05</totfact>
</mgrwt>
</event>
<event>
 6    1  0.2975432E-002  0.9549280E+02  0.7546771E-02  0.1389722E+00
          4   -1    0    0  501    0  0.00000000000E+00  0.00000000000E+00  0.32329553338E+02  0.32329553338E+02  0.00000000000E+00 0. -1.
         -4   -1    0    0    0  501 -0.00000000000E+00 -0.00000000000E+00 -0.97756814049E+02  0.97756814049E+02  0.00000000000E+00 0.  1.
         23    2    1    2    0    0 -0.16351099346E+02 -0.44373492008E+01 -0.55648251172E+02  0.11052422166E+03  0.93977801624E+02 0.  0.
         11    1    3    3    0    0 -0.14239630487E+02 -0.72528510738E+01  0.25069586428E+02  0.29729700449E+02  0.00000000000E+00 0. -1.
        -11    1    3    3    0    0 -0.21114688589E+01  0.28155018731E+01 -0.80717837600E+02  0.80794521215E+02  0.00000000000E+00 0.  1.
         22    1    1    2    0    0  0.16351099346E+02  0.44373492008E+01 -0.97790095390E+01  0.19562145724E+02  0.00000000000E+00 0. -1.
<mgrwt>
<rscale>  0 0.61975837E+02</rscale>
<asrwt>0</asrwt>
<pdfrwt beam="1">  1        4 0.49737775E-02 0.95492805E+02</pdfrwt>
<pdfrwt beam="2">  1       -4 0.15039510E-01 0.95492805E+02</pdfrwt>
<totfact> 0.13268038E+04</totfact>
</mgrwt>
</event>
<event>
 6    1  0.2975432E-002  0.1197319E+03  0.7546771E-02  0.1267393E+00
          4   -1    0    0  501    0  0.00000000000E+00  0.00000000000E+00  0.43715499681E+02  0.43715499681E+02  0.00000000000E+00 0. -1.
         -4   -1    0    0    0  501 -0.00000000000E+00 -0.00000000000E+00 -0.26011992428E+03  0.26011992428E+03  0.00000000000E+00 0.  1.
         23    2    1    2    0    0 -0.50109656900E+02  0.55342660259E+02 -0.19013034373E+03  0.22468926117E+03  0.93605174647E+02 0.  0.
         11    1    3    3    0    0 -0.26277120183E+02  0.80687002650E+02 -0.13096584260E+03  0.15605425777E+03  0.00000000000E+00 0. -1.
        -11    1    3    3    0    0 -0.23832536717E+02 -0.25344342391E+02 -0.59164501130E+02  0.68635003399E+02  0.00000000000E+00 0.  1.
         22    1    1    2    0    0  0.50109656900E+02 -0.55342660259E+02 -0.26274080876E+02  0.79146162794E+02  0.00000000000E+00 0.  1.
<mgrwt>
<rscale>  0 0.10639619E+03</rscale>
<asrwt>0</asrwt>
<pdfrwt beam="1">  1        4 0.67254615E-02 0.11973185E+03</pdfrwt>
<pdfrwt beam="2">  1       -4 0.40018450E-01 0.11973185E+03</pdfrwt>
<totfact> 0.14330834E+03</totfact>
</mgrwt>
</event>
<event>
 6    1  0.2975432E-002  0.9553382E+02  0.7546771E-02  0.1363800E+00
         -4   -1    0    0    0  501 -0.00000000000E+00  0.00000000000E+00  0.21307274027E+02  0.21307274027E+02  0.00000000000E+00 0. -1.
          4   -1    0    0  501    0  0.00000000000E+00 -0.00000000000E+00 -0.45940829997E+03  0.45940829997E+03  0.00000000000E+00 0.  1.
         23    2    1    2    0    0  0.25104472280E+02 -0.62825381265E+01 -0.44400963141E+03  0.45417096188E+03  0.91961975947E+02 0.  0.
         13    1    3    3    0    0  0.21448146875E+02  0.38968227767E+02 -0.29696317548E+03  0.30027599533E+03  0.00000000000E+00 0.  1.
        -13    1    3    3    0    0  0.36563254046E+01 -0.45250765893E+02 -0.14704645593E+03  0.15389496656E+03  0.00000000000E+00 0. -1.
         22    1    1    2    0    0 -0.25104472280E+02  0.62825381265E+01  0.59086054661E+01  0.26544612115E+02  0.00000000000E+00 0. -1.
<mgrwt>
<rscale>  0 0.68921270E+02</rscale>
<asrwt>0</asrwt>
<pdfrwt beam="1">  1        4 0.70678191E-01 0.95533815E+02</pdfrwt>
<pdfrwt beam="2">  1       -4 0.32780426E-02 0.95533815E+02</pdfrwt>
<totfact> 0.13319881E+03</totfact>
</mgrwt>
</event>
<event>
 6    1  0.2975432E-002  0.9667261E+02  0.7546771E-02  0.1355491E+00
          2   -1    0    0  501    0  0.00000000000E+00  0.00000000000E+00  0.57215686245E+02  0.57215686245E+02  0.00000000000E+00 0. -1.
         -2   -1    0    0    0  501 -0.00000000000E+00 -0.00000000000E+00 -0.93241832872E+02  0.93241832872E+02  0.00000000000E+00 0.  1.
         23    2    1    2    0    0  0.16437631328E+02  0.23551034817E+02  0.89581764484E+01  0.97086775379E+02  0.92307887331E+02 0.  0.
         11    1    3    3    0    0  0.10939116356E+02  0.24430928174E+02  0.49441251767E+02  0.56222521238E+02  0.00000000000E+00 0. -1.
        -11    1    3    3    0    0  0.54985149719E+01 -0.87989335707E+00 -0.40483075318E+02  0.40864254140E+02  0.00000000000E+00 0.  1.
         22    1    1    2    0    0 -0.16437631328E+02 -0.23551034817E+02 -0.44984323075E+02  0.53370743738E+02  0.00000000000E+00 0.  1.
<mgrwt>
<rscale>  0 0.71371405E+02</rscale>
<asrwt>0</asrwt>
<pdfrwt beam="1">  1        2 0.88024133E-02 0.96672607E+02</pdfrwt>
<pdfrwt beam="2">  1       -2 0.14344897E-01 0.96672607E+02</pdfrwt>
<totfact> 0.24578248E+04</totfact>
</mgrwt>
</event>
<event>
 6    1  0.2975432E-002  0.9254134E+02  0.7546771E-02  0.1416985E+00
         -2   -1    0    0    0  501 -0.00000000000E+00  0.00000000000E+00  0.82134789684E+01  0.82134789684E+01  0.00000000000E+00 0. -1.
          2   -1    0    0  501    0  0.00000000000E+00 -0.00000000000E+00 -0.34556532672E+03  0.34556532672E+03  0.00000000000E+00 0.  1.
         23    2    1    2    0    0  0.99576280619E+01 -0.68988502631E+01 -0.31552139223E+03  0.32881248278E+03  0.91745034642E+02 0.  0.
         13    1    3    3    0    0  0.24682264254E+02 -0.28426744573E+02 -0.28961289305E+03  0.29204951943E+03  0.00000000000E+00 0.  1.
        -13    1    3    3    0    0 -0.14724636192E+02  0.21527894310E+02 -0.25908499181E+02  0.36762963349E+02  0.00000000000E+00 0. -1.
         22    1    1    2    0    0 -0.99576280619E+01  0.68988502631E+01 -0.21830455516E+02  0.24966322909E+02  0.00000000000E+00 0.  1.
<mgrwt>
<rscale>  0 0.55663889E+02</rscale>
<asrwt>0</asrwt>
<pdfrwt beam="1">  1        2 0.53163909E-01 0.92541341E+02</pdfrwt>
<pdfrwt beam="2">  1       -2 0.12636119E-02 0.92541341E+02</pdfrwt>
<totfact> 0.12198030E+05</totfact>
</mgrwt>
</event>
<event>
 6    1  0.2975432E-002  0.8968460E+02  0.7546771E-02  0.1398714E+00
          4   -1    0    0  501    0  0.00000000000E+00  0.00000000000E+00  0.24282472501E+03  0.24282472501E+03  0.00000000000E+00 0. -1.
         -4   -1    0    0    0  501 -0.00000000000E+00 -0.00000000000E+00 -0.13437897291E+02  0.13437897291E+02  0.00000000000E+00 0.  1.
         23    2    1    2    0    0  0.37289545209E+01  0.17319267746E+02  0.21654321325E+03  0.23438065325E+03  0.87917377545E+02 0.  0.
         13    1    3    3    0    0 -0.77137565158E+01  0.51526252024E+02  0.14839466152E+03  0.15727502108E+03  0.00000000000E+00 0. -1.
        -13    1    3    3    0    0  0.11442711037E+02 -0.34206984278E+02  0.68148551730E+02  0.77105632169E+02  0.00000000000E+00 0.  1.
         22    1    1    2    0    0 -0.37289545209E+01 -0.17319267746E+02  0.12843614468E+02  0.21881969054E+02  0.00000000000E+00 0. -1.
<mgrwt>
<rscale>  0 0.59790305E+02</rscale>
<asrwt>0</asrwt>
<pdfrwt beam="1">  1        4 0.37357647E-01 0.89684600E+02</pdfrwt>
<pdfrwt beam="2">  1       -4 0.20673690E-02 0.89684600E+02</pdfrwt>
<totfact> 0.97443753E+03</totfact>
</mgrwt>
</event>
<event>
 6    1  0.2975432E-002  0.1223755E+03  0.7546771E-02  0.1258191E+00
          2   -1    0    0  501    0  0.00000000000E+00  0.00000000000E+00  0.82586957037E+03  0.82586957037E+03  0.00000000000E+00 0. -1.
         -2   -1    0    0    0  501 -0.00000000000E+00 -0.00000000000E+00 -0.13645834755E+02  0.13645834755E+02  0.00000000000E+00 0.  1.
         23    2    1    2    0    0  0.78868781031E+02 -0.28074605534E+02  0.57710334168E+03  0.58993562280E+03  0.89259755669E+02 0.  0.
         13    1    3    3    0    0 -0.15024373295E+02 -0.12780585353E+02  0.20185984800E+03  0.20282128436E+03  0.00000000000E+00 0. -1.
        -13    1    3    3    0    0  0.93893154325E+02 -0.15294020180E+02  0.37524349368E+03  0.38711433844E+03  0.00000000000E+00 0.  1.
         22    1    1    2    0    0 -0.78868781031E+02  0.28074605534E+02  0.23512039393E+03  0.24957978232E+03  0.00000000000E+00 0.  1.
<mgrwt>
<rscale>  0 0.11129454E+03</rscale>
<asrwt>0</asrwt>
<pdfrwt beam="1">  1        2 0.12705682E+00 0.12237554E+03</pdfrwt>
<pdfrwt beam="2">  1       -2 0.20993598E-02 0.12237554E+03</pdfrwt>
<totfact> 0.23010123E+04</totfact>
</mgrwt>
</event>
<event>
 6    1  0.2975432E-002  0.1045394E+03  0.7546771E-02  0.1312257E+00
         -1   -1    0    0    0  501 -0.00000000000E+00  0.00000000000E+00  0.33238265106E+02  0.33238265106E+02  0.00000000000E+00 0.  1.
          1   -1    0    0  501    0  0.00000000000E+00 -0.00000000000E+00 -0.20975803147E+03  0.20975803147E+03  0.00000000000E+00 0. -1.
         23    2    1    2    0    0 -0.38382160917E+02 -0.29461058608E+02 -0.16141069204E+03  0.19230676731E+03  0.92667885459E+02 0.  0.
         11    1    3    3    0    0 -0.44200359591E+02  0.22723310961E+02 -0.58395205144E+02  0.76681292587E+02  0.00000000000E+00 0. -1.
        -11    1    3    3    0    0  0.58181986745E+01 -0.52184369570E+02 -0.10301548690E+03  0.11562547472E+03  0.00000000000E+00 0.  1.
         22    1    1    2    0    0  0.38382160917E+02  0.29461058608E+02 -0.15109074327E+02  0.50689529274E+02  0.00000000000E+00 0. -1.
<mgrwt>
<rscale>  0 0.86226042E+02</rscale>
<asrwt>0</asrwt>
<pdfrwt beam="1">  1        1 0.32270466E-01 0.10453938E+03</pdfrwt>
<pdfrwt beam="2">  1       -1 0.51135793E-02 0.10453938E+03</pdfrwt>
<totfact> 0.21244516E+04</totfact>
</mgrwt>
</event>
<event>
 6    1  0.2975432E-002  0.1027585E+03  0.7546771E-02  0.1317611E+00
          2   -1    0    0  501    0  0.00000000000E+00  0.00000000000E+00  0.11750345803E+04  0.11750345803E+04  0.00000000000E+00 0. -1.
         -2   -1    0    0    0  501 -0.00000000000E+00 -0.00000000000E+00 -0.10184132386E+02  0.10184132386E+02  0.00000000000E+00 0.  1.
         23    2    1    2    0    0  0.11702125401E+02  0.44757515322E+02  0.11040376673E+04  0.11088094907E+04  0.91755876945E+02 0.  0.
         13    1    3    3    0    0 -0.11560227556E+02 -0.59361244504E+01  0.23667453879E+02  0.27000459399E+02  0.00000000000E+00 0.  1.
        -13    1    3    3    0    0  0.23262352956E+02  0.50693639772E+02  0.10803702135E+04  0.10818090313E+04  0.00000000000E+00 0. -1.
         22    1    1    2    0    0 -0.11702125401E+02 -0.44757515322E+02  0.60812780599E+02  0.76409221962E+02  0.00000000000E+00 0.  1.
<mgrwt>
<rscale>  0 0.84172374E+02</rscale>
<asrwt>0</asrwt>
<pdfrwt beam="1">  1        2 0.18077444E+00 0.10275853E+03</pdfrwt>
<pdfrwt beam="2">  1       -2 0.15667905E-02 0.10275853E+03</pdfrwt>
<totfact> 0.21415232E+04</totfact>
</mgrwt>
</event>
<event>
 6    1  0.2975432E-002  0.9271122E+02  0.7546771E-02  0.1400298E+00
          2   -1    0    0  501    0  0.00000000000E+00  0.00000000000E+00  0.11673718167E+04  0.11673718167E+04  0.00000000000E+00 0. -1.
         -2   -1    0    0    0  501 -0.00000000000E+00 -0.00000000000E+00 -0.49323018576E+01  0.49323018576E+01  0.00000000000E+00 0.  1.
         23    2    1    2    0    0 -0.15634599618E+02 -0.39037496700E+00  0.11455125405E+04  0.11492581741E+04  0.91382586333E+02 0.  0.
         11    1    3    3    0    0 -0.15853648016E+02  0.44686218271E+02  0.54771038664E+03  0.54975891434E+03  0.00000000000E+00 0. -1.
        -11    1    3    3    0    0  0.21904839815E+00 -0.45076593238E+02  0.59780215389E+03  0.59949925975E+03  0.00000000000E+00 0.  1.
         22    1    1    2    0    0  0.15634599618E+02  0.39037496700E+00  0.16926974347E+02  0.23045944511E+02  0.00000000000E+00 0.  1.
<mgrwt>
<rscale>  0 0.59416182E+02</rscale>
<asrwt>0</asrwt>
<pdfrwt beam="1">  1        2 0.17959544E+00 0.92711219E+02</pdfrwt>
<pdfrwt beam="2">  1       -2 0.75881660E-03 0.92711219E+02</pdfrwt>
<totfact> 0.59990878E+04</totfact>
</mgrwt>
</event>
<event>
 6    1  0.2975432E-002  0.9014567E+02  0.7546771E-02  0.1381026E+00
          2   -1    0    0  501    0  0.00000000000E+00  0.00000000000E+00  0.35011827451E+03  0.35011827451E+03  0.00000000000E+00 0.  1.
         -2   -1    0    0    0  501 -0.00000000000E+00 -0.00000000000E+00 -0.91978487823E+01  0.91978487823E+01  0.00000000000E+00 0. -1.
         23    2    1    2    0    0  0.20700045632E+02  0.10437686106E+02  0.27876457656E+03  0.29297769727E+03  0.87113746198E+02 0.  0.
         11    1    3    3    0    0  0.36579514043E+02 -0.10082170057E+01  0.26829510737E+03  0.27077913876E+03  0.00000000000E+00 0.  1.
        -11    1    3    3    0    0 -0.15879468410E+02  0.11445903112E+02  0.10469469187E+02  0.22198558514E+02  0.00000000000E+00 0. -1.
         22    1    1    2    0    0 -0.20700045632E+02 -0.10437686106E+02  0.62155849171E+02  0.66338426019E+02  0.00000000000E+00 0. -1.
<mgrwt>
<rscale>  0 0.64194766E+02</rscale>
<asrwt>0</asrwt>
<pdfrwt beam="1">  1        2 0.53864340E-01 0.90145671E+02</pdfrwt>
<pdfrwt beam="2">  1       -2 0.14150539E-02 0.90145671E+02</pdfrwt>
<totfact> 0.10201161E+05</totfact>
</mgrwt>
</event>
<event>
 6    1  0.2975432E-002  0.9330339E+02  0.7546771E-02  0.1419792E+00
         -2   -1    0    0    0  501 -0.00000000000E+00  0.00000000000E+00  0.41722549644E+01  0.41722549644E+01  0.00000000000E+00 0.  1.
          2   -1    0    0  501    0  0.00000000000E+00 -0.00000000000E+00 -0.99127641229E+03  0.99127641229E+03  0.00000000000E+00 0. -1.
         23    2    1    2    0    0 -0.10462310290E+02 -0.43196686697E+01 -0.97252939784E+03  0.97699485767E+03  0.92614268802E+02 0.  0.
         13    1    3    3    0    0 -0.20238779237E+02  0.16208972461E+02 -0.91147789718E+03  0.91184664062E+03  0.00000000000E+00 0. -1.
        -13    1    3    3    0    0  0.97764689472E+01 -0.20528641131E+02 -0.61051500657E+02  0.65148217046E+02  0.00000000000E+00 0.  1.
         22    1    1    2    0    0  0.10462310290E+02  0.43196686697E+01 -0.14574759495E+02  0.18453809589E+02  0.00000000000E+00 0. -1.
<mgrwt>
<rscale>  0 0.55064913E+02</rscale>
<asrwt>0</asrwt>
<pdfrwt beam="1">  1        2 0.15250391E+00 0.93303388E+02</pdfrwt>
<pdfrwt beam="2">  1       -2 0.64188604E-03 0.93303388E+02</pdfrwt>
<totfact> 0.95661699E+04</totfact>
</mgrwt>
</event>
<event>
 6    1  0.2975432E-002  0.8342536E+02  0.7546771E-02  0.1417001E+00
          3   -1    0    0  501    0  0.00000000000E+00  0.00000000000E+00  0.33217390185E+03  0.33217390185E+03  0.00000000000E+00 0. -1.
         -3   -1    0    0    0  501 -0.00000000000E+00 -0.00000000000E+00 -0.87381999337E+01  0.87381999337E+01  0.00000000000E+00 0.  1.
         23    2    1    2    0    0  0.11611700131E+02  0.11765688908E+02  0.30475558982E+03  0.31596797215E+03  0.81771186128E+02 0.  0.
         13    1    3    3    0    0  0.26390402745E+02 -0.29490148846E+02  0.14052482822E+03  0.14599092294E+03  0.00000000000E+00 0. -1.
        -13    1    3    3    0    0 -0.14778702614E+02  0.41255837754E+02  0.16423076161E+03  0.16997704921E+03  0.00000000000E+00 0.  1.
         22    1    1    2    0    0 -0.11611700131E+02 -0.11765688908E+02  0.18680112096E+02  0.24944129637E+02  0.00000000000E+00 0.  1.
<mgrwt>
<rscale>  0 0.55660379E+02</rscale>
<asrwt>0</asrwt>
<pdfrwt beam="1">  1        3 0.51103667E-01 0.83425355E+02</pdfrwt>
<pdfrwt beam="2">  1       -3 0.13443387E-02 0.83425355E+02</pdfrwt>
<totfact> 0.13463743E+04</totfact>
</mgrwt>
</event>
<event>
 6    1  0.2975432E-002  0.1054472E+03  0.7546771E-02  0.1307192E+00
         -1   -1    0    0    0  501 -0.00000000000E+00  0.00000000000E+00  0.27713735463E+02  0.27713735463E+02  0.00000000000E+00 0.  1.
          1   -1    0    0  501    0  0.00000000000E+00 -0.00000000000E+00 -0.22452451741E+03  0.22452451741E+03  0.00000000000E+00 0. -1.
         23    2    1    2    0    0  0.39407454800E+02 -0.33446530622E+02 -0.14238699336E+03  0.17718116348E+03  0.91910232884E+02 0.  0.
         11    1    3    3    0    0  0.40155792912E+02  0.24764568815E+02 -0.60946897080E+02  0.77073314686E+02  0.00000000000E+00 0. -1.
        -11    1    3    3    0    0 -0.74833811222E+00 -0.58211099437E+02 -0.81440096279E+02  0.10010784879E+03  0.00000000000E+00 0.  1.
         22    1    1    2    0    0 -0.39407454800E+02  0.33446530622E+02 -0.54423788589E+02  0.75057089397E+02  0.00000000000E+00 0. -1.
<mgrwt>
<rscale>  0 0.88231373E+02</rscale>
<asrwt>0</asrwt>
<pdfrwt beam="1">  1        1 0.34542235E-01 0.10544718E+03</pdfrwt>
<pdfrwt beam="2">  1       -1 0.42636514E-02 0.10544718E+03</pdfrwt>
<totfact> 0.25529344E+04</totfact>
</mgrwt>
</event>
<event>
 6    1  0.2975432E-002  0.9074471E+02  0.7546771E-02  0.1421217E+00
         -2   -1    0    0    0  501 -0.00000000000E+00  0.00000000000E+00  0.40983829860E+01  0.40983829860E+01  0.00000000000E+00 0.  1.
          2   -1    0    0  501    0  0.00000000000E+00 -0.00000000000E+00 -0.81951275422E+03  0.81951275422E+03  0.00000000000E+00 0. -1.
         23    2    1    2    0    0  0.57091894907E-01 -0.12036998482E+02 -0.79294604857E+03  0.79812156845E+03  0.89942812347E+02 0.  0.
         11    1    3    3    0    0 -0.81300002512E+01 -0.80619751350E+01 -0.78735935121E+03  0.78744259491E+03  0.00000000000E+00 0. -1.
        -11    1    3    3    0    0  0.81870921461E+01 -0.39750233473E+01 -0.55866973597E+01  0.10678973537E+02  0.00000000000E+00 0.  1.
         22    1    1    2    0    0 -0.57091894907E-01  0.12036998482E+02 -0.22468322663E+02  0.25489568754E+02  0.00000000000E+00 0. -1.
<mgrwt>
<rscale>  0 0.54764201E+02</rscale>
<asrwt>0</asrwt>
<pdfrwt beam="1">  1        2 0.12607886E+00 0.90744708E+02</pdfrwt>
<pdfrwt beam="2">  1       -2 0.63052058E-03 0.90744708E+02</pdfrwt>
<totfact> 0.12482701E+05</totfact>
</mgrwt>
</event>
<event>
 6    1  0.2975432E-002  0.9305149E+02  0.7546771E-02  0.1419289E+00
          1   -1    0    0  501    0  0.00000000000E+00  0.00000000000E+00  0.28383360474E+03  0.28383360474E+03  0.00000000000E+00 0. -1.
         -1   -1    0    0    0  501 -0.00000000000E+00 -0.00000000000E+00 -0.96311311068E+01  0.96311311068E+01  0.00000000000E+00 0.  1.
         23    2    1    2    0    0 -0.76438694668E+01 -0.85917047981E+01  0.24566828269E+03  0.26270037034E+03  0.92338146663E+02 0.  0.
         11    1    3    3    0    0  0.26294800960E+02  0.28076269561E+02  0.14897603070E+03  0.15386211747E+03  0.00000000000E+00 0. -1.
        -11    1    3    3    0    0 -0.33938670427E+02 -0.36667974360E+02  0.96692251988E+02  0.10883825287E+03  0.00000000000E+00 0.  1.
         22    1    1    2    0    0  0.76438694668E+01  0.85917047981E+01  0.28534190943E+02  0.30764365498E+02  0.00000000000E+00 0. -1.
<mgrwt>
<rscale>  0 0.55171573E+02</rscale>
<asrwt>0</asrwt>
<pdfrwt beam="1">  1        1 0.43666702E-01 0.93051488E+02</pdfrwt>
<pdfrwt beam="2">  1       -1 0.14817127E-02 0.93051488E+02</pdfrwt>
<totfact> 0.86249388E+04</totfact>
</mgrwt>
</event>
<event>
 6    1  0.2975432E-002  0.9248545E+02  0.7546771E-02  0.1407418E+00
         -3   -1    0    0    0  501 -0.00000000000E+00  0.00000000000E+00  0.14951034724E+03  0.14951034724E+03  0.00000000000E+00 0.  1.
          3   -1    0    0  501    0  0.00000000000E+00 -0.00000000000E+00 -0.25358014226E+02  0.25358014226E+02  0.00000000000E+00 0. -1.
         23    2    1    2    0    0  0.13797438785E+02 -0.28237789372E+01  0.62489366220E+02  0.11161755500E+03  0.91406863253E+02 0.  0.
         13    1    3    3    0    0  0.93706684603E+01  0.33228966130E+02  0.66645268529E+02  0.75057081177E+02  0.00000000000E+00 0.  1.
        -13    1    3    3    0    0  0.44267703251E+01 -0.36052745067E+02 -0.41559023087E+01  0.36560473826E+02  0.00000000000E+00 0. -1.
         22    1    1    2    0    0 -0.13797438785E+02  0.28237789372E+01  0.61662966793E+02  0.63250806463E+02  0.00000000000E+00 0.  1.
<mgrwt>
<rscale>  0 0.57773964E+02</rscale>
<asrwt>0</asrwt>
<pdfrwt beam="1">  1        3 0.39012330E-02 0.92485446E+02</pdfrwt>
<pdfrwt beam="2">  1       -3 0.23001591E-01 0.92485446E+02</pdfrwt>
<totfact> 0.12203361E+04</totfact>
</mgrwt>
</event>
<event>
 6    1  0.2975432E-002  0.8586693E+02  0.7546771E-02  0.1439142E+00
         -2   -1    0    0    0  501 -0.00000000000E+00  0.00000000000E+00  0.42256469273E+02  0.42256469273E+02  0.00000000000E+00 0.  1.
          2   -1    0    0  501    0  0.00000000000E+00 -0.00000000000E+00 -0.13377352408E+03  0.13377352408E+03  0.00000000000E+00 0. -1.
         23    2    1    2    0    0  0.48255254972E+01  0.96922485258E+01 -0.11885416434E+03  0.14662688236E+03  0.85181599373E+02 0.  0.
         13    1    3    3    0    0 -0.31094097519E+02  0.23520398783E+02 -0.28131986711E+02  0.48077653185E+02  0.00000000000E+00 0. -1.
        -13    1    3    3    0    0  0.35919623016E+02 -0.13828150257E+02 -0.90722177630E+02  0.98549229176E+02  0.00000000000E+00 0.  1.
         22    1    1    2    0    0 -0.48255254972E+01 -0.96922485258E+01  0.27337109539E+02  0.29403110988E+02  0.00000000000E+00 0.  1.
<mgrwt>
<rscale>  0 0.51167850E+02</rscale>
<asrwt>0</asrwt>
<pdfrwt beam="1">  1        2 0.20580542E-01 0.85866933E+02</pdfrwt>
<pdfrwt beam="2">  1       -2 0.65009953E-02 0.85866933E+02</pdfrwt>
<totfact> 0.30630242E+04</totfact>
</mgrwt>
</event>
<event>
 6    1  0.2975432E-002  0.1117133E+03  0.7546771E-02  0.1361287E+00
         -1   -1    0    0    0  501 -0.00000000000E+00  0.00000000000E+00  0.10940369444E+02  0.10940369444E+02  0.00000000000E+00 0.  1.
          1   -1    0    0  501    0  0.00000000000E+00 -0.00000000000E+00 -0.49357978404E+03  0.49357978404E+03  0.00000000000E+00 0. -1.
         23    2    1    2    0    0  0.19349443483E+00 -0.16878939168E+02 -0.47087405564E+03  0.48394444697E+03  0.11043059106E+03 0.  0.
         11    1    3    3    0    0  0.13590129415E+02  0.43267074116E+02 -0.13359747584E+03  0.14108514051E+03  0.00000000000E+00 0.  1.
        -11    1    3    3    0    0 -0.13396634980E+02 -0.60146013284E+02 -0.33727657980E+03  0.34285930646E+03  0.00000000000E+00 0. -1.
         22    1    1    2    0    0 -0.19349443483E+00  0.16878939168E+02 -0.11765358955E+02  0.20575706522E+02  0.00000000000E+00 0.  1.
<mgrwt>
<rscale>  0 0.69650133E+02</rscale>
<asrwt>0</asrwt>
<pdfrwt beam="1">  1        1 0.75935349E-01 0.11171326E+03</pdfrwt>
<pdfrwt beam="2">  1       -1 0.16831338E-02 0.11171326E+03</pdfrwt>
<totfact> 0.36964617E+04</totfact>
</mgrwt>
</event>
<event>
 6    1  0.2975432E-002  0.9443651E+02  0.7546771E-02  0.1372604E+00
          1   -1    0    0  501    0  0.00000000000E+00  0.00000000000E+00  0.33577338948E+02  0.33577338948E+02  0.00000000000E+00 0. -1.
         -1   -1    0    0    0  501 -0.00000000000E+00 -0.00000000000E+00 -0.11969927219E+03  0.11969927219E+03  0.00000000000E+00 0.  1.
         23    2    1    2    0    0  0.10960103670E+02  0.20389569468E+02 -0.41800396307E+02  0.10327404069E+03  0.91555425467E+02 0.  0.
         11    1    3    3    0    0  0.25487378595E+02  0.23675791540E+02  0.19712138214E+02  0.39983971359E+02  0.00000000000E+00 0. -1.
        -11    1    3    3    0    0 -0.14527274924E+02 -0.32862220719E+01 -0.61512534520E+02  0.63290069327E+02  0.00000000000E+00 0.  1.
         22    1    1    2    0    0 -0.10960103670E+02 -0.20389569468E+02 -0.44321536940E+02  0.50002570457E+02  0.00000000000E+00 0.  1.
<mgrwt>
<rscale>  0 0.66448656E+02</rscale>
<asrwt>0</asrwt>
<pdfrwt beam="1">  1        1 0.51657445E-02 0.94436510E+02</pdfrwt>
<pdfrwt beam="2">  1       -1 0.18415273E-01 0.94436510E+02</pdfrwt>
<totfact> 0.32146151E+04</totfact>
</mgrwt>
</event>
<event>
 6    1  0.2975432E-002  0.9491082E+02  0.7546771E-02  0.1360344E+00
         -2   -1    0    0    0  501 -0.00000000000E+00  0.00000000000E+00  0.27918291356E+01  0.27918291356E+01  0.00000000000E+00 0.  1.
          2   -1    0    0  501    0  0.00000000000E+00 -0.00000000000E+00 -0.18851738610E+04  0.18851738610E+04  0.00000000000E+00 0. -1.
         23    2    1    2    0    0  0.24887334010E+02 -0.12753873947E+02 -0.17543353171E+04  0.17569008136E+04  0.90697427559E+02 0.  0.
         13    1    3    3    0    0  0.31222337267E+02  0.15472273210E+02 -0.26459289516E+03  0.26687754823E+03  0.00000000000E+00 0.  1.
        -13    1    3    3    0    0 -0.63350032572E+01 -0.28226147157E+02 -0.14897424220E+04  0.14900232654E+04  0.00000000000E+00 0. -1.
         22    1    1    2    0    0 -0.24887334010E+02  0.12753873947E+02 -0.12804671471E+03  0.13106487646E+03  0.00000000000E+00 0.  1.
<mgrwt>
<rscale>  0 0.69926287E+02</rscale>
<asrwt>0</asrwt>
<pdfrwt beam="1">  1        2 0.29002670E+00 0.94910822E+02</pdfrwt>
<pdfrwt beam="2">  1       -2 0.42951225E-03 0.94910822E+02</pdfrwt>
<totfact> 0.57080800E+04</totfact>
</mgrwt>
</event>
<event>
 6    1  0.2975432E-002  0.9397241E+02  0.7546771E-02  0.1378311E+00
         -2   -1    0    0    0  501 -0.00000000000E+00  0.00000000000E+00  0.12174559065E+02  0.12174559065E+02  0.00000000000E+00 0.  1.
          2   -1    0    0  501    0  0.00000000000E+00 -0.00000000000E+00 -0.27904471092E+03  0.27904471092E+03  0.00000000000E+00 0. -1.
         23    2    1    2    0    0  0.66610244770E+01 -0.20327890875E+02 -0.19929388934E+03  0.22033807608E+03  0.91505306110E+02 0.  0.
         13    1    3    3    0    0  0.30859696606E+02  0.10744902919E+02 -0.23661301609E+02  0.40343909171E+02  0.00000000000E+00 0.  1.
        -13    1    3    3    0    0 -0.24198672129E+02 -0.31072793794E+02 -0.17563258773E+03  0.17999416691E+03  0.00000000000E+00 0. -1.
         22    1    1    2    0    0 -0.66610244770E+01  0.20327890875E+02 -0.67576262517E+02  0.70881193911E+02  0.00000000000E+00 0.  1.
<mgrwt>
<rscale>  0 0.64909777E+02</rscale>
<asrwt>0</asrwt>
<pdfrwt beam="1">  1        2 0.42929954E-01 0.93972408E+02</pdfrwt>
<pdfrwt beam="2">  1       -2 0.18730091E-02 0.93972408E+02</pdfrwt>
<totfact> 0.87148417E+04</totfact>
</mgrwt>
</event>
<event>
 6    1  0.2975432E-002  0.9231006E+02  0.7546771E-02  0.1429994E+00
         -2   -1    0    0    0  501 -0.00000000000E+00  0.00000000000E+00  0.24773475846E+02  0.24773475846E+02  0.00000000000E+00 0.  1.
          2   -1    0    0  501    0  0.00000000000E+00 -0.00000000000E+00 -0.10582911352E+03  0.10582911352E+03  0.00000000000E+00 0. -1.
         23    2    1    2    0    0  0.86075045956E+01 -0.50942173413E+01 -0.71406751471E+02  0.11670506474E+03  0.91766594116E+02 0.  0.
         13    1    3    3    0    0  0.23709126365E+02 -0.23712878267E+02 -0.83407653485E+02  0.89895828205E+02  0.00000000000E+00 0. -1.
        -13    1    3    3    0    0 -0.15101621769E+02  0.18618660925E+02  0.12000902014E+02  0.26809236540E+02  0.00000000000E+00 0.  1.
         22    1    1    2    0    0 -0.86075045956E+01  0.50942173413E+01 -0.96488862076E+01  0.13897524626E+02  0.00000000000E+00 0.  1.
<mgrwt>
<rscale>  0 0.52961296E+02</rscale>
<asrwt>0</asrwt>
<pdfrwt beam="1">  1        2 0.16281402E-01 0.92310064E+02</pdfrwt>
<pdfrwt beam="2">  1       -2 0.38113040E-02 0.92310064E+02</pdfrwt>
<totfact> 0.89073461E+04</totfact>
</mgrwt>
</event>
<event>
 6    1  0.2975432E-002  0.9113974E+02  0.7546771E-02  0.1430666E+00
          2   -1    0    0  501    0  0.00000000000E+00  0.00000000000E+00  0.14706036641E+03  0.14706036641E+03  0.00000000000E+00 0. -1.
         -2   -1    0    0    0  501 -0.00000000000E+00 -0.00000000000E+00 -0.18932444515E+02  0.18932444515E+02  0.00000000000E+00 0.  1.
         23    2    1    2    0    0  0.61712973505E+01 -0.82301354907E+01  0.12596875970E+03  0.15548176804E+03  0.90557339464E+02 0.  0.
         11    1    3    3    0    0  0.29204838078E+02 -0.40517858959E+02  0.55868955516E+02  0.74939706780E+02  0.00000000000E+00 0.  1.
        -11    1    3    3    0    0 -0.23033540727E+02  0.32287723468E+02  0.70099804186E+02  0.80542061261E+02  0.00000000000E+00 0. -1.
         22    1    1    2    0    0 -0.61712973505E+01  0.82301354907E+01  0.21591621958E+01  0.10511042887E+02  0.00000000000E+00 0. -1.
<mgrwt>
<rscale>  0 0.52826498E+02</rscale>
<asrwt>0</asrwt>
<pdfrwt beam="1">  1        2 0.22624671E-01 0.91139738E+02</pdfrwt>
<pdfrwt beam="2">  1       -2 0.29126839E-02 0.91139738E+02</pdfrwt>
<totfact> 0.90985252E+04</totfact>
</mgrwt>
</event>
<event>
 6    1  0.2975432E-002  0.9362762E+02  0.7546771E-02  0.1396049E+00
          2   -1    0    0  501    0  0.00000000000E+00  0.00000000000E+00  0.92846278789E+02  0.92846278789E+02  0.00000000000E+00 0. -1.
         -2   -1    0    0    0  501 -0.00000000000E+00 -0.00000000000E+00 -0.53517830752E+02  0.53517830752E+02  0.00000000000E+00 0.  1.
         23    2    1    2    0    0  0.10147004291E+02  0.12685488939E+02  0.66406913859E+02  0.11478679748E+03  0.92207631691E+02 0.  0.
         13    1    3    3    0    0  0.22310140305E+02 -0.27703704243E+02  0.63152081604E+02  0.72480500827E+02  0.00000000000E+00 0. -1.
        -13    1    3    3    0    0 -0.12163136014E+02  0.40389193182E+02  0.32548322546E+01  0.42306296654E+02  0.00000000000E+00 0.  1.
         22    1    1    2    0    0 -0.10147004291E+02 -0.12685488939E+02 -0.27078465822E+02  0.31577312061E+02  0.00000000000E+00 0. -1.
<mgrwt>
<rscale>  0 0.60426783E+02</rscale>
<asrwt>0</asrwt>
<pdfrwt beam="1">  1        2 0.14284043E-01 0.93627617E+02</pdfrwt>
<pdfrwt beam="2">  1       -2 0.82335124E-02 0.93627617E+02</pdfrwt>
<totfact> 0.32767884E+04</totfact>
</mgrwt>
</event>
<event>
 6    1  0.2975432E-002  0.9135372E+02  0.7546771E-02  0.1392228E+00
          4   -1    0    0  501    0  0.00000000000E+00  0.00000000000E+00  0.39132738666E+03  0.39132738666E+03  0.00000000000E+00 0. -1.
         -4   -1    0    0    0  501 -0.00000000000E+00 -0.00000000000E+00 -0.22024327307E+02  0.22024327307E+02  0.00000000000E+00 0.  1.
         23    2    1    2    0    0  0.53931906999E+01 -0.17789116212E+02  0.38072677119E+03  0.39153336496E+03  0.89442509008E+02 0.  0.
         13    1    3    3    0    0 -0.58216898251E+01 -0.47368004208E+02  0.31494894913E+03  0.31854428334E+03  0.00000000000E+00 0. -1.
        -13    1    3    3    0    0  0.11214880525E+02  0.29578887996E+02  0.65777822059E+02  0.72989081616E+02  0.00000000000E+00 0.  1.
         22    1    1    2    0    0 -0.53931906999E+01  0.17789116212E+02 -0.11423711831E+02  0.21818349010E+02  0.00000000000E+00 0.  1.
<mgrwt>
<rscale>  0 0.61355970E+02</rscale>
<asrwt>0</asrwt>
<pdfrwt beam="1">  1        4 0.60204208E-01 0.91353717E+02</pdfrwt>
<pdfrwt beam="2">  1       -4 0.33883583E-02 0.91353717E+02</pdfrwt>
<totfact> 0.17554700E+03</totfact>
</mgrwt>
</event>
<event>
 6    1  0.2975432E-002  0.7084120E+02  0.7546771E-02  0.1464164E+00
          1   -1    0    0  501    0  0.00000000000E+00  0.00000000000E+00  0.42282374272E+02  0.42282374272E+02  0.00000000000E+00 0. -1.
         -1   -1    0    0    0  501 -0.00000000000E+00 -0.00000000000E+00 -0.42130239668E+02  0.42130239668E+02  0.00000000000E+00 0.  1.
         23    2    1    2    0    0 -0.11702675829E+02  0.64175767988E+01 -0.21242728030E+01  0.70873044367E+02  0.69572537465E+02 0.  0.
         11    1    3    3    0    0  0.15349346784E+02  0.20633451270E+02  0.20469060151E+02  0.32868285344E+02  0.00000000000E+00 0.  1.
        -11    1    3    3    0    0 -0.27052022613E+02 -0.14215874471E+02 -0.22593332954E+02  0.38004759023E+02  0.00000000000E+00 0. -1.
         22    1    1    2    0    0  0.11702675829E+02 -0.64175767988E+01  0.22764074069E+01  0.13539569573E+02  0.00000000000E+00 0.  1.
<mgrwt>
<rscale>  0 0.46672277E+02</rscale>
<asrwt>0</asrwt>
<pdfrwt beam="1">  1        1 0.65049806E-02 0.70841202E+02</pdfrwt>
<pdfrwt beam="2">  1       -1 0.64815753E-02 0.70841202E+02</pdfrwt>
<totfact> 0.11001919E+05</totfact>
</mgrwt>
</event>
<event>
 6    1  0.2975432E-002  0.8572221E+02  0.7546771E-02  0.1425177E+00
          2   -1    0    0  501    0  0.00000000000E+00  0.00000000000E+00  0.39070117422E+03  0.39070117422E+03  0.00000000000E+00 0. -1.
         -2   -1    0    0    0  501 -0.00000000000E+00 -0.00000000000E+00 -0.62956226975E+01  0.62956226975E+01  0.00000000000E+00 0.  1.
         23    2    1    2    0    0 -0.13409352412E+02 -0.89815485102E+00  0.33552583855E+03  0.34630317055E+03  0.84662153189E+02 0.  0.
         13    1    3    3    0    0 -0.16135723932E+02 -0.18152850013E+01  0.34032275808E+03  0.34070990081E+03  0.00000000000E+00 0. -1.
        -13    1    3    3    0    0  0.27263715201E+01  0.91713015027E+00 -0.47969195274E+01  0.55932697352E+01  0.00000000000E+00 0.  1.
         22    1    1    2    0    0  0.13409352412E+02  0.89815485102E+00  0.48879712972E+02  0.50693626369E+02  0.00000000000E+00 0. -1.
<mgrwt>
<rscale>  0 0.53940501E+02</rscale>
<asrwt>0</asrwt>
<pdfrwt beam="1">  1        2 0.60107854E-01 0.85722212E+02</pdfrwt>
<pdfrwt beam="2">  1       -2 0.96855765E-03 0.85722212E+02</pdfrwt>
<totfact> 0.15446364E+05</totfact>
</mgrwt>
</event>
<event>
 6    1  0.2975432E-002  0.9944418E+02  0.7546771E-02  0.1370659E+00
         -4   -1    0    0    0  501 -0.00000000000E+00  0.00000000000E+00  0.13526977664E+03  0.13526977664E+03  0.00000000000E+00 0.  1.
          4   -1    0    0  501    0  0.00000000000E+00 -0.00000000000E+00 -0.37069471657E+02  0.37069471657E+02  0.00000000000E+00 0. -1.
         23    2    1    2    0    0  0.15309238806E+02 -0.13591173848E+02  0.34225896454E+02  0.10516918245E+03  0.97314192949E+02 0.  0.
         13    1    3    3    0    0  0.49414622999E+02 -0.30506708520E+02  0.33603191223E+02  0.67094252297E+02  0.00000000000E+00 0.  1.
        -13    1    3    3    0    0 -0.34105384193E+02  0.16915534672E+02  0.62270523061E+00  0.38074930151E+02  0.00000000000E+00 0. -1.
         22    1    1    2    0    0 -0.15309238806E+02  0.13591173848E+02  0.63974408526E+02  0.67170065846E+02  0.00000000000E+00 0.  1.
<mgrwt>
<rscale>  0 0.66984343E+02</rscale>
<asrwt>0</asrwt>
<pdfrwt beam="1">  1        4 0.57029957E-02 0.99444180E+02</pdfrwt>
<pdfrwt beam="2">  1       -4 0.20810735E-01 0.99444180E+02</pdfrwt>
<totfact> 0.60819150E+03</totfact>
</mgrwt>
</event>
<event>
 6    1  0.2975432E-002  0.1092264E+03  0.7546771E-02  0.1293553E+00
          2   -1    0    0  501    0  0.00000000000E+00  0.00000000000E+00  0.25708269374E+03  0.25708269374E+03  0.00000000000E+00 0. -1.
         -2   -1    0    0    0  501 -0.00000000000E+00 -0.00000000000E+00 -0.44354241871E+02  0.44354241871E+02  0.00000000000E+00 0.  1.
         23    2    1    2    0    0 -0.39436702581E+02  0.44943863465E+02  0.21547817157E+03  0.24158073015E+03  0.91406796166E+02 0.  0.
         11    1    3    3    0    0 -0.64104542347E+01 -0.26564775018E+02  0.83790164001E+02  0.88133834471E+02  0.00000000000E+00 0. -1.
        -11    1    3    3    0    0 -0.33026248346E+02  0.71508638483E+02  0.13168800757E+03  0.15344689568E+03  0.00000000000E+00 0.  1.
         22    1    1    2    0    0  0.39436702581E+02 -0.44943863465E+02 -0.27497196971E+01  0.59856205459E+02  0.00000000000E+00 0.  1.
<mgrwt>
<rscale>  0 0.93952497E+02</rscale>
<asrwt>0</asrwt>
<pdfrwt beam="1">  1        2 0.39551183E-01 0.10922640E+03</pdfrwt>
<pdfrwt beam="2">  1       -2 0.68237297E-02 0.10922640E+03</pdfrwt>
<totfact> 0.14436573E+04</totfact>
</mgrwt>
</event>
<event>
 6    1  0.2975432E-002  0.2819174E+03  0.7546771E-02  0.1096773E+00
         -2   -1    0    0    0  501 -0.00000000000E+00  0.00000000000E+00  0.10834884942E+03  0.10834884942E+03  0.00000000000E+00 0.  1.
          2   -1    0    0  501    0  0.00000000000E+00 -0.00000000000E+00 -0.13160867342E+04  0.13160867342E+04  0.00000000000E+00 0. -1.
         23    2    1    2    0    0  0.25210154430E+03 -0.86920996906E+02 -0.11021374122E+04  0.11376222155E+04  0.91471205588E+02 0.  0.
         13    1    3    3    0    0  0.20768920357E+03 -0.36866956550E+02 -0.74579108062E+03  0.77504729771E+03  0.00000000000E+00 0. -1.
        -13    1    3    3    0    0  0.44412340739E+02 -0.50054040356E+02 -0.35634633157E+03  0.36257491776E+03  0.00000000000E+00 0.  1.
         22    1    1    2    0    0 -0.25210154430E+03  0.86920996906E+02 -0.10560047260E+03  0.28681336816E+03  0.00000000000E+00 0.  1.
<mgrwt>
<rscale>  0 0.27802452E+03</rscale>
<asrwt>0</asrwt>
<pdfrwt beam="1">  1        2 0.20247487E+00 0.28191742E+03</pdfrwt>
<pdfrwt beam="2">  1       -2 0.16669055E-01 0.28191742E+03</pdfrwt>
<totfact> 0.49478023E+02</totfact>
</mgrwt>
</event>
<event>
 6    1  0.2975432E-002  0.9456001E+02  0.7546771E-02  0.1402734E+00
         -1   -1    0    0    0  501 -0.00000000000E+00  0.00000000000E+00  0.19120523194E+02  0.19120523194E+02  0.00000000000E+00 0.  1.
          1   -1    0    0  501    0  0.00000000000E+00 -0.00000000000E+00 -0.25119479189E+03  0.25119479189E+03  0.00000000000E+00 0. -1.
         23    2    1    2    0    0  0.60065142929E+01 -0.12848762413E+02 -0.23710567410E+03  0.25526593139E+03  0.93490246170E+02 0.  0.
         11    1    3    3    0    0  0.13468102639E+02 -0.41048701632E+02 -0.50780479547E+02  0.66671154162E+02  0.00000000000E+00 0.  1.
        -11    1    3    3    0    0 -0.74615883461E+01  0.28199939219E+02 -0.18632519455E+03  0.18859477723E+03  0.00000000000E+00 0. -1.
         22    1    1    2    0    0 -0.60065142929E+01  0.12848762413E+02  0.50314053968E+01  0.15049383700E+02  0.00000000000E+00 0.  1.
<mgrwt>
<rscale>  0 0.58847190E+02</rscale>
<asrwt>0</asrwt>
<pdfrwt beam="1">  1        1 0.38645349E-01 0.94560008E+02</pdfrwt>
<pdfrwt beam="2">  1       -1 0.29416193E-02 0.94560008E+02</pdfrwt>
<totfact> 0.37639204E+04</totfact>
</mgrwt>
</event>
<event>
 6    1  0.2975432E-002  0.1118200E+03  0.7546771E-02  0.1284934E+00
         -1   -1    0    0    0  501 -0.00000000000E+00  0.00000000000E+00  0.38440745421E+03  0.38440745421E+03  0.00000000000E+00 0.  1.
          1   -1    0    0  501    0  0.00000000000E+00 -0.00000000000E+00 -0.20450640330E+02  0.20450640330E+02  0.00000000000E+00 0. -1.
         23    2    1    2    0    0  0.36903099775E+02  0.54120081258E+02  0.22812148482E+03  0.25405339107E+03  0.90625005976E+02 0.  0.
         11    1    3    3    0    0  0.67044139977E+02  0.43056707593E+02  0.16537858216E+03  0.18357252576E+03  0.00000000000E+00 0. -1.
        -11    1    3    3    0    0 -0.30141040202E+02  0.11063373664E+02  0.62742902657E+02  0.70480865312E+02  0.00000000000E+00 0.  1.
         22    1    1    2    0    0 -0.36903099775E+02 -0.54120081258E+02  0.13583532905E+03  0.15080470347E+03  0.00000000000E+00 0.  1.
<mgrwt>
<rscale>  0 0.97826653E+02</rscale>
<asrwt>0</asrwt>
<pdfrwt beam="1">  1        1 0.31462526E-02 0.11182001E+03</pdfrwt>
<pdfrwt beam="2">  1       -1 0.59139603E-01 0.11182001E+03</pdfrwt>
<totfact> 0.88358645E+03</totfact>
</mgrwt>
</event>
<event>
 6    1  0.2975432E-002  0.9900812E+02  0.7546771E-02  0.1405396E+00
         -3   -1    0    0    0  501 -0.00000000000E+00  0.00000000000E+00  0.23110430563E+02  0.23110430563E+02  0.00000000000E+00 0.  1.
          3   -1    0    0  501    0  0.00000000000E+00 -0.00000000000E+00 -0.15070057098E+03  0.15070057098E+03  0.00000000000E+00 0. -1.
         23    2    1    2    0    0 -0.75148682648E+01  0.91614822167E+01 -0.12815839238E+03  0.16194807982E+03  0.98296495447E+02 0.  0.
         13    1    3    3    0    0  0.33623404530E+01  0.44662517772E+02 -0.11352083892E+03  0.12203698905E+03  0.00000000000E+00 0.  1.
        -13    1    3    3    0    0 -0.10877208718E+02 -0.35501035556E+02 -0.14637553464E+02  0.39911090770E+02  0.00000000000E+00 0. -1.
         22    1    1    2    0    0  0.75148682648E+01 -0.91614822167E+01  0.56825197040E+00  0.11862921720E+02  0.00000000000E+00 0. -1.
<mgrwt>
<rscale>  0 0.58233958E+02</rscale>
<asrwt>0</asrwt>
<pdfrwt beam="1">  1        3 0.23184703E-01 0.99008116E+02</pdfrwt>
<pdfrwt beam="2">  1       -3 0.35554508E-02 0.99008116E+02</pdfrwt>
<totfact> 0.14121303E+04</totfact>
</mgrwt>
</event>
<event>
 6    1  0.2975432E-002  0.8977599E+02  0.7546771E-02  0.1383829E+00
         -3   -1    0    0    0  501 -0.00000000000E+00  0.00000000000E+00  0.18440781233E+03  0.18440781233E+03  0.00000000000E+00 0.  1.
          3   -1    0    0  501    0  0.00000000000E+00 -0.00000000000E+00 -0.23413832999E+02  0.23413832999E+02  0.00000000000E+00 0. -1.
         23    2    1    2    0    0 -0.18545800444E+02 -0.12607534562E+02  0.69262506120E+02  0.11338881301E+03  0.86930038081E+02 0.  0.
         11    1    3    3    0    0  0.56669123145E+01  0.36554100465E+01  0.81485318975E+02  0.81763886443E+02  0.00000000000E+00 0.  1.
        -11    1    3    3    0    0 -0.24212712758E+02 -0.16262944608E+02 -0.12222812856E+02  0.31624926570E+02  0.00000000000E+00 0. -1.
         22    1    1    2    0    0  0.18545800444E+02  0.12607534562E+02  0.91731473214E+02  0.94432832319E+02  0.00000000000E+00 0.  1.
<mgrwt>
<rscale>  0 0.63468026E+02</rscale>
<asrwt>0</asrwt>
<pdfrwt beam="1">  1        3 0.36021283E-02 0.89775989E+02</pdfrwt>
<pdfrwt beam="2">  1       -3 0.28370432E-01 0.89775989E+02</pdfrwt>
<totfact> 0.94051436E+03</totfact>
</mgrwt>
</event>
<event>
 6    1  0.2975432E-002  0.9375780E+02  0.7546771E-02  0.1374548E+00
          2   -1    0    0  501    0  0.00000000000E+00  0.00000000000E+00  0.87147633167E+02  0.87147633167E+02  0.00000000000E+00 0. -1.
         -2   -1    0    0    0  501 -0.00000000000E+00 -0.00000000000E+00 -0.39046577589E+02  0.39046577589E+02  0.00000000000E+00 0.  1.
         23    2    1    2    0    0  0.20476891016E+02  0.10273450670E+02  0.38650876992E+02  0.10141210573E+03  0.90915774437E+02 0.  0.
         11    1    3    3    0    0  0.28733107660E+02  0.24972263888E+00  0.65534033935E+02  0.71556714856E+02  0.00000000000E+00 0. -1.
        -11    1    3    3    0    0 -0.82562166446E+01  0.10023728031E+02 -0.26883156942E+02  0.29855390872E+02  0.00000000000E+00 0.  1.
         22    1    1    2    0    0 -0.20476891016E+02 -0.10273450670E+02  0.94501785862E+01  0.24782105028E+02  0.00000000000E+00 0. -1.
<mgrwt>
<rscale>  0 0.65918851E+02</rscale>
<asrwt>0</asrwt>
<pdfrwt beam="1">  1        2 0.13407328E-01 0.93757799E+02</pdfrwt>
<pdfrwt beam="2">  1       -2 0.60071658E-02 0.93757799E+02</pdfrwt>
<totfact> 0.56927293E+04</totfact>
</mgrwt>
</event>
<event>
 6    1  0.2975432E-002  0.1157444E+03  0.7546771E-02  0.1384772E+00
          2   -1    0    0  501    0  0.00000000000E+00  0.00000000000E+00  0.10771408951E+02  0.10771408951E+02  0.00000000000E+00 0. -1.
         -2   -1    0    0    0  501 -0.00000000000E+00 -0.00000000000E+00 -0.37039889022E+03  0.37039889022E+03  0.00000000000E+00 0.  1.
         23    2    1    2    0    0  0.89457958495E+01  0.51168590209E+01 -0.33652589178E+03  0.35587419381E+03  0.11528467579E+03 0.  0.
         13    1    3    3    0    0 -0.25718850274E+02  0.41534022469E+02 -0.74640039236E+02  0.89205771892E+02  0.00000000000E+00 0. -1.
        -13    1    3    3    0    0  0.34664646123E+02 -0.36417163448E+02 -0.26188585254E+03  0.26666842192E+03  0.00000000000E+00 0.  1.
         22    1    1    2    0    0 -0.89457958495E+01 -0.51168590209E+01 -0.23101589490E+02  0.25296105364E+02  0.00000000000E+00 0.  1.
<mgrwt>
<rscale>  0 0.63225957E+02</rscale>
<asrwt>0</asrwt>
<pdfrwt beam="1">  1        2 0.16571397E-02 0.11574440E+03</pdfrwt>
<pdfrwt beam="2">  1       -2 0.56984450E-01 0.11574440E+03</pdfrwt>
<totfact> 0.19019041E+04</totfact>
</mgrwt>
</event>
<event>
 6    1  0.2975432E-002  0.1081574E+03  0.7546771E-02  0.1388977E+00
         -2   -1    0    0    0  501 -0.00000000000E+00  0.00000000000E+00  0.11624345857E+02  0.11624345857E+02  0.00000000000E+00 0.  1.
          2   -1    0    0  501    0  0.00000000000E+00 -0.00000000000E+00 -0.31725926621E+03  0.31725926621E+03  0.00000000000E+00 0. -1.
         23    2    1    2    0    0  0.10651635993E+02  0.50806439763E+01 -0.28823236413E+03  0.30785698001E+03  0.10751164643E+03 0.  0.
         11    1    3    3    0    0 -0.14413855860E+02  0.20027322142E+02 -0.27449496528E+03  0.27560177582E+03  0.00000000000E+00 0. -1.
        -11    1    3    3    0    0  0.25065491854E+02 -0.14946678166E+02 -0.13737398851E+02  0.32255204189E+02  0.00000000000E+00 0.  1.
         22    1    1    2    0    0 -0.10651635993E+02 -0.50806439763E+01 -0.17402556230E+02  0.21026632062E+02  0.00000000000E+00 0.  1.
<mgrwt>
<rscale>  0 0.62161932E+02</rscale>
<asrwt>0</asrwt>
<pdfrwt beam="1">  1        2 0.48809119E-01 0.10815741E+03</pdfrwt>
<pdfrwt beam="2">  1       -2 0.17883609E-02 0.10815741E+03</pdfrwt>
<totfact> 0.83039486E+04</totfact>
</mgrwt>
</event>
<event>
 6    1  0.2975432E-002  0.9433413E+02  0.7546771E-02  0.1364303E+00
          2   -1    0    0  501    0  0.00000000000E+00  0.00000000000E+00  0.42650125365E+02  0.42650125365E+02  0.00000000000E+00 0.  1.
         -2   -1    0    0    0  501 -0.00000000000E+00 -0.00000000000E+00 -0.96535319353E+02  0.96535319353E+02  0.00000000000E+00 0. -1.
         23    2    1    2    0    0 -0.60739381033E+01  0.25952620962E+02 -0.20624122859E+02  0.96562327616E+02  0.90490316675E+02 0.  0.
         13    1    3    3    0    0  0.22253624189E+02 -0.16998424274E+02 -0.33362855645E+02  0.43557437415E+02  0.00000000000E+00 0. -1.
        -13    1    3    3    0    0 -0.28327562292E+02  0.42951045236E+02  0.12738732786E+02  0.53004890201E+02  0.00000000000E+00 0.  1.
         22    1    1    2    0    0  0.60739381033E+01 -0.25952620962E+02 -0.33261071128E+02  0.42623117102E+02  0.00000000000E+00 0. -1.
<mgrwt>
<rscale>  0 0.68776790E+02</rscale>
<asrwt>0</asrwt>
<pdfrwt beam="1">  1        2 0.65615579E-02 0.94334133E+02</pdfrwt>
<pdfrwt beam="2">  1       -2 0.14851587E-01 0.94334133E+02</pdfrwt>
<totfact> 0.33427398E+04</totfact>
</mgrwt>
</event>
<event>
 6    1  0.2975432E-002  0.8285579E+02  0.7546771E-02  0.1406061E+00
          2   -1    0    0  501    0  0.00000000000E+00  0.00000000000E+00  0.55493974552E+01  0.55493974552E+01  0.00000000000E+00 0. -1.
         -2   -1    0    0    0  501 -0.00000000000E+00 -0.00000000000E+00 -0.47701039907E+03  0.47701039907E+03  0.00000000000E+00 0.  1.
         23    2    1    2    0    0 -0.75081055911E+01  0.18545792158E+02 -0.37455971387E+03  0.38361447009E+03  0.80403758330E+02 0.  0.
         11    1    3    3    0    0 -0.23158270554E+01 -0.16296598110E+02 -0.30683168473E+03  0.30727288348E+03  0.00000000000E+00 0.  1.
        -11    1    3    3    0    0 -0.51922785357E+01  0.34842390267E+02 -0.67728029133E+02  0.76341586611E+02  0.00000000000E+00 0. -1.
         22    1    1    2    0    0  0.75081055911E+01 -0.18545792158E+02 -0.96901287751E+02  0.98945326439E+02  0.00000000000E+00 0. -1.
<mgrwt>
<rscale>  0 0.58082166E+02</rscale>
<asrwt>0</asrwt>
<pdfrwt beam="1">  1        2 0.85375300E-03 0.82855793E+02</pdfrwt>
<pdfrwt beam="2">  1       -2 0.73386254E-01 0.82855793E+02</pdfrwt>
<totfact> 0.26602344E+04</totfact>
</mgrwt>
</event>
<event>
 6    1  0.2975432E-002  0.9551713E+02  0.7546771E-02  0.1367277E+00
         -2   -1    0    0    0  501 -0.00000000000E+00  0.00000000000E+00  0.97736742663E+02  0.97736742663E+02  0.00000000000E+00 0.  1.
          2   -1    0    0  501    0  0.00000000000E+00 -0.00000000000E+00 -0.42544896799E+02  0.42544896799E+02  0.00000000000E+00 0. -1.
         23    2    1    2    0    0 -0.18020117811E+02 -0.16502255904E+02  0.20243844268E+02  0.97638798196E+02  0.92338900722E+02 0.  0.
         11    1    3    3    0    0 -0.17828697106E+02  0.18158729815E+02  0.47270933385E+02  0.53685594456E+02  0.00000000000E+00 0.  1.
        -11    1    3    3    0    0 -0.19142070454E+00 -0.34660985718E+02 -0.27027089117E+02  0.43953203740E+02  0.00000000000E+00 0. -1.
         22    1    1    2    0    0  0.18020117811E+02  0.16502255904E+02  0.34948001596E+02  0.42642841267E+02  0.00000000000E+00 0. -1.
<mgrwt>
<rscale>  0 0.67930091E+02</rscale>
<asrwt>0</asrwt>
<pdfrwt beam="1">  1        2 0.65453687E-02 0.95517128E+02</pdfrwt>
<pdfrwt beam="2">  1       -2 0.15036422E-01 0.95517128E+02</pdfrwt>
<totfact> 0.32919842E+04</totfact>
</mgrwt>
</event>
<event>
 6    1  0.2975432E-002  0.8211958E+02  0.7546771E-02  0.1449411E+00
          2   -1    0    0  501    0  0.00000000000E+00  0.00000000000E+00  0.13905651120E+03  0.13905651120E+03  0.00000000000E+00 0. -1.
         -2   -1    0    0    0  501 -0.00000000000E+00 -0.00000000000E+00 -0.17242437825E+02  0.17242437825E+02  0.00000000000E+00 0.  1.
         23    2    1    2    0    0 -0.27257412867E+01 -0.10271314121E+02  0.12016536952E+03  0.14554498307E+03  0.81429088820E+02 0.  0.
         11    1    3    3    0    0  0.63801416284E+01  0.33535918922E+02  0.72694509190E+02  0.80310993840E+02  0.00000000000E+00 0. -1.
        -11    1    3    3    0    0 -0.91058829151E+01 -0.43807233043E+02  0.47470860326E+02  0.65233989228E+02  0.00000000000E+00 0.  1.
         22    1    1    2    0    0  0.27257412867E+01  0.10271314121E+02  0.16487038552E+01  0.10753965954E+02  0.00000000000E+00 0. -1.
<mgrwt>
<rscale>  0 0.49253377E+02</rscale>
<asrwt>0</asrwt>
<pdfrwt beam="1">  1        2 0.21393309E-01 0.82119584E+02</pdfrwt>
<pdfrwt beam="2">  1       -2 0.26526828E-02 0.82119584E+02</pdfrwt>
<totfact> 0.10899963E+05</totfact>
</mgrwt>
</event>
<event>
 6    1  0.2975432E-002  0.9481442E+02  0.7546771E-02  0.1375799E+00
         -2   -1    0    0    0  501 -0.00000000000E+00  0.00000000000E+00  0.89380788834E+01  0.89380788834E+01  0.00000000000E+00 0.  1.
          2   -1    0    0  501    0  0.00000000000E+00 -0.00000000000E+00 -0.39552859676E+03  0.39552859676E+03  0.00000000000E+00 0. -1.
         23    2    1    2    0    0 -0.20338910126E+02 -0.75689662997E+01 -0.27785679283E+03  0.29358843847E+03  0.92297417981E+02 0.  0.
         13    1    3    3    0    0 -0.56103970940E+02 -0.15002972846E+02 -0.17992881335E+03  0.18906909483E+03  0.00000000000E+00 0. -1.
        -13    1    3    3    0    0  0.35765060814E+02  0.74340065462E+01 -0.97927979480E+02  0.10451934363E+03  0.00000000000E+00 0.  1.
         22    1    1    2    0    0  0.20338910126E+02  0.75689662997E+01 -0.10873372505E+03  0.11087823717E+03  0.00000000000E+00 0.  1.
<mgrwt>
<rscale>  0 0.65581123E+02</rscale>
<asrwt>0</asrwt>
<pdfrwt beam="1">  1        2 0.60850546E-01 0.94814418E+02</pdfrwt>
<pdfrwt beam="2">  1       -2 0.13750892E-02 0.94814418E+02</pdfrwt>
<totfact> 0.94182776E+04</totfact>
</mgrwt>
</event>
<event>
 6    1  0.2975432E-002  0.1011625E+03  0.7546771E-02  0.1328940E+00
          2   -1    0    0  501    0  0.00000000000E+00  0.00000000000E+00  0.55056111422E+03  0.55056111422E+03  0.00000000000E+00 0. -1.
         -2   -1    0    0    0  501 -0.00000000000E+00 -0.00000000000E+00 -0.16689431500E+02  0.16689431500E+02  0.00000000000E+00 0.  1.
         23    2    1    2    0    0 -0.38504845361E+02  0.94260876473E+01  0.51215424767E+03  0.52204964717E+03  0.93071942375E+02 0.  0.
         13    1    3    3    0    0 -0.78507963080E+01 -0.39213611788E+02  0.28207182939E+03  0.28489271540E+03  0.00000000000E+00 0. -1.
        -13    1    3    3    0    0 -0.30654049053E+02  0.48639699435E+02  0.23008241828E+03  0.23715693177E+03  0.00000000000E+00 0.  1.
         22    1    1    2    0    0  0.38504845361E+02 -0.94260876473E+01  0.21717435049E+02  0.45200898550E+02  0.00000000000E+00 0.  1.
<mgrwt>
<rscale>  0 0.80039289E+02</rscale>
<asrwt>0</asrwt>
<pdfrwt beam="1">  1        2 0.84701696E-01 0.10116255E+03</pdfrwt>
<pdfrwt beam="2">  1       -2 0.25676053E-02 0.10116255E+03</pdfrwt>
<totfact> 0.27113959E+04</totfact>
</mgrwt>
</event>
<event>
 6    1  0.2975432E-002  0.9596570E+02  0.7546771E-02  0.1397177E+00
         -2   -1    0    0    0  501 -0.00000000000E+00  0.00000000000E+00  0.67820490675E+02  0.67820490675E+02  0.00000000000E+00 0.  1.
          2   -1    0    0  501    0  0.00000000000E+00 -0.00000000000E+00 -0.47010930735E+02  0.47010930735E+02  0.00000000000E+00 0. -1.
         23    2    1    2    0    0  0.47104926855E+01 -0.14048757641E+02  0.99900801048E+01  0.96484283310E+02  0.94814866412E+02 0.  0.
         11    1    3    3    0    0  0.46975158363E+02 -0.17750822845E+02 -0.71553832552E+01  0.50724320838E+02  0.00000000000E+00 0. -1.
        -11    1    3    3    0    0 -0.42264665678E+02  0.37020652039E+01  0.17145463360E+02  0.45759962472E+02  0.00000000000E+00 0.  1.
         22    1    1    2    0    0 -0.47104926855E+01  0.14048757641E+02  0.10819479835E+02  0.18347138101E+02  0.00000000000E+00 0.  1.
<mgrwt>
<rscale>  0 0.60156182E+02</rscale>
<asrwt>0</asrwt>
<pdfrwt beam="1">  1        2 0.72324509E-02 0.95965698E+02</pdfrwt>
<pdfrwt beam="2">  1       -2 0.10433922E-01 0.95965698E+02</pdfrwt>
<totfact> 0.51938990E+04</totfact>
</mgrwt>
</event>
<event>
 6    1  0.2975432E-002  0.9271265E+02  0.7546771E-02  0.1398849E+00
         -2   -1    0    0    0  501 -0.00000000000E+00  0.00000000000E+00  0.46378416606E+01  0.46378416606E+01  0.00000000000E+00 0.  1.
          2   -1    0    0  501    0  0.00000000000E+00 -0.00000000000E+00 -0.66498325255E+03  0.66498325255E+03  0.00000000000E+00 0. -1.
         23    2    1    2    0    0 -0.15246291602E+02  0.48595118158E+01 -0.60296514023E+03  0.61005130553E+03  0.91321250438E+02 0.  0.
         11    1    3    3    0    0 -0.49680281718E+01  0.27926973225E+02 -0.55603367347E+03  0.55675671811E+03  0.00000000000E+00 0. -1.
        -11    1    3    3    0    0 -0.10278263430E+02 -0.23067461409E+02 -0.46931466762E+02  0.53294587412E+02  0.00000000000E+00 0.  1.
         22    1    1    2    0    0  0.15246291602E+02 -0.48595118158E+01 -0.57380270660E+02  0.59569788683E+02  0.00000000000E+00 0. -1.
<mgrwt>
<rscale>  0 0.59758248E+02</rscale>
<asrwt>0</asrwt>
<pdfrwt beam="1">  1        2 0.10230520E+00 0.92712648E+02</pdfrwt>
<pdfrwt beam="2">  1       -2 0.71351353E-03 0.92712648E+02</pdfrwt>
<totfact> 0.13488051E+05</totfact>
</mgrwt>
</event>
<event>
 6    1  0.2975432E-002  0.1117235E+03  0.7546771E-02  0.1387652E+00
         -2   -1    0    0    0  501 -0.00000000000E+00  0.00000000000E+00  0.33770680837E+02  0.33770680837E+02  0.00000000000E+00 0. -1.
          2   -1    0    0  501    0  0.00000000000E+00 -0.00000000000E+00 -0.11188247101E+03  0.11188247101E+03  0.00000000000E+00 0.  1.
         23    2    1    2    0    0  0.44671418249E+01  0.99841506582E+01 -0.73790969171E+02  0.13389270481E+03  0.11118682768E+03 0.  0.
         11    1    3    3    0    0  0.22695957387E+02  0.56795675982E+02 -0.45575388585E+02  0.76275627409E+02  0.00000000000E+00 0.  1.
        -11    1    3    3    0    0 -0.18228815562E+02 -0.46811525324E+02 -0.28215580586E+02  0.57617077397E+02  0.00000000000E+00 0. -1.
         22    1    1    2    0    0 -0.44671418249E+01 -0.99841506582E+01 -0.43208210017E+01  0.11760447040E+02  0.00000000000E+00 0.  1.
<mgrwt>
<rscale>  0 0.62494592E+02</rscale>
<asrwt>0</asrwt>
<pdfrwt beam="1">  1        2 0.17212688E-01 0.11172354E+03</pdfrwt>
<pdfrwt beam="2">  1       -2 0.51954893E-02 0.11172354E+03</pdfrwt>
<totfact> 0.54247657E+04</totfact>
</mgrwt>
</event>
<event>
 6    1  0.2975432E-002  0.9365994E+02  0.7546771E-02  0.1381827E+00
          2   -1    0    0  501    0  0.00000000000E+00  0.00000000000E+00  0.11240835264E+03  0.11240835264E+03  0.00000000000E+00 0. -1.
         -2   -1    0    0    0  501 -0.00000000000E+00 -0.00000000000E+00 -0.32671405116E+02  0.32671405116E+02  0.00000000000E+00 0.  1.
         23    2    1    2    0    0  0.83250003488E+01  0.18626576479E+02  0.82088982117E+02  0.12454230298E+03  0.91410772147E+02 0.  0.
         13    1    3    3    0    0  0.43747604103E+02 -0.34164620224E+01  0.67171850421E+02  0.80234547213E+02  0.00000000000E+00 0. -1.
        -13    1    3    3    0    0 -0.35422603754E+02  0.22043038502E+02  0.14917131695E+02  0.44307755767E+02  0.00000000000E+00 0.  1.
         22    1    1    2    0    0 -0.83250003488E+01 -0.18626576479E+02 -0.23520345890E+01  0.20537454780E+02  0.00000000000E+00 0. -1.
<mgrwt>
<rscale>  0 0.63986055E+02</rscale>
<asrwt>0</asrwt>
<pdfrwt beam="1">  1        2 0.17293592E-01 0.93659939E+02</pdfrwt>
<pdfrwt beam="2">  1       -2 0.50263701E-02 0.93659939E+02</pdfrwt>
<totfact> 0.55361336E+04</totfact>
</mgrwt>
</event>
<event>
 6    1  0.2975432E-002  0.8940859E+02  0.7546771E-02  0.1433323E+00
         -2   -1    0    0    0  501 -0.00000000000E+00  0.00000000000E+00  0.23570903288E+01  0.23570903288E+01  0.00000000000E+00 0.  1.
          2   -1    0    0  501    0  0.00000000000E+00 -0.00000000000E+00 -0.11425760471E+04  0.11425760471E+04  0.00000000000E+00 0. -1.
         23    2    1    2    0    0  0.14270615553E+01 -0.10369444511E+02 -0.10884879478E+04  0.10921537932E+04  0.88793770572E+02 0.  0.
         13    1    3    3    0    0 -0.15882092541E+02 -0.33154211568E+02 -0.20954915415E+03  0.21274936101E+03  0.00000000000E+00 0.  1.
        -13    1    3    3    0    0  0.17309154097E+02  0.22784767057E+02 -0.87893879365E+03  0.87940443222E+03  0.00000000000E+00 0. -1.
         22    1    1    2    0    0 -0.14270615553E+01  0.10369444511E+02 -0.51731008989E+02  0.52779344209E+02  0.00000000000E+00 0.  1.
<mgrwt>
<rscale>  0 0.52298817E+02</rscale>
<asrwt>0</asrwt>
<pdfrwt beam="1">  1        2 0.17578111E+00 0.89408588E+02</pdfrwt>
<pdfrwt beam="2">  1       -2 0.36262891E-03 0.89408588E+02</pdfrwt>
<totfact> 0.17355649E+05</totfact>
</mgrwt>
</event>
<event>
 6    1  0.2975432E-002  0.9126376E+02  0.7546771E-02  0.1421635E+00
          2   -1    0    0  501    0  0.00000000000E+00  0.00000000000E+00  0.17535322279E+03  0.17535322279E+03  0.00000000000E+00 0. -1.
         -2   -1    0    0    0  501 -0.00000000000E+00 -0.00000000000E+00 -0.22582282749E+02  0.22582282749E+02  0.00000000000E+00 0.  1.
         23    2    1    2    0    0 -0.64303274484E+01 -0.98430879255E+01  0.15995331494E+03  0.18415791503E+03  0.90503255298E+02 0.  0.
         11    1    3    3    0    0 -0.33588737354E+02  0.13480291340E+02  0.23656889915E+02  0.43238524166E+02  0.00000000000E+00 0. -1.
        -11    1    3    3    0    0  0.27158409905E+02 -0.23323379265E+02  0.13629642502E+03  0.14091939087E+03  0.00000000000E+00 0.  1.
         22    1    1    2    0    0  0.64303274484E+01  0.98430879255E+01 -0.71823748950E+01  0.13777590505E+02  0.00000000000E+00 0. -1.
<mgrwt>
<rscale>  0 0.54676566E+02</rscale>
<asrwt>0</asrwt>
<pdfrwt beam="1">  1        2 0.26977418E-01 0.91263764E+02</pdfrwt>
<pdfrwt beam="2">  1       -2 0.34741975E-02 0.91263764E+02</pdfrwt>
<totfact> 0.58091614E+04</totfact>
</mgrwt>
</event>
<event>
 6    1  0.2975432E-002  0.9506800E+02  0.7546771E-02  0.1404832E+00
         -2   -1    0    0    0  501 -0.00000000000E+00  0.00000000000E+00  0.29185972003E+01  0.29185972003E+01  0.00000000000E+00 0.  1.
          2   -1    0    0  501    0  0.00000000000E+00 -0.00000000000E+00 -0.11695132114E+04  0.11695132114E+04  0.00000000000E+00 0. -1.
         23    2    1    2    0    0 -0.26474974812E+01  0.13241701884E+02 -0.11167868870E+04  0.11208259794E+04  0.94104056051E+02 0.  0.
         11    1    3    3    0    0 -0.16324587589E+02  0.27404217911E+02 -0.10641408368E+04  0.10646188068E+04  0.00000000000E+00 0. -1.
        -11    1    3    3    0    0  0.13677090107E+02 -0.14162516028E+02 -0.52646050214E+02  0.56207172649E+02  0.00000000000E+00 0.  1.
         22    1    1    2    0    0  0.26474974812E+01 -0.13241701884E+02 -0.49807727241E+02  0.51605829172E+02  0.00000000000E+00 0. -1.
<mgrwt>
<rscale>  0 0.58363264E+02</rscale>
<asrwt>0</asrwt>
<pdfrwt beam="1">  1        2 0.17992515E+00 0.95068003E+02</pdfrwt>
<pdfrwt beam="2">  1       -2 0.44901484E-03 0.95068003E+02</pdfrwt>
<totfact> 0.12544963E+05</totfact>
</mgrwt>
</event>
<event>
 6    1  0.2975432E-002  0.9125989E+02  0.7546771E-02  0.1418576E+00
          2   -1    0    0  501    0  0.00000000000E+00  0.00000000000E+00  0.23796390859E+03  0.23796390859E+03  0.00000000000E+00 0. -1.
         -2   -1    0    0    0  501 -0.00000000000E+00 -0.00000000000E+00 -0.12806802600E+02  0.12806802600E+02  0.00000000000E+00 0.  1.
         23    2    1    2    0    0  0.33718591516E+01 -0.11854995857E+02  0.21843322375E+03  0.23673073422E+03  0.90423763058E+02 0.  0.
         13    1    3    3    0    0 -0.26529959416E+02  0.49298727381E+01  0.15910450932E+02  0.31325466328E+02  0.00000000000E+00 0.  1.
        -13    1    3    3    0    0  0.29901818568E+02 -0.16784868595E+02  0.20252277282E+03  0.20540526789E+03  0.00000000000E+00 0. -1.
         22    1    1    2    0    0 -0.33718591516E+01  0.11854995857E+02  0.67238822362E+01  0.14039976967E+02  0.00000000000E+00 0. -1.
<mgrwt>
<rscale>  0 0.55323338E+02</rscale>
<asrwt>0</asrwt>
<pdfrwt beam="1">  1        2 0.36609829E-01 0.91259889E+02</pdfrwt>
<pdfrwt beam="2">  1       -2 0.19702775E-02 0.91259889E+02</pdfrwt>
<totfact> 0.95382959E+04</totfact>
</mgrwt>
</event>
<event>
 6    1  0.2975432E-002  0.9230265E+02  0.7546771E-02  0.1396462E+00
          4   -1    0    0  501    0  0.00000000000E+00  0.00000000000E+00  0.27282740700E+02  0.27282740700E+02  0.00000000000E+00 0. -1.
         -4   -1    0    0    0  501 -0.00000000000E+00 -0.00000000000E+00 -0.11070276591E+03  0.11070276591E+03  0.00000000000E+00 0.  1.
         23    2    1    2    0    0 -0.13602509429E+02  0.99329365541E+01 -0.64224344266E+02  0.11244797231E+03  0.90752898512E+02 0.  0.
         13    1    3    3    0    0  0.17322671208E+02  0.24995571115E+02  0.88578093511E+01  0.31675136932E+02  0.00000000000E+00 0. -1.
        -13    1    3    3    0    0 -0.30925180637E+02 -0.15062634561E+02 -0.73082153617E+02  0.80772835376E+02  0.00000000000E+00 0.  1.
         22    1    1    2    0    0  0.13602509429E+02 -0.99329365541E+01 -0.19195680947E+02  0.25537534305E+02  0.00000000000E+00 0.  1.
<mgrwt>
<rscale>  0 0.60327653E+02</rscale>
<asrwt>0</asrwt>
<pdfrwt beam="1">  1        4 0.41973448E-02 0.92302655E+02</pdfrwt>
<pdfrwt beam="2">  1       -4 0.17031195E-01 0.92302655E+02</pdfrwt>
<totfact> 0.13842847E+04</totfact>
</mgrwt>
</event>
<event>
 6    1  0.2975432E-002  0.1221401E+03  0.7546771E-02  0.1256258E+00
          2   -1    0    0  501    0  0.00000000000E+00  0.00000000000E+00  0.31386352165E+03  0.31386352165E+03  0.00000000000E+00 0. -1.
         -2   -1    0    0    0  501 -0.00000000000E+00 -0.00000000000E+00 -0.35405541494E+02  0.35405541494E+02  0.00000000000E+00 0.  1.
         23    2    1    2    0    0 -0.73170435183E+02  0.47941801487E+02  0.18044691053E+03  0.21789745783E+03  0.85240164779E+02 0.  0.
         11    1    3    3    0    0 -0.37541904942E+02  0.28309129044E+02  0.16931466056E+03  0.17572209791E+03  0.00000000000E+00 0. -1.
        -11    1    3    3    0    0 -0.35628530241E+02  0.19632672443E+02  0.11132249972E+02  0.42175359914E+02  0.00000000000E+00 0.  1.
         22    1    1    2    0    0  0.73170435183E+02 -0.47941801487E+02  0.98011069622E+02  0.13137160532E+03  0.00000000000E+00 0. -1.
<mgrwt>
<rscale>  0 0.11236163E+03</rscale>
<asrwt>0</asrwt>
<pdfrwt beam="1">  1        2 0.48286694E-01 0.12214014E+03</pdfrwt>
<pdfrwt beam="2">  1       -2 0.54470066E-02 0.12214014E+03</pdfrwt>
<totfact> 0.16609673E+04</totfact>
</mgrwt>
</event>
<event>
 6    1  0.2975432E-002  0.9628462E+02  0.7546771E-02  0.1372469E+00
         -1   -1    0    0    0  501 -0.00000000000E+00  0.00000000000E+00  0.87020557316E+01  0.87020557316E+01  0.00000000000E+00 0.  1.
          1   -1    0    0  501    0  0.00000000000E+00 -0.00000000000E+00 -0.40882300804E+03  0.40882300804E+03  0.00000000000E+00 0. -1.
         23    2    1    2    0    0  0.18756371700E+02 -0.11285435656E+02 -0.30137956482E+03  0.31638642555E+03  0.93763349165E+02 0.  0.
         11    1    3    3    0    0  0.27056510951E+02  0.55254165910E+01 -0.29542850784E+03  0.29671634309E+03  0.00000000000E+00 0. -1.
        -11    1    3    3    0    0 -0.83001392514E+01 -0.16810852247E+02 -0.59510569783E+01  0.19670082461E+02  0.00000000000E+00 0.  1.
         22    1    1    2    0    0 -0.18756371700E+02  0.11285435656E+02 -0.98741387489E+02  0.10113863822E+03  0.00000000000E+00 0. -1.
<mgrwt>
<rscale>  0 0.66485670E+02</rscale>
<asrwt>0</asrwt>
<pdfrwt beam="1">  1        1 0.62895823E-01 0.96284621E+02</pdfrwt>
<pdfrwt beam="2">  1       -1 0.13387783E-02 0.96284621E+02</pdfrwt>
<totfact> 0.63864121E+04</totfact>
</mgrwt>
</event>
<event>
 6    1  0.2975432E-002  0.9585655E+02  0.7546771E-02  0.1355653E+00
         -2   -1    0    0    0  501 -0.00000000000E+00  0.00000000000E+00  0.36775622879E+03  0.36775622879E+03  0.00000000000E+00 0.  1.
          2   -1    0    0  501    0  0.00000000000E+00 -0.00000000000E+00 -0.10686561907E+02  0.10686561907E+02  0.00000000000E+00 0. -1.
         23    2    1    2    0    0  0.24873921198E+02 -0.15634312088E+02  0.26538941126E+03  0.28217019365E+03  0.91243273219E+02 0.  0.
         11    1    3    3    0    0 -0.25574819741E+02 -0.33539694072E+02  0.10925799913E+03  0.11711657807E+03  0.00000000000E+00 0. -1.
        -11    1    3    3    0    0  0.50448740939E+02  0.17905381983E+02  0.15613141212E+03  0.16505361558E+03  0.00000000000E+00 0.  1.
         22    1    1    2    0    0 -0.24873921198E+02  0.15634312088E+02  0.91680255625E+02  0.96272597044E+02  0.00000000000E+00 0. -1.
<mgrwt>
<rscale>  0 0.71322530E+02</rscale>
<asrwt>0</asrwt>
<pdfrwt beam="1">  1        2 0.16440867E-02 0.95856552E+02</pdfrwt>
<pdfrwt beam="2">  1       -2 0.56577872E-01 0.95856552E+02</pdfrwt>
<totfact> 0.19039114E+04</totfact>
</mgrwt>
</event>
<event>
 6    1  0.2975432E-002  0.9332075E+02  0.7546771E-02  0.1426968E+00
          2   -1    0    0  501    0  0.00000000000E+00  0.00000000000E+00  0.26306439083E+02  0.26306439083E+02  0.00000000000E+00 0. -1.
         -2   -1    0    0    0  501 -0.00000000000E+00 -0.00000000000E+00 -0.12007451648E+03  0.12007451648E+03  0.00000000000E+00 0.  1.
         23    2    1    2    0    0 -0.57764210999E+01 -0.83289589542E+01 -0.59571238415E+02  0.11071356998E+03  0.92768655987E+02 0.  0.
         11    1    3    3    0    0  0.68754457722E+01  0.23843363107E+01 -0.82277772638E+02  0.82598962974E+02  0.00000000000E+00 0.  1.
        -11    1    3    3    0    0 -0.12651866872E+02 -0.10713295265E+02  0.22706534222E+02  0.28114607007E+02  0.00000000000E+00 0. -1.
         22    1    1    2    0    0  0.57764210999E+01  0.83289589542E+01 -0.34196838982E+02  0.35667385584E+02  0.00000000000E+00 0.  1.
<mgrwt>
<rscale>  0 0.53573543E+02</rscale>
<asrwt>0</asrwt>
<pdfrwt beam="1">  1        2 0.40471444E-02 0.93320749E+02</pdfrwt>
<pdfrwt beam="2">  1       -2 0.18473003E-01 0.93320749E+02</pdfrwt>
<totfact> 0.43496834E+04</totfact>
</mgrwt>
</event>
<event>
 6    1  0.2975432E-002  0.9144709E+02  0.7546771E-02  0.1419918E+00
          1   -1    0    0  501    0  0.00000000000E+00  0.00000000000E+00  0.13953242647E+03  0.13953242647E+03  0.00000000000E+00 0. -1.
         -1   -1    0    0    0  501 -0.00000000000E+00 -0.00000000000E+00 -0.41247084115E+02  0.41247084115E+02  0.00000000000E+00 0.  1.
         23    2    1    2    0    0 -0.94681443848E+01 -0.73712178129E+01  0.12302137071E+03  0.15328675320E+03  0.90656441827E+02 0.  0.
         13    1    3    3    0    0 -0.30918871830E+01  0.36748969851E+02  0.91606135192E+02  0.98750850914E+02  0.00000000000E+00 0. -1.
        -13    1    3    3    0    0 -0.63762572018E+01 -0.44120187664E+02  0.31415235519E+02  0.54535902286E+02  0.00000000000E+00 0.  1.
         22    1    1    2    0    0  0.94681443848E+01  0.73712178129E+01 -0.24736028353E+02  0.27492757388E+02  0.00000000000E+00 0.  1.
<mgrwt>
<rscale>  0 0.55038354E+02</rscale>
<asrwt>0</asrwt>
<pdfrwt beam="1">  1        1 0.21466527E-01 0.91447094E+02</pdfrwt>
<pdfrwt beam="2">  1       -1 0.63457053E-02 0.91447094E+02</pdfrwt>
<totfact> 0.25237647E+04</totfact>
</mgrwt>
</event>
<event>
 6    1  0.2975432E-002  0.9160180E+02  0.7546771E-02  0.1402290E+00
         -2   -1    0    0    0  501 -0.00000000000E+00  0.00000000000E+00  0.38514813942E+01  0.38514813942E+01  0.00000000000E+00 0. -1.
          2   -1    0    0  501    0  0.00000000000E+00 -0.00000000000E+00 -0.79303519346E+03  0.79303519346E+03  0.00000000000E+00 0.  1.
         23    2    1    2    0    0 -0.12394185237E+02  0.96568253932E+01 -0.72702164773E+03  0.73276965413E+03  0.90244222187E+02 0.  0.
         11    1    3    3    0    0 -0.14094916822E+02 -0.19468607347E+01 -0.71756015633E+03  0.71770121562E+03  0.00000000000E+00 0.  1.
        -11    1    3    3    0    0  0.17007315851E+01  0.11603686128E+02 -0.94614914057E+01  0.15068438516E+02  0.00000000000E+00 0. -1.
         22    1    1    2    0    0  0.12394185237E+02 -0.96568253932E+01 -0.62162064337E+02  0.64117020727E+02  0.00000000000E+00 0.  1.
<mgrwt>
<rscale>  0 0.58950374E+02</rscale>
<asrwt>0</asrwt>
<pdfrwt beam="1">  1        2 0.12200533E+00 0.91601800E+02</pdfrwt>
<pdfrwt beam="2">  1       -2 0.59253599E-03 0.91601800E+02</pdfrwt>
<totfact> 0.14199862E+05</totfact>
</mgrwt>
</event>
<event>
 6    1  0.2975432E-002  0.9339281E+02  0.7546771E-02  0.1393249E+00
          2   -1    0    0  501    0  0.00000000000E+00  0.00000000000E+00  0.38636654302E+03  0.38636654302E+03  0.00000000000E+00 0. -1.
         -2   -1    0    0    0  501 -0.00000000000E+00 -0.00000000000E+00 -0.80137017049E+01  0.80137017049E+01  0.00000000000E+00 0.  1.
         23    2    1    2    0    0 -0.16835656519E+02  0.30827385323E+01  0.33489220814E+03  0.34767083193E+03  0.91811076115E+02 0.  0.
         11    1    3    3    0    0 -0.34025661137E+02 -0.35219985039E+02  0.21899928832E+03  0.22440784578E+03  0.00000000000E+00 0. -1.
        -11    1    3    3    0    0  0.17190004618E+02  0.38302723571E+02  0.11589291982E+03  0.12326298615E+03  0.00000000000E+00 0.  1.
         22    1    1    2    0    0  0.16835656519E+02 -0.30827385323E+01  0.43460633177E+02  0.46709412793E+02  0.00000000000E+00 0. -1.
<mgrwt>
<rscale>  0 0.61105864E+02</rscale>
<asrwt>0</asrwt>
<pdfrwt beam="1">  1        2 0.59440992E-01 0.93392806E+02</pdfrwt>
<pdfrwt beam="2">  1       -2 0.12328775E-02 0.93392806E+02</pdfrwt>
<totfact> 0.11251929E+05</totfact>
</mgrwt>
</event>
<event>
 6    1  0.2975432E-002  0.9922756E+02  0.7546771E-02  0.1334380E+00
         -2   -1    0    0    0  501 -0.00000000000E+00  0.00000000000E+00  0.10176425923E+02  0.10176425923E+02  0.00000000000E+00 0.  1.
          2   -1    0    0  501    0  0.00000000000E+00 -0.00000000000E+00 -0.75396671491E+03  0.75396671491E+03  0.00000000000E+00 0. -1.
         23    2    1    2    0    0 -0.79326535670E+01 -0.37348595876E+02 -0.69568936083E+03  0.70273024401E+03  0.91587468972E+02 0.  0.
         11    1    3    3    0    0 -0.12424363994E+02 -0.11208043593E+02 -0.18204119377E+02  0.24725998951E+02  0.00000000000E+00 0.  1.
        -11    1    3    3    0    0  0.44917104270E+01 -0.26140552283E+02 -0.67748524145E+03  0.67800424506E+03  0.00000000000E+00 0. -1.
         22    1    1    2    0    0  0.79326535670E+01  0.37348595876E+02 -0.48100928164E+02  0.61412896827E+02  0.00000000000E+00 0. -1.
<mgrwt>
<rscale>  0 0.78151649E+02</rscale>
<asrwt>0</asrwt>
<pdfrwt beam="1">  1        2 0.11599489E+00 0.99227562E+02</pdfrwt>
<pdfrwt beam="2">  1       -2 0.15656039E-02 0.99227562E+02</pdfrwt>
<totfact> 0.38481753E+04</totfact>
</mgrwt>
</event>
<event>
 6    1  0.2975432E-002  0.9232499E+02  0.7546771E-02  0.1426969E+00
          2   -1    0    0  501    0  0.00000000000E+00  0.00000000000E+00  0.17633769131E+03  0.17633769131E+03  0.00000000000E+00 0. -1.
         -2   -1    0    0    0  501 -0.00000000000E+00 -0.00000000000E+00 -0.25099549226E+02  0.25099549226E+02  0.00000000000E+00 0.  1.
         23    2    1    2    0    0 -0.56248006274E+01 -0.88275698528E+01  0.16197664589E+03  0.18644124655E+03  0.91729712909E+02 0.  0.
         11    1    3    3    0    0 -0.43305172675E+02 -0.25488232659E+02  0.76099549591E+02  0.91192814588E+02  0.00000000000E+00 0.  1.
        -11    1    3    3    0    0  0.37680372048E+02  0.16660662806E+02  0.85877096298E+02  0.95248431962E+02  0.00000000000E+00 0. -1.
         22    1    1    2    0    0  0.56248006274E+01  0.88275698528E+01 -0.10738503806E+02  0.14995993985E+02  0.00000000000E+00 0.  1.
<mgrwt>
<rscale>  0 0.53573268E+02</rscale>
<asrwt>0</asrwt>
<pdfrwt beam="1">  1        2 0.27128875E-01 0.92324994E+02</pdfrwt>
<pdfrwt beam="2">  1       -2 0.38614692E-02 0.92324994E+02</pdfrwt>
<totfact> 0.49533758E+04</totfact>
</mgrwt>
</event>
<event>
 6    1  0.2975432E-002  0.9202707E+02  0.7546771E-02  0.1425158E+00
         -2   -1    0    0    0  501 -0.00000000000E+00  0.00000000000E+00  0.20827727492E+02  0.20827727492E+02  0.00000000000E+00 0.  1.
          2   -1    0    0  501    0  0.00000000000E+00 -0.00000000000E+00 -0.15632119179E+03  0.15632119179E+03  0.00000000000E+00 0. -1.
         23    2    1    2    0    0 -0.45576130589E+01  0.98630406612E+01 -0.13812054620E+03  0.16597068296E+03  0.91383428008E+02 0.  0.
         13    1    3    3    0    0 -0.15783264495E+02 -0.38716341001E+02 -0.55761714722E+02  0.69695303481E+02  0.00000000000E+00 0.  1.
        -13    1    3    3    0    0  0.11225651436E+02  0.48579381663E+02 -0.82358831474E+02  0.96275379484E+02  0.00000000000E+00 0. -1.
         22    1    1    2    0    0  0.45576130589E+01 -0.98630406612E+01  0.26270818978E+01  0.11178236318E+02  0.00000000000E+00 0.  1.
<mgrwt>
<rscale>  0 0.53944306E+02</rscale>
<asrwt>0</asrwt>
<pdfrwt beam="1">  1        2 0.24049414E-01 0.92027074E+02</pdfrwt>
<pdfrwt beam="2">  1       -2 0.32042658E-02 0.92027074E+02</pdfrwt>
<totfact> 0.74160115E+04</totfact>
</mgrwt>
</event>
<event>
 6    1  0.2975432E-002  0.9416375E+02  0.7546771E-02  0.1370662E+00
          2   -1    0    0  501    0  0.00000000000E+00  0.00000000000E+00  0.56264299877E+03  0.56264299877E+03  0.00000000000E+00 0. -1.
         -2   -1    0    0    0  501 -0.00000000000E+00 -0.00000000000E+00 -0.62300535051E+01  0.62300535051E+01  0.00000000000E+00 0.  1.
         23    2    1    2    0    0  0.23233848518E+02  0.64456912635E+01  0.45359100813E+03  0.46326192876E+03  0.91024465580E+02 0.  0.
         13    1    3    3    0    0  0.18724921828E+02  0.57038690459E+01  0.15035064305E+02  0.24682179365E+02  0.00000000000E+00 0.  1.
        -13    1    3    3    0    0  0.45089266902E+01  0.74182221764E+00  0.43855594382E+03  0.43857974940E+03  0.00000000000E+00 0. -1.
         22    1    1    2    0    0 -0.23233848518E+02 -0.64456912635E+01  0.10282193713E+03  0.10561112351E+03  0.00000000000E+00 0. -1.
<mgrwt>
<rscale>  0 0.66983576E+02</rscale>
<asrwt>0</asrwt>
<pdfrwt beam="1">  1        2 0.86560421E-01 0.94163751E+02</pdfrwt>
<pdfrwt beam="2">  1       -2 0.95847022E-03 0.94163751E+02</pdfrwt>
<totfact> 0.10755797E+05</totfact>
</mgrwt>
</event>
<event>
 6    1  0.2975432E-002  0.9453888E+02  0.7546771E-02  0.1410629E+00
         -2   -1    0    0    0  501 -0.00000000000E+00  0.00000000000E+00  0.45751759579E+01  0.45751759579E+01  0.00000000000E+00 0.  1.
          2   -1    0    0  501    0  0.00000000000E+00 -0.00000000000E+00 -0.82728386118E+03  0.82728386118E+03  0.00000000000E+00 0. -1.
         23    2    1    2    0    0  0.10298864263E+02 -0.71547262145E+01 -0.80268185025E+03  0.80823001195E+03  0.93703483303E+02 0.  0.
         11    1    3    3    0    0 -0.14381082843E+02 -0.44457952191E+02 -0.51190520773E+03  0.51403333234E+03  0.00000000000E+00 0. -1.
        -11    1    3    3    0    0  0.24679947106E+02  0.37303225977E+02 -0.29077664252E+03  0.29419667961E+03  0.00000000000E+00 0.  1.
         22    1    1    2    0    0 -0.10298864263E+02  0.71547262145E+01 -0.20026834968E+02  0.23629025184E+02  0.00000000000E+00 0.  1.
<mgrwt>
<rscale>  0 0.57053722E+02</rscale>
<asrwt>0</asrwt>
<pdfrwt beam="1">  1        2 0.12727457E+00 0.94538878E+02</pdfrwt>
<pdfrwt beam="2">  1       -2 0.70387249E-03 0.94538878E+02</pdfrwt>
<totfact> 0.10627142E+05</totfact>
</mgrwt>
</event>
<event>
 6    1  0.2975432E-002  0.1161836E+03  0.7546771E-02  0.1274572E+00
         -3   -1    0    0    0  501 -0.00000000000E+00  0.00000000000E+00  0.86960572560E+02  0.86960572560E+02  0.00000000000E+00 0.  1.
          3   -1    0    0  501    0  0.00000000000E+00 -0.00000000000E+00 -0.10323561404E+03  0.10323561404E+03  0.00000000000E+00 0. -1.
         23    2    1    2    0    0  0.20708847893E+01 -0.71102906499E+02 -0.24026830504E+02  0.11864199658E+03  0.91862521696E+02 0.  0.
         13    1    3    3    0    0  0.23975233326E+02 -0.84013807103E+02 -0.30265658216E+02  0.92461568579E+02  0.00000000000E+00 0. -1.
        -13    1    3    3    0    0 -0.21904348536E+02  0.12910900603E+02  0.62388277119E+01  0.26180428003E+02  0.00000000000E+00 0.  1.
         22    1    1    2    0    0 -0.20708847893E+01  0.71102906499E+02  0.77517890207E+01  0.71554190021E+02  0.00000000000E+00 0.  1.
<mgrwt>
<rscale>  0 0.10277241E+03</rscale>
<asrwt>0</asrwt>
<pdfrwt beam="1">  1        3 0.15882402E-01 0.11618363E+03</pdfrwt>
<pdfrwt beam="2">  1       -3 0.13378550E-01 0.11618363E+03</pdfrwt>
<totfact> 0.33642363E+03</totfact>
</mgrwt>
</event>
<event>
 6    1  0.2975432E-002  0.9713972E+02  0.7546771E-02  0.1361287E+00
          2   -1    0    0  501    0  0.00000000000E+00  0.00000000000E+00  0.69269443138E+02  0.69269443138E+02  0.00000000000E+00 0. -1.
         -2   -1    0    0    0  501 -0.00000000000E+00 -0.00000000000E+00 -0.70054484567E+02  0.70054484567E+02  0.00000000000E+00 0.  1.
         23    2    1    2    0    0  0.25538761109E+02 -0.26337467525E+01  0.27664650964E+02  0.10100226362E+03  0.93685427909E+02 0.  0.
         11    1    3    3    0    0  0.70309797797E+01 -0.38919156629E+02 -0.14736809509E+02  0.42205556315E+02  0.00000000000E+00 0.  1.
        -11    1    3    3    0    0  0.18507781330E+02  0.36285409877E+02  0.42401460473E+02  0.58796707305E+02  0.00000000000E+00 0. -1.
         22    1    1    2    0    0 -0.25538761109E+02  0.26337467525E+01 -0.28449692393E+02  0.38321664085E+02  0.00000000000E+00 0. -1.
<mgrwt>
<rscale>  0 0.69650122E+02</rscale>
<asrwt>0</asrwt>
<pdfrwt beam="1">  1        2 0.10656837E-01 0.97139716E+02</pdfrwt>
<pdfrwt beam="2">  1       -2 0.10777613E-01 0.97139716E+02</pdfrwt>
<totfact> 0.30689411E+04</totfact>
</mgrwt>
</event>
<event>
 6    1  0.2975432E-002  0.9354365E+02  0.7546771E-02  0.1375801E+00
         -1   -1    0    0    0  501 -0.00000000000E+00  0.00000000000E+00  0.19623206889E+02  0.19623206889E+02  0.00000000000E+00 0.  1.
          1   -1    0    0  501    0  0.00000000000E+00 -0.00000000000E+00 -0.34375431420E+03  0.34375431420E+03  0.00000000000E+00 0. -1.
         23    2    1    2    0    0 -0.17797647253E+02 -0.13924401777E+02 -0.32743934101E+03  0.34053918440E+03  0.90773172554E+02 0.  0.
         13    1    3    3    0    0 -0.21564461964E+02 -0.48648910283E+02 -0.24979634520E+03  0.25540155944E+03  0.00000000000E+00 0. -1.
        -13    1    3    3    0    0  0.37668147110E+01  0.34724508506E+02 -0.77642995816E+02  0.85137624957E+02  0.00000000000E+00 0.  1.
         22    1    1    2    0    0  0.17797647253E+02  0.13924401777E+02  0.33082337005E+01  0.22838336691E+02  0.00000000000E+00 0.  1.
<mgrwt>
<rscale>  0 0.65580638E+02</rscale>
<asrwt>0</asrwt>
<pdfrwt beam="1">  1        1 0.52885272E-01 0.93543648E+02</pdfrwt>
<pdfrwt beam="2">  1       -1 0.30189553E-02 0.93543648E+02</pdfrwt>
<totfact> 0.24672144E+04</totfact>
</mgrwt>
</event>
<event>
 6    1  0.2975432E-002  0.9289915E+02  0.7546771E-02  0.1423172E+00
          2   -1    0    0  501    0  0.00000000000E+00  0.00000000000E+00  0.31279550579E+02  0.31279550579E+02  0.00000000000E+00 0. -1.
         -2   -1    0    0    0  501 -0.00000000000E+00 -0.00000000000E+00 -0.86209512450E+02  0.86209512450E+02  0.00000000000E+00 0.  1.
         23    2    1    2    0    0 -0.86427866271E+01 -0.66215456739E+01 -0.47809145704E+02  0.10447950306E+03  0.92258926496E+02 0.  0.
         11    1    3    3    0    0 -0.32074703678E+02 -0.35680117514E+02 -0.46968716775E+02  0.67141028867E+02  0.00000000000E+00 0.  1.
        -11    1    3    3    0    0  0.23431917051E+02  0.29058571840E+02 -0.84042892895E+00  0.37338474190E+02  0.00000000000E+00 0. -1.
         22    1    1    2    0    0  0.86427866271E+01  0.66215456739E+01 -0.71208161677E+01  0.13009559973E+02  0.00000000000E+00 0. -1.
<mgrwt>
<rscale>  0 0.54355454E+02</rscale>
<asrwt>0</asrwt>
<pdfrwt beam="1">  1        2 0.48122386E-02 0.92899150E+02</pdfrwt>
<pdfrwt beam="2">  1       -2 0.13263002E-01 0.92899150E+02</pdfrwt>
<totfact> 0.59492292E+04</totfact>
</mgrwt>
</event>
<event>
 6    1  0.2975432E-002  0.1021604E+03  0.7546771E-02  0.1331490E+00
         -2   -1    0    0    0  501 -0.00000000000E+00  0.00000000000E+00  0.23670868020E+02  0.23670868020E+02  0.00000000000E+00 0.  1.
          2   -1    0    0  501    0  0.00000000000E+00 -0.00000000000E+00 -0.21447263191E+03  0.21447263191E+03  0.00000000000E+00 0. -1.
         23    2    1    2    0    0  0.16881077620E+02  0.32703855738E+02 -0.16150185282E+03  0.19110098989E+03  0.95300718322E+02 0.  0.
         11    1    3    3    0    0  0.28829445372E+01  0.39082091016E+02 -0.16935477112E+03  0.17382968592E+03  0.00000000000E+00 0. -1.
        -11    1    3    3    0    0  0.13998133083E+02 -0.63782352776E+01  0.78529182993E+01  0.17271303972E+02  0.00000000000E+00 0.  1.
         22    1    1    2    0    0 -0.16881077620E+02 -0.32703855738E+02 -0.29299911073E+02  0.47042510038E+02  0.00000000000E+00 0.  1.
<mgrwt>
<rscale>  0 0.79147047E+02</rscale>
<asrwt>0</asrwt>
<pdfrwt beam="1">  1        2 0.32995791E-01 0.10216036E+03</pdfrwt>
<pdfrwt beam="2">  1       -2 0.36416719E-02 0.10216036E+03</pdfrwt>
<totfact> 0.44338842E+04</totfact>
</mgrwt>
</event>
<event>
 6    1  0.2975432E-002  0.9397824E+02  0.7546771E-02  0.1421898E+00
          2   -1    0    0  501    0  0.00000000000E+00  0.00000000000E+00  0.44312907960E+03  0.44312907960E+03  0.00000000000E+00 0. -1.
         -2   -1    0    0    0  501 -0.00000000000E+00 -0.00000000000E+00 -0.97956251699E+01  0.97956251699E+01  0.00000000000E+00 0.  1.
         23    2    1    2    0    0 -0.36593590002E+01  0.10080711568E+02  0.43201616941E+03  0.44211975711E+03  0.93364325863E+02 0.  0.
         13    1    3    3    0    0 -0.15757411643E+02  0.22478175826E+02  0.42032704458E+03  0.42122249325E+03  0.00000000000E+00 0. -1.
        -13    1    3    3    0    0  0.12098052643E+02 -0.12397464258E+02  0.11689124825E+02  0.20897263863E+02  0.00000000000E+00 0.  1.
         22    1    1    2    0    0  0.36593590002E+01 -0.10080711568E+02  0.13172850187E+01  0.10804947656E+02  0.00000000000E+00 0.  1.
<mgrwt>
<rscale>  0 0.54621447E+02</rscale>
<asrwt>0</asrwt>
<pdfrwt beam="1">  1        2 0.68173689E-01 0.93978237E+02</pdfrwt>
<pdfrwt beam="2">  1       -2 0.15070196E-02 0.93978237E+02</pdfrwt>
<totfact> 0.73183968E+04</totfact>
</mgrwt>
</event>
<event>
 6    1  0.2975432E-002  0.9904043E+02  0.7546771E-02  0.1331181E+00
         -2   -1    0    0    0  501 -0.00000000000E+00  0.00000000000E+00  0.29126709358E+02  0.29126709358E+02  0.00000000000E+00 0.  1.
          2   -1    0    0  501    0  0.00000000000E+00 -0.00000000000E+00 -0.22957494083E+03  0.22957494083E+03  0.00000000000E+00 0. -1.
         23    2    1    2    0    0  0.38430787284E+02  0.13131378453E+02 -0.19367373283E+03  0.21752820798E+03  0.90330769784E+02 0.  0.
         13    1    3    3    0    0  0.17008731657E+02  0.94510254525E+01 -0.19479402225E+03  0.19576345404E+03  0.00000000000E+00 0. -1.
        -13    1    3    3    0    0  0.21422055628E+02  0.36803530001E+01  0.11202894264E+01  0.21764753936E+02  0.00000000000E+00 0.  1.
         22    1    1    2    0    0 -0.38430787284E+02 -0.13131378453E+02 -0.67744986482E+01  0.41173442208E+02  0.00000000000E+00 0.  1.
<mgrwt>
<rscale>  0 0.79254470E+02</rscale>
<asrwt>0</asrwt>
<pdfrwt beam="1">  1        2 0.35319221E-01 0.99040429E+02</pdfrwt>
<pdfrwt beam="2">  1       -2 0.44810323E-02 0.99040429E+02</pdfrwt>
<totfact> 0.30261782E+04</totfact>
</mgrwt>
</event>
<event>
 6    1  0.2975432E-002  0.9416938E+02  0.7546771E-02  0.1392687E+00
          4   -1    0    0  501    0  0.00000000000E+00  0.00000000000E+00  0.23684982059E+02  0.23684982059E+02  0.00000000000E+00 0. -1.
         -4   -1    0    0    0  501 -0.00000000000E+00 -0.00000000000E+00 -0.13763873113E+03  0.13763873113E+03  0.00000000000E+00 0.  1.
         23    2    1    2    0    0  0.13043315792E+02 -0.10661762514E+02 -0.80581752255E+02  0.12394067642E+03  0.92650262859E+02 0.  0.
         11    1    3    3    0    0  0.84796928301E+01 -0.52238540530E+01  0.20404370836E+02  0.22705333974E+02  0.00000000000E+00 0. -1.
        -11    1    3    3    0    0  0.45636229616E+01 -0.54379084614E+01 -0.10098612309E+03  0.10123534244E+03  0.00000000000E+00 0.  1.
         22    1    1    2    0    0 -0.13043315792E+02  0.10661762514E+02 -0.33371996814E+02  0.37383036769E+02  0.00000000000E+00 0.  1.
<mgrwt>
<rscale>  0 0.61243370E+02</rscale>
<asrwt>0</asrwt>
<pdfrwt beam="1">  1        4 0.36438434E-02 0.94169382E+02</pdfrwt>
<pdfrwt beam="2">  1       -4 0.21175189E-01 0.94169382E+02</pdfrwt>
<totfact> 0.11820858E+04</totfact>
</mgrwt>
</event>
<event>
 6    1  0.2975432E-002  0.9440452E+02  0.7546771E-02  0.1391037E+00
          1   -1    0    0  501    0  0.00000000000E+00  0.00000000000E+00  0.63706260128E+03  0.63706260128E+03  0.00000000000E+00 0. -1.
         -1   -1    0    0    0  501 -0.00000000000E+00 -0.00000000000E+00 -0.11264639766E+02  0.11264639766E+02  0.00000000000E+00 0.  1.
         23    2    1    2    0    0 -0.16835401608E+02 -0.33670819683E+01  0.62395896749E+03  0.63106022372E+03  0.92830193698E+02 0.  0.
         13    1    3    3    0    0 -0.48047829363E+02  0.22914128549E+02  0.38052247512E+03  0.38422780387E+03  0.00000000000E+00 0. -1.
        -13    1    3    3    0    0  0.31212427756E+02 -0.26281210517E+02  0.24343649237E+03  0.24683241985E+03  0.00000000000E+00 0.  1.
         22    1    1    2    0    0  0.16835401608E+02  0.33670819683E+01  0.18389940214E+01  0.17267017324E+02  0.00000000000E+00 0.  1.
<mgrwt>
<rscale>  0 0.61649509E+02</rscale>
<asrwt>0</asrwt>
<pdfrwt beam="1">  1        1 0.98009603E-01 0.94404517E+02</pdfrwt>
<pdfrwt beam="2">  1       -1 0.17330220E-02 0.94404517E+02</pdfrwt>
<totfact> 0.24832738E+04</totfact>
</mgrwt>
</event>
<event>
 6    1  0.2975432E-002  0.9144971E+02  0.7546771E-02  0.1399233E+00
          1   -1    0    0  501    0  0.00000000000E+00  0.00000000000E+00  0.28201809933E+03  0.28201809933E+03  0.00000000000E+00 0. -1.
         -1   -1    0    0    0  501 -0.00000000000E+00 -0.00000000000E+00 -0.12276504776E+02  0.12276504776E+02  0.00000000000E+00 0.  1.
         23    2    1    2    0    0 -0.16534038319E+02 -0.11336025162E+01  0.25868052758E+03  0.27436957763E+03  0.89935478527E+02 0.  0.
         13    1    3    3    0    0  0.38338350907E+00 -0.76583567356E+01  0.25591261816E+03  0.25602747029E+03  0.00000000000E+00 0. -1.
        -13    1    3    3    0    0 -0.16917421828E+02  0.65247542195E+01  0.27679094255E+01  0.18342107336E+02  0.00000000000E+00 0.  1.
         22    1    1    2    0    0  0.16534038319E+02  0.11336025162E+01  0.11061066975E+02  0.19925026484E+02  0.00000000000E+00 0.  1.
<mgrwt>
<rscale>  0 0.59667258E+02</rscale>
<asrwt>0</asrwt>
<pdfrwt beam="1">  1        1 0.43387395E-01 0.91449712E+02</pdfrwt>
<pdfrwt beam="2">  1       -1 0.18886932E-02 0.91449712E+02</pdfrwt>
<totfact> 0.61397615E+04</totfact>
</mgrwt>
</event>
<event>
 6    1  0.2975432E-002  0.8739806E+02  0.7546771E-02  0.1436832E+00
          2   -1    0    0  501    0  0.00000000000E+00  0.00000000000E+00  0.47631134584E+02  0.47631134584E+02  0.00000000000E+00 0. -1.
         -2   -1    0    0    0  501 -0.00000000000E+00 -0.00000000000E+00 -0.50446806201E+02  0.50446806201E+02  0.00000000000E+00 0.  1.
         23    2    1    2    0    0 -0.56653357173E+01  0.89942104981E+01 -0.20811510344E+01  0.87422830660E+02  0.86749226392E+02 0.  0.
         13    1    3    3    0    0  0.17365296042E+02 -0.11449088130E+02  0.34079910825E+02  0.39925874411E+02  0.00000000000E+00 0. -1.
        -13    1    3    3    0    0 -0.23030631760E+02  0.20443298628E+02 -0.36161061860E+02  0.47496956248E+02  0.00000000000E+00 0.  1.
         22    1    1    2    0    0  0.56653357173E+01 -0.89942104981E+01 -0.73452058257E+00  0.10655110124E+02  0.00000000000E+00 0.  1.
<mgrwt>
<rscale>  0 0.51612776E+02</rscale>
<asrwt>0</asrwt>
<pdfrwt beam="1">  1        2 0.73278668E-02 0.87398056E+02</pdfrwt>
<pdfrwt beam="2">  1       -2 0.77610471E-02 0.87398056E+02</pdfrwt>
<totfact> 0.79546243E+04</totfact>
</mgrwt>
</event>
<event>
 6    1  0.2975432E-002  0.9110951E+02  0.7546771E-02  0.1422578E+00
          2   -1    0    0  501    0  0.00000000000E+00  0.00000000000E+00  0.26977058795E+03  0.26977058795E+03  0.00000000000E+00 0. -1.
         -2   -1    0    0    0  501 -0.00000000000E+00 -0.00000000000E+00 -0.10505825214E+02  0.10505825214E+02  0.00000000000E+00 0.  1.
         23    2    1    2    0    0  0.89670767349E-01  0.11647076905E+02  0.19857069309E+03  0.21847485548E+03  0.90361938247E+02 0.  0.
         11    1    3    3    0    0  0.29912853462E+01 -0.29853139276E+02  0.22355666112E+02  0.37415685480E+02  0.00000000000E+00 0.  1.
        -11    1    3    3    0    0 -0.29016145788E+01  0.41500216181E+02  0.17621502698E+03  0.18105917000E+03  0.00000000000E+00 0. -1.
         22    1    1    2    0    0 -0.89670767349E-01 -0.11647076905E+02  0.60694069652E+02  0.61801557684E+02  0.00000000000E+00 0. -1.
<mgrwt>
<rscale>  0 0.54479138E+02</rscale>
<asrwt>0</asrwt>
<pdfrwt beam="1">  1        2 0.41503162E-01 0.91109507E+02</pdfrwt>
<pdfrwt beam="2">  1       -2 0.16162810E-02 0.91109507E+02</pdfrwt>
<totfact> 0.11100010E+05</totfact>
</mgrwt>
</event>
<event>
 6    1  0.2975432E-002  0.8723910E+02  0.7546771E-02  0.1416288E+00
          2   -1    0    0  501    0  0.00000000000E+00  0.00000000000E+00  0.87045700380E+03  0.87045700380E+03  0.00000000000E+00 0. -1.
         -2   -1    0    0    0  501 -0.00000000000E+00 -0.00000000000E+00 -0.37802958180E+01  0.37802958180E+01  0.00000000000E+00 0.  1.
         23    2    1    2    0    0  0.14344420289E+02  0.28060212163E+01  0.83260367208E+03  0.83716159431E+03  0.86005953737E+02 0.  0.
         13    1    3    3    0    0  0.20557050629E+01  0.23249194167E+02  0.76702133743E+03  0.76737636335E+03  0.00000000000E+00 0. -1.
        -13    1    3    3    0    0  0.12288715226E+02 -0.20443172951E+02  0.65582334647E+02  0.69785230959E+02  0.00000000000E+00 0.  1.
         22    1    1    2    0    0 -0.14344420289E+02 -0.28060212163E+01  0.34073035901E+02  0.37075705306E+02  0.00000000000E+00 0.  1.
<mgrwt>
<rscale>  0 0.55813945E+02</rscale>
<asrwt>0</asrwt>
<pdfrwt beam="1">  1        2 0.13391630E+00 0.87239098E+02</pdfrwt>
<pdfrwt beam="2">  1       -2 0.58158467E-03 0.87239098E+02</pdfrwt>
<totfact> 0.12896601E+05</totfact>
</mgrwt>
</event>
<event>
 6    1  0.2975432E-002  0.9522697E+02  0.7546771E-02  0.1342310E+00
          2   -1    0    0  501    0  0.00000000000E+00  0.00000000000E+00  0.15258038047E+03  0.15258038047E+03  0.00000000000E+00 0. -1.
         -2   -1    0    0    0  501 -0.00000000000E+00 -0.00000000000E+00 -0.34289318798E+02  0.34289318798E+02  0.00000000000E+00 0.  1.
         23    2    1    2    0    0  0.32903326704E+02 -0.18280663582E+02  0.11467059141E+03  0.14905542453E+03  0.87472072567E+02 0.  0.
         11    1    3    3    0    0  0.27171110281E+02 -0.42135695932E+02  0.11397103573E+03  0.12451137736E+03  0.00000000000E+00 0. -1.
        -11    1    3    3    0    0  0.57322164235E+01  0.23855032350E+02  0.69955567608E+00  0.24544047175E+02  0.00000000000E+00 0.  1.
         22    1    1    2    0    0 -0.32903326704E+02  0.18280663582E+02  0.36204702675E+01  0.37814274740E+02  0.00000000000E+00 0.  1.
<mgrwt>
<rscale>  0 0.75506436E+02</rscale>
<asrwt>0</asrwt>
<pdfrwt beam="1">  1        2 0.23473904E-01 0.95226966E+02</pdfrwt>
<pdfrwt beam="2">  1       -2 0.52752799E-02 0.95226966E+02</pdfrwt>
<totfact> 0.36693579E+04</totfact>
</mgrwt>
</event>
<event>
 6    1  0.2975432E-002  0.9401889E+02  0.7546771E-02  0.1415673E+00
         -1   -1    0    0    0  501 -0.00000000000E+00  0.00000000000E+00  0.35359183949E+02  0.35359183949E+02  0.00000000000E+00 0.  1.
          1   -1    0    0  501    0  0.00000000000E+00 -0.00000000000E+00 -0.99395743838E+02  0.99395743838E+02  0.00000000000E+00 0. -1.
         23    2    1    2    0    0 -0.10171687889E+02 -0.59588763634E+01 -0.73739525461E+02  0.11948669335E+03  0.93276904053E+02 0.  0.
         13    1    3    3    0    0 -0.35320148654E+02 -0.32358415504E+02 -0.67072502887E+02  0.82421481414E+02  0.00000000000E+00 0. -1.
        -13    1    3    3    0    0  0.25148460765E+02  0.26399539140E+02 -0.66670225739E+01  0.37065211933E+02  0.00000000000E+00 0.  1.
         22    1    1    2    0    0  0.10171687889E+02  0.59588763634E+01  0.97029655716E+01  0.15268234440E+02  0.00000000000E+00 0.  1.
<mgrwt>
<rscale>  0 0.55947031E+02</rscale>
<asrwt>0</asrwt>
<pdfrwt beam="1">  1        1 0.15291652E-01 0.94018893E+02</pdfrwt>
<pdfrwt beam="2">  1       -1 0.54398746E-02 0.94018893E+02</pdfrwt>
<totfact> 0.48790528E+04</totfact>
</mgrwt>
</event>
<event>
 6    1  0.2975432E-002  0.1098226E+03  0.7546771E-02  0.1353229E+00
         -2   -1    0    0    0  501 -0.00000000000E+00  0.00000000000E+00  0.10200037065E+02  0.10200037065E+02  0.00000000000E+00 0.  1.
          2   -1    0    0  501    0  0.00000000000E+00 -0.00000000000E+00 -0.44177875034E+03  0.44177875034E+03  0.00000000000E+00 0. -1.
         23    2    1    2    0    0 -0.56539276997E+01  0.19554121679E+02 -0.39643691196E+03  0.41136749867E+03  0.10791970731E+03 0.  0.
         11    1    3    3    0    0 -0.88442450729E+01  0.59101273975E+02 -0.31688483662E+03  0.32247043421E+03  0.00000000000E+00 0. -1.
        -11    1    3    3    0    0  0.31903173733E+01 -0.39547152296E+02 -0.79552075335E+02  0.88897064461E+02  0.00000000000E+00 0.  1.
         22    1    1    2    0    0  0.56539276997E+01 -0.19554121679E+02 -0.35141801313E+02  0.40611288733E+02  0.00000000000E+00 0.  1.
<mgrwt>
<rscale>  0 0.72058801E+02</rscale>
<asrwt>0</asrwt>
<pdfrwt beam="1">  1        2 0.67965962E-01 0.10982256E+03</pdfrwt>
<pdfrwt beam="2">  1       -2 0.15692365E-02 0.10982256E+03</pdfrwt>
<totfact> 0.70733855E+04</totfact>
</mgrwt>
</event>
<event>
 6    1  0.2975432E-002  0.9217520E+02  0.7546771E-02  0.1426735E+00
         -2   -1    0    0    0  501 -0.00000000000E+00  0.00000000000E+00  0.19436368132E+02  0.19436368132E+02  0.00000000000E+00 0.  1.
          2   -1    0    0  501    0  0.00000000000E+00 -0.00000000000E+00 -0.15540919307E+03  0.15540919307E+03  0.00000000000E+00 0. -1.
         23    2    1    2    0    0 -0.43486184616E+01  0.96185974619E+01 -0.13599560095E+03  0.16428959519E+03  0.91568770390E+02 0.  0.
         11    1    3    3    0    0 -0.35331391301E+02  0.33515238334E+02 -0.99523756473E+02  0.11079962326E+03  0.00000000000E+00 0. -1.
        -11    1    3    3    0    0  0.30982772839E+02 -0.23896640872E+02 -0.36471844479E+02  0.53489971934E+02  0.00000000000E+00 0.  1.
         22    1    1    2    0    0  0.43486184616E+01 -0.96185974619E+01  0.22776012071E-01  0.10555966010E+02  0.00000000000E+00 0. -1.
<mgrwt>
<rscale>  0 0.53620988E+02</rscale>
<asrwt>0</asrwt>
<pdfrwt beam="1">  1        2 0.23909106E-01 0.92175201E+02</pdfrwt>
<pdfrwt beam="2">  1       -2 0.29902105E-02 0.92175201E+02</pdfrwt>
<totfact> 0.82561886E+04</totfact>
</mgrwt>
</event>
<event>
 6    1  0.2975432E-002  0.1311211E+03  0.7546771E-02  0.1242120E+00
         -2   -1    0    0    0  501 -0.00000000000E+00  0.00000000000E+00  0.21008337781E+02  0.21008337781E+02  0.00000000000E+00 0. -1.
          2   -1    0    0  501    0  0.00000000000E+00 -0.00000000000E+00 -0.78191012586E+03  0.78191012586E+03  0.00000000000E+00 0.  1.
         23    2    1    2    0    0  0.77264844327E+02 -0.53216216463E+02 -0.61949655396E+03  0.63322090297E+03  0.91601908929E+02 0.  0.
         13    1    3    3    0    0 -0.87769501221E+01  0.15871691420E+02 -0.51379887026E+02  0.54487046468E+02  0.00000000000E+00 0. -1.
        -13    1    3    3    0    0  0.86041794449E+02 -0.69087907883E+02 -0.56811666694E+03  0.57873385650E+03  0.00000000000E+00 0.  1.
         22    1    1    2    0    0 -0.77264844327E+02  0.53216216463E+02 -0.14140523412E+03  0.16969756068E+03  0.00000000000E+00 0. -1.
<mgrwt>
<rscale>  0 0.12059406E+03</rscale>
<asrwt>0</asrwt>
<pdfrwt beam="1">  1        2 0.12029385E+00 0.13112106E+03</pdfrwt>
<pdfrwt beam="2">  1       -2 0.32320524E-02 0.13112106E+03</pdfrwt>
<totfact> 0.13184000E+04</totfact>
</mgrwt>
</event>
<event>
 6    1  0.2975432E-002  0.9215719E+02  0.7546771E-02  0.1415688E+00
          1   -1    0    0  501    0  0.00000000000E+00  0.00000000000E+00  0.71668817600E+02  0.71668817600E+02  0.00000000000E+00 0. -1.
         -1   -1    0    0    0  501 -0.00000000000E+00 -0.00000000000E+00 -0.42305873082E+02  0.42305873082E+02  0.00000000000E+00 0.  1.
         23    2    1    2    0    0 -0.12497277552E+02 -0.65762080791E+00  0.37007329876E+02  0.99310072077E+02  0.91303524248E+02 0.  0.
         13    1    3    3    0    0 -0.41840575178E+02 -0.27186864662E+02  0.32378708916E+02  0.59482267379E+02  0.00000000000E+00 0. -1.
        -13    1    3    3    0    0  0.29343297627E+02  0.26529243854E+02  0.46286209598E+01  0.39827804698E+02  0.00000000000E+00 0.  1.
         22    1    1    2    0    0  0.12497277552E+02  0.65762080791E+00 -0.76443853584E+01  0.14664618605E+02  0.00000000000E+00 0.  1.
<mgrwt>
<rscale>  0 0.55943662E+02</rscale>
<asrwt>0</asrwt>
<pdfrwt beam="1">  1        1 0.11025972E-01 0.92157192E+02</pdfrwt>
<pdfrwt beam="2">  1       -1 0.65085959E-02 0.92157192E+02</pdfrwt>
<totfact> 0.56974196E+04</totfact>
</mgrwt>
</event>
<event>
 6    1  0.2975432E-002  0.9413179E+02  0.7546771E-02  0.1410676E+00
         -2   -1    0    0    0  501 -0.00000000000E+00  0.00000000000E+00  0.71067731474E+02  0.71067731474E+02  0.00000000000E+00 0.  1.
          2   -1    0    0  501    0  0.00000000000E+00 -0.00000000000E+00 -0.42436826445E+02  0.42436826445E+02  0.00000000000E+00 0. -1.
         23    2    1    2    0    0 -0.12679637255E+02  0.60868255677E+00  0.15787716561E+02  0.95446562864E+02  0.93271917923E+02 0.  0.
         13    1    3    3    0    0 -0.67161139207E+01  0.46852347742E+02  0.10852476874E+02  0.48559498858E+02  0.00000000000E+00 0. -1.
        -13    1    3    3    0    0 -0.59635233348E+01 -0.46243665185E+02  0.49352396875E+01  0.46887064006E+02  0.00000000000E+00 0.  1.
         22    1    1    2    0    0  0.12679637255E+02 -0.60868255677E+00  0.12843188467E+02  0.18057995055E+02  0.00000000000E+00 0. -1.
<mgrwt>
<rscale>  0 0.57043204E+02</rscale>
<asrwt>0</asrwt>
<pdfrwt beam="1">  1        2 0.65287425E-02 0.94131793E+02</pdfrwt>
<pdfrwt beam="2">  1       -2 0.10933497E-01 0.94131793E+02</pdfrwt>
<totfact> 0.54764068E+04</totfact>
</mgrwt>
</event>
<event>
 6    1  0.2975432E-002  0.9254191E+02  0.7546771E-02  0.1412983E+00
         -2   -1    0    0    0  501 -0.00000000000E+00  0.00000000000E+00  0.21263901386E+02  0.21263901386E+02  0.00000000000E+00 0.  1.
          2   -1    0    0  501    0  0.00000000000E+00 -0.00000000000E+00 -0.14371818455E+03  0.14371818455E+03  0.00000000000E+00 0. -1.
         23    2    1    2    0    0 -0.23268884655E+01 -0.12676874584E+02 -0.12051719540E+03  0.15194867241E+03  0.91639986369E+02 0.  0.
         11    1    3    3    0    0  0.33611499531E+02 -0.24419521216E+02 -0.10140226557E+03  0.10958314369E+03  0.00000000000E+00 0. -1.
        -11    1    3    3    0    0 -0.35938387996E+02  0.11742646633E+02 -0.19114929824E+02  0.42365528722E+02  0.00000000000E+00 0.  1.
         22    1    1    2    0    0  0.23268884655E+01  0.12676874584E+02 -0.19370877683E+01  0.13033413527E+02  0.00000000000E+00 0. -1.
<mgrwt>
<rscale>  0 0.56533488E+02</rscale>
<asrwt>0</asrwt>
<pdfrwt beam="1">  1        2 0.22110490E-01 0.92541908E+02</pdfrwt>
<pdfrwt beam="2">  1       -2 0.32713695E-02 0.92541908E+02</pdfrwt>
<totfact> 0.78981137E+04</totfact>
</mgrwt>
</event>
<event>
 6    1  0.2975432E-002  0.9379602E+02  0.7546771E-02  0.1383992E+00
          4   -1    0    0  501    0  0.00000000000E+00  0.00000000000E+00  0.31292091612E+02  0.31292091612E+02  0.00000000000E+00 0.  1.
         -4   -1    0    0    0  501 -0.00000000000E+00 -0.00000000000E+00 -0.10429080207E+03  0.10429080207E+03  0.00000000000E+00 0. -1.
         23    2    1    2    0    0 -0.18728151327E+02  0.58200307206E+01 -0.66285500355E+02  0.11485408283E+03  0.91722823631E+02 0.  0.
         13    1    3    3    0    0  0.12903885379E+01  0.30233289226E+02  0.10340604390E+02  0.31978820790E+02  0.00000000000E+00 0.  1.
        -13    1    3    3    0    0 -0.20018539865E+02 -0.24413258505E+02 -0.76626104745E+02  0.82875262036E+02  0.00000000000E+00 0. -1.
         22    1    1    2    0    0  0.18728151327E+02 -0.58200307206E+01 -0.67132101064E+01  0.20728810860E+02  0.00000000000E+00 0.  1.
<mgrwt>
<rscale>  0 0.63425920E+02</rscale>
<asrwt>0</asrwt>
<pdfrwt beam="1">  1        4 0.48141680E-02 0.93796017E+02</pdfrwt>
<pdfrwt beam="2">  1       -4 0.16044739E-01 0.93796017E+02</pdfrwt>
<totfact> 0.12422747E+04</totfact>
</mgrwt>
</event>
<event>
 6    1  0.2975432E-002  0.9349783E+02  0.7546771E-02  0.1373505E+00
          2   -1    0    0  501    0  0.00000000000E+00  0.00000000000E+00  0.96123168362E+02  0.96123168362E+02  0.00000000000E+00 0. -1.
         -2   -1    0    0    0  501 -0.00000000000E+00 -0.00000000000E+00 -0.35614045011E+02  0.35614045011E+02  0.00000000000E+00 0.  1.
         23    2    1    2    0    0  0.19231030118E+02 -0.13507988976E+02  0.49316998429E+02  0.10570719328E+03  0.90496110924E+02 0.  0.
         11    1    3    3    0    0  0.16611140797E+02  0.22286860739E+02  0.61755114227E+02  0.67722435672E+02  0.00000000000E+00 0. -1.
        -11    1    3    3    0    0  0.26198893205E+01 -0.35794849715E+02 -0.12438115798E+02  0.37984757611E+02  0.00000000000E+00 0.  1.
         22    1    1    2    0    0 -0.19231030118E+02  0.13507988976E+02  0.11192124922E+02  0.26030020089E+02  0.00000000000E+00 0. -1.
<mgrwt>
<rscale>  0 0.66202267E+02</rscale>
<asrwt>0</asrwt>
<pdfrwt beam="1">  1        2 0.14788180E-01 0.93497831E+02</pdfrwt>
<pdfrwt beam="2">  1       -2 0.54790839E-02 0.93497831E+02</pdfrwt>
<totfact> 0.58257631E+04</totfact>
</mgrwt>
</event>
<event>
 6    1  0.2975432E-002  0.9262348E+02  0.7546771E-02  0.1406851E+00
          2   -1    0    0  501    0  0.00000000000E+00  0.00000000000E+00  0.15075478375E+03  0.15075478375E+03  0.00000000000E+00 0. -1.
         -2   -1    0    0    0  501 -0.00000000000E+00 -0.00000000000E+00 -0.18932825854E+02  0.18932825854E+02  0.00000000000E+00 0.  1.
         23    2    1    2    0    0 -0.14104849074E+02  0.10755292184E+01  0.11205055915E+03  0.14537687661E+03  0.91536904665E+02 0.  0.
         13    1    3    3    0    0  0.30344364874E+02 -0.26041771383E+02  0.40790089766E+02  0.57120799709E+02  0.00000000000E+00 0.  1.
        -13    1    3    3    0    0 -0.44449213947E+02  0.27117300601E+02  0.71260469389E+02  0.88256076901E+02  0.00000000000E+00 0. -1.
         22    1    1    2    0    0  0.14104849074E+02 -0.10755292184E+01  0.19771398738E+02  0.24310732991E+02  0.00000000000E+00 0. -1.
<mgrwt>
<rscale>  0 0.57902545E+02</rscale>
<asrwt>0</asrwt>
<pdfrwt beam="1">  1        2 0.23193043E-01 0.92623477E+02</pdfrwt>
<pdfrwt beam="2">  1       -2 0.29127425E-02 0.92623477E+02</pdfrwt>
<totfact> 0.88746150E+04</totfact>
</mgrwt>
</event>
<event>
 6    1  0.2975432E-002  0.9997961E+02  0.7546771E-02  0.1346438E+00
         -3   -1    0    0    0  501 -0.00000000000E+00  0.00000000000E+00  0.25476172366E+03  0.25476172366E+03  0.00000000000E+00 0.  1.
          3   -1    0    0  501    0  0.00000000000E+00 -0.00000000000E+00 -0.33340791743E+02  0.33340791743E+02  0.00000000000E+00 0. -1.
         23    2    1    2    0    0 -0.65399062306E+01 -0.29579000433E+02  0.45945476467E+02  0.11003139729E+03  0.95279766698E+02 0.  0.
         11    1    3    3    0    0  0.43911430278E+02 -0.14054170791E+02  0.29530509216E+02  0.54752026449E+02  0.00000000000E+00 0.  1.
        -11    1    3    3    0    0 -0.50451336509E+02 -0.15524829642E+02  0.16414967251E+02  0.55279370843E+02  0.00000000000E+00 0. -1.
         22    1    1    2    0    0  0.65399062306E+01  0.29579000433E+02  0.17547545545E+03  0.17807111811E+03  0.00000000000E+00 0.  1.
<mgrwt>
<rscale>  0 0.74177198E+02</rscale>
<asrwt>0</asrwt>
<pdfrwt beam="1">  1        3 0.51293527E-02 0.99979606E+02</pdfrwt>
<pdfrwt beam="2">  1       -3 0.39194110E-01 0.99979606E+02</pdfrwt>
<totfact> 0.30437259E+03</totfact>
</mgrwt>
</event>
<event>
 6    1  0.2975432E-002  0.8972907E+02  0.7546771E-02  0.1435570E+00
         -2   -1    0    0    0  501 -0.00000000000E+00  0.00000000000E+00  0.14637179741E+02  0.14637179741E+02  0.00000000000E+00 0.  1.
          2   -1    0    0  501    0  0.00000000000E+00 -0.00000000000E+00 -0.31166609260E+03  0.31166609260E+03  0.00000000000E+00 0. -1.
         23    2    1    2    0    0 -0.91670992384E+01 -0.40221554782E+01 -0.30205563039E+03  0.31510142731E+03  0.89168897044E+02 0.  0.
         11    1    3    3    0    0 -0.19878891793E+01 -0.29473756917E+02 -0.31230835873E+02  0.42988593365E+02  0.00000000000E+00 0.  1.
        -11    1    3    3    0    0 -0.71792100591E+01  0.25451601439E+02 -0.27082479451E+03  0.27211283394E+03  0.00000000000E+00 0. -1.
         22    1    1    2    0    0  0.91670992384E+01  0.40221554782E+01  0.50267175250E+01  0.11201845036E+02  0.00000000000E+00 0.  1.
<mgrwt>
<rscale>  0 0.51857982E+02</rscale>
<asrwt>0</asrwt>
<pdfrwt beam="1">  1        2 0.47948628E-01 0.89729068E+02</pdfrwt>
<pdfrwt beam="2">  1       -2 0.22518739E-02 0.89729068E+02</pdfrwt>
<totfact> 0.59187933E+04</totfact>
</mgrwt>
</event>
<event>
 6    1  0.2975432E-002  0.9039548E+02  0.7546771E-02  0.1360797E+00
         -2   -1    0    0    0  501 -0.00000000000E+00  0.00000000000E+00  0.19995002204E+02  0.19995002204E+02  0.00000000000E+00 0.  1.
          2   -1    0    0  501    0  0.00000000000E+00 -0.00000000000E+00 -0.38325364603E+03  0.38325364603E+03  0.00000000000E+00 0. -1.
         23    2    1    2    0    0 -0.30385945206E+02 -0.10420496347E+02 -0.35975158359E+03  0.37093469023E+03  0.84495266802E+02 0.  0.
         13    1    3    3    0    0 -0.89455377315E+00  0.31891818258E+02 -0.74286614942E+02  0.80847940343E+02  0.00000000000E+00 0.  1.
        -13    1    3    3    0    0 -0.29491391433E+02 -0.42312314605E+02 -0.28546496865E+03  0.29008674989E+03  0.00000000000E+00 0. -1.
         22    1    1    2    0    0  0.30385945206E+02  0.10420496347E+02 -0.35070602357E+01  0.32313958001E+02  0.00000000000E+00 0.  1.
<mgrwt>
<rscale>  0 0.69793396E+02</rscale>
<asrwt>0</asrwt>
<pdfrwt beam="1">  1        2 0.58962095E-01 0.90395478E+02</pdfrwt>
<pdfrwt beam="2">  1       -2 0.30761544E-02 0.90395478E+02</pdfrwt>
<totfact> 0.30379047E+04</totfact>
</mgrwt>
</event>
<event>
 6    1  0.2975432E-002  0.9206061E+02  0.7546771E-02  0.1422614E+00
          2   -1    0    0  501    0  0.00000000000E+00  0.00000000000E+00  0.21985328264E+03  0.21985328264E+03  0.00000000000E+00 0. -1.
         -2   -1    0    0    0  501 -0.00000000000E+00 -0.00000000000E+00 -0.27164060628E+02  0.27164060628E+02  0.00000000000E+00 0.  1.
         23    2    1    2    0    0  0.11281975447E+02  0.21342212072E+00  0.20831075008E+03  0.22774662303E+03  0.91366444526E+02 0.  0.
         13    1    3    3    0    0  0.44982189425E+02 -0.19494524458E+02  0.14795139489E+03  0.15586227606E+03  0.00000000000E+00 0. -1.
        -13    1    3    3    0    0 -0.33700213978E+02  0.19707946579E+02  0.60359355185E+02  0.71884346967E+02  0.00000000000E+00 0.  1.
         22    1    1    2    0    0 -0.11281975447E+02 -0.21342212072E+00 -0.15621528071E+02  0.19270720231E+02  0.00000000000E+00 0. -1.
<mgrwt>
<rscale>  0 0.54471721E+02</rscale>
<asrwt>0</asrwt>
<pdfrwt beam="1">  1        2 0.33823581E-01 0.92060609E+02</pdfrwt>
<pdfrwt beam="2">  1       -2 0.41790864E-02 0.92060609E+02</pdfrwt>
<totfact> 0.34820365E+04</totfact>
</mgrwt>
</event>
<event>
 6    1  0.2975432E-002  0.9377912E+02  0.7546771E-02  0.1369971E+00
         -2   -1    0    0    0  501 -0.00000000000E+00  0.00000000000E+00  0.13065563203E+02  0.13065563203E+02  0.00000000000E+00 0.  1.
          2   -1    0    0  501    0  0.00000000000E+00 -0.00000000000E+00 -0.28169989854E+03  0.28169989854E+03  0.00000000000E+00 0. -1.
         23    2    1    2    0    0 -0.15120697065E+02  0.19517902906E+02 -0.18281200461E+03  0.20546229011E+03  0.90470656078E+02 0.  0.
         13    1    3    3    0    0 -0.46571440174E+02  0.88573789253E+01 -0.51418557791E+02  0.69937259645E+02  0.00000000000E+00 0.  1.
        -13    1    3    3    0    0  0.31450743109E+02  0.10660523980E+02 -0.13139344682E+03  0.13552503046E+03  0.00000000000E+00 0. -1.
         22    1    1    2    0    0  0.15120697065E+02 -0.19517902906E+02 -0.85822330723E+02  0.89303171636E+02  0.00000000000E+00 0.  1.
<mgrwt>
<rscale>  0 0.67175176E+02</rscale>
<asrwt>0</asrwt>
<pdfrwt beam="1">  1        2 0.43338443E-01 0.93779121E+02</pdfrwt>
<pdfrwt beam="2">  1       -2 0.20100868E-02 0.93779121E+02</pdfrwt>
<totfact> 0.77940807E+04</totfact>
</mgrwt>
</event>
<event>
 6    1  0.2975432E-002  0.8880114E+02  0.7546771E-02  0.1432833E+00
          2   -1    0    0  501    0  0.00000000000E+00  0.00000000000E+00  0.53398354040E+02  0.53398354040E+02  0.00000000000E+00 0. -1.
         -2   -1    0    0    0  501 -0.00000000000E+00 -0.00000000000E+00 -0.55868538583E+02  0.55868538583E+02  0.00000000000E+00 0.  1.
         23    2    1    2    0    0 -0.88568003032E+01 -0.61150098591E+01  0.13690525327E+02  0.89850281160E+02  0.88146504659E+02 0.  0.
         13    1    3    3    0    0 -0.46326818374E+02 -0.12632307387E+02  0.18615083833E+02  0.51500200356E+02  0.00000000000E+00 0. -1.
        -13    1    3    3    0    0  0.37470018070E+02  0.65172975276E+01 -0.49245585062E+01  0.38350080805E+02  0.00000000000E+00 0.  1.
         22    1    1    2    0    0  0.88568003032E+01  0.61150098591E+01 -0.16160709871E+02  0.19416611463E+02  0.00000000000E+00 0.  1.
<mgrwt>
<rscale>  0 0.52395558E+02</rscale>
<asrwt>0</asrwt>
<pdfrwt beam="1">  1        2 0.82151314E-02 0.88801140E+02</pdfrwt>
<pdfrwt beam="2">  1       -2 0.85951598E-02 0.88801140E+02</pdfrwt>
<totfact> 0.59185413E+04</totfact>
</mgrwt>
</event>
<event>
 6    1  0.2975432E-002  0.9239073E+02  0.7546771E-02  0.1395586E+00
          2   -1    0    0  501    0  0.00000000000E+00  0.00000000000E+00  0.19158469225E+02  0.19158469225E+02  0.00000000000E+00 0. -1.
         -2   -1    0    0    0  501 -0.00000000000E+00 -0.00000000000E+00 -0.15828908187E+03  0.15828908187E+03  0.00000000000E+00 0.  1.
         23    2    1    2    0    0 -0.14775821878E+02 -0.84694505814E+01 -0.10948940580E+03  0.14326191597E+03  0.90807434062E+02 0.  0.
         11    1    3    3    0    0  0.32096873454E+02  0.15360489914E-01 -0.11124367564E+02  0.33970002579E+02  0.00000000000E+00 0. -1.
        -11    1    3    3    0    0 -0.46872695333E+02 -0.84848110714E+01 -0.98365038233E+02  0.10929191339E+03  0.00000000000E+00 0.  1.
         22    1    1    2    0    0  0.14775821878E+02  0.84694505814E+01 -0.29641206848E+02  0.34185635123E+02  0.00000000000E+00 0.  1.
<mgrwt>
<rscale>  0 0.60538495E+02</rscale>
<asrwt>0</asrwt>
<pdfrwt beam="1">  1        2 0.29474569E-02 0.92390728E+02</pdfrwt>
<pdfrwt beam="2">  1       -2 0.24352166E-01 0.92390728E+02</pdfrwt>
<totfact> 0.41364770E+04</totfact>
</mgrwt>
</event>
<event>
 6    1  0.2975432E-002  0.9435847E+02  0.7546771E-02  0.1370805E+00
          3   -1    0    0  501    0  0.00000000000E+00  0.00000000000E+00  0.15841040012E+04  0.15841040012E+04  0.00000000000E+00 0. -1.
         -3   -1    0    0    0  501 -0.00000000000E+00 -0.00000000000E+00 -0.38056856057E+01  0.38056856057E+01  0.00000000000E+00 0.  1.
         23    2    1    2    0    0  0.23896031880E+02 -0.67774479227E+00  0.15216998941E+04  0.15246226053E+04  0.91280016194E+02 0.  0.
         11    1    3    3    0    0 -0.21624529386E+02  0.16657822218E+02  0.18181872875E+03  0.18385633912E+03  0.00000000000E+00 0.  1.
        -11    1    3    3    0    0  0.45520561266E+02 -0.17335567010E+02  0.13398811653E+04  0.13407662662E+04  0.00000000000E+00 0. -1.
         22    1    1    2    0    0 -0.23896031880E+02  0.67774479227E+00  0.58598421473E+02  0.63287081437E+02  0.00000000000E+00 0.  1.
<mgrwt>
<rscale>  0 0.66943863E+02</rscale>
<asrwt>0</asrwt>
<pdfrwt beam="1">  1        3 0.24370778E+00 0.94358471E+02</pdfrwt>
<pdfrwt beam="2">  1       -3 0.58549136E-03 0.94358471E+02</pdfrwt>
<totfact> 0.12085440E+03</totfact>
</mgrwt>
</event>
<event>
 6    1  0.2975432E-002  0.1018995E+03  0.7546771E-02  0.1324919E+00
         -2   -1    0    0    0  501 -0.00000000000E+00  0.00000000000E+00  0.27552873736E+02  0.27552873736E+02  0.00000000000E+00 0.  1.
          2   -1    0    0  501    0  0.00000000000E+00 -0.00000000000E+00 -0.24609022539E+03  0.24609022539E+03  0.00000000000E+00 0. -1.
         23    2    1    2    0    0 -0.66486512710E+01 -0.41110971029E+02 -0.20653224078E+03  0.23030213478E+03  0.93001023122E+02 0.  0.
         13    1    3    3    0    0  0.10083680566E+02 -0.77346472798E+01  0.63249048911E+01  0.14195414900E+02  0.00000000000E+00 0.  1.
        -13    1    3    3    0    0 -0.16732331837E+02 -0.33376323749E+02 -0.21285714567E+03  0.21610671988E+03  0.00000000000E+00 0. -1.
         22    1    1    2    0    0  0.66486512710E+01  0.41110971029E+02 -0.12005110868E+02  0.43340964336E+02  0.00000000000E+00 0.  1.
<mgrwt>
<rscale>  0 0.81474192E+02</rscale>
<asrwt>0</asrwt>
<pdfrwt beam="1">  1        2 0.37860034E-01 0.10189949E+03</pdfrwt>
<pdfrwt beam="2">  1       -2 0.42389037E-02 0.10189949E+03</pdfrwt>
<totfact> 0.30626588E+04</totfact>
</mgrwt>
</event>
<event>
 6    1  0.2975432E-002  0.9025545E+02  0.7546771E-02  0.1418829E+00
         -2   -1    0    0    0  501 -0.00000000000E+00  0.00000000000E+00  0.25426909648E+01  0.25426909648E+01  0.00000000000E+00 0. -1.
          2   -1    0    0  501    0  0.00000000000E+00 -0.00000000000E+00 -0.15185661323E+04  0.15185661323E+04  0.00000000000E+00 0.  1.
         23    2    1    2    0    0 -0.92721515472E+01  0.86664952737E+01 -0.14827905267E+04  0.14855348503E+04  0.89358628966E+02 0.  0.
         11    1    3    3    0    0 -0.28148928534E+01  0.27286849787E+02 -0.14056144706E+04  0.14058821201E+04  0.00000000000E+00 0.  1.
        -11    1    3    3    0    0 -0.64572586938E+01 -0.18620354513E+02 -0.77176056121E+02  0.79652730214E+02  0.00000000000E+00 0. -1.
         22    1    1    2    0    0  0.92721515472E+01 -0.86664952737E+01 -0.33232914674E+02  0.35573972963E+02  0.00000000000E+00 0. -1.
<mgrwt>
<rscale>  0 0.55269506E+02</rscale>
<asrwt>0</asrwt>
<pdfrwt beam="1">  1        2 0.23362485E+00 0.90255446E+02</pdfrwt>
<pdfrwt beam="2">  1       -2 0.39118441E-03 0.90255446E+02</pdfrwt>
<totfact> 0.99044054E+04</totfact>
</mgrwt>
</event>
<event>
 6    1  0.2975432E-002  0.9461498E+02  0.7546771E-02  0.1366300E+00
         -2   -1    0    0    0  501 -0.00000000000E+00  0.00000000000E+00  0.17244986836E+02  0.17244986836E+02  0.00000000000E+00 0.  1.
          2   -1    0    0  501    0  0.00000000000E+00 -0.00000000000E+00 -0.24857774720E+03  0.24857774720E+03  0.00000000000E+00 0. -1.
         23    2    1    2    0    0 -0.55302832847E+01  0.24946586565E+02 -0.21651410638E+03  0.23628447545E+03  0.91099280258E+02 0.  0.
         13    1    3    3    0    0 -0.62757697924E+01  0.48206620211E+02 -0.20429568917E+03  0.20999998127E+03  0.00000000000E+00 0. -1.
        -13    1    3    3    0    0  0.74548650768E+00 -0.23260033646E+02 -0.12218417206E+02  0.26284494181E+02  0.00000000000E+00 0.  1.
         22    1    1    2    0    0  0.55302832847E+01 -0.24946586565E+02 -0.14818653990E+02  0.29538258589E+02  0.00000000000E+00 0.  1.
<mgrwt>
<rscale>  0 0.68206713E+02</rscale>
<asrwt>0</asrwt>
<pdfrwt beam="1">  1        2 0.38242728E-01 0.94614983E+02</pdfrwt>
<pdfrwt beam="2">  1       -2 0.26530750E-02 0.94614983E+02</pdfrwt>
<totfact> 0.59606200E+04</totfact>
</mgrwt>
</event>
<event>
 6    1  0.2975432E-002  0.9157830E+02  0.7546771E-02  0.1424993E+00
          2   -1    0    0  501    0  0.00000000000E+00  0.00000000000E+00  0.36812802282E+02  0.36812802282E+02  0.00000000000E+00 0.  1.
         -2   -1    0    0    0  501 -0.00000000000E+00 -0.00000000000E+00 -0.71962141612E+02  0.71962141612E+02  0.00000000000E+00 0. -1.
         23    2    1    2    0    0 -0.10959302345E+02 -0.14398164069E+01 -0.28664243236E+02  0.95959490312E+02  0.90908776041E+02 0.  0.
         13    1    3    3    0    0 -0.13086906393E+02  0.38841390140E+02 -0.36482308216E+02  0.54871481844E+02  0.00000000000E+00 0. -1.
        -13    1    3    3    0    0  0.21276040473E+01 -0.40281206547E+02  0.78180649799E+01  0.41088008468E+02  0.00000000000E+00 0.  1.
         22    1    1    2    0    0  0.10959302345E+02  0.14398164069E+01 -0.64850960930E+01  0.12815453582E+02  0.00000000000E+00 0. -1.
<mgrwt>
<rscale>  0 0.53978296E+02</rscale>
<asrwt>0</asrwt>
<pdfrwt beam="1">  1        2 0.56635081E-02 0.91578300E+02</pdfrwt>
<pdfrwt beam="2">  1       -2 0.11071099E-01 0.91578300E+02</pdfrwt>
<totfact> 0.64084336E+04</totfact>
</mgrwt>
</event>
<event>
 6    1  0.2975432E-002  0.9143883E+02  0.7546771E-02  0.1413644E+00
          1   -1    0    0  501    0  0.00000000000E+00  0.00000000000E+00  0.56927071772E+02  0.56927071772E+02  0.00000000000E+00 0. -1.
         -1   -1    0    0    0  501 -0.00000000000E+00 -0.00000000000E+00 -0.48290548972E+02  0.48290548972E+02  0.00000000000E+00 0.  1.
         23    2    1    2    0    0  0.10405000655E+02  0.81618807329E+01  0.53725108830E+01  0.91596530129E+02  0.90477511696E+02 0.  0.
         13    1    3    3    0    0  0.47581215526E+02  0.90754061829E+01 -0.12950157561E+02  0.50140219876E+02  0.00000000000E+00 0.  1.
        -13    1    3    3    0    0 -0.37176214871E+02 -0.91352544993E+00  0.18322668444E+02  0.41456310253E+02  0.00000000000E+00 0. -1.
         22    1    1    2    0    0 -0.10405000655E+02 -0.81618807329E+01  0.32640119173E+01  0.13621090615E+02  0.00000000000E+00 0. -1.
<mgrwt>
<rscale>  0 0.56388512E+02</rscale>
<asrwt>0</asrwt>
<pdfrwt beam="1">  1        1 0.87580110E-02 0.91438835E+02</pdfrwt>
<pdfrwt beam="2">  1       -1 0.74293153E-02 0.91438835E+02</pdfrwt>
<totfact> 0.63257854E+04</totfact>
</mgrwt>
</event>
<event>
 6    1  0.2975432E-002  0.9487457E+02  0.7546771E-02  0.1380968E+00
          1   -1    0    0  501    0  0.00000000000E+00  0.00000000000E+00  0.29898441297E+04  0.29898441297E+04  0.00000000000E+00 0.  1.
         -1   -1    0    0    0  501 -0.00000000000E+00 -0.00000000000E+00 -0.30834238140E+01  0.30834238140E+01  0.00000000000E+00 0. -1.
         23    2    1    2    0    0  0.63030746811E+01  0.18880521114E+02  0.29463839777E+04  0.29479110787E+04  0.92763036141E+02 0.  0.
         11    1    3    3    0    0  0.45154371422E+02  0.40271843942E+01  0.21164665192E+04  0.21169519745E+04  0.00000000000E+00 0.  1.
        -11    1    3    3    0    0 -0.38851296741E+02  0.14853336720E+02  0.82991745854E+03  0.83095910420E+03  0.00000000000E+00 0. -1.
         22    1    1    2    0    0 -0.63030746811E+01 -0.18880521114E+02  0.40376728148E+02  0.45016474806E+02  0.00000000000E+00 0. -1.
<mgrwt>
<rscale>  0 0.64209909E+02</rscale>
<asrwt>0</asrwt>
<pdfrwt beam="1">  1        1 0.45997370E+00 0.94874568E+02</pdfrwt>
<pdfrwt beam="2">  1       -1 0.47437528E-03 0.94874568E+02</pdfrwt>
<totfact> 0.40309539E+03</totfact>
</mgrwt>
</event>
<event>
 6    1  0.2975432E-002  0.1109495E+03  0.7546771E-02  0.1383112E+00
         -2   -1    0    0    0  501 -0.00000000000E+00  0.00000000000E+00  0.43899437320E+02  0.43899437320E+02  0.00000000000E+00 0.  1.
          2   -1    0    0  501    0  0.00000000000E+00 -0.00000000000E+00 -0.18848099717E+03  0.18848099717E+03  0.00000000000E+00 0. -1.
         23    2    1    2    0    0  0.11155286634E+02 -0.44758687504E+01 -0.17072315614E+03  0.20360793238E+03  0.11029651066E+03 0.  0.
         13    1    3    3    0    0 -0.69928179677E+01 -0.33060546212E+02 -0.16601955574E+03  0.16942370586E+03  0.00000000000E+00 0. -1.
        -13    1    3    3    0    0  0.18148104601E+02  0.28584677461E+02 -0.47036004021E+01  0.34184226522E+02  0.00000000000E+00 0.  1.
         22    1    1    2    0    0 -0.11155286634E+02  0.44758687504E+01  0.26141596292E+02  0.28772502109E+02  0.00000000000E+00 0.  1.
<mgrwt>
<rscale>  0 0.63652826E+02</rscale>
<asrwt>0</asrwt>
<pdfrwt beam="1">  1        2 0.28997076E-01 0.11094951E+03</pdfrwt>
<pdfrwt beam="2">  1       -2 0.67537597E-02 0.11094951E+03</pdfrwt>
<totfact> 0.20452028E+04</totfact>
</mgrwt>
</event>
<event>
 6    1  0.2975432E-002  0.9190121E+02  0.7546771E-02  0.1422604E+00
          2   -1    0    0  501    0  0.00000000000E+00  0.00000000000E+00  0.38397565491E+02  0.38397565491E+02  0.00000000000E+00 0. -1.
         -2   -1    0    0    0  501 -0.00000000000E+00 -0.00000000000E+00 -0.89556782656E+02  0.89556782656E+02  0.00000000000E+00 0.  1.
         23    2    1    2    0    0  0.48512097658E+01  0.10254898820E+02 -0.18989040240E+02  0.93842510475E+02  0.91198332973E+02 0.  0.
         11    1    3    3    0    0  0.12792554618E+02 -0.81442599175E+01 -0.52582595163E+02  0.54725750222E+02  0.00000000000E+00 0.  1.
        -11    1    3    3    0    0 -0.79413448519E+01  0.18399158737E+02  0.33593554924E+02  0.39116760253E+02  0.00000000000E+00 0. -1.
         22    1    1    2    0    0 -0.48512097658E+01 -0.10254898820E+02 -0.32170176924E+02  0.34111837672E+02  0.00000000000E+00 0.  1.
<mgrwt>
<rscale>  0 0.54473724E+02</rscale>
<asrwt>0</asrwt>
<pdfrwt beam="1">  1        2 0.59073178E-02 0.91901214E+02</pdfrwt>
<pdfrwt beam="2">  1       -2 0.13777967E-01 0.91901214E+02</pdfrwt>
<totfact> 0.42951010E+04</totfact>
</mgrwt>
</event>
<event>
 6    1  0.2975432E-002  0.9652274E+02  0.7546771E-02  0.1373509E+00
          2   -1    0    0  501    0  0.00000000000E+00  0.00000000000E+00  0.70507558615E+03  0.70507558615E+03  0.00000000000E+00 0. -1.
         -2   -1    0    0    0  501 -0.00000000000E+00 -0.00000000000E+00 -0.49426415672E+01  0.49426415672E+01  0.00000000000E+00 0.  1.
         23    2    1    2    0    0  0.12647654344E+02 -0.17211628206E+02  0.58789858122E+03  0.59576957072E+03  0.94129890530E+02 0.  0.
         13    1    3    3    0    0 -0.12084150790E+02 -0.89988897136E+01  0.54742334408E+03  0.54763064592E+03  0.00000000000E+00 0. -1.
        -13    1    3    3    0    0  0.24731805134E+02 -0.82127384925E+01  0.40475237145E+02  0.48138924798E+02  0.00000000000E+00 0.  1.
         22    1    1    2    0    0 -0.12647654344E+02  0.17211628206E+02  0.11223436336E+03  0.11424865699E+03  0.00000000000E+00 0. -1.
<mgrwt>
<rscale>  0 0.66201380E+02</rscale>
<asrwt>0</asrwt>
<pdfrwt beam="1">  1        2 0.10847309E+00 0.96522741E+02</pdfrwt>
<pdfrwt beam="2">  1       -2 0.76040695E-03 0.96522741E+02</pdfrwt>
<totfact> 0.11586094E+05</totfact>
</mgrwt>
</event>
<event>
 6    1  0.2975432E-002  0.9461531E+02  0.7546771E-02  0.1353110E+00
          2   -1    0    0  501    0  0.00000000000E+00  0.00000000000E+00  0.13156501169E+04  0.13156501169E+04  0.00000000000E+00 0.  1.
         -2   -1    0    0    0  501 -0.00000000000E+00 -0.00000000000E+00 -0.42498831113E+01  0.42498831113E+01  0.00000000000E+00 0. -1.
         23    2    1    2    0    0 -0.30505796361E+02  0.93147305379E+01  0.12078140836E+04  0.12115143075E+04  0.89076871699E+02 0.  0.
         11    1    3    3    0    0  0.68955524074E+01  0.43440516060E+02  0.56361464042E+03  0.56532830282E+03  0.00000000000E+00 0. -1.
        -11    1    3    3    0    0 -0.37401348768E+02 -0.34125785522E+02  0.64419944315E+03  0.64618600471E+03  0.00000000000E+00 0.  1.
         22    1    1    2    0    0  0.30505796361E+02 -0.93147305379E+01  0.10358615020E+03  0.10838569246E+03  0.00000000000E+00 0. -1.
<mgrwt>
<rscale>  0 0.72095111E+02</rscale>
<asrwt>0</asrwt>
<pdfrwt beam="1">  1        2 0.20240739E+00 0.94615310E+02</pdfrwt>
<pdfrwt beam="2">  1       -2 0.65382922E-03 0.94615310E+02</pdfrwt>
<totfact> 0.61717599E+04</totfact>
</mgrwt>
</event>
<event>
 6    1  0.2975432E-002  0.8860680E+02  0.7546771E-02  0.1411380E+00
          2   -1    0    0  501    0  0.00000000000E+00  0.00000000000E+00  0.26569835954E+03  0.26569835954E+03  0.00000000000E+00 0.  1.
         -2   -1    0    0    0  501 -0.00000000000E+00 -0.00000000000E+00 -0.17725831998E+02  0.17725831998E+02  0.00000000000E+00 0. -1.
         23    2    1    2    0    0  0.14553257801E+02  0.38500210048E+01  0.25258798163E+03  0.26767864007E+03  0.87318645851E+02 0.  0.
         13    1    3    3    0    0  0.27414115055E+02  0.36424711184E+02  0.84827536106E+02  0.96301631196E+02  0.00000000000E+00 0. -1.
        -13    1    3    3    0    0 -0.12860857254E+02 -0.32574690179E+02  0.16776044552E+03  0.17137700888E+03  0.00000000000E+00 0.  1.
         22    1    1    2    0    0 -0.14553257801E+02 -0.38500210048E+01 -0.46154540904E+01  0.15745551461E+02  0.00000000000E+00 0. -1.
<mgrwt>
<rscale>  0 0.56886941E+02</rscale>
<asrwt>0</asrwt>
<pdfrwt beam="1">  1        2 0.40876668E-01 0.88606805E+02</pdfrwt>
<pdfrwt beam="2">  1       -2 0.27270513E-02 0.88606805E+02</pdfrwt>
<totfact> 0.52940502E+04</totfact>
</mgrwt>
</event>
<event>
 6    1  0.2975432E-002  0.9270468E+02  0.7546771E-02  0.1378547E+00
          1   -1    0    0  501    0  0.00000000000E+00  0.00000000000E+00  0.58823543393E+02  0.58823543393E+02  0.00000000000E+00 0. -1.
         -1   -1    0    0    0  501 -0.00000000000E+00 -0.00000000000E+00 -0.73695455305E+02  0.73695455305E+02  0.00000000000E+00 0.  1.
         23    2    1    2    0    0  0.19890819085E+01 -0.22105939238E+02  0.16427240705E+02  0.94148880754E+02  0.90008491342E+02 0.  0.
         13    1    3    3    0    0 -0.71670381013E+01 -0.30569501092E+02  0.49604158513E+02  0.58706331634E+02  0.00000000000E+00 0. -1.
        -13    1    3    3    0    0  0.91561200098E+01  0.84635618534E+01 -0.33176917808E+02  0.35442549120E+02  0.00000000000E+00 0.  1.
         22    1    1    2    0    0 -0.19890819085E+01  0.22105939238E+02 -0.31299152618E+02  0.38370117944E+02  0.00000000000E+00 0.  1.
<mgrwt>
<rscale>  0 0.64847201E+02</rscale>
<asrwt>0</asrwt>
<pdfrwt beam="1">  1        1 0.90497760E-02 0.92704679E+02</pdfrwt>
<pdfrwt beam="2">  1       -1 0.11337762E-01 0.92704679E+02</pdfrwt>
<totfact> 0.32144844E+04</totfact>
</mgrwt>
</event>
<event>
 6    1  0.2975432E-002  0.9297449E+02  0.7546771E-02  0.1411788E+00
         -2   -1    0    0    0  501 -0.00000000000E+00  0.00000000000E+00  0.38634129312E+01  0.38634129312E+01  0.00000000000E+00 0.  1.
          2   -1    0    0  501    0  0.00000000000E+00 -0.00000000000E+00 -0.77926197956E+03  0.77926197956E+03  0.00000000000E+00 0. -1.
         23    2    1    2    0    0 -0.91371841614E+01 -0.91739886349E+01 -0.73063491614E+03  0.73652673793E+03  0.92068478865E+02 0.  0.
         11    1    3    3    0    0  0.12170172321E+02 -0.25100178222E+02 -0.66663628017E+03  0.66721965055E+03  0.00000000000E+00 0. -1.
        -11    1    3    3    0    0 -0.21307356482E+02  0.15926189587E+02 -0.63998635971E+02  0.69307087380E+02  0.00000000000E+00 0.  1.
         22    1    1    2    0    0  0.91371841614E+01  0.91739886349E+01 -0.44763650489E+02  0.46598654562E+02  0.00000000000E+00 0.  1.
<mgrwt>
<rscale>  0 0.56796732E+02</rscale>
<asrwt>0</asrwt>
<pdfrwt beam="1">  1        2 0.11988644E+00 0.92974486E+02</pdfrwt>
<pdfrwt beam="2">  1       -2 0.59437129E-03 0.92974486E+02</pdfrwt>
<totfact> 0.14473378E+05</totfact>
</mgrwt>
</event>
<event>
 6    1  0.2975432E-002  0.8776039E+02  0.7546771E-02  0.1430265E+00
          2   -1    0    0  501    0  0.00000000000E+00  0.00000000000E+00  0.10334605837E+04  0.10334605837E+04  0.00000000000E+00 0. -1.
         -2   -1    0    0    0  501 -0.00000000000E+00 -0.00000000000E+00 -0.25688451982E+01  0.25688451982E+01  0.00000000000E+00 0.  1.
         23    2    1    2    0    0 -0.18015683128E+01  0.11451002247E+02  0.97538713680E+03  0.97932729569E+03  0.86991461296E+02 0.  0.
         13    1    3    3    0    0  0.31614481938E+02  0.92335980508E+01  0.80537263529E+03  0.80604579056E+03  0.00000000000E+00 0. -1.
        -13    1    3    3    0    0 -0.33416050251E+02  0.22174041962E+01  0.17001450151E+03  0.17328150513E+03  0.00000000000E+00 0.  1.
         22    1    1    2    0    0  0.18015683128E+01 -0.11451002247E+02  0.55504601713E+02  0.56702133224E+02  0.00000000000E+00 0. -1.
<mgrwt>
<rscale>  0 0.52906877E+02</rscale>
<asrwt>0</asrwt>
<pdfrwt beam="1">  1        2 0.15899360E+00 0.87760387E+02</pdfrwt>
<pdfrwt beam="2">  1       -2 0.39520778E-03 0.87760387E+02</pdfrwt>
<totfact> 0.17687569E+05</totfact>
</mgrwt>
</event>
<event>
 6    1  0.2975432E-002  0.9485486E+02  0.7546771E-02  0.1359078E+00
         -1   -1    0    0    0  501 -0.00000000000E+00  0.00000000000E+00  0.30199231179E+02  0.30199231179E+02  0.00000000000E+00 0.  1.
          1   -1    0    0  501    0  0.00000000000E+00 -0.00000000000E+00 -0.15109315989E+03  0.15109315989E+03  0.00000000000E+00 0. -1.
         23    2    1    2    0    0 -0.26230596916E+02 -0.11441555563E+02 -0.11959615326E+03  0.15264561762E+03  0.90435011447E+02 0.  0.
         11    1    3    3    0    0 -0.47881924977E+02 -0.21607077312E+02 -0.11741111549E+03  0.12862703670E+03  0.00000000000E+00 0. -1.
        -11    1    3    3    0    0  0.21651328062E+02  0.10165521749E+02 -0.21850377684E+01  0.24018580918E+02  0.00000000000E+00 0.  1.
         22    1    1    2    0    0  0.26230596916E+02  0.11441555563E+02 -0.12977754563E+01  0.28646773455E+02  0.00000000000E+00 0.  1.
<mgrwt>
<rscale>  0 0.70299477E+02</rscale>
<asrwt>0</asrwt>
<pdfrwt beam="1">  1        1 0.23245102E-01 0.94854861E+02</pdfrwt>
<pdfrwt beam="2">  1       -1 0.46460355E-02 0.94854861E+02</pdfrwt>
<totfact> 0.36282301E+04</totfact>
</mgrwt>
</event>
<event>
 6    1  0.4218142E-002  0.1173588E+03  0.7546771E-02  0.1362858E+00
          4   -1    0    0  501    0  0.00000000000E+00  0.00000000000E+00  0.93959907968E+02  0.93959907968E+02  0.00000000000E+00 0. -1.
         -4   -1    0    0    0  501 -0.00000000000E+00 -0.00000000000E+00 -0.48553162053E+02  0.48553162053E+02  0.00000000000E+00 0.  1.
         23    2    1    2    0    0 -0.55201453114E+01  0.13062541231E+02  0.50057980335E+02  0.12758872852E+03  0.11649884232E+03 0.  0.
         11    1    3    3    0    0 -0.46103625568E+02 -0.22699404721E+02  0.52469774003E+02  0.73443069443E+02  0.00000000000E+00 0. -1.
        -11    1    3    3    0    0  0.40583480257E+02  0.35761945952E+02 -0.24117936687E+01  0.54145659076E+02  0.00000000000E+00 0.  1.
         22    1    1    2    0    0  0.55201453114E+01 -0.13062541231E+02 -0.46512344197E+01  0.14924341503E+02  0.00000000000E+00 0.  1.
<mgrwt>
<rscale>  0 0.69193249E+02</rscale>
<asrwt>0</asrwt>
<pdfrwt beam="1">  1        4 0.14455370E-01 0.11735878E+03</pdfrwt>
<pdfrwt beam="2">  1       -4 0.74697173E-02 0.11735878E+03</pdfrwt>
<totfact> 0.78009495E+03</totfact>
</mgrwt>
</event>
<event>
 6    1  0.2975432E-002  0.9190053E+02  0.7546771E-02  0.1428666E+00
          2   -1    0    0  501    0  0.00000000000E+00  0.00000000000E+00  0.13351820044E+04  0.13351820044E+04  0.00000000000E+00 0. -1.
         -2   -1    0    0    0  501 -0.00000000000E+00 -0.00000000000E+00 -0.21733699910E+01  0.21733699910E+01  0.00000000000E+00 0.  1.
         23    2    1    2    0    0  0.10336942125E+02 -0.34327193117E+00  0.12830682434E+04  0.12863552482E+04  0.91316687287E+02 0.  0.
         11    1    3    3    0    0  0.19857991096E+02 -0.24916898931E+02  0.11626707953E+04  0.11631072908E+04  0.00000000000E+00 0. -1.
        -11    1    3    3    0    0 -0.95210489713E+01  0.24573627000E+02  0.12039744810E+03  0.12324795749E+03  0.00000000000E+00 0.  1.
         22    1    1    2    0    0 -0.10336942125E+02  0.34327193117E+00  0.49940391043E+02  0.51000126134E+02  0.00000000000E+00 0. -1.
<mgrwt>
<rscale>  0 0.53228763E+02</rscale>
<asrwt>0</asrwt>
<pdfrwt beam="1">  1        2 0.20541196E+00 0.91900531E+02</pdfrwt>
<pdfrwt beam="2">  1       -2 0.33436568E-03 0.91900531E+02</pdfrwt>
<totfact> 0.15370176E+05</totfact>
</mgrwt>
</event>
<event>
 6    1  0.2975432E-002  0.9360661E+02  0.7546771E-02  0.1388272E+00
          2   -1    0    0  501    0  0.00000000000E+00  0.00000000000E+00  0.61906135018E+03  0.61906135018E+03  0.00000000000E+00 0. -1.
         -2   -1    0    0    0  501 -0.00000000000E+00 -0.00000000000E+00 -0.53795690651E+01  0.53795690651E+01  0.00000000000E+00 0.  1.
         23    2    1    2    0    0  0.89526533990E+01 -0.16089274691E+02  0.55791606448E+03  0.56571417990E+03  0.91777903470E+02 0.  0.
         13    1    3    3    0    0 -0.24173716679E+02 -0.38902999539E+02  0.40556255856E+03  0.40814066308E+03  0.00000000000E+00 0. -1.
        -13    1    3    3    0    0  0.33126370079E+02  0.22813724847E+02  0.15235350592E+03  0.15757351682E+03  0.00000000000E+00 0.  1.
         22    1    1    2    0    0 -0.89526533990E+01  0.16089274691E+02  0.55765716628E+02  0.58726739344E+02  0.00000000000E+00 0. -1.
<mgrwt>
<rscale>  0 0.62338627E+02</rscale>
<asrwt>0</asrwt>
<pdfrwt beam="1">  1        2 0.95240151E-01 0.93606615E+02</pdfrwt>
<pdfrwt beam="2">  1       -2 0.82762650E-03 0.93606615E+02</pdfrwt>
<totfact> 0.11887130E+05</totfact>
</mgrwt>
</event>
<event>
 6    1  0.2975432E-002  0.9975232E+02  0.7546771E-02  0.1327654E+00
         -2   -1    0    0    0  501 -0.00000000000E+00  0.00000000000E+00  0.37271317857E+01  0.37271317857E+01  0.00000000000E+00 0.  1.
          2   -1    0    0  501    0  0.00000000000E+00 -0.00000000000E+00 -0.26394548344E+04  0.26394548344E+04  0.00000000000E+00 0. -1.
         23    2    1    2    0    0 -0.34417749814E+02  0.24583235340E+02 -0.24741536793E+04  0.24761637577E+04  0.90341624398E+02 0.  0.
         13    1    3    3    0    0 -0.18196665717E+02  0.20135953260E+02 -0.18806540466E+03  0.19001360922E+03  0.00000000000E+00 0.  1.
        -13    1    3    3    0    0 -0.16221084097E+02  0.44472820800E+01 -0.22860882747E+04  0.22861501485E+04  0.00000000000E+00 0. -1.
         22    1    1    2    0    0  0.34417749814E+02 -0.24583235340E+02 -0.16157402332E+03  0.16701820851E+03  0.00000000000E+00 0.  1.
<mgrwt>
<rscale>  0 0.80494469E+02</rscale>
<asrwt>0</asrwt>
<pdfrwt beam="1">  1        2 0.40606922E+00 0.99752324E+02</pdfrwt>
<pdfrwt beam="2">  1       -2 0.57340595E-03 0.99752324E+02</pdfrwt>
<totfact> 0.15598960E+04</totfact>
</mgrwt>
</event>
<event>
 6    1  0.2975432E-002  0.9342023E+02  0.7546771E-02  0.1416545E+00
         -2   -1    0    0    0  501 -0.00000000000E+00  0.00000000000E+00  0.13759055493E+02  0.13759055493E+02  0.00000000000E+00 0.  1.
          2   -1    0    0  501    0  0.00000000000E+00 -0.00000000000E+00 -0.38824028513E+03  0.38824028513E+03  0.00000000000E+00 0. -1.
         23    2    1    2    0    0 -0.59246747423E+01  0.10269109865E+02 -0.37820548651E+03  0.38957249559E+03  0.92664895754E+02 0.  0.
         13    1    3    3    0    0 -0.69754990536E+01 -0.12836210798E+02 -0.35957884567E+03  0.35987549534E+03  0.00000000000E+00 0. -1.
        -13    1    3    3    0    0  0.10508243113E+01  0.23105320663E+02 -0.18626640840E+02  0.29697000246E+02  0.00000000000E+00 0.  1.
         22    1    1    2    0    0  0.59246747423E+01 -0.10269109865E+02  0.37242568734E+01  0.12426845033E+02  0.00000000000E+00 0.  1.
<mgrwt>
<rscale>  0 0.55758621E+02</rscale>
<asrwt>0</asrwt>
<pdfrwt beam="1">  1        2 0.59729281E-01 0.93420230E+02</pdfrwt>
<pdfrwt beam="2">  1       -2 0.21167775E-02 0.93420230E+02</pdfrwt>
<totfact> 0.51675541E+04</totfact>
</mgrwt>
</event>
<event>
 6    1  0.2975432E-002  0.9663210E+02  0.7546771E-02  0.1348300E+00
         -2   -1    0    0    0  501 -0.00000000000E+00  0.00000000000E+00  0.12840204130E+03  0.12840204130E+03  0.00000000000E+00 0.  1.
          2   -1    0    0  501    0  0.00000000000E+00 -0.00000000000E+00 -0.35354543974E+02  0.35354543974E+02  0.00000000000E+00 0. -1.
         23    2    1    2    0    0 -0.73995956682E+01  0.31645104068E+02  0.47158688775E+02  0.10752537172E+03  0.91003280209E+02 0.  0.
         11    1    3    3    0    0 -0.17935642955E+02  0.61672019369E+02  0.25882586495E+02  0.69246180725E+02  0.00000000000E+00 0.  1.
        -11    1    3    3    0    0  0.10536047287E+02 -0.30026915301E+02  0.21276102280E+02  0.38279190994E+02  0.00000000000E+00 0. -1.
         22    1    1    2    0    0  0.73995956682E+01 -0.31645104068E+02  0.45888808547E+02  0.56231213550E+02  0.00000000000E+00 0. -1.
<mgrwt>
<rscale>  0 0.73588107E+02</rscale>
<asrwt>0</asrwt>
<pdfrwt beam="1">  1        2 0.54391607E-02 0.96632105E+02</pdfrwt>
<pdfrwt beam="2">  1       -2 0.19754160E-01 0.96632105E+02</pdfrwt>
<totfact> 0.26632003E+04</totfact>
</mgrwt>
</event>
<event>
 6    1  0.2975432E-002  0.9250117E+02  0.7546771E-02  0.1384402E+00
         -1   -1    0    0    0  501 -0.00000000000E+00  0.00000000000E+00  0.24161043327E+02  0.24161043327E+02  0.00000000000E+00 0.  1.
          1   -1    0    0  501    0  0.00000000000E+00 -0.00000000000E+00 -0.13370315667E+03  0.13370315667E+03  0.00000000000E+00 0. -1.
         23    2    1    2    0    0  0.10194734971E+01 -0.20285988612E+02 -0.96779159831E+02  0.13387558515E+03  0.90243591796E+02 0.  0.
         13    1    3    3    0    0  0.31526209763E+02  0.51574791275E+01 -0.87405318124E+02  0.93060147912E+02  0.00000000000E+00 0. -1.
        -13    1    3    3    0    0 -0.30506736266E+02 -0.25443467740E+02 -0.93738417068E+01  0.40815437234E+02  0.00000000000E+00 0.  1.
         22    1    1    2    0    0 -0.10194734971E+01  0.20285988612E+02 -0.12762953514E+02  0.23988614854E+02  0.00000000000E+00 0. -1.
<mgrwt>
<rscale>  0 0.63320801E+02</rscale>
<asrwt>0</asrwt>
<pdfrwt beam="1">  1        1 0.20569716E-01 0.92501170E+02</pdfrwt>
<pdfrwt beam="2">  1       -1 0.37170836E-02 0.92501170E+02</pdfrwt>
<totfact> 0.58294860E+04</totfact>
</mgrwt>
</event>
<event>
 6    1  0.2975432E-002  0.1047095E+03  0.7546771E-02  0.1404763E+00
          2   -1    0    0  501    0  0.00000000000E+00  0.00000000000E+00  0.19372142512E+04  0.19372142512E+04  0.00000000000E+00 0. -1.
         -2   -1    0    0    0  501 -0.00000000000E+00 -0.00000000000E+00 -0.18995448324E+01  0.18995448324E+01  0.00000000000E+00 0.  1.
         23    2    1    2    0    0 -0.99019570823E+01 -0.20767226771E+01  0.18777162367E+04  0.18806334982E+04  0.10421961094E+03 0.  0.
         11    1    3    3    0    0 -0.19764624491E+01 -0.48226549564E+02  0.13442090532E+04  0.13450753456E+04  0.00000000000E+00 0. -1.
        -11    1    3    3    0    0 -0.79254946331E+01  0.46149826887E+02  0.53350718349E+03  0.53555815261E+03  0.00000000000E+00 0.  1.
         22    1    1    2    0    0  0.99019570823E+01  0.20767226771E+01  0.57598469629E+02  0.58480297834E+02  0.00000000000E+00 0.  1.
<mgrwt>
<rscale>  0 0.58379020E+02</rscale>
<asrwt>0</asrwt>
<pdfrwt beam="1">  1        2 0.29803138E+00 0.10470955E+03</pdfrwt>
<pdfrwt beam="2">  1       -2 0.29223922E-03 0.10470955E+03</pdfrwt>
<totfact> 0.92939600E+04</totfact>
</mgrwt>
</event>
<event>
 6    1  0.2975432E-002  0.9501386E+02  0.7546771E-02  0.1415337E+00
          2   -1    0    0  501    0  0.00000000000E+00  0.00000000000E+00  0.55660968775E+02  0.55660968775E+02  0.00000000000E+00 0. -1.
         -2   -1    0    0    0  501 -0.00000000000E+00 -0.00000000000E+00 -0.56832877950E+02  0.56832877950E+02  0.00000000000E+00 0.  1.
         23    2    1    2    0    0 -0.18136280314E+01 -0.11337414899E+02  0.11133386232E+02  0.95663917483E+02  0.94317583706E+02 0.  0.
         13    1    3    3    0    0 -0.18873772698E+02 -0.31055066596E+02  0.41815070499E+02  0.55399788610E+02  0.00000000000E+00 0. -1.
        -13    1    3    3    0    0  0.17060144667E+02  0.19717651697E+02 -0.30681684267E+02  0.40264128874E+02  0.00000000000E+00 0.  1.
         22    1    1    2    0    0  0.18136280314E+01  0.11337414899E+02 -0.12305295407E+02  0.16829929242E+02  0.00000000000E+00 0.  1.
<mgrwt>
<rscale>  0 0.56019656E+02</rscale>
<asrwt>0</asrwt>
<pdfrwt beam="1">  1        2 0.85632259E-02 0.95013856E+02</pdfrwt>
<pdfrwt beam="2">  1       -2 0.87435197E-02 0.95013856E+02</pdfrwt>
<totfact> 0.55302705E+04</totfact>
</mgrwt>
</event>
<event>
 6    1  0.4716824E-002  0.1162405E+03  0.7546771E-02  0.1384106E+00
         -4   -1    0    0    0  501 -0.00000000000E+00  0.00000000000E+00  0.85577652322E+02  0.85577652322E+02  0.00000000000E+00 0.  1.
          4   -1    0    0  501    0  0.00000000000E+00 -0.00000000000E+00 -0.47669911416E+02  0.47669911416E+02  0.00000000000E+00 0. -1.
         23    2    1    2    0    0  0.66159823336E+01  0.78742501742E+01  0.29402008593E+02  0.11990130882E+03  0.11578458753E+03 0.  0.
         13    1    3    3    0    0 -0.54002025964E+02 -0.12681073666E+01  0.62738467033E+01  0.54380033624E+02  0.00000000000E+00 0.  1.
        -13    1    3    3    0    0  0.60618008298E+02  0.91423575408E+01  0.23128161889E+02  0.65521275199E+02  0.00000000000E+00 0. -1.
         22    1    1    2    0    0 -0.66159823336E+01 -0.78742501742E+01  0.85057323139E+01  0.13346254914E+02  0.00000000000E+00 0.  1.
<mgrwt>
<rscale>  0 0.63396591E+02</rscale>
<asrwt>0</asrwt>
<pdfrwt beam="1">  1        4 0.73338325E-02 0.11624047E+03</pdfrwt>
<pdfrwt beam="2">  1       -4 0.13165793E-01 0.11624047E+03</pdfrwt>
<totfact> 0.94234081E+03</totfact>
</mgrwt>
</event>
<event>
 6    1  0.2975432E-002  0.1023421E+03  0.7546771E-02  0.1400057E+00
          2   -1    0    0  501    0  0.00000000000E+00  0.00000000000E+00  0.23440572561E+03  0.23440572561E+03  0.00000000000E+00 0. -1.
         -2   -1    0    0    0  501 -0.00000000000E+00 -0.00000000000E+00 -0.13864177960E+02  0.13864177960E+02  0.00000000000E+00 0.  1.
         23    2    1    2    0    0  0.25782839154E+01 -0.11382911045E+02  0.19834160110E+03  0.22318891797E+03  0.10167440271E+03 0.  0.
         11    1    3    3    0    0 -0.12646240334E+02 -0.51778333488E+02  0.71349230971E+02  0.89059732615E+02  0.00000000000E+00 0.  1.
        -11    1    3    3    0    0  0.15224524249E+02  0.40395422443E+02  0.12699237013E+03  0.13412918535E+03  0.00000000000E+00 0. -1.
         22    1    1    2    0    0 -0.25782839154E+01  0.11382911045E+02  0.22199946548E+02  0.25080985597E+02  0.00000000000E+00 0.  1.
<mgrwt>
<rscale>  0 0.59473034E+02</rscale>
<asrwt>0</asrwt>
<pdfrwt beam="1">  1        2 0.36062416E-01 0.10234209E+03</pdfrwt>
<pdfrwt beam="2">  1       -2 0.21329506E-02 0.10234209E+03</pdfrwt>
<totfact> 0.87910937E+04</totfact>
</mgrwt>
</event>
<event>
 6    1  0.2975432E-002  0.9206518E+02  0.7546771E-02  0.1404086E+00
         -2   -1    0    0    0  501 -0.00000000000E+00  0.00000000000E+00  0.39934385761E+03  0.39934385761E+03  0.00000000000E+00 0.  1.
          2   -1    0    0  501    0  0.00000000000E+00 -0.00000000000E+00 -0.72459955160E+01  0.72459955160E+01  0.00000000000E+00 0. -1.
         23    2    1    2    0    0 -0.70126102207E+01 -0.13309612350E+02  0.34911826813E+03  0.36105340640E+03  0.90827719606E+02 0.  0.
         13    1    3    3    0    0 -0.42921112102E+02 -0.24816042770E+02  0.13896988437E+03  0.14754892953E+03  0.00000000000E+00 0. -1.
        -13    1    3    3    0    0  0.35908501881E+02  0.11506430420E+02  0.21014838376E+03  0.21350447687E+03  0.00000000000E+00 0.  1.
         22    1    1    2    0    0  0.70126102207E+01  0.13309612350E+02  0.42979593961E+02  0.45536446722E+02  0.00000000000E+00 0.  1.
<mgrwt>
<rscale>  0 0.58534581E+02</rscale>
<asrwt>0</asrwt>
<pdfrwt beam="1">  1        2 0.11147689E-02 0.92065179E+02</pdfrwt>
<pdfrwt beam="2">  1       -2 0.61437499E-01 0.92065179E+02</pdfrwt>
<totfact> 0.27196676E+04</totfact>
</mgrwt>
</event>
<event>
 6    1  0.2975432E-002  0.9430517E+02  0.7546771E-02  0.1395828E+00
         -4   -1    0    0    0  501 -0.00000000000E+00  0.00000000000E+00  0.56570462452E+01  0.56570462452E+01  0.00000000000E+00 0. -1.
          4   -1    0    0  501    0  0.00000000000E+00 -0.00000000000E+00 -0.55551543208E+03  0.55551543208E+03  0.00000000000E+00 0.  1.
         23    2    1    2    0    0  0.15269616939E+02 -0.46194116028E+01 -0.50027201625E+03  0.50908305316E+03  0.92946030635E+02 0.  0.
         13    1    3    3    0    0  0.29017533085E+02  0.23159218883E+02 -0.86232996649E+02  0.93885549243E+02  0.00000000000E+00 0. -1.
        -13    1    3    3    0    0 -0.13747916145E+02 -0.27778630486E+02 -0.41403901960E+03  0.41519750392E+03  0.00000000000E+00 0.  1.
         22    1    1    2    0    0 -0.15269616939E+02  0.46194116028E+01 -0.49586369583E+02  0.52089425159E+02  0.00000000000E+00 0. -1.
<mgrwt>
<rscale>  0 0.60480118E+02</rscale>
<asrwt>0</asrwt>
<pdfrwt beam="1">  1        4 0.85463953E-01 0.94305168E+02</pdfrwt>
<pdfrwt beam="2">  1       -4 0.87031440E-03 0.94305168E+02</pdfrwt>
<totfact> 0.65947338E+03</totfact>
</mgrwt>
</event>
<event>
 6    1  0.2975432E-002  0.8648088E+02  0.7546771E-02  0.1438997E+00
          3   -1    0    0  501    0  0.00000000000E+00  0.00000000000E+00  0.44515264841E+02  0.44515264841E+02  0.00000000000E+00 0. -1.
         -3   -1    0    0    0  501 -0.00000000000E+00 -0.00000000000E+00 -0.53428195520E+02  0.53428195520E+02  0.00000000000E+00 0.  1.
         23    2    1    2    0    0  0.58653739482E+01 -0.88548010555E+01 -0.50031330940E+01  0.86625482166E+02  0.85826177279E+02 0.  0.
         13    1    3    3    0    0 -0.17887521104E+02 -0.25985013283E+01  0.35167217179E+02  0.39540470211E+02  0.00000000000E+00 0. -1.
        -13    1    3    3    0    0  0.23752895052E+02 -0.62562997271E+01 -0.40170350273E+02  0.47085011954E+02  0.00000000000E+00 0.  1.
         22    1    1    2    0    0 -0.58653739482E+01  0.88548010555E+01 -0.39097975848E+01  0.11317978196E+02  0.00000000000E+00 0.  1.
<mgrwt>
<rscale>  0 0.51195712E+02</rscale>
<asrwt>0</asrwt>
<pdfrwt beam="1">  1        3 0.68485023E-02 0.86480881E+02</pdfrwt>
<pdfrwt beam="2">  1       -3 0.82197224E-02 0.86480881E+02</pdfrwt>
<totfact> 0.28043787E+04</totfact>
</mgrwt>
</event>
<event>
 6    1  0.2975432E-002  0.9378151E+02  0.7546771E-02  0.1410865E+00
         -2   -1    0    0    0  501 -0.00000000000E+00  0.00000000000E+00  0.41056915660E+01  0.41056915660E+01  0.00000000000E+00 0.  1.
          2   -1    0    0  501    0  0.00000000000E+00 -0.00000000000E+00 -0.93976709858E+03  0.93976709858E+03  0.00000000000E+00 0. -1.
         23    2    1    2    0    0 -0.11002231040E+02 -0.65401356531E+01 -0.91334006824E+03  0.91814217362E+03  0.92903973334E+02 0.  0.
         13    1    3    3    0    0  0.65322880561E+01  0.15751568878E+02 -0.82872512405E+03  0.82890054526E+03  0.00000000000E+00 0. -1.
        -13    1    3    3    0    0 -0.17534519097E+02 -0.22291704531E+02 -0.84614944194E+02  0.89241628357E+02  0.00000000000E+00 0.  1.
         22    1    1    2    0    0  0.11002231040E+02  0.65401356531E+01 -0.22321338772E+02  0.25730616526E+02  0.00000000000E+00 0.  1.
<mgrwt>
<rscale>  0 0.57001276E+02</rscale>
<asrwt>0</asrwt>
<pdfrwt beam="1">  1        2 0.14457974E+00 0.93781505E+02</pdfrwt>
<pdfrwt beam="2">  1       -2 0.63164404E-03 0.93781505E+02</pdfrwt>
<totfact> 0.10510534E+05</totfact>
</mgrwt>
</event>
<event>
 6    1  0.2975432E-002  0.6560729E+02  0.7546771E-02  0.1475256E+00
         -4   -1    0    0    0  501 -0.00000000000E+00  0.00000000000E+00  0.19174392362E+02  0.19174392362E+02  0.00000000000E+00 0.  1.
          4   -1    0    0  501    0  0.00000000000E+00 -0.00000000000E+00 -0.83388986364E+02  0.83388986364E+02  0.00000000000E+00 0. -1.
         23    2    1    2    0    0  0.74998364126E+01 -0.12214348890E+02 -0.51554843018E+02  0.83439907283E+02  0.64022483736E+02 0.  0.
         13    1    3    3    0    0  0.20308303598E+02 -0.18487074760E+02  0.24612190965E+01  0.27572753357E+02  0.00000000000E+00 0.  1.
        -13    1    3    3    0    0 -0.12808467186E+02  0.62727258698E+01 -0.54016062115E+02  0.55867153927E+02  0.00000000000E+00 0. -1.
         22    1    1    2    0    0 -0.74998364126E+01  0.12214348890E+02 -0.12659750984E+02  0.19123471442E+02  0.00000000000E+00 0. -1.
<mgrwt>
<rscale>  0 0.44853788E+02</rscale>
<asrwt>0</asrwt>
<pdfrwt beam="1">  1        4 0.12829075E-01 0.65607288E+02</pdfrwt>
<pdfrwt beam="2">  1       -4 0.29499065E-02 0.65607288E+02</pdfrwt>
<totfact> 0.34812050E+04</totfact>
</mgrwt>
</event>
<event>
 6    1  0.2975432E-002  0.9211777E+02  0.7546771E-02  0.1408843E+00
         -2   -1    0    0    0  501 -0.00000000000E+00  0.00000000000E+00  0.62489667398E+02  0.62489667398E+02  0.00000000000E+00 0.  1.
          2   -1    0    0  501    0  0.00000000000E+00 -0.00000000000E+00 -0.45541439808E+02  0.45541439808E+02  0.00000000000E+00 0. -1.
         23    2    1    2    0    0 -0.76563648407E+01  0.11647266021E+02  0.10635081022E+02  0.92729651461E+02  0.91057150094E+02 0.  0.
         11    1    3    3    0    0 -0.30958598464E+02 -0.27735907046E+02  0.19831169345E+02  0.46054214097E+02  0.00000000000E+00 0. -1.
        -11    1    3    3    0    0  0.23302233623E+02  0.39383173067E+02 -0.91960883226E+01  0.46675437364E+02  0.00000000000E+00 0.  1.
         22    1    1    2    0    0  0.76563648407E+01 -0.11647266021E+02  0.63131465678E+01  0.15301455746E+02  0.00000000000E+00 0.  1.
<mgrwt>
<rscale>  0 0.57452736E+02</rscale>
<asrwt>0</asrwt>
<pdfrwt beam="1">  1        2 0.70063753E-02 0.92117769E+02</pdfrwt>
<pdfrwt beam="2">  1       -2 0.96137950E-02 0.92117769E+02</pdfrwt>
<totfact> 0.61042641E+04</totfact>
</mgrwt>
</event>
<event>
 6    1  0.2975432E-002  0.9329602E+02  0.7546771E-02  0.1414345E+00
         -2   -1    0    0    0  501 -0.00000000000E+00  0.00000000000E+00  0.21347147247E+02  0.21347147247E+02  0.00000000000E+00 0.  1.
          2   -1    0    0  501    0  0.00000000000E+00 -0.00000000000E+00 -0.14971952264E+03  0.14971952264E+03  0.00000000000E+00 0. -1.
         23    2    1    2    0    0 -0.51308106947E+01 -0.11195793441E+02 -0.12844348256E+03  0.15875098617E+03  0.92479599844E+02 0.  0.
         13    1    3    3    0    0 -0.18308771712E+01  0.35250214862E+02 -0.95215594575E+02  0.10154771888E+03  0.00000000000E+00 0. -1.
        -13    1    3    3    0    0 -0.32999335235E+01 -0.46446008303E+02 -0.33227887987E+02  0.57203267290E+02  0.00000000000E+00 0.  1.
         22    1    1    2    0    0  0.51308106947E+01  0.11195793441E+02  0.71107172562E-01  0.12315683715E+02  0.00000000000E+00 0.  1.
<mgrwt>
<rscale>  0 0.56235448E+02</rscale>
<asrwt>0</asrwt>
<pdfrwt beam="1">  1        2 0.23033772E-01 0.93296020E+02</pdfrwt>
<pdfrwt beam="2">  1       -2 0.32841766E-02 0.93296020E+02</pdfrwt>
<totfact> 0.75157711E+04</totfact>
</mgrwt>
</event>
<event>
 6    1  0.2975432E-002  0.9109246E+02  0.7546771E-02  0.1406971E+00
         -2   -1    0    0    0  501 -0.00000000000E+00  0.00000000000E+00  0.86398329945E+02  0.86398329945E+02  0.00000000000E+00 0.  1.
          2   -1    0    0  501    0  0.00000000000E+00 -0.00000000000E+00 -0.39767542610E+02  0.39767542610E+02  0.00000000000E+00 0. -1.
         23    2    1    2    0    0 -0.48386648362E+01  0.14032189576E+02  0.16496203005E+02  0.92574084951E+02  0.89875032513E+02 0.  0.
         13    1    3    3    0    0 -0.47231180419E+02  0.83965300831E+01  0.12794975598E+02  0.49648741392E+02  0.00000000000E+00 0. -1.
        -13    1    3    3    0    0  0.42392515583E+02  0.56356594929E+01  0.37012274070E+01  0.42925343559E+02  0.00000000000E+00 0.  1.
         22    1    1    2    0    0  0.48386648362E+01 -0.14032189576E+02  0.30134584330E+02  0.33591787604E+02  0.00000000000E+00 0.  1.
<mgrwt>
<rscale>  0 0.57875178E+02</rscale>
<asrwt>0</asrwt>
<pdfrwt beam="1">  1        2 0.61180835E-02 0.91092461E+02</pdfrwt>
<pdfrwt beam="2">  1       -2 0.13292051E-01 0.91092461E+02</pdfrwt>
<totfact> 0.43454933E+04</totfact>
</mgrwt>
</event>
<event>
 6    1  0.2975432E-002  0.1537606E+03  0.7546771E-02  0.1213955E+00
         -2   -1    0    0    0  501 -0.00000000000E+00  0.00000000000E+00  0.40104641050E+02  0.40104641050E+02  0.00000000000E+00 0.  1.
          2   -1    0    0  501    0  0.00000000000E+00 -0.00000000000E+00 -0.44743689214E+03  0.44743689214E+03  0.00000000000E+00 0. -1.
         23    2    1    2    0    0  0.51285748208E+02 -0.90798602664E+02 -0.17546242472E+03  0.23330103564E+03  0.11299423227E+03 0.  0.
         13    1    3    3    0    0  0.28945569567E+02  0.18892987223E+02 -0.15072653202E+02  0.37709094902E+02  0.00000000000E+00 0. -1.
        -13    1    3    3    0    0  0.22340178642E+02 -0.10969158989E+03 -0.16038977152E+03  0.19559194074E+03  0.00000000000E+00 0.  1.
         22    1    1    2    0    0 -0.51285748208E+02  0.90798602664E+02 -0.23186982637E+03  0.25424049755E+03  0.00000000000E+00 0. -1.
<mgrwt>
<rscale>  0 0.13953574E+03</rscale>
<asrwt>0</asrwt>
<pdfrwt beam="1">  1        2 0.68836448E-01 0.15376056E+03</pdfrwt>
<pdfrwt beam="2">  1       -2 0.61699445E-02 0.15376056E+03</pdfrwt>
<totfact> 0.95925253E+03</totfact>
</mgrwt>
</event>
<event>
 6    1  0.2975432E-002  0.9993922E+02  0.7546771E-02  0.1322991E+00
         -1   -1    0    0    0  501 -0.00000000000E+00  0.00000000000E+00  0.10834893013E+03  0.10834893013E+03  0.00000000000E+00 0.  1.
          1   -1    0    0  501    0  0.00000000000E+00 -0.00000000000E+00 -0.48974564193E+02  0.48974564193E+02  0.00000000000E+00 0. -1.
         23    2    1    2    0    0  0.35998450382E+02  0.28123272272E+02  0.38499994491E+02  0.10709853781E+03  0.88887796418E+02 0.  0.
         13    1    3    3    0    0  0.52029216560E+02  0.39385548619E+02  0.15474152760E+01  0.65273695391E+02  0.00000000000E+00 0. -1.
        -13    1    3    3    0    0 -0.16030766178E+02 -0.11262276347E+02  0.36952579215E+02  0.41824842420E+02  0.00000000000E+00 0.  1.
         22    1    1    2    0    0 -0.35998450382E+02 -0.28123272272E+02  0.20874371441E+02  0.50224956509E+02  0.00000000000E+00 0. -1.
<mgrwt>
<rscale>  0 0.82174532E+02</rscale>
<asrwt>0</asrwt>
<pdfrwt beam="1">  1        1 0.75345483E-02 0.99939218E+02</pdfrwt>
<pdfrwt beam="2">  1       -1 0.16669066E-01 0.99939218E+02</pdfrwt>
<totfact> 0.22813302E+04</totfact>
</mgrwt>
</event>
<event>
 6    1  0.2975432E-002  0.1054463E+03  0.7546771E-02  0.1310005E+00
         -2   -1    0    0    0  501 -0.00000000000E+00  0.00000000000E+00  0.16454892181E+02  0.16454892181E+02  0.00000000000E+00 0.  1.
          2   -1    0    0  501    0  0.00000000000E+00 -0.00000000000E+00 -0.91387669981E+03  0.91387669981E+03  0.00000000000E+00 0. -1.
         23    2    1    2    0    0  0.17645857908E+02  0.45830928265E+02 -0.86518226634E+03  0.87158435113E+03  0.93311718729E+02 0.  0.
         11    1    3    3    0    0 -0.37474094290E+02  0.23603603907E+02 -0.44917452787E+03  0.45135262750E+03  0.00000000000E+00 0. -1.
        -11    1    3    3    0    0  0.55119952198E+02  0.22227324357E+02 -0.41600773847E+03  0.42023172363E+03  0.00000000000E+00 0.  1.
         22    1    1    2    0    0 -0.17645857908E+02 -0.45830928265E+02 -0.32239541292E+02  0.58747240868E+02  0.00000000000E+00 0.  1.
<mgrwt>
<rscale>  0 0.87109872E+02</rscale>
<asrwt>0</asrwt>
<pdfrwt beam="1">  1        2 0.14059639E+00 0.10544632E+03</pdfrwt>
<pdfrwt beam="2">  1       -2 0.25315223E-02 0.10544632E+03</pdfrwt>
<totfact> 0.15229608E+04</totfact>
</mgrwt>
</event>
<event>
 6    1  0.2975432E-002  0.9294214E+02  0.7546771E-02  0.1383051E+00
          2   -1    0    0  501    0  0.00000000000E+00  0.00000000000E+00  0.11052961566E+04  0.11052961566E+04  0.00000000000E+00 0. -1.
         -2   -1    0    0    0  501 -0.00000000000E+00 -0.00000000000E+00 -0.46299621225E+01  0.46299621225E+01  0.00000000000E+00 0.  1.
         23    2    1    2    0    0  0.33881565369E+01  0.20184816837E+02  0.10630247249E+04  0.10670800376E+04  0.90660545250E+02 0.  0.
         13    1    3    3    0    0 -0.39315969438E+02  0.14160403184E+02  0.74139729216E+03  0.74257404162E+03  0.00000000000E+00 0. -1.
        -13    1    3    3    0    0  0.42704125975E+02  0.60244136534E+01  0.32162743275E+03  0.32450599599E+03  0.00000000000E+00 0.  1.
         22    1    1    2    0    0 -0.33881565369E+01 -0.20184816837E+02  0.37641469583E+02  0.42846081126E+02  0.00000000000E+00 0. -1.
<mgrwt>
<rscale>  0 0.63668427E+02</rscale>
<asrwt>0</asrwt>
<pdfrwt beam="1">  1        2 0.17004535E+00 0.92942137E+02</pdfrwt>
<pdfrwt beam="2">  1       -2 0.71230274E-03 0.92942137E+02</pdfrwt>
<totfact> 0.71019044E+04</totfact>
</mgrwt>
</event>
<event>
 6    1  0.2975432E-002  0.9837366E+02  0.7546771E-02  0.1336294E+00
         -3   -1    0    0    0  501 -0.00000000000E+00  0.00000000000E+00  0.21700978116E+02  0.21700978116E+02  0.00000000000E+00 0.  1.
          3   -1    0    0  501    0  0.00000000000E+00 -0.00000000000E+00 -0.22127843166E+03  0.22127843166E+03  0.00000000000E+00 0. -1.
         23    2    1    2    0    0  0.17294211675E+02  0.33721708105E+02 -0.16252442056E+03  0.18997780029E+03  0.90780691609E+02 0.  0.
         11    1    3    3    0    0  0.35878350778E+02 -0.11459122569E+02 -0.28217379515E+02  0.47061534731E+02  0.00000000000E+00 0.  1.
        -11    1    3    3    0    0 -0.18584139102E+02  0.45180830674E+02 -0.13430704104E+03  0.14291626555E+03  0.00000000000E+00 0. -1.
         22    1    1    2    0    0 -0.17294211675E+02 -0.33721708105E+02 -0.37053032988E+02  0.53001609491E+02  0.00000000000E+00 0. -1.
<mgrwt>
<rscale>  0 0.77501950E+02</rscale>
<asrwt>0</asrwt>
<pdfrwt beam="1">  1        3 0.34042834E-01 0.98373662E+02</pdfrwt>
<pdfrwt beam="2">  1       -3 0.33386122E-02 0.98373662E+02</pdfrwt>
<totfact> 0.77213233E+03</totfact>
</mgrwt>
</event>
<event>
 6    1  0.2975432E-002  0.9344416E+02  0.7546771E-02  0.1385747E+00
          2   -1    0    0  501    0  0.00000000000E+00  0.00000000000E+00  0.47652278169E+03  0.47652278169E+03  0.00000000000E+00 0. -1.
         -2   -1    0    0    0  501 -0.00000000000E+00 -0.00000000000E+00 -0.94177449669E+01  0.94177449669E+01  0.00000000000E+00 0.  1.
         23    2    1    2    0    0  0.17395653805E+02 -0.83094310965E+01  0.45169705754E+03  0.46126136056E+03  0.91433886183E+02 0.  0.
         11    1    3    3    0    0 -0.23986277973E+02  0.20208311079E+02  0.29593367101E+03  0.29759108690E+03  0.00000000000E+00 0. -1.
        -11    1    3    3    0    0  0.41381931777E+02 -0.28517742176E+02  0.15576338653E+03  0.16367027366E+03  0.00000000000E+00 0.  1.
         22    1    1    2    0    0 -0.17395653805E+02  0.83094310965E+01  0.15407979178E+02  0.24679166088E+02  0.00000000000E+00 0.  1.
<mgrwt>
<rscale>  0 0.62976958E+02</rscale>
<asrwt>0</asrwt>
<pdfrwt beam="1">  1        2 0.73311178E-01 0.93444160E+02</pdfrwt>
<pdfrwt beam="2">  1       -2 0.14488842E-02 0.93444160E+02</pdfrwt>
<totfact> 0.71569911E+04</totfact>
</mgrwt>
</event>
<event>
 6    1  0.2975432E-002  0.9926904E+02  0.7546771E-02  0.1340308E+00
          2   -1    0    0  501    0  0.00000000000E+00  0.00000000000E+00  0.25512609543E+03  0.25512609543E+03  0.00000000000E+00 0. -1.
         -2   -1    0    0    0  501 -0.00000000000E+00 -0.00000000000E+00 -0.26772051600E+02  0.26772051600E+02  0.00000000000E+00 0.  1.
         23    2    1    2    0    0 -0.11855724596E+02  0.32289735907E+02  0.22667598120E+03  0.24745977969E+03  0.93119046726E+02 0.  0.
         13    1    3    3    0    0  0.28613298041E+02  0.38811431275E+02  0.17488130179E+03  0.18140704986E+03  0.00000000000E+00 0. -1.
        -13    1    3    3    0    0 -0.40469022636E+02 -0.65216953679E+01  0.51794679402E+02  0.66052729830E+02  0.00000000000E+00 0.  1.
         22    1    1    2    0    0  0.11855724596E+02 -0.32289735907E+02  0.16780626328E+01  0.34438367337E+02  0.00000000000E+00 0.  1.
<mgrwt>
<rscale>  0 0.76162634E+02</rscale>
<asrwt>0</asrwt>
<pdfrwt beam="1">  1        2 0.39250167E-01 0.99269039E+02</pdfrwt>
<pdfrwt beam="2">  1       -2 0.41187773E-02 0.99269039E+02</pdfrwt>
<totfact> 0.30669803E+04</totfact>
</mgrwt>
</event>
<event>
 6    1  0.2975432E-002  0.1005117E+03  0.7546771E-02  0.1334624E+00
         -2   -1    0    0    0  501 -0.00000000000E+00  0.00000000000E+00  0.19803327301E+02  0.19803327301E+02  0.00000000000E+00 0. -1.
          2   -1    0    0  501    0  0.00000000000E+00 -0.00000000000E+00 -0.41006656866E+03  0.41006656866E+03  0.00000000000E+00 0.  1.
         23    2    1    2    0    0 -0.77490036270E+01 -0.35750470440E+02 -0.37823550593E+03  0.39136262894E+03  0.93618727798E+02 0.  0.
         13    1    3    3    0    0 -0.37800262930E+02 -0.34098796023E+01 -0.29226813145E+03  0.29472215359E+03  0.00000000000E+00 0.  1.
        -13    1    3    3    0    0  0.30051259303E+02 -0.32340590837E+02 -0.85967374478E+02  0.96640475351E+02  0.00000000000E+00 0. -1.
         22    1    1    2    0    0  0.77490036270E+01  0.35750470440E+02 -0.12027735436E+02  0.38507267023E+02  0.00000000000E+00 0. -1.
<mgrwt>
<rscale>  0 0.78068423E+02</rscale>
<asrwt>0</asrwt>
<pdfrwt beam="1">  1        2 0.63087162E-01 0.10051174E+03</pdfrwt>
<pdfrwt beam="2">  1       -2 0.30466659E-02 0.10051174E+03</pdfrwt>
<totfact> 0.29027851E+04</totfact>
</mgrwt>
</event>
<event>
 6    1  0.2975432E-002  0.1003203E+03  0.7546771E-02  0.1397800E+00
         -2   -1    0    0    0  501 -0.00000000000E+00  0.00000000000E+00  0.30156128308E+02  0.30156128308E+02  0.00000000000E+00 0.  1.
          2   -1    0    0  501    0  0.00000000000E+00 -0.00000000000E+00 -0.35724556877E+03  0.35724556877E+03  0.00000000000E+00 0. -1.
         23    2    1    2    0    0  0.82821852809E+01  0.98152206789E+01 -0.34838056967E+03  0.36253715740E+03  0.99494904490E+02 0.  0.
         13    1    3    3    0    0 -0.10519298215E+00  0.37781229237E+02 -0.49685835569E+02  0.62418864171E+02  0.00000000000E+00 0.  1.
        -13    1    3    3    0    0  0.83873782631E+01 -0.27966008558E+02 -0.29869473410E+03  0.30011829323E+03  0.00000000000E+00 0. -1.
         22    1    1    2    0    0 -0.82821852809E+01 -0.98152206789E+01  0.21291129215E+02  0.24864539675E+02  0.00000000000E+00 0.  1.
<mgrwt>
<rscale>  0 0.60007456E+02</rscale>
<asrwt>0</asrwt>
<pdfrwt beam="1">  1        2 0.54960860E-01 0.10032033E+03</pdfrwt>
<pdfrwt beam="2">  1       -2 0.46394040E-02 0.10032033E+03</pdfrwt>
<totfact> 0.18082178E+04</totfact>
</mgrwt>
</event>
<event>
 6    1  0.2975432E-002  0.1013828E+03  0.7546771E-02  0.1322784E+00
         -1   -1    0    0    0  501 -0.00000000000E+00  0.00000000000E+00  0.11398198093E+03  0.11398198093E+03  0.00000000000E+00 0.  1.
          1   -1    0    0  501    0  0.00000000000E+00 -0.00000000000E+00 -0.50233665260E+02  0.50233665260E+02  0.00000000000E+00 0. -1.
         23    2    1    2    0    0 -0.19904709786E+02 -0.39150513136E+02  0.22258550323E+02  0.10379743057E+03  0.91375616985E+02 0.  0.
         11    1    3    3    0    0 -0.27162915888E+02 -0.27963797682E+02 -0.30425400816E+02  0.49452027210E+02  0.00000000000E+00 0. -1.
        -11    1    3    3    0    0  0.72582061020E+01 -0.11186715455E+02  0.52683951139E+02  0.54345403358E+02  0.00000000000E+00 0.  1.
         22    1    1    2    0    0  0.19904709786E+02  0.39150513136E+02  0.41489765349E+02  0.60418215624E+02  0.00000000000E+00 0. -1.
<mgrwt>
<rscale>  0 0.82250488E+02</rscale>
<asrwt>0</asrwt>
<pdfrwt beam="1">  1        1 0.77282562E-02 0.10138276E+03</pdfrwt>
<pdfrwt beam="2">  1       -1 0.17535689E-01 0.10138276E+03</pdfrwt>
<totfact> 0.20400694E+04</totfact>
</mgrwt>
</event>
<event>
 6    1  0.2975432E-002  0.9167830E+02  0.7546771E-02  0.1412753E+00
         -2   -1    0    0    0  501 -0.00000000000E+00  0.00000000000E+00  0.87168669542E+01  0.87168669542E+01  0.00000000000E+00 0.  1.
          2   -1    0    0  501    0  0.00000000000E+00 -0.00000000000E+00 -0.31811316189E+03  0.31811316189E+03  0.00000000000E+00 0. -1.
         23    2    1    2    0    0  0.13211478548E+02 -0.15640382566E+01 -0.26074641315E+03  0.27639392690E+03  0.90707890935E+02 0.  0.
         11    1    3    3    0    0  0.21341875004E+02  0.15906926765E+02 -0.25485795955E+03  0.25624419115E+03  0.00000000000E+00 0. -1.
        -11    1    3    3    0    0 -0.81303964555E+01 -0.17470965022E+02 -0.58884535926E+01  0.20149735756E+02  0.00000000000E+00 0.  1.
         22    1    1    2    0    0 -0.13211478548E+02  0.15640382566E+01 -0.48649881791E+02  0.50436101945E+02  0.00000000000E+00 0. -1.
<mgrwt>
<rscale>  0 0.56583957E+02</rscale>
<asrwt>0</asrwt>
<pdfrwt beam="1">  1        2 0.48940482E-01 0.91678301E+02</pdfrwt>
<pdfrwt beam="2">  1       -2 0.13410566E-02 0.91678301E+02</pdfrwt>
<totfact> 0.12204611E+05</totfact>
</mgrwt>
</event>
<event>
 6    1  0.2975432E-002  0.9574994E+02  0.7546771E-02  0.1359093E+00
          2   -1    0    0  501    0  0.00000000000E+00  0.00000000000E+00  0.77572735054E+02  0.77572735054E+02  0.00000000000E+00 0. -1.
         -2   -1    0    0    0  501 -0.00000000000E+00 -0.00000000000E+00 -0.49490976876E+02  0.49490976876E+02  0.00000000000E+00 0.  1.
         23    2    1    2    0    0  0.24597431981E+02  0.12986213345E+02  0.25745191348E+02  0.99150723166E+02  0.91620825306E+02 0.  0.
         11    1    3    3    0    0  0.55912835331E+02  0.14177239422E+02  0.33718192926E+02  0.66814338331E+02  0.00000000000E+00 0. -1.
        -11    1    3    3    0    0 -0.31315403350E+02 -0.11910260770E+01 -0.79730015777E+01  0.32336384836E+02  0.00000000000E+00 0.  1.
         22    1    1    2    0    0 -0.24597431981E+02 -0.12986213345E+02  0.23365668300E+01  0.27912988763E+02  0.00000000000E+00 0. -1.
<mgrwt>
<rscale>  0 0.70294886E+02</rscale>
<asrwt>0</asrwt>
<pdfrwt beam="1">  1        2 0.11934267E-01 0.95749940E+02</pdfrwt>
<pdfrwt beam="2">  1       -2 0.76139964E-02 0.95749940E+02</pdfrwt>
<totfact> 0.45763953E+04</totfact>
</mgrwt>
</event>
<event>
 6    1  0.2975432E-002  0.8930963E+02  0.7546771E-02  0.1431671E+00
          1   -1    0    0  501    0  0.00000000000E+00  0.00000000000E+00  0.14438902168E+03  0.14438902168E+03  0.00000000000E+00 0. -1.
         -1   -1    0    0    0  501 -0.00000000000E+00 -0.00000000000E+00 -0.17717043307E+02  0.17717043307E+02  0.00000000000E+00 0.  1.
         23    2    1    2    0    0 -0.10621411474E+02  0.17663217322E+01  0.10454653585E+03  0.13749977553E+03  0.88658196673E+02 0.  0.
         13    1    3    3    0    0 -0.36142999585E+02  0.32701514970E+02  0.64270970719E+02  0.80662650449E+02  0.00000000000E+00 0.  1.
        -13    1    3    3    0    0  0.25521588111E+02 -0.30935193238E+02  0.40275565129E+02  0.56837125076E+02  0.00000000000E+00 0. -1.
         22    1    1    2    0    0  0.10621411474E+02 -0.17663217322E+01  0.22125442520E+02  0.24606289458E+02  0.00000000000E+00 0. -1.
<mgrwt>
<rscale>  0 0.52625981E+02</rscale>
<asrwt>0</asrwt>
<pdfrwt beam="1">  1        1 0.22213695E-01 0.89309631E+02</pdfrwt>
<pdfrwt beam="2">  1       -1 0.27256991E-02 0.89309631E+02</pdfrwt>
<totfact> 0.82414537E+04</totfact>
</mgrwt>
</event>
<event>
 6    1  0.3322150E-002  0.1254586E+03  0.7546771E-02  0.1315220E+00
         -2   -1    0    0    0  501 -0.00000000000E+00  0.00000000000E+00  0.46668485529E+01  0.46668485529E+01  0.00000000000E+00 0.  1.
          2   -1    0    0  501    0  0.00000000000E+00 -0.00000000000E+00 -0.16055959398E+04  0.16055959398E+04  0.00000000000E+00 0. -1.
         23    2    1    2    0    0 -0.26481685615E+02  0.16942425965E+01 -0.15183618657E+04  0.15235362246E+04  0.12262023584E+03 0.  0.
         11    1    3    3    0    0 -0.19910535551E+02  0.21231178666E+02 -0.81759470018E+02  0.86785962639E+02  0.00000000000E+00 0.  1.
        -11    1    3    3    0    0 -0.65711500636E+01 -0.19536936069E+02 -0.14366023957E+04  0.14367502619E+04  0.00000000000E+00 0. -1.
         22    1    1    2    0    0  0.26481685615E+02 -0.16942425965E+01 -0.82567225559E+02  0.86726563794E+02  0.00000000000E+00 0. -1.
<mgrwt>
<rscale>  0 0.85081201E+02</rscale>
<asrwt>0</asrwt>
<pdfrwt beam="1">  1        2 0.24701471E+00 0.12545865E+03</pdfrwt>
<pdfrwt beam="2">  1       -2 0.71797684E-03 0.12545865E+03</pdfrwt>
<totfact> 0.39230022E+04</totfact>
</mgrwt>
</event>
<event>
 6    1  0.2975432E-002  0.9552054E+02  0.7546771E-02  0.1351971E+00
         -1   -1    0    0    0  501 -0.00000000000E+00  0.00000000000E+00  0.15260757269E+02  0.15260757269E+02  0.00000000000E+00 0.  1.
          1   -1    0    0  501    0  0.00000000000E+00 -0.00000000000E+00 -0.47381629225E+03  0.47381629225E+03  0.00000000000E+00 0. -1.
         23    2    1    2    0    0 -0.16484202072E+02 -0.26964657951E+02 -0.44421958741E+03  0.45437343171E+03  0.90140733908E+02 0.  0.
         13    1    3    3    0    0  0.17093871479E+02  0.25640109526E+02 -0.10368295373E+03  0.10816547764E+03  0.00000000000E+00 0. -1.
        -13    1    3    3    0    0 -0.33578073551E+02 -0.52604767477E+02 -0.34053663368E+03  0.34620795407E+03  0.00000000000E+00 0.  1.
         22    1    1    2    0    0  0.16484202072E+02  0.26964657951E+02 -0.14335947574E+02  0.34703617811E+02  0.00000000000E+00 0.  1.
<mgrwt>
<rscale>  0 0.72445026E+02</rscale>
<asrwt>0</asrwt>
<pdfrwt beam="1">  1        1 0.72894824E-01 0.95520540E+02</pdfrwt>
<pdfrwt beam="2">  1       -1 0.23478085E-02 0.95520540E+02</pdfrwt>
<totfact> 0.23780852E+04</totfact>
</mgrwt>
</event>
<event>
 6    1  0.2975432E-002  0.9217764E+02  0.7546771E-02  0.1414701E+00
         -1   -1    0    0    0  501 -0.00000000000E+00  0.00000000000E+00  0.37904022485E+01  0.37904022485E+01  0.00000000000E+00 0.  1.
          1   -1    0    0  501    0  0.00000000000E+00 -0.00000000000E+00 -0.75239137689E+03  0.75239137689E+03  0.00000000000E+00 0. -1.
         23    2    1    2    0    0 -0.11304708623E+02 -0.57848316275E+01 -0.69559145932E+03  0.70167242739E+03  0.91298720467E+02 0.  0.
         13    1    3    3    0    0  0.31883984690E+02  0.22778630012E+01 -0.50800320735E+03  0.50900789367E+03  0.00000000000E+00 0. -1.
        -13    1    3    3    0    0 -0.43188693313E+02 -0.80626946287E+01 -0.18758825198E+03  0.19266453372E+03  0.00000000000E+00 0.  1.
         22    1    1    2    0    0  0.11304708623E+02  0.57848316275E+01 -0.53009515322E+02  0.54509351755E+02  0.00000000000E+00 0.  1.
<mgrwt>
<rscale>  0 0.56157822E+02</rscale>
<asrwt>0</asrwt>
<pdfrwt beam="1">  1        1 0.11575245E+00 0.92177639E+02</pdfrwt>
<pdfrwt beam="2">  1       -1 0.58313915E-03 0.92177639E+02</pdfrwt>
<totfact> 0.91273796E+04</totfact>
</mgrwt>
</event>
<event>
 6    1  0.2975432E-002  0.9260454E+02  0.7546771E-02  0.1408881E+00
         -2   -1    0    0    0  501 -0.00000000000E+00  0.00000000000E+00  0.66827875357E+01  0.66827875357E+01  0.00000000000E+00 0.  1.
          2   -1    0    0  501    0  0.00000000000E+00 -0.00000000000E+00 -0.42480548471E+03  0.42480548471E+03  0.00000000000E+00 0. -1.
         23    2    1    2    0    0  0.13637297148E+02 -0.14260304354E+01 -0.37333368661E+03  0.38464742571E+03  0.91583792866E+02 0.  0.
         13    1    3    3    0    0 -0.39404095723E+00 -0.43746403786E+02 -0.12732765933E+03  0.13463371027E+03  0.00000000000E+00 0.  1.
        -13    1    3    3    0    0  0.14031338105E+02  0.42320373350E+02 -0.24600602728E+03  0.25001371544E+03  0.00000000000E+00 0. -1.
         22    1    1    2    0    0 -0.13637297148E+02  0.14260304354E+01 -0.44789010570E+02  0.46840846536E+02  0.00000000000E+00 0.  1.
<mgrwt>
<rscale>  0 0.57444263E+02</rscale>
<asrwt>0</asrwt>
<pdfrwt beam="1">  1        2 0.65354699E-01 0.92604539E+02</pdfrwt>
<pdfrwt beam="2">  1       -2 0.10281210E-02 0.92604539E+02</pdfrwt>
<totfact> 0.13157398E+05</totfact>
</mgrwt>
</event>
<event>
 6    1  0.2975432E-002  0.9788083E+02  0.7546771E-02  0.1372649E+00
          2   -1    0    0  501    0  0.00000000000E+00  0.00000000000E+00  0.61665865806E+02  0.61665865806E+02  0.00000000000E+00 0. -1.
         -2   -1    0    0    0  501 -0.00000000000E+00 -0.00000000000E+00 -0.61765092878E+02  0.61765092878E+02  0.00000000000E+00 0.  1.
         23    2    1    2    0    0 -0.14591058093E+02 -0.14787409008E+02 -0.13355221528E+02  0.98787748047E+02  0.95650879665E+02 0.  0.
         11    1    3    3    0    0  0.24791776479E+02  0.23820934023E+02  0.14125123780E+02  0.37169721555E+02  0.00000000000E+00 0. -1.
        -11    1    3    3    0    0 -0.39382834572E+02 -0.38608343031E+02 -0.27480345308E+02  0.61618026492E+02  0.00000000000E+00 0.  1.
         22    1    1    2    0    0  0.14591058093E+02  0.14787409008E+02  0.13255994455E+02  0.24643210636E+02  0.00000000000E+00 0. -1.
<mgrwt>
<rscale>  0 0.66436110E+02</rscale>
<asrwt>0</asrwt>
<pdfrwt beam="1">  1        2 0.94870563E-02 0.97880832E+02</pdfrwt>
<pdfrwt beam="2">  1       -2 0.95023220E-02 0.97880832E+02</pdfrwt>
<totfact> 0.43053493E+04</totfact>
</mgrwt>
</event>
<event>
 6    1  0.2975432E-002  0.9412845E+02  0.7546771E-02  0.1397962E+00
         -4   -1    0    0    0  501 -0.00000000000E+00  0.00000000000E+00  0.13255715553E+02  0.13255715553E+02  0.00000000000E+00 0.  1.
          4   -1    0    0  501    0  0.00000000000E+00 -0.00000000000E+00 -0.76407261807E+03  0.76407261807E+03  0.00000000000E+00 0. -1.
         23    2    1    2    0    0  0.16818642663E+01  0.15416168874E+02 -0.75533379668E+03  0.76117626679E+03  0.92842219907E+02 0.  0.
         13    1    3    3    0    0 -0.17188641246E+02  0.26626512994E+02 -0.71100537210E+03  0.71171135985E+03  0.00000000000E+00 0. -1.
        -13    1    3    3    0    0  0.18870505513E+02 -0.11210344120E+02 -0.44328424573E+02  0.49464906942E+02  0.00000000000E+00 0.  1.
         22    1    1    2    0    0 -0.16818642663E+01 -0.15416168874E+02  0.45168941562E+01  0.16152066833E+02  0.00000000000E+00 0.  1.
<mgrwt>
<rscale>  0 0.59969042E+02</rscale>
<asrwt>0</asrwt>
<pdfrwt beam="1">  1        4 0.11754959E+00 0.94128448E+02</pdfrwt>
<pdfrwt beam="2">  1       -4 0.20393415E-02 0.94128448E+02</pdfrwt>
<totfact> 0.87956056E+02</totfact>
</mgrwt>
</event>
<event>
 6    1  0.2975432E-002  0.9266497E+02  0.7546771E-02  0.1365940E+00
         -2   -1    0    0    0  501 -0.00000000000E+00  0.00000000000E+00  0.74263296324E+02  0.74263296324E+02  0.00000000000E+00 0.  1.
          2   -1    0    0  501    0  0.00000000000E+00 -0.00000000000E+00 -0.16203238547E+03  0.16203238547E+03  0.00000000000E+00 0. -1.
         23    2    1    2    0    0  0.24423664733E+02 -0.12337117059E+02 -0.14544627693E+03  0.17245699567E+03  0.88532909294E+02 0.  0.
         11    1    3    3    0    0  0.50933728141E+02  0.14422443045E+02 -0.10227692926E+03  0.11516432514E+03  0.00000000000E+00 0. -1.
        -11    1    3    3    0    0 -0.26510063409E+02 -0.26759560104E+02 -0.43169347667E+02  0.57292670533E+02  0.00000000000E+00 0.  1.
         22    1    1    2    0    0 -0.24423664733E+02  0.12337117059E+02  0.57677187777E+02  0.63838686125E+02  0.00000000000E+00 0.  1.
<mgrwt>
<rscale>  0 0.68308791E+02</rscale>
<asrwt>0</asrwt>
<pdfrwt beam="1">  1        2 0.24928059E-01 0.92664966E+02</pdfrwt>
<pdfrwt beam="2">  1       -2 0.11425123E-01 0.92664966E+02</pdfrwt>
<totfact> 0.10513026E+04</totfact>
</mgrwt>
</event>
<event>
 6    1  0.2975432E-002  0.9336728E+02  0.7546771E-02  0.1384002E+00
          2   -1    0    0  501    0  0.00000000000E+00  0.00000000000E+00  0.12142690292E+03  0.12142690292E+03  0.00000000000E+00 0. -1.
         -2   -1    0    0    0  501 -0.00000000000E+00 -0.00000000000E+00 -0.70318389452E+02  0.70318389452E+02  0.00000000000E+00 0.  1.
         23    2    1    2    0    0 -0.18928391186E+02 -0.60771511263E+01  0.10129717850E+03  0.13776272244E+03  0.91226276712E+02 0.  0.
         13    1    3    3    0    0  0.66654399569E+01  0.31742322354E+02  0.72793945657E+01  0.33241430527E+02  0.00000000000E+00 0.  1.
        -13    1    3    3    0    0 -0.25593831143E+02 -0.37819473481E+02  0.94017783931E+02  0.10452129191E+03  0.00000000000E+00 0. -1.
         22    1    1    2    0    0  0.18928391186E+02  0.60771511263E+01 -0.50188665033E+02  0.53982569933E+02  0.00000000000E+00 0.  1.
<mgrwt>
<rscale>  0 0.63423517E+02</rscale>
<asrwt>0</asrwt>
<pdfrwt beam="1">  1        2 0.18681062E-01 0.93367282E+02</pdfrwt>
<pdfrwt beam="2">  1       -2 0.10818214E-01 0.93367282E+02</pdfrwt>
<totfact> 0.15779276E+04</totfact>
</mgrwt>
</event>
<event>
 6    1  0.2975432E-002  0.9968404E+02  0.7546771E-02  0.1361770E+00
          2   -1    0    0  501    0  0.00000000000E+00  0.00000000000E+00  0.55016254050E+03  0.55016254050E+03  0.00000000000E+00 0. -1.
         -2   -1    0    0    0  501 -0.00000000000E+00 -0.00000000000E+00 -0.84796769304E+01  0.84796769304E+01  0.00000000000E+00 0.  1.
         23    2    1    2    0    0 -0.21500996837E+02  0.96478458392E+01  0.50702360162E+03  0.51672994914E+03  0.96858318922E+02 0.  0.
         13    1    3    3    0    0 -0.53043233964E+02 -0.52071800860E+01  0.41346511795E+03  0.41688619929E+03  0.00000000000E+00 0. -1.
        -13    1    3    3    0    0  0.31542237127E+02  0.14855025925E+02  0.93558483666E+02  0.99843749850E+02  0.00000000000E+00 0.  1.
         22    1    1    2    0    0  0.21500996837E+02 -0.96478458392E+01  0.34659261947E+02  0.41912268287E+02  0.00000000000E+00 0.  1.
<mgrwt>
<rscale>  0 0.69509217E+02</rscale>
<asrwt>0</asrwt>
<pdfrwt beam="1">  1        2 0.84640363E-01 0.99684040E+02</pdfrwt>
<pdfrwt beam="2">  1       -2 0.13045661E-02 0.99684040E+02</pdfrwt>
<totfact> 0.71700204E+04</totfact>
</mgrwt>
</event>
<event>
 6    1  0.2975432E-002  0.9607935E+02  0.7546771E-02  0.1410536E+00
          2   -1    0    0  501    0  0.00000000000E+00  0.00000000000E+00  0.89707263935E+02  0.89707263935E+02  0.00000000000E+00 0. -1.
         -2   -1    0    0    0  501 -0.00000000000E+00 -0.00000000000E+00 -0.34418719113E+02  0.34418719113E+02  0.00000000000E+00 0.  1.
         23    2    1    2    0    0 -0.11766127565E+02  0.21669038716E+01  0.57483264190E+02  0.11196234776E+03  0.95331549993E+02 0.  0.
         11    1    3    3    0    0  0.11340310867E+02 -0.34231520517E+02 -0.46254528503E+01  0.36356491326E+02  0.00000000000E+00 0.  1.
        -11    1    3    3    0    0 -0.23106438432E+02  0.36398424389E+02  0.62108717040E+02  0.75605856436E+02  0.00000000000E+00 0. -1.
         22    1    1    2    0    0  0.11766127565E+02 -0.21669038716E+01 -0.21947193675E+01  0.12163635286E+02  0.00000000000E+00 0.  1.
<mgrwt>
<rscale>  0 0.57074435E+02</rscale>
<asrwt>0</asrwt>
<pdfrwt beam="1">  1        2 0.13801117E-01 0.96079351E+02</pdfrwt>
<pdfrwt beam="2">  1       -2 0.52951876E-02 0.96079351E+02</pdfrwt>
<totfact> 0.66694483E+04</totfact>
</mgrwt>
</event>
<event>
 6    1  0.2975432E-002  0.9227336E+02  0.7546771E-02  0.1422424E+00
         -2   -1    0    0    0  501 -0.00000000000E+00  0.00000000000E+00  0.68711645744E+01  0.68711645744E+01  0.00000000000E+00 0.  1.
          2   -1    0    0  501    0  0.00000000000E+00 -0.00000000000E+00 -0.50974781934E+03  0.50974781934E+03  0.00000000000E+00 0. -1.
         23    2    1    2    0    0 -0.36089468867E+01  0.10643611682E+02 -0.49329267863E+03  0.50184862285E+03  0.91586366368E+02 0.  0.
         13    1    3    3    0    0 -0.12591100212E+02  0.19596184817E+02 -0.28168019482E+02  0.36551109224E+02  0.00000000000E+00 0.  1.
        -13    1    3    3    0    0  0.89821533257E+01 -0.89525731352E+01 -0.46512465914E+03  0.46529751363E+03  0.00000000000E+00 0. -1.
         22    1    1    2    0    0  0.36089468867E+01 -0.10643611682E+02 -0.95839761380E+01  0.14770361062E+02  0.00000000000E+00 0. -1.
<mgrwt>
<rscale>  0 0.54511407E+02</rscale>
<asrwt>0</asrwt>
<pdfrwt beam="1">  1        2 0.78422762E-01 0.92273363E+02</pdfrwt>
<pdfrwt beam="2">  1       -2 0.10571020E-02 0.92273363E+02</pdfrwt>
<totfact> 0.10400408E+05</totfact>
</mgrwt>
</event>
<event>
 6    1  0.2975432E-002  0.9140437E+02  0.7546771E-02  0.1383674E+00
          2   -1    0    0  501    0  0.00000000000E+00  0.00000000000E+00  0.60077811401E+02  0.60077811401E+02  0.00000000000E+00 0. -1.
         -2   -1    0    0    0  501 -0.00000000000E+00 -0.00000000000E+00 -0.61510826013E+02  0.61510826013E+02  0.00000000000E+00 0.  1.
         23    2    1    2    0    0 -0.17562277872E+02 -0.12054650959E+02  0.17529136087E+02  0.93070022916E+02  0.88887627597E+02 0.  0.
         13    1    3    3    0    0  0.28784780366E+02 -0.22961767350E+02  0.25507127592E+02  0.44793078690E+02  0.00000000000E+00 0. -1.
        -13    1    3    3    0    0 -0.46347058239E+02  0.10907116391E+02 -0.79779915045E+01  0.48276944226E+02  0.00000000000E+00 0.  1.
         22    1    1    2    0    0  0.17562277872E+02  0.12054650959E+02 -0.18962150699E+02  0.28518614499E+02  0.00000000000E+00 0.  1.
<mgrwt>
<rscale>  0 0.63507802E+02</rscale>
<asrwt>0</asrwt>
<pdfrwt beam="1">  1        2 0.92427402E-02 0.91404368E+02</pdfrwt>
<pdfrwt beam="2">  1       -2 0.94632041E-02 0.91404368E+02</pdfrwt>
<totfact> 0.44327447E+04</totfact>
</mgrwt>
</event>
<event>
 6    1  0.2975432E-002  0.9491318E+02  0.7546771E-02  0.1364997E+00
          2   -1    0    0  501    0  0.00000000000E+00  0.00000000000E+00  0.51496795131E+03  0.51496795131E+03  0.00000000000E+00 0. -1.
         -2   -1    0    0    0  501 -0.00000000000E+00 -0.00000000000E+00 -0.10100686774E+02  0.10100686774E+02  0.00000000000E+00 0.  1.
         23    2    1    2    0    0 -0.22837525656E+02  0.12148230122E+02  0.47962425943E+03  0.48892529319E+03  0.91320205958E+02 0.  0.
         13    1    3    3    0    0  0.15171923508E+02  0.42677572673E+02  0.26410014132E+03  0.26795605445E+03  0.00000000000E+00 0. -1.
        -13    1    3    3    0    0 -0.38009449165E+02 -0.30529342551E+02  0.21552411811E+03  0.22096923874E+03  0.00000000000E+00 0.  1.
         22    1    1    2    0    0  0.22837525656E+02 -0.12148230122E+02  0.25243005105E+02  0.36143344891E+02  0.00000000000E+00 0.  1.
<mgrwt>
<rscale>  0 0.68577852E+02</rscale>
<asrwt>0</asrwt>
<pdfrwt beam="1">  1        2 0.79225819E-01 0.94913182E+02</pdfrwt>
<pdfrwt beam="2">  1       -2 0.15539522E-02 0.94913182E+02</pdfrwt>
<totfact> 0.59672098E+04</totfact>
</mgrwt>
</event>
<event>
 6    1  0.2975432E-002  0.9720380E+02  0.7546771E-02  0.1355161E+00
         -2   -1    0    0    0  501 -0.00000000000E+00  0.00000000000E+00  0.32966763993E+02  0.32966763993E+02  0.00000000000E+00 0.  1.
          2   -1    0    0  501    0  0.00000000000E+00 -0.00000000000E+00 -0.20757252275E+03  0.20757252275E+03  0.00000000000E+00 0. -1.
         23    2    1    2    0    0 -0.12761188602E+02  0.25382767312E+02 -0.18604880510E+03  0.20991125839E+03  0.92959376678E+02 0.  0.
         13    1    3    3    0    0 -0.13209790316E+02 -0.24383022118E+02 -0.13791249874E+03  0.14067298118E+03  0.00000000000E+00 0. -1.
        -13    1    3    3    0    0  0.44860171379E+00  0.49765789429E+02 -0.48136306359E+02  0.69238277209E+02  0.00000000000E+00 0.  1.
         22    1    1    2    0    0  0.12761188602E+02 -0.25382767312E+02  0.11443046338E+02  0.30628028348E+02  0.00000000000E+00 0.  1.
<mgrwt>
<rscale>  0 0.71471114E+02</rscale>
<asrwt>0</asrwt>
<pdfrwt beam="1">  1        2 0.31934235E-01 0.97203799E+02</pdfrwt>
<pdfrwt beam="2">  1       -2 0.50718098E-02 0.97203799E+02</pdfrwt>
<totfact> 0.27962585E+04</totfact>
</mgrwt>
</event>
<event>
 6    1  0.2975432E-002  0.1054772E+03  0.7546771E-02  0.1296357E+00
          2   -1    0    0  501    0  0.00000000000E+00  0.00000000000E+00  0.91436696263E+02  0.91436696263E+02  0.00000000000E+00 0.  1.
         -2   -1    0    0    0  501 -0.00000000000E+00 -0.00000000000E+00 -0.79070566406E+02  0.79070566406E+02  0.00000000000E+00 0. -1.
         23    2    1    2    0    0  0.62958169075E+02 -0.29546286455E+01  0.18845848622E+02  0.10714759380E+03  0.84575291684E+02 0.  0.
         13    1    3    3    0    0  0.59647724965E+02  0.66424258738E+00  0.48630116435E+02  0.76962201997E+02  0.00000000000E+00 0.  1.
        -13    1    3    3    0    0  0.33104441100E+01 -0.36188712329E+01 -0.29784267813E+02  0.30185391804E+02  0.00000000000E+00 0. -1.
         22    1    1    2    0    0 -0.62958169075E+02  0.29546286455E+01 -0.64797187650E+01  0.63359668868E+02  0.00000000000E+00 0. -1.
<mgrwt>
<rscale>  0 0.92736652E+02</rscale>
<asrwt>0</asrwt>
<pdfrwt beam="1">  1        2 0.14067184E-01 0.10547721E+03</pdfrwt>
<pdfrwt beam="2">  1       -2 0.12164703E-01 0.10547721E+03</pdfrwt>
<totfact> 0.18398965E+04</totfact>
</mgrwt>
</event>
<event>
 6    1  0.2975432E-002  0.9410074E+02  0.7546771E-02  0.1365913E+00
         -2   -1    0    0    0  501 -0.00000000000E+00  0.00000000000E+00  0.11693362238E+02  0.11693362238E+02  0.00000000000E+00 0. -1.
          2   -1    0    0  501    0  0.00000000000E+00 -0.00000000000E+00 -0.54361243672E+03  0.54361243672E+03  0.00000000000E+00 0.  1.
         23    2    1    2    0    0  0.46495220202E+01  0.25724322181E+02 -0.51640299857E+03  0.52490666380E+03  0.90396847068E+02 0.  0.
         11    1    3    3    0    0  0.16146667820E+02 -0.18416061741E+02 -0.44420382294E+02  0.50725107933E+02  0.00000000000E+00 0. -1.
        -11    1    3    3    0    0 -0.11497145800E+02  0.44140383922E+02 -0.47198261628E+03  0.47418155587E+03  0.00000000000E+00 0.  1.
         22    1    1    2    0    0 -0.46495220202E+01 -0.25724322181E+02 -0.15516075908E+02  0.30399135157E+02  0.00000000000E+00 0. -1.
<mgrwt>
<rscale>  0 0.68316541E+02</rscale>
<asrwt>0</asrwt>
<pdfrwt beam="1">  1        2 0.83632662E-01 0.94100737E+02</pdfrwt>
<pdfrwt beam="2">  1       -2 0.17989792E-02 0.94100737E+02</pdfrwt>
<totfact> 0.45560878E+04</totfact>
</mgrwt>
</event>
<event>
 6    1  0.2975432E-002  0.9291626E+02  0.7546771E-02  0.1384235E+00
         -2   -1    0    0    0  501 -0.00000000000E+00  0.00000000000E+00  0.21291800860E+01  0.21291800860E+01  0.00000000000E+00 0. -1.
          2   -1    0    0  501    0  0.00000000000E+00 -0.00000000000E+00 -0.19300770288E+04  0.19300770288E+04  0.00000000000E+00 0.  1.
         23    2    1    2    0    0 -0.12985435600E+02 -0.15335659186E+02 -0.18221135860E+04  0.18244811183E+04  0.90717290090E+02 0.  0.
         13    1    3    3    0    0  0.17631507649E+02 -0.78435072753E+01 -0.88432672790E+02  0.90513691147E+02  0.00000000000E+00 0. -1.
        -13    1    3    3    0    0 -0.30616943249E+02 -0.74921519103E+01 -0.17336809132E+04  0.17339674271E+04  0.00000000000E+00 0.  1.
         22    1    1    2    0    0  0.12985435600E+02  0.15335659186E+02 -0.10583426275E+03  0.10772509064E+03  0.00000000000E+00 0. -1.
<mgrwt>
<rscale>  0 0.63363638E+02</rscale>
<asrwt>0</asrwt>
<pdfrwt beam="1">  1        2 0.29693474E+00 0.92916256E+02</pdfrwt>
<pdfrwt beam="2">  1       -2 0.32756637E-03 0.92916256E+02</pdfrwt>
<totfact> 0.78980043E+04</totfact>
</mgrwt>
</event>
<event>
 6    1  0.2975432E-002  0.9676556E+02  0.7546771E-02  0.1357510E+00
         -2   -1    0    0    0  501 -0.00000000000E+00  0.00000000000E+00  0.41221025176E+02  0.41221025176E+02  0.00000000000E+00 0.  1.
          2   -1    0    0  501    0  0.00000000000E+00 -0.00000000000E+00 -0.21211215302E+03  0.21211215302E+03  0.00000000000E+00 0. -1.
         23    2    1    2    0    0  0.25898291860E+02 -0.97617683402E+01 -0.19431417310E+03  0.21707503854E+03  0.92723033006E+02 0.  0.
         13    1    3    3    0    0  0.58024418894E+02 -0.22456122891E+02 -0.12589860295E+03  0.14043350337E+03  0.00000000000E+00 0. -1.
        -13    1    3    3    0    0 -0.32126127033E+02  0.12694354551E+02 -0.68415570146E+02  0.76641535175E+02  0.00000000000E+00 0.  1.
         22    1    1    2    0    0 -0.25898291860E+02  0.97617683402E+01  0.23423045251E+02  0.36258139655E+02  0.00000000000E+00 0.  1.
<mgrwt>
<rscale>  0 0.70765273E+02</rscale>
<asrwt>0</asrwt>
<pdfrwt beam="1">  1        2 0.32632639E-01 0.96765565E+02</pdfrwt>
<pdfrwt beam="2">  1       -2 0.63416961E-02 0.96765565E+02</pdfrwt>
<totfact> 0.19541478E+04</totfact>
</mgrwt>
</event>
<event>
 6    1  0.2975432E-002  0.9453286E+02  0.7546771E-02  0.1368014E+00
         -2   -1    0    0    0  501 -0.00000000000E+00  0.00000000000E+00  0.55914484368E+02  0.55914484368E+02  0.00000000000E+00 0.  1.
          2   -1    0    0  501    0  0.00000000000E+00 -0.00000000000E+00 -0.13456960049E+03  0.13456960049E+03  0.00000000000E+00 0. -1.
         23    2    1    2    0    0 -0.14507609119E+02  0.20235655403E+02 -0.11346579353E+03  0.14768530294E+03  0.91194900791E+02 0.  0.
         11    1    3    3    0    0 -0.25428781666E+02  0.26916976356E+02 -0.12505144062E+03  0.13041859283E+03  0.00000000000E+00 0. -1.
        -11    1    3    3    0    0  0.10921172547E+02 -0.66813209529E+01  0.11585647093E+02  0.17266710110E+02  0.00000000000E+00 0.  1.
         22    1    1    2    0    0  0.14507609119E+02 -0.20235655403E+02  0.34810677410E+02  0.42798781918E+02  0.00000000000E+00 0.  1.
<mgrwt>
<rscale>  0 0.67722333E+02</rscale>
<asrwt>0</asrwt>
<pdfrwt beam="1">  1        2 0.20703015E-01 0.94532864E+02</pdfrwt>
<pdfrwt beam="2">  1       -2 0.86022286E-02 0.94532864E+02</pdfrwt>
<totfact> 0.20098719E+04</totfact>
</mgrwt>
</event>
<event>
 6    1  0.2975432E-002  0.9278460E+02  0.7546771E-02  0.1380954E+00
         -2   -1    0    0    0  501 -0.00000000000E+00  0.00000000000E+00  0.80902596367E+01  0.80902596367E+01  0.00000000000E+00 0.  1.
          2   -1    0    0  501    0  0.00000000000E+00 -0.00000000000E+00 -0.21581113867E+04  0.21581113867E+04  0.00000000000E+00 0. -1.
         23    2    1    2    0    0  0.10637657924E+02 -0.18436827459E+02 -0.21411207008E+04  0.21431301497E+04  0.90310057161E+02 0.  0.
         11    1    3    3    0    0  0.31195032050E+02  0.16364899605E+02 -0.16412232919E+04  0.16416013017E+04  0.00000000000E+00 0. -1.
        -11    1    3    3    0    0 -0.20557374126E+02 -0.34801727064E+02 -0.49989740895E+03  0.50152884794E+03  0.00000000000E+00 0.  1.
         22    1    1    2    0    0 -0.10637657924E+02  0.18436827459E+02 -0.89004262483E+01  0.23071496706E+02  0.00000000000E+00 0.  1.
<mgrwt>
<rscale>  0 0.64213799E+02</rscale>
<asrwt>0</asrwt>
<pdfrwt beam="1">  1        2 0.33201681E+00 0.92784604E+02</pdfrwt>
<pdfrwt beam="2">  1       -2 0.12446565E-02 0.92784604E+02</pdfrwt>
<totfact> 0.92606037E+03</totfact>
</mgrwt>
</event>
<event>
 6    1  0.2975432E-002  0.9261895E+02  0.7546771E-02  0.1397782E+00
          2   -1    0    0  501    0  0.00000000000E+00  0.00000000000E+00  0.10923372178E+04  0.10923372178E+04  0.00000000000E+00 0.  1.
         -2   -1    0    0    0  501 -0.00000000000E+00 -0.00000000000E+00 -0.30802851081E+01  0.30802851081E+01  0.00000000000E+00 0. -1.
         23    2    1    2    0    0 -0.12061665927E+02  0.11000741017E+02  0.10227966863E+04  0.10269816611E+04  0.91168913157E+02 0.  0.
         11    1    3    3    0    0  0.10175707560E+02 -0.29630938466E+02  0.16579202196E+03  0.16872620450E+03  0.00000000000E+00 0. -1.
        -11    1    3    3    0    0 -0.22237373487E+02  0.40631679483E+02  0.85700466432E+03  0.85825545662E+03  0.00000000000E+00 0.  1.
         22    1    1    2    0    0  0.12061665927E+02 -0.11000741017E+02  0.66460246391E+02  0.68435841766E+02  0.00000000000E+00 0.  1.
<mgrwt>
<rscale>  0 0.60011859E+02</rscale>
<asrwt>0</asrwt>
<pdfrwt beam="1">  1        2 0.16805157E+00 0.92618955E+02</pdfrwt>
<pdfrwt beam="2">  1       -2 0.47389089E-03 0.92618955E+02</pdfrwt>
<totfact> 0.12797094E+05</totfact>
</mgrwt>
</event>
<event>
 6    1  0.2975432E-002  0.9158730E+02  0.7546771E-02  0.1419589E+00
         -4   -1    0    0    0  501 -0.00000000000E+00  0.00000000000E+00  0.35218860033E+02  0.35218860033E+02  0.00000000000E+00 0.  1.
          4   -1    0    0  501    0  0.00000000000E+00 -0.00000000000E+00 -0.79069902083E+02  0.79069902083E+02  0.00000000000E+00 0. -1.
         23    2    1    2    0    0 -0.74920164254E+01 -0.93798117975E+01 -0.45333825243E+02  0.10219290227E+03  0.90797149643E+02 0.  0.
         13    1    3    3    0    0 -0.18258324550E+02 -0.40862265787E+02 -0.51631809338E+02  0.68329604976E+02  0.00000000000E+00 0. -1.
        -13    1    3    3    0    0  0.10766308124E+02  0.31482453990E+02  0.62979840955E+01  0.33863297292E+02  0.00000000000E+00 0.  1.
         22    1    1    2    0    0  0.74920164254E+01  0.93798117975E+01  0.14827831928E+01  0.12095859848E+02  0.00000000000E+00 0.  1.
<mgrwt>
<rscale>  0 0.55107873E+02</rscale>
<asrwt>0</asrwt>
<pdfrwt beam="1">  1        4 0.12164600E-01 0.91587300E+02</pdfrwt>
<pdfrwt beam="2">  1       -4 0.54182863E-02 0.91587300E+02</pdfrwt>
<totfact> 0.16441918E+04</totfact>
</mgrwt>
</event>
<event>
 6    1  0.2975432E-002  0.9535276E+02  0.7546771E-02  0.1391103E+00
         -2   -1    0    0    0  501 -0.00000000000E+00  0.00000000000E+00  0.12392250605E+02  0.12392250605E+02  0.00000000000E+00 0. -1.
          2   -1    0    0  501    0  0.00000000000E+00 -0.00000000000E+00 -0.58114074235E+03  0.58114074235E+03  0.00000000000E+00 0.  1.
         23    2    1    2    0    0 -0.16546618779E+02  0.17988831340E+01 -0.56895270724E+03  0.57688762490E+03  0.93888881785E+02 0.  0.
         11    1    3    3    0    0  0.33138222087E+01  0.17164648042E+02 -0.53155113718E+03  0.53183852624E+03  0.00000000000E+00 0.  1.
        -11    1    3    3    0    0 -0.19860440987E+02 -0.15365764908E+02 -0.37401570055E+02  0.45049098659E+02  0.00000000000E+00 0. -1.
         22    1    1    2    0    0  0.16546618779E+02 -0.17988831340E+01  0.20421549156E+00  0.16645368049E+02  0.00000000000E+00 0.  1.
<mgrwt>
<rscale>  0 0.61633258E+02</rscale>
<asrwt>0</asrwt>
<pdfrwt beam="1">  1        2 0.89406291E-01 0.95352759E+02</pdfrwt>
<pdfrwt beam="2">  1       -2 0.19064996E-02 0.95352759E+02</pdfrwt>
<totfact> 0.38998161E+04</totfact>
</mgrwt>
</event>
<event>
 6    1  0.2975432E-002  0.9685460E+02  0.7546771E-02  0.1345580E+00
         -1   -1    0    0    0  501 -0.00000000000E+00  0.00000000000E+00  0.11543359177E+02  0.11543359177E+02  0.00000000000E+00 0.  1.
          1   -1    0    0  501    0  0.00000000000E+00 -0.00000000000E+00 -0.37518462422E+03  0.37518462422E+03  0.00000000000E+00 0. -1.
         23    2    1    2    0    0  0.15637618434E+02 -0.29983059835E+02 -0.28861667327E+03  0.30443455500E+03  0.90759546048E+02 0.  0.
         13    1    3    3    0    0  0.43213674047E+02  0.13375398675E+02 -0.12462681734E+03  0.13258267804E+03  0.00000000000E+00 0. -1.
        -13    1    3    3    0    0 -0.27576055613E+02 -0.43358458510E+02 -0.16398985593E+03  0.17185187696E+03  0.00000000000E+00 0.  1.
         22    1    1    2    0    0 -0.15637618434E+02  0.29983059835E+02 -0.75024591767E+02  0.82293428395E+02  0.00000000000E+00 0. -1.
<mgrwt>
<rscale>  0 0.74451015E+02</rscale>
<asrwt>0</asrwt>
<pdfrwt beam="1">  1        1 0.57720717E-01 0.96854603E+02</pdfrwt>
<pdfrwt beam="2">  1       -1 0.17759013E-02 0.96854603E+02</pdfrwt>
<totfact> 0.47576424E+04</totfact>
</mgrwt>
</event>
<event>
 6    1  0.2975432E-002  0.8915398E+02  0.7546771E-02  0.1406536E+00
          1   -1    0    0  501    0  0.00000000000E+00  0.00000000000E+00  0.12313656633E+04  0.12313656633E+04  0.00000000000E+00 0. -1.
         -1   -1    0    0    0  501 -0.00000000000E+00 -0.00000000000E+00 -0.69509073023E+01  0.69509073023E+01  0.00000000000E+00 0.  1.
         23    2    1    2    0    0 -0.15484026888E+02  0.37886310732E+01  0.12177979820E+04  0.12210570656E+04  0.87717294109E+02 0.  0.
         11    1    3    3    0    0 -0.28025831406E+02  0.36279667452E+02  0.41905770750E+03  0.42155785334E+03  0.00000000000E+00 0.  1.
        -11    1    3    3    0    0  0.12541804519E+02 -0.32491036379E+02  0.79874027448E+03  0.79949921225E+03  0.00000000000E+00 0. -1.
         22    1    1    2    0    0  0.15484026888E+02 -0.37886310732E+01  0.66167739711E+01  0.17259504971E+02  0.00000000000E+00 0.  1.
<mgrwt>
<rscale>  0 0.57973968E+02</rscale>
<asrwt>0</asrwt>
<pdfrwt beam="1">  1        1 0.18944070E+00 0.89153982E+02</pdfrwt>
<pdfrwt beam="2">  1       -1 0.10693713E-02 0.89153982E+02</pdfrwt>
<totfact> 0.17298051E+04</totfact>
</mgrwt>
</event>
<event>
 6    1  0.2975432E-002  0.9218512E+02  0.7546771E-02  0.1417122E+00
          2   -1    0    0  501    0  0.00000000000E+00  0.00000000000E+00  0.15716246476E+04  0.15716246476E+04  0.00000000000E+00 0. -1.
         -2   -1    0    0    0  501 -0.00000000000E+00 -0.00000000000E+00 -0.36382401260E+01  0.36382401260E+01  0.00000000000E+00 0.  1.
         23    2    1    2    0    0 -0.32326622254E+00  0.12224778264E+02  0.15538037951E+04  0.15565360034E+04  0.91370379803E+02 0.  0.
         11    1    3    3    0    0  0.22224459147E+02 -0.28496205803E+02  0.35631422118E+03  0.35814212897E+03  0.00000000000E+00 0.  1.
        -11    1    3    3    0    0 -0.22547725369E+02  0.40720984067E+02  0.11974895740E+04  0.11983938744E+04  0.00000000000E+00 0. -1.
         22    1    1    2    0    0  0.32326622254E+00 -0.12224778264E+02  0.14182612308E+02  0.18726884326E+02  0.00000000000E+00 0.  1.
<mgrwt>
<rscale>  0 0.55634451E+02</rscale>
<asrwt>0</asrwt>
<pdfrwt beam="1">  1        2 0.24178786E+00 0.92185118E+02</pdfrwt>
<pdfrwt beam="2">  1       -2 0.55973051E-03 0.92185118E+02</pdfrwt>
<totfact> 0.56487939E+04</totfact>
</mgrwt>
</event>
<event>
 6    1  0.2975432E-002  0.8997595E+02  0.7546771E-02  0.1399581E+00
         -2   -1    0    0    0  501 -0.00000000000E+00  0.00000000000E+00  0.21540669628E+02  0.21540669628E+02  0.00000000000E+00 0.  1.
          2   -1    0    0  501    0  0.00000000000E+00 -0.00000000000E+00 -0.24103747015E+03  0.24103747015E+03  0.00000000000E+00 0. -1.
         23    2    1    2    0    0  0.16826001651E+02  0.40435004827E+01 -0.22664745107E+03  0.24385393003E+03  0.88296137450E+02 0.  0.
         13    1    3    3    0    0 -0.55450947889E+01  0.41623464348E+02 -0.74207911479E+02  0.85264734718E+02  0.00000000000E+00 0.  1.
        -13    1    3    3    0    0  0.22371096440E+02 -0.37579963865E+02 -0.15243953959E+03  0.15858919531E+03  0.00000000000E+00 0. -1.
         22    1    1    2    0    0 -0.16826001651E+02 -0.40435004827E+01  0.71506505398E+01  0.18724209753E+02  0.00000000000E+00 0. -1.
<mgrwt>
<rscale>  0 0.59585139E+02</rscale>
<asrwt>0</asrwt>
<pdfrwt beam="1">  1        2 0.37082685E-01 0.89975953E+02</pdfrwt>
<pdfrwt beam="2">  1       -2 0.33139494E-02 0.89975953E+02</pdfrwt>
<totfact> 0.44263725E+04</totfact>
</mgrwt>
</event>
<event>
 6    1  0.2975432E-002  0.1014815E+03  0.7546771E-02  0.1320600E+00
         -2   -1    0    0    0  501 -0.00000000000E+00  0.00000000000E+00  0.15183370455E+02  0.15183370455E+02  0.00000000000E+00 0.  1.
          2   -1    0    0  501    0  0.00000000000E+00 -0.00000000000E+00 -0.71749332655E+03  0.71749332655E+03  0.00000000000E+00 0. -1.
         23    2    1    2    0    0 -0.41777664101E+02 -0.18097612180E+02 -0.66800729988E+03  0.67567170593E+03  0.90695119594E+02 0.  0.
         11    1    3    3    0    0  0.27344874796E+02 -0.79276173130E+00 -0.26552276854E+03  0.26692828861E+03  0.00000000000E+00 0. -1.
        -11    1    3    3    0    0 -0.69122538897E+02 -0.17304850449E+02 -0.40248453134E+03  0.40874341732E+03  0.00000000000E+00 0.  1.
         22    1    1    2    0    0  0.41777664101E+02  0.18097612180E+02 -0.34302656223E+02  0.57004991082E+02  0.00000000000E+00 0.  1.
<mgrwt>
<rscale>  0 0.83054367E+02</rscale>
<asrwt>0</asrwt>
<pdfrwt beam="1">  1        2 0.11038361E+00 0.10148153E+03</pdfrwt>
<pdfrwt beam="2">  1       -2 0.23359027E-02 0.10148153E+03</pdfrwt>
<totfact> 0.23006481E+04</totfact>
</mgrwt>
</event>
<event>
 6    1  0.2975432E-002  0.9613125E+02  0.7546771E-02  0.1414959E+00
         -2   -1    0    0    0  501 -0.00000000000E+00  0.00000000000E+00  0.68992889805E+01  0.68992889805E+01  0.00000000000E+00 0.  1.
          2   -1    0    0  501    0  0.00000000000E+00 -0.00000000000E+00 -0.47364621218E+03  0.47364621218E+03  0.00000000000E+00 0. -1.
         23    2    1    2    0    0  0.11144124148E+02  0.39228085565E+00 -0.45170539751E+03  0.46182137549E+03  0.95482308973E+02 0.  0.
         13    1    3    3    0    0  0.18002191513E+02 -0.12531240306E+02 -0.44531718739E+03  0.44585704914E+03  0.00000000000E+00 0. -1.
        -13    1    3    3    0    0 -0.68580673656E+01  0.12923521162E+02 -0.63882101269E+01  0.15964326351E+02  0.00000000000E+00 0.  1.
         22    1    1    2    0    0 -0.11144124148E+02 -0.39228085565E+00 -0.15041525688E+02  0.18724125676E+02  0.00000000000E+00 0. -1.
<mgrwt>
<rscale>  0 0.56101845E+02</rscale>
<asrwt>0</asrwt>
<pdfrwt beam="1">  1        2 0.72868646E-01 0.96131247E+02</pdfrwt>
<pdfrwt beam="2">  1       -2 0.10614291E-02 0.96131247E+02</pdfrwt>
<totfact> 0.11259948E+05</totfact>
</mgrwt>
</event>
<event>
 6    1  0.2975432E-002  0.1053013E+03  0.7546771E-02  0.1296587E+00
         -2   -1    0    0    0  501 -0.00000000000E+00  0.00000000000E+00  0.61476778680E+01  0.61476778680E+01  0.00000000000E+00 0.  1.
          2   -1    0    0  501    0  0.00000000000E+00 -0.00000000000E+00 -0.21882907981E+04  0.21882907981E+04  0.00000000000E+00 0. -1.
         23    2    1    2    0    0 -0.11516157897E+02 -0.62013543992E+02 -0.19773625200E+04  0.19801643624E+04  0.84321200949E+02 0.  0.
         13    1    3    3    0    0 -0.19019198943E+01  0.57371627882E+01 -0.10526760836E+02  0.12138576104E+02  0.00000000000E+00 0.  1.
        -13    1    3    3    0    0 -0.96142380023E+01 -0.67750706780E+02 -0.19668357592E+04  0.19680257863E+04  0.00000000000E+00 0. -1.
         22    1    1    2    0    0  0.11516157897E+02  0.62013543992E+02 -0.20478060023E+03  0.21427411361E+03  0.00000000000E+00 0.  1.
<mgrwt>
<rscale>  0 0.92637655E+02</rscale>
<asrwt>0</asrwt>
<pdfrwt beam="1">  1        2 0.33666030E+00 0.10530131E+03</pdfrwt>
<pdfrwt beam="2">  1       -2 0.94579609E-03 0.10530131E+03</pdfrwt>
<totfact> 0.13266489E+04</totfact>
</mgrwt>
</event>
<event>
 6    1  0.3998576E-002  0.1113858E+03  0.7546771E-02  0.1284875E+00
          2   -1    0    0  501    0  0.00000000000E+00  0.00000000000E+00  0.42985441029E+03  0.42985441029E+03  0.00000000000E+00 0. -1.
         -2   -1    0    0    0  501 -0.00000000000E+00 -0.00000000000E+00 -0.44940865153E+02  0.44940865153E+02  0.00000000000E+00 0.  1.
         23    2    1    2    0    0  0.11232450181E+02  0.65388942769E+02  0.32271976444E+02  0.11596668441E+03  0.89470160701E+02 0.  0.
         13    1    3    3    0    0 -0.21852635935E+02 -0.12091500356E+02  0.17341865386E+02  0.30405301729E+02  0.00000000000E+00 0. -1.
        -13    1    3    3    0    0  0.33085086116E+02  0.77480443124E+02  0.14930111058E+02  0.85561382681E+02  0.00000000000E+00 0.  1.
         22    1    1    2    0    0 -0.11232450181E+02 -0.65388942769E+02  0.35264156869E+03  0.35882859103E+03  0.00000000000E+00 0. -1.
<mgrwt>
<rscale>  0 0.97853666E+02</rscale>
<asrwt>0</asrwt>
<pdfrwt beam="1">  1        2 0.66131445E-01 0.11138578E+03</pdfrwt>
<pdfrwt beam="2">  1       -2 0.69139796E-02 0.11138578E+03</pdfrwt>
<totfact> 0.82378219E+03</totfact>
</mgrwt>
</event>
<event>
 6    1  0.2975432E-002  0.9316783E+02  0.7546771E-02  0.1391339E+00
          2   -1    0    0  501    0  0.00000000000E+00  0.00000000000E+00  0.41484820876E+03  0.41484820876E+03  0.00000000000E+00 0.  1.
         -2   -1    0    0    0  501 -0.00000000000E+00 -0.00000000000E+00 -0.98877225252E+01  0.98877225252E+01  0.00000000000E+00 0. -1.
         23    2    1    2    0    0 -0.17691243753E+02 -0.17257108458E+01  0.39151627682E+03  0.40244905286E+03  0.91456475676E+02 0.  0.
         11    1    3    3    0    0 -0.41928965879E+02  0.56915868796E+00  0.83168461258E+02  0.93141586143E+02  0.00000000000E+00 0. -1.
        -11    1    3    3    0    0  0.24237722125E+02 -0.22948695338E+01  0.30834781557E+03  0.30930746671E+03  0.00000000000E+00 0.  1.
         22    1    1    2    0    0  0.17691243753E+02  0.17257108458E+01  0.13444209413E+02  0.22286878431E+02  0.00000000000E+00 0. -1.
<mgrwt>
<rscale>  0 0.61574827E+02</rscale>
<asrwt>0</asrwt>
<pdfrwt beam="1">  1        2 0.63822788E-01 0.93167833E+02</pdfrwt>
<pdfrwt beam="2">  1       -2 0.15211884E-02 0.93167833E+02</pdfrwt>
<totfact> 0.77353865E+04</totfact>
</mgrwt>
</event>
<event>
 6    1  0.2975432E-002  0.9286603E+02  0.7546771E-02  0.1377168E+00
         -2   -1    0    0    0  501 -0.00000000000E+00  0.00000000000E+00  0.44724860078E+01  0.44724860078E+01  0.00000000000E+00 0.  1.
          2   -1    0    0  501    0  0.00000000000E+00 -0.00000000000E+00 -0.87205494498E+03  0.87205494498E+03  0.00000000000E+00 0. -1.
         23    2    1    2    0    0  0.21663169695E+02 -0.63826008081E+01 -0.79767520770E+03  0.80306278442E+03  0.90078122945E+02 0.  0.
         13    1    3    3    0    0  0.15220137550E+02  0.10057562096E+02 -0.77011597194E+03  0.77033201762E+03  0.00000000000E+00 0. -1.
        -13    1    3    3    0    0  0.64430321450E+01 -0.16440162904E+02 -0.27559235762E+02  0.32730766800E+02  0.00000000000E+00 0.  1.
         22    1    1    2    0    0 -0.21663169695E+02  0.63826008081E+01 -0.69907251271E+02  0.73464646563E+02  0.00000000000E+00 0.  1.
<mgrwt>
<rscale>  0 0.65214199E+02</rscale>
<asrwt>0</asrwt>
<pdfrwt beam="1">  1        2 0.13416212E+00 0.92866026E+02</pdfrwt>
<pdfrwt beam="2">  1       -2 0.68807568E-03 0.92866026E+02</pdfrwt>
<totfact> 0.10246886E+05</totfact>
</mgrwt>
</event>
<event>
 6    1  0.2975432E-002  0.9295854E+02  0.7546771E-02  0.1385296E+00
         -2   -1    0    0    0  501 -0.00000000000E+00  0.00000000000E+00  0.27353382797E+01  0.27353382797E+01  0.00000000000E+00 0. -1.
          2   -1    0    0  501    0  0.00000000000E+00 -0.00000000000E+00 -0.30304407010E+04  0.30304407010E+04  0.00000000000E+00 0.  1.
         23    2    1    2    0    0  0.18465175481E+02  0.69381259442E+01 -0.29813423718E+04  0.29827912477E+04  0.90841560307E+02 0.  0.
         13    1    3    3    0    0 -0.11126989541E+02  0.25928861556E+02 -0.25027212623E+04  0.25028803073E+04  0.00000000000E+00 0.  1.
        -13    1    3    3    0    0  0.29592165022E+02 -0.18990735611E+02 -0.47862110949E+03  0.47991094040E+03  0.00000000000E+00 0. -1.
         22    1    1    2    0    0 -0.18465175481E+02 -0.69381259442E+01 -0.46362990944E+02  0.50384791618E+02  0.00000000000E+00 0. -1.
<mgrwt>
<rscale>  0 0.63092052E+02</rscale>
<asrwt>0</asrwt>
<pdfrwt beam="1">  1        2 0.46622559E+00 0.92958536E+02</pdfrwt>
<pdfrwt beam="2">  1       -2 0.42081772E-03 0.92958536E+02</pdfrwt>
<totfact> 0.14583879E+04</totfact>
</mgrwt>
</event>
<event>
 6    1  0.2975432E-002  0.9860459E+02  0.7546771E-02  0.1365767E+00
         -2   -1    0    0    0  501 -0.00000000000E+00  0.00000000000E+00  0.72837809566E+01  0.72837809566E+01  0.00000000000E+00 0. -1.
          2   -1    0    0  501    0  0.00000000000E+00 -0.00000000000E+00 -0.51521621848E+03  0.51521621848E+03  0.00000000000E+00 0.  1.
         23    2    1    2    0    0  0.69593921301E+01  0.21686398923E+02 -0.43759985645E+03  0.44857162195E+03  0.95938170810E+02 0.  0.
         11    1    3    3    0    0  0.15485639710E+02  0.21589108859E+02 -0.26988731832E+02  0.37871972545E+02  0.00000000000E+00 0. -1.
        -11    1    3    3    0    0 -0.85262475795E+01  0.97290064768E-01 -0.41061112462E+03  0.41069964941E+03  0.00000000000E+00 0.  1.
         22    1    1    2    0    0 -0.69593921301E+01 -0.21686398923E+02 -0.70332581077E+02  0.73928377488E+02  0.00000000000E+00 0. -1.
<mgrwt>
<rscale>  0 0.68358236E+02</rscale>
<asrwt>0</asrwt>
<pdfrwt beam="1">  1        2 0.79264040E-01 0.98604592E+02</pdfrwt>
<pdfrwt beam="2">  1       -2 0.11205816E-02 0.98604592E+02</pdfrwt>
<totfact> 0.95525911E+04</totfact>
</mgrwt>
</event>
<event>
 6    1  0.2975432E-002  0.9138349E+02  0.7546771E-02  0.1423501E+00
         -1   -1    0    0    0  501 -0.00000000000E+00  0.00000000000E+00  0.10835643838E+02  0.10835643838E+02  0.00000000000E+00 0.  1.
          1   -1    0    0  501    0  0.00000000000E+00 -0.00000000000E+00 -0.24495891373E+03  0.24495891373E+03  0.00000000000E+00 0. -1.
         23    2    1    2    0    0  0.97611632741E+01  0.58522658149E+01 -0.21359311212E+03  0.23232081262E+03  0.90672008407E+02 0.  0.
         11    1    3    3    0    0 -0.30821279035E+02  0.28022077471E+02 -0.13337127117E+03  0.13972503011E+03  0.00000000000E+00 0. -1.
        -11    1    3    3    0    0  0.40582442309E+02 -0.22169811656E+02 -0.80221840951E+02  0.92595782508E+02  0.00000000000E+00 0.  1.
         22    1    1    2    0    0 -0.97611632741E+01 -0.58522658149E+01 -0.20530157769E+02  0.23473744943E+02  0.00000000000E+00 0.  1.
<mgrwt>
<rscale>  0 0.54287122E+02</rscale>
<asrwt>0</asrwt>
<pdfrwt beam="1">  1        1 0.37685984E-01 0.91383491E+02</pdfrwt>
<pdfrwt beam="2">  1       -1 0.16670223E-02 0.91383491E+02</pdfrwt>
<totfact> 0.87082844E+04</totfact>
</mgrwt>
</event>
<event>
 6    1  0.2975432E-002  0.1040377E+03  0.7546771E-02  0.1309164E+00
          3   -1    0    0  501    0  0.00000000000E+00  0.00000000000E+00  0.14846188389E+03  0.14846188389E+03  0.00000000000E+00 0. -1.
         -3   -1    0    0    0  501 -0.00000000000E+00 -0.00000000000E+00 -0.50477082644E+02  0.50477082644E+02  0.00000000000E+00 0.  1.
         23    2    1    2    0    0 -0.38491051715E+02 -0.34843347785E+02  0.10346999853E+03  0.14673065937E+03  0.90156673943E+02 0.  0.
         11    1    3    3    0    0 -0.38885170148E+02  0.15377499589E+02  0.13942528200E+02  0.44078544028E+02  0.00000000000E+00 0.  1.
        -11    1    3    3    0    0  0.39411843283E+00 -0.50220847374E+02  0.89527470335E+02  0.10265211535E+03  0.00000000000E+00 0. -1.
         22    1    1    2    0    0  0.38491051715E+02  0.34843347785E+02 -0.54851972901E+01  0.52208307158E+02  0.00000000000E+00 0. -1.
<mgrwt>
<rscale>  0 0.87443077E+02</rscale>
<asrwt>0</asrwt>
<pdfrwt beam="1">  1        3 0.22840290E-01 0.10403771E+03</pdfrwt>
<pdfrwt beam="2">  1       -3 0.77657051E-02 0.10403771E+03</pdfrwt>
<totfact> 0.42788633E+03</totfact>
</mgrwt>
</event>
<event>
 6    1  0.2975432E-002  0.1516311E+03  0.7546771E-02  0.1208980E+00
         -2   -1    0    0    0  501 -0.00000000000E+00  0.00000000000E+00  0.80481696511E+02  0.80481696511E+02  0.00000000000E+00 0.  1.
          2   -1    0    0  501    0  0.00000000000E+00 -0.00000000000E+00 -0.24751641233E+03  0.24751641233E+03  0.00000000000E+00 0. -1.
         23    2    1    2    0    0 -0.81463054040E+02  0.89324833303E+02 -0.13478639724E+03  0.20287773053E+03  0.91525109374E+02 0.  0.
         11    1    3    3    0    0 -0.33420190543E+02  0.76457885825E+02 -0.12783516067E+03  0.15265826458E+03  0.00000000000E+00 0. -1.
        -11    1    3    3    0    0 -0.48042863497E+02  0.12866947478E+02 -0.69512365672E+01  0.50219465949E+02  0.00000000000E+00 0.  1.
         22    1    1    2    0    0  0.81463054040E+02 -0.89324833303E+02 -0.32248318582E+02  0.12512037831E+03  0.00000000000E+00 0.  1.
<mgrwt>
<rscale>  0 0.14328203E+03</rscale>
<asrwt>0</asrwt>
<pdfrwt beam="1">  1        2 0.38079447E-01 0.15163113E+03</pdfrwt>
<pdfrwt beam="2">  1       -2 0.12381800E-01 0.15163113E+03</pdfrwt>
<totfact> 0.60838607E+03</totfact>
</mgrwt>
</event>
<event>
 6    1  0.2975432E-002  0.9502232E+02  0.7546771E-02  0.1373258E+00
          1   -1    0    0  501    0  0.00000000000E+00  0.00000000000E+00  0.73925760997E+03  0.73925760997E+03  0.00000000000E+00 0. -1.
         -1   -1    0    0    0  501 -0.00000000000E+00 -0.00000000000E+00 -0.57362323658E+01  0.57362323658E+01  0.00000000000E+00 0.  1.
         23    2    1    2    0    0 -0.19178918546E+02 -0.11725713423E+02  0.68450069859E+03  0.69106471993E+03  0.92325064297E+02 0.  0.
         13    1    3    3    0    0 -0.50952127576E+02 -0.41356219506E+01  0.56073811347E+03  0.56306345519E+03  0.00000000000E+00 0. -1.
        -13    1    3    3    0    0  0.31773209031E+02 -0.75900914724E+01  0.12376258512E+03  0.12800126474E+03  0.00000000000E+00 0.  1.
         22    1    1    2    0    0  0.19178918546E+02  0.11725713423E+02  0.49020679016E+02  0.53929122402E+02  0.00000000000E+00 0.  1.
<mgrwt>
<rscale>  0 0.66269757E+02</rscale>
<asrwt>0</asrwt>
<pdfrwt beam="1">  1        1 0.11373186E+00 0.95022317E+02</pdfrwt>
<pdfrwt beam="2">  1       -1 0.88249787E-03 0.95022317E+02</pdfrwt>
<totfact> 0.52492834E+04</totfact>
</mgrwt>
</event>
<event>
 6    1  0.2975432E-002  0.8986180E+02  0.7546771E-02  0.1412396E+00
          3   -1    0    0  501    0  0.00000000000E+00  0.00000000000E+00  0.19730561348E+02  0.19730561348E+02  0.00000000000E+00 0. -1.
         -3   -1    0    0    0  501 -0.00000000000E+00 -0.00000000000E+00 -0.13825004577E+03  0.13825004577E+03  0.00000000000E+00 0.  1.
         23    2    1    2    0    0  0.82436059358E+00  0.14181650243E+02 -0.97329244197E+02  0.13246933403E+03  0.88731865231E+02 0.  0.
         11    1    3    3    0    0  0.24111775293E+02 -0.23122928439E+01  0.62625047801E+01  0.25018860327E+02  0.00000000000E+00 0. -1.
        -11    1    3    3    0    0 -0.23287414699E+02  0.16493943087E+02 -0.10359174898E+03  0.10745047370E+03  0.00000000000E+00 0.  1.
         22    1    1    2    0    0 -0.82436059358E+00 -0.14181650243E+02 -0.21190240228E+02  0.25511273095E+02  0.00000000000E+00 0.  1.
<mgrwt>
<rscale>  0 0.56662554E+02</rscale>
<asrwt>0</asrwt>
<pdfrwt beam="1">  1        3 0.30354709E-02 0.89861798E+02</pdfrwt>
<pdfrwt beam="2">  1       -3 0.21269238E-01 0.89861798E+02</pdfrwt>
<totfact> 0.20473531E+04</totfact>
</mgrwt>
</event>
<event>
 6    1  0.2975432E-002  0.9179866E+02  0.7546771E-02  0.1420652E+00
         -1   -1    0    0    0  501 -0.00000000000E+00  0.00000000000E+00  0.17951090111E+02  0.17951090111E+02  0.00000000000E+00 0. -1.
          1   -1    0    0  501    0  0.00000000000E+00 -0.00000000000E+00 -0.14936645665E+03  0.14936645665E+03  0.00000000000E+00 0.  1.
         23    2    1    2    0    0 -0.11483732721E+02  0.23847895193E+01 -0.11511431744E+03  0.14723552645E+03  0.91046311454E+02 0.  0.
         13    1    3    3    0    0  0.18133087860E+02 -0.84594974112E+01 -0.11392980580E+03  0.11567356060E+03  0.00000000000E+00 0.  1.
        -13    1    3    3    0    0 -0.29616820580E+02  0.10844286930E+02 -0.11845116417E+01  0.31561965847E+02  0.00000000000E+00 0. -1.
         22    1    1    2    0    0  0.11483732721E+02 -0.23847895193E+01 -0.16301049095E+02  0.20082020313E+02  0.00000000000E+00 0. -1.
<mgrwt>
<rscale>  0 0.54883285E+02</rscale>
<asrwt>0</asrwt>
<pdfrwt beam="1">  1        1 0.22979455E-01 0.91798661E+02</pdfrwt>
<pdfrwt beam="2">  1       -1 0.27617061E-02 0.91798661E+02</pdfrwt>
<totfact> 0.77854295E+04</totfact>
</mgrwt>
</event>
<event>
 6    1  0.2975432E-002  0.9629873E+02  0.7546771E-02  0.1376721E+00
         -4   -1    0    0    0  501 -0.00000000000E+00  0.00000000000E+00  0.88517085824E+02  0.88517085824E+02  0.00000000000E+00 0.  1.
          4   -1    0    0  501    0  0.00000000000E+00 -0.00000000000E+00 -0.41487138010E+02  0.41487138010E+02  0.00000000000E+00 0. -1.
         23    2    1    2    0    0  0.11072445301E+01  0.20372628389E+02  0.24015395583E+02  0.99248092863E+02  0.94112564167E+02 0.  0.
         13    1    3    3    0    0 -0.30657210125E+01  0.48597738557E+02 -0.14964382393E+02  0.50941845064E+02  0.00000000000E+00 0. -1.
        -13    1    3    3    0    0  0.41729655426E+01 -0.28225110168E+02  0.38979777976E+02  0.48306247799E+02  0.00000000000E+00 0.  1.
         22    1    1    2    0    0 -0.11072445301E+01 -0.20372628389E+02  0.23014552231E+02  0.30756130972E+02  0.00000000000E+00 0. -1.
<mgrwt>
<rscale>  0 0.65333706E+02</rscale>
<asrwt>0</asrwt>
<pdfrwt beam="1">  1        4 0.63826367E-02 0.96298726E+02</pdfrwt>
<pdfrwt beam="2">  1       -4 0.13618013E-01 0.96298726E+02</pdfrwt>
<totfact> 0.10573743E+04</totfact>
</mgrwt>
</event>
<event>
 6    1  0.2975432E-002  0.9301464E+02  0.7546771E-02  0.1394570E+00
         -2   -1    0    0    0  501 -0.00000000000E+00  0.00000000000E+00  0.64221215615E+01  0.64221215615E+01  0.00000000000E+00 0. -1.
          2   -1    0    0  501    0  0.00000000000E+00 -0.00000000000E+00 -0.88046867463E+03  0.88046867463E+03  0.00000000000E+00 0.  1.
         23    2    1    2    0    0  0.99812664825E+01  0.13715765724E+02 -0.85957642050E+03  0.86459432457E+03  0.91454772975E+02 0.  0.
         11    1    3    3    0    0  0.68496766885E+01  0.87655999477E+01 -0.98821845896E+01  0.14879898704E+02  0.00000000000E+00 0. -1.
        -11    1    3    3    0    0  0.31315897939E+01  0.49501657762E+01 -0.84969423591E+03  0.84971442587E+03  0.00000000000E+00 0.  1.
         22    1    1    2    0    0 -0.99812664825E+01 -0.13715765724E+02 -0.14470132571E+02  0.22296471618E+02  0.00000000000E+00 0. -1.
<mgrwt>
<rscale>  0 0.60784102E+02</rscale>
<asrwt>0</asrwt>
<pdfrwt beam="1">  1        2 0.13545664E+00 0.93014641E+02</pdfrwt>
<pdfrwt beam="2">  1       -2 0.98801930E-03 0.93014641E+02</pdfrwt>
<totfact> 0.60747009E+04</totfact>
</mgrwt>
</event>
<event>
 6    1  0.2975432E-002  0.9010366E+02  0.7546771E-02  0.1420047E+00
          2   -1    0    0  501    0  0.00000000000E+00  0.00000000000E+00  0.56085738453E+02  0.56085738453E+02  0.00000000000E+00 0. -1.
         -2   -1    0    0    0  501 -0.00000000000E+00 -0.00000000000E+00 -0.49269992335E+02  0.49269992335E+02  0.00000000000E+00 0.  1.
         23    2    1    2    0    0 -0.12049650108E+02 -0.33957701167E+01  0.13587840513E+02  0.91122439359E+02  0.89229727236E+02 0.  0.
         11    1    3    3    0    0  0.36866084155E+02  0.11155362430E+02  0.10845385039E+02  0.40014655422E+02  0.00000000000E+00 0. -1.
        -11    1    3    3    0    0 -0.48915734264E+02 -0.14551132547E+02  0.27424554734E+01  0.51107783937E+02  0.00000000000E+00 0.  1.
         22    1    1    2    0    0  0.12049650108E+02  0.33957701167E+01 -0.67720943947E+01  0.14233291429E+02  0.00000000000E+00 0. -1.
<mgrwt>
<rscale>  0 0.55010960E+02</rscale>
<asrwt>0</asrwt>
<pdfrwt beam="1">  1        2 0.86285751E-02 0.90103660E+02</pdfrwt>
<pdfrwt beam="2">  1       -2 0.75799989E-02 0.90103660E+02</pdfrwt>
<totfact> 0.67656154E+04</totfact>
</mgrwt>
</event>
<event>
 6    1  0.2975432E-002  0.1013594E+03  0.7546771E-02  0.1330114E+00
         -2   -1    0    0    0  501 -0.00000000000E+00  0.00000000000E+00  0.15354216967E+03  0.15354216967E+03  0.00000000000E+00 0.  1.
          2   -1    0    0  501    0  0.00000000000E+00 -0.00000000000E+00 -0.57123761412E+02  0.57123761412E+02  0.00000000000E+00 0. -1.
         23    2    1    2    0    0 -0.78238529519E+01  0.37803902076E+02 -0.56742454419E+01  0.10151806062E+03  0.93719645130E+02 0.  0.
         13    1    3    3    0    0  0.58680978754E+01  0.57049872803E+02  0.25201760560E+02  0.62643844828E+02  0.00000000000E+00 0.  1.
        -13    1    3    3    0    0 -0.13691950827E+02 -0.19245970727E+02 -0.30876006002E+02  0.38874215791E+02  0.00000000000E+00 0. -1.
         22    1    1    2    0    0  0.78238529519E+01 -0.37803902076E+02  0.10209265370E+03  0.10914787047E+03  0.00000000000E+00 0.  1.
<mgrwt>
<rscale>  0 0.79626722E+02</rscale>
<asrwt>0</asrwt>
<pdfrwt beam="1">  1        2 0.87882711E-02 0.10135936E+03</pdfrwt>
<pdfrwt beam="2">  1       -2 0.23621872E-01 0.10135936E+03</pdfrwt>
<totfact> 0.10799618E+04</totfact>
</mgrwt>
</event>
<event>
 6    1  0.2975432E-002  0.9334739E+02  0.7546771E-02  0.1419327E+00
         -2   -1    0    0    0  501 -0.00000000000E+00  0.00000000000E+00  0.46909097121E+01  0.46909097121E+01  0.00000000000E+00 0.  1.
          2   -1    0    0  501    0  0.00000000000E+00 -0.00000000000E+00 -0.69416070756E+03  0.69416070756E+03  0.00000000000E+00 0. -1.
         23    2    1    2    0    0 -0.10539257321E+02 -0.43037323984E+01 -0.66854523294E+03  0.67503071313E+03  0.92650618601E+02 0.  0.
         13    1    3    3    0    0 -0.15432921891E+02 -0.16597288801E+02 -0.65722970048E+03  0.65762034964E+03  0.00000000000E+00 0. -1.
        -13    1    3    3    0    0  0.48936645699E+01  0.12293556402E+02 -0.11315532463E+02  0.17410363490E+02  0.00000000000E+00 0.  1.
         22    1    1    2    0    0  0.10539257321E+02  0.43037323984E+01 -0.20924564902E+02  0.23820904134E+02  0.00000000000E+00 0.  1.
<mgrwt>
<rscale>  0 0.55163453E+02</rscale>
<asrwt>0</asrwt>
<pdfrwt beam="1">  1        2 0.10679394E+00 0.93347390E+02</pdfrwt>
<pdfrwt beam="2">  1       -2 0.72167853E-03 0.93347390E+02</pdfrwt>
<totfact> 0.12642343E+05</totfact>
</mgrwt>
</event>
<event>
 6    1  0.2975432E-002  0.9281186E+02  0.7546771E-02  0.1421603E+00
         -2   -1    0    0    0  501 -0.00000000000E+00  0.00000000000E+00  0.97210916049E+01  0.97210916049E+01  0.00000000000E+00 0.  1.
          2   -1    0    0  501    0  0.00000000000E+00 -0.00000000000E+00 -0.27960597492E+03  0.27960597492E+03  0.00000000000E+00 0. -1.
         23    2    1    2    0    0 -0.29588716231E+01 -0.10785718205E+02 -0.23377960303E+03  0.25152921072E+03  0.92135522017E+02 0.  0.
         13    1    3    3    0    0  0.33859012798E+02 -0.26030623467E+02 -0.17752751530E+03  0.18259256500E+03  0.00000000000E+00 0. -1.
        -13    1    3    3    0    0 -0.36817884421E+02  0.15244905262E+02 -0.56252087730E+02  0.68936645724E+02  0.00000000000E+00 0.  1.
         22    1    1    2    0    0  0.29588716231E+01  0.10785718205E+02 -0.36105280286E+02  0.37797855799E+02  0.00000000000E+00 0.  1.
<mgrwt>
<rscale>  0 0.54683206E+02</rscale>
<asrwt>0</asrwt>
<pdfrwt beam="1">  1        2 0.43016298E-01 0.92811858E+02</pdfrwt>
<pdfrwt beam="2">  1       -2 0.14955528E-02 0.92811858E+02</pdfrwt>
<totfact> 0.11979075E+05</totfact>
</mgrwt>
</event>
<event>
 6    1  0.2975432E-002  0.9971465E+02  0.7546771E-02  0.1337430E+00
          2   -1    0    0  501    0  0.00000000000E+00  0.00000000000E+00  0.50189012386E+02  0.50189012386E+02  0.00000000000E+00 0. -1.
         -2   -1    0    0    0  501 -0.00000000000E+00 -0.00000000000E+00 -0.10108244395E+03  0.10108244395E+03  0.00000000000E+00 0.  1.
         23    2    1    2    0    0 -0.29710694044E+02 -0.19750738680E+02 -0.15310262909E+02  0.10088317486E+03  0.93113875443E+02 0.  0.
         11    1    3    3    0    0  0.18914698957E+01  0.33895603803E+02  0.71504709089E+01  0.34693210428E+02  0.00000000000E+00 0. -1.
        -11    1    3    3    0    0 -0.31602163940E+02 -0.53646342483E+02 -0.22460733818E+02  0.66189964429E+02  0.00000000000E+00 0.  1.
         22    1    1    2    0    0  0.29710694044E+02  0.19750738680E+02 -0.35583168658E+02  0.50388281482E+02  0.00000000000E+00 0. -1.
<mgrwt>
<rscale>  0 0.77119635E+02</rscale>
<asrwt>0</asrwt>
<pdfrwt beam="1">  1        2 0.77213865E-02 0.99714647E+02</pdfrwt>
<pdfrwt beam="2">  1       -2 0.15551145E-01 0.99714647E+02</pdfrwt>
<totfact> 0.25460473E+04</totfact>
</mgrwt>
</event>
<event>
 6    1  0.2975432E-002  0.8635856E+02  0.7546771E-02  0.1432816E+00
         -2   -1    0    0    0  501 -0.00000000000E+00  0.00000000000E+00  0.27592666665E+02  0.27592666665E+02  0.00000000000E+00 0.  1.
          2   -1    0    0  501    0  0.00000000000E+00 -0.00000000000E+00 -0.10370061678E+03  0.10370061678E+03  0.00000000000E+00 0. -1.
         23    2    1    2    0    0  0.83099107794E+01  0.82432900367E+01 -0.81191453473E+02  0.11853207448E+03  0.85561639279E+02 0.  0.
         11    1    3    3    0    0  0.56613543897E+01 -0.28640047630E+02  0.13381695384E+00  0.29194540050E+02  0.00000000000E+00 0.  1.
        -11    1    3    3    0    0  0.26485563897E+01  0.36883337667E+02 -0.81325270427E+02  0.89337534432E+02  0.00000000000E+00 0. -1.
         22    1    1    2    0    0 -0.83099107794E+01 -0.82432900367E+01  0.50835033591E+01  0.12761208963E+02  0.00000000000E+00 0. -1.
<mgrwt>
<rscale>  0 0.52398839E+02</rscale>
<asrwt>0</asrwt>
<pdfrwt beam="1">  1        2 0.15953941E-01 0.86358558E+02</pdfrwt>
<pdfrwt beam="2">  1       -2 0.42450257E-02 0.86358558E+02</pdfrwt>
<totfact> 0.77025882E+04</totfact>
</mgrwt>
</event>
<event>
 6    1  0.2975432E-002  0.9216642E+02  0.7546771E-02  0.1367128E+00
          2   -1    0    0  501    0  0.00000000000E+00  0.00000000000E+00  0.23372647762E+03  0.23372647762E+03  0.00000000000E+00 0. -1.
         -2   -1    0    0    0  501 -0.00000000000E+00 -0.00000000000E+00 -0.15613855872E+02  0.15613855872E+02  0.00000000000E+00 0.  1.
         23    2    1    2    0    0  0.21559931822E+02  0.16689706213E+02  0.18286281626E+03  0.20477660676E+03  0.88041309338E+02 0.  0.
         13    1    3    3    0    0  0.12102525081E+02 -0.88816884140E+01  0.17603034152E+03  0.17666928606E+03  0.00000000000E+00 0. -1.
        -13    1    3    3    0    0  0.94574067408E+01  0.25571394627E+02  0.68324747411E+01  0.28107320693E+02  0.00000000000E+00 0.  1.
         22    1    1    2    0    0 -0.21559931822E+02 -0.16689706213E+02  0.35249805487E+02  0.44563726735E+02  0.00000000000E+00 0.  1.
<mgrwt>
<rscale>  0 0.67972098E+02</rscale>
<asrwt>0</asrwt>
<pdfrwt beam="1">  1        2 0.35957917E-01 0.92166421E+02</pdfrwt>
<pdfrwt beam="2">  1       -2 0.24021318E-02 0.92166421E+02</pdfrwt>
<totfact> 0.73178340E+04</totfact>
</mgrwt>
</event>
<event>
 6    1  0.2975432E-002  0.9053693E+02  0.7546771E-02  0.1416349E+00
         -2   -1    0    0    0  501 -0.00000000000E+00  0.00000000000E+00  0.18968630507E+03  0.18968630507E+03  0.00000000000E+00 0. -1.
          2   -1    0    0  501    0  0.00000000000E+00 -0.00000000000E+00 -0.15464543987E+02  0.15464543987E+02  0.00000000000E+00 0.  1.
         23    2    1    2    0    0 -0.16621768320E+01  0.12958107950E+02  0.12576438213E+03  0.15496327123E+03  0.89589397939E+02 0.  0.
         11    1    3    3    0    0 -0.18198710019E+02  0.47378872110E+02  0.85801119430E+02  0.99688427935E+02  0.00000000000E+00 0. -1.
        -11    1    3    3    0    0  0.16536533187E+02 -0.34420764160E+02  0.39963262702E+02  0.55274843293E+02  0.00000000000E+00 0.  1.
         22    1    1    2    0    0  0.16621768320E+01 -0.12958107950E+02  0.48457378950E+02  0.50187577828E+02  0.00000000000E+00 0.  1.
<mgrwt>
<rscale>  0 0.55800833E+02</rscale>
<asrwt>0</asrwt>
<pdfrwt beam="1">  1        2 0.23791607E-02 0.90536930E+02</pdfrwt>
<pdfrwt beam="2">  1       -2 0.29182507E-01 0.90536930E+02</pdfrwt>
<totfact> 0.40010673E+04</totfact>
</mgrwt>
</event>
<event>
 6    1  0.2975432E-002  0.1230276E+03  0.7546771E-02  0.1258519E+00
         -2   -1    0    0    0  501 -0.00000000000E+00  0.00000000000E+00  0.14005400113E+02  0.14005400113E+02  0.00000000000E+00 0.  1.
          2   -1    0    0  501    0  0.00000000000E+00 -0.00000000000E+00 -0.10343690196E+04  0.10343690196E+04  0.00000000000E+00 0. -1.
         23    2    1    2    0    0  0.53717358319E+02  0.61773433117E+02 -0.85554435474E+03  0.86434479803E+03  0.91838310849E+02 0.  0.
         11    1    3    3    0    0  0.19802545185E+02  0.53455464655E+02 -0.76770942174E+03  0.76982295610E+03  0.00000000000E+00 0. -1.
        -11    1    3    3    0    0  0.33914813134E+02  0.83179684613E+01 -0.87834932993E+02  0.94521841937E+02  0.00000000000E+00 0.  1.
         22    1    1    2    0    0 -0.53717358319E+02 -0.61773433117E+02 -0.16481926477E+03  0.18402962170E+03  0.00000000000E+00 0.  1.
<mgrwt>
<rscale>  0 0.11111520E+03</rscale>
<asrwt>0</asrwt>
<pdfrwt beam="1">  1        2 0.15913373E+00 0.12302759E+03</pdfrwt>
<pdfrwt beam="2">  1       -2 0.21546765E-02 0.12302759E+03</pdfrwt>
<totfact> 0.16472009E+04</totfact>
</mgrwt>
</event>
<event>
 6    1  0.2975432E-002  0.8765771E+02  0.7546771E-02  0.1435885E+00
         -2   -1    0    0    0  501 -0.00000000000E+00  0.00000000000E+00  0.12331538423E+02  0.12331538423E+02  0.00000000000E+00 0.  1.
          2   -1    0    0  501    0  0.00000000000E+00 -0.00000000000E+00 -0.32721315383E+03  0.32721315383E+03  0.00000000000E+00 0. -1.
         23    2    1    2    0    0 -0.91174931680E+01 -0.55743929975E+01 -0.31678563275E+03  0.32868983984E+03  0.87003857150E+02 0.  0.
         11    1    3    3    0    0 -0.13058102409E+02 -0.17922028671E+02 -0.15334839182E+02  0.26960534916E+02  0.00000000000E+00 0.  1.
        -11    1    3    3    0    0  0.39406092411E+01  0.12347635673E+02 -0.30145079357E+03  0.30172930492E+03  0.00000000000E+00 0. -1.
         22    1    1    2    0    0  0.91174931680E+01  0.55743929975E+01  0.19040173381E+01  0.10854852416E+02  0.00000000000E+00 0.  1.
<mgrwt>
<rscale>  0 0.51796695E+02</rscale>
<asrwt>0</asrwt>
<pdfrwt beam="1">  1        2 0.50340476E-01 0.87657708E+02</pdfrwt>
<pdfrwt beam="2">  1       -2 0.18971601E-02 0.87657708E+02</pdfrwt>
<totfact> 0.71727357E+04</totfact>
</mgrwt>
</event>
<event>
 6    1  0.2975432E-002  0.9258763E+02  0.7546771E-02  0.1378496E+00
         -2   -1    0    0    0  501 -0.00000000000E+00  0.00000000000E+00  0.14522669905E+02  0.14522669905E+02  0.00000000000E+00 0. -1.
          2   -1    0    0  501    0  0.00000000000E+00 -0.00000000000E+00 -0.24795918076E+03  0.24795918076E+03  0.00000000000E+00 0.  1.
         23    2    1    2    0    0  0.21542412806E+02 -0.57556842988E+01 -0.21292631802E+03  0.23218545713E+03  0.89862484634E+02 0.  0.
         13    1    3    3    0    0  0.22105343668E+02 -0.46613924064E+02 -0.11253854838E+03  0.12379995560E+03  0.00000000000E+00 0. -1.
        -13    1    3    3    0    0 -0.56293086122E+00  0.40858239765E+02 -0.10038776965E+03  0.10838550153E+03  0.00000000000E+00 0.  1.
         22    1    1    2    0    0 -0.21542412806E+02  0.57556842988E+01 -0.20510192833E+02  0.30296393536E+02  0.00000000000E+00 0. -1.
<mgrwt>
<rscale>  0 0.64860680E+02</rscale>
<asrwt>0</asrwt>
<pdfrwt beam="1">  1        2 0.38147563E-01 0.92587632E+02</pdfrwt>
<pdfrwt beam="2">  1       -2 0.22342571E-02 0.92587632E+02</pdfrwt>
<totfact> 0.76382168E+04</totfact>
</mgrwt>
</event>
<event>
 6    1  0.2975432E-002  0.9108695E+02  0.7546771E-02  0.1397825E+00
         -1   -1    0    0    0  501 -0.00000000000E+00  0.00000000000E+00  0.10410566719E+02  0.10410566719E+02  0.00000000000E+00 0.  1.
          1   -1    0    0  501    0  0.00000000000E+00 -0.00000000000E+00 -0.30728843345E+03  0.30728843345E+03  0.00000000000E+00 0. -1.
         23    2    1    2    0    0 -0.72547619562E+01  0.15540838331E+02 -0.27621140645E+03  0.29084286851E+03  0.89457721205E+02 0.  0.
         13    1    3    3    0    0  0.14314425207E+02  0.25611622558E+02 -0.26088837570E+03  0.26253305040E+03  0.00000000000E+00 0. -1.
        -13    1    3    3    0    0 -0.21569187164E+02 -0.10070784227E+02 -0.15323030750E+02  0.28309818106E+02  0.00000000000E+00 0.  1.
         22    1    1    2    0    0  0.72547619562E+01 -0.15540838331E+02 -0.20666460281E+02  0.26856131658E+02  0.00000000000E+00 0. -1.
<mgrwt>
<rscale>  0 0.60001637E+02</rscale>
<asrwt>0</asrwt>
<pdfrwt beam="1">  1        1 0.47275142E-01 0.91086954E+02</pdfrwt>
<pdfrwt beam="2">  1       -1 0.16016257E-02 0.91086954E+02</pdfrwt>
<totfact> 0.69873321E+04</totfact>
</mgrwt>
</event>
<event>
 6    1  0.2975432E-002  0.9425345E+02  0.7546771E-02  0.1382219E+00
         -1   -1    0    0    0  501 -0.00000000000E+00  0.00000000000E+00  0.17446950412E+02  0.17446950412E+02  0.00000000000E+00 0.  1.
          1   -1    0    0  501    0  0.00000000000E+00 -0.00000000000E+00 -0.19100098055E+03  0.19100098055E+03  0.00000000000E+00 0. -1.
         23    2    1    2    0    0  0.19357770949E+02 -0.45785027894E+01 -0.15400361400E+03  0.18055698700E+03  0.92130485972E+02 0.  0.
         11    1    3    3    0    0 -0.27689189354E+02 -0.10185465466E+02 -0.11636395154E+03  0.12004584179E+03  0.00000000000E+00 0. -1.
        -11    1    3    3    0    0  0.47046960302E+02  0.56069626764E+01 -0.37639662462E+02  0.60511145208E+02  0.00000000000E+00 0.  1.
         22    1    1    2    0    0 -0.19357770949E+02  0.45785027894E+01 -0.19550416134E+02  0.27890943959E+02  0.00000000000E+00 0.  1.
<mgrwt>
<rscale>  0 0.63883951E+02</rscale>
<asrwt>0</asrwt>
<pdfrwt beam="1">  1        1 0.29384764E-01 0.94253448E+02</pdfrwt>
<pdfrwt beam="2">  1       -1 0.26841464E-02 0.94253448E+02</pdfrwt>
<totfact> 0.60050639E+04</totfact>
</mgrwt>
</event>
<event>
 6    1  0.2975432E-002  0.8904511E+02  0.7546771E-02  0.1431468E+00
          1   -1    0    0  501    0  0.00000000000E+00  0.00000000000E+00  0.18877306034E+02  0.18877306034E+02  0.00000000000E+00 0. -1.
         -1   -1    0    0    0  501 -0.00000000000E+00 -0.00000000000E+00 -0.13228399543E+03  0.13228399543E+03  0.00000000000E+00 0.  1.
         23    2    1    2    0    0 -0.97412112635E+01  0.48839839546E+01 -0.10127059547E+03  0.13485089767E+03  0.88375825878E+02 0.  0.
         11    1    3    3    0    0  0.29673660373E+02  0.15701723374E+02 -0.10293771746E+02  0.35114555010E+02  0.00000000000E+00 0. -1.
        -11    1    3    3    0    0 -0.39414871636E+02 -0.10817739419E+02 -0.90976823727E+02  0.99736342662E+02  0.00000000000E+00 0.  1.
         22    1    1    2    0    0  0.97412112635E+01 -0.48839839546E+01 -0.12136093927E+02  0.16310403795E+02  0.00000000000E+00 0. -1.
<mgrwt>
<rscale>  0 0.52666473E+02</rscale>
<asrwt>0</asrwt>
<pdfrwt beam="1">  1        1 0.29042010E-02 0.89045107E+02</pdfrwt>
<pdfrwt beam="2">  1       -1 0.20351383E-01 0.89045107E+02</pdfrwt>
<totfact> 0.59581271E+04</totfact>
</mgrwt>
</event>
<event>
 6    1  0.2975432E-002  0.1177844E+03  0.7546771E-02  0.1268611E+00
          2   -1    0    0  501    0  0.00000000000E+00  0.00000000000E+00  0.12906451605E+04  0.12906451605E+04  0.00000000000E+00 0. -1.
         -2   -1    0    0    0  501 -0.00000000000E+00 -0.00000000000E+00 -0.84744821132E+01  0.84744821132E+01  0.00000000000E+00 0.  1.
         23    2    1    2    0    0  0.73559927222E+02 -0.21334275690E+02  0.99362900435E+03  0.10005857051E+04  0.89481510298E+02 0.  0.
         13    1    3    3    0    0  0.62176868886E+02 -0.29053669498E+02  0.97508884345E+03  0.97750106463E+03  0.00000000000E+00 0. -1.
        -13    1    3    3    0    0  0.11383058336E+02  0.77193938072E+01  0.18540160904E+02  0.23084640439E+02  0.00000000000E+00 0.  1.
         22    1    1    2    0    0 -0.73559927222E+02  0.21334275690E+02  0.28854167407E+03  0.29853393758E+03  0.00000000000E+00 0.  1.
<mgrwt>
<rscale>  0 0.10576950E+03</rscale>
<asrwt>0</asrwt>
<pdfrwt beam="1">  1        2 0.19856064E+00 0.11778436E+03</pdfrwt>
<pdfrwt beam="2">  1       -2 0.13037675E-02 0.11778436E+03</pdfrwt>
<totfact> 0.24365927E+04</totfact>
</mgrwt>
</event>
<event>
 6    1  0.2975432E-002  0.8675235E+02  0.7546771E-02  0.1432704E+00
          1   -1    0    0  501    0  0.00000000000E+00  0.00000000000E+00  0.43864653479E+02  0.43864653479E+02  0.00000000000E+00 0. -1.
         -1   -1    0    0    0  501 -0.00000000000E+00 -0.00000000000E+00 -0.97114303670E+02  0.97114303670E+02  0.00000000000E+00 0.  1.
         23    2    1    2    0    0 -0.64989215223E+01  0.95672407233E+01 -0.27124612727E+00  0.86752769996E+02  0.85977912579E+02 0.  0.
         11    1    3    3    0    0 -0.25086247619E+02  0.86394875169E+01  0.36744228646E+02  0.45322167898E+02  0.00000000000E+00 0. -1.
        -11    1    3    3    0    0  0.18587326097E+02  0.92775320638E+00 -0.37015474774E+02  0.41430602097E+02  0.00000000000E+00 0.  1.
         22    1    1    2    0    0  0.64989215223E+01 -0.95672407233E+01 -0.52978404064E+02  0.54226187154E+02  0.00000000000E+00 0.  1.
<mgrwt>
<rscale>  0 0.52420961E+02</rscale>
<asrwt>0</asrwt>
<pdfrwt beam="1">  1        1 0.67484083E-02 0.86752346E+02</pdfrwt>
<pdfrwt beam="2">  1       -1 0.14940662E-01 0.86752346E+02</pdfrwt>
<totfact> 0.30789938E+04</totfact>
</mgrwt>
</event>
<event>
 6    1  0.2975432E-002  0.8896431E+02  0.7546771E-02  0.1418012E+00
         -1   -1    0    0    0  501 -0.00000000000E+00  0.00000000000E+00  0.23997416370E+03  0.23997416370E+03  0.00000000000E+00 0.  1.
          1   -1    0    0  501    0  0.00000000000E+00 -0.00000000000E+00 -0.11459111089E+02  0.11459111089E+02  0.00000000000E+00 0. -1.
         23    2    1    2    0    0 -0.11430332947E+01  0.13371458353E+02  0.17569438757E+03  0.19693442086E+03  0.87946266971E+02 0.  0.
         13    1    3    3    0    0  0.29180190192E+02  0.23623054940E+02  0.30842466785E+02  0.48587961283E+02  0.00000000000E+00 0. -1.
        -13    1    3    3    0    0 -0.30323223486E+02 -0.10251596587E+02  0.14485192078E+03  0.14834645958E+03  0.00000000000E+00 0.  1.
         22    1    1    2    0    0  0.11430332947E+01 -0.13371458353E+02  0.52820665047E+02  0.54498853929E+02  0.00000000000E+00 0.  1.
<mgrwt>
<rscale>  0 0.55443649E+02</rscale>
<asrwt>0</asrwt>
<pdfrwt beam="1">  1        1 0.17629403E-02 0.88964309E+02</pdfrwt>
<pdfrwt beam="2">  1       -1 0.36919098E-01 0.88964309E+02</pdfrwt>
<totfact> 0.44424627E+04</totfact>
</mgrwt>
</event>
<event>
 6    1  0.2975432E-002  0.9201604E+02  0.7546771E-02  0.1424892E+00
          2   -1    0    0  501    0  0.00000000000E+00  0.00000000000E+00  0.28735832384E+02  0.28735832384E+02  0.00000000000E+00 0. -1.
         -2   -1    0    0    0  501 -0.00000000000E+00 -0.00000000000E+00 -0.93665798489E+02  0.93665798489E+02  0.00000000000E+00 0.  1.
         23    2    1    2    0    0 -0.10680831367E+02 -0.22403366326E+01 -0.52815045387E+02  0.10609609283E+03  0.91366583757E+02 0.  0.
         13    1    3    3    0    0  0.11084481526E+02  0.79877201314E+01  0.22893114736E+02  0.26660159526E+02  0.00000000000E+00 0. -1.
        -13    1    3    3    0    0 -0.21765312893E+02 -0.10228056764E+02 -0.75708160123E+02  0.79435933303E+02  0.00000000000E+00 0.  1.
         22    1    1    2    0    0  0.10680831367E+02  0.22403366326E+01 -0.12114920717E+02  0.16305538044E+02  0.00000000000E+00 0.  1.
<mgrwt>
<rscale>  0 0.53999072E+02</rscale>
<asrwt>0</asrwt>
<pdfrwt beam="1">  1        2 0.44208974E-02 0.92016042E+02</pdfrwt>
<pdfrwt beam="2">  1       -2 0.14410123E-01 0.92016042E+02</pdfrwt>
<totfact> 0.58055784E+04</totfact>
</mgrwt>
</event>
<event>
 6    1  0.2975432E-002  0.9525084E+02  0.7546771E-02  0.1356340E+00
          3   -1    0    0  501    0  0.00000000000E+00  0.00000000000E+00  0.15487386202E+04  0.15487386202E+04  0.00000000000E+00 0. -1.
         -3   -1    0    0    0  501 -0.00000000000E+00 -0.00000000000E+00 -0.30310480897E+01  0.30310480897E+01  0.00000000000E+00 0.  1.
         23    2    1    2    0    0 -0.26931152385E+02  0.12276212369E+02  0.13909356770E+04  0.13941932365E+04  0.90535797438E+02 0.  0.
         13    1    3    3    0    0  0.23631613119E+02 -0.16401210381E+02  0.77149702009E+03  0.77203309828E+03  0.00000000000E+00 0. -1.
        -13    1    3    3    0    0 -0.50562765504E+02  0.28677422750E+02  0.61943865695E+03  0.62216013820E+03  0.00000000000E+00 0.  1.
         22    1    1    2    0    0  0.26931152385E+02 -0.12276212369E+02  0.15477189505E+03  0.15757643179E+03  0.00000000000E+00 0.  1.
<mgrwt>
<rscale>  0 0.71115482E+02</rscale>
<asrwt>0</asrwt>
<pdfrwt beam="1">  1        3 0.23826685E+00 0.95250842E+02</pdfrwt>
<pdfrwt beam="2">  1       -3 0.46631633E-03 0.95250842E+02</pdfrwt>
<totfact> 0.18054880E+03</totfact>
</mgrwt>
</event>
<event>
 6    1  0.2975432E-002  0.9560585E+02  0.7546771E-02  0.1357135E+00
         -1   -1    0    0    0  501 -0.00000000000E+00  0.00000000000E+00  0.30800810239E+03  0.30800810239E+03  0.00000000000E+00 0.  1.
          1   -1    0    0  501    0  0.00000000000E+00 -0.00000000000E+00 -0.12614460443E+02  0.12614460443E+02  0.00000000000E+00 0. -1.
         23    2    1    2    0    0  0.13927028540E+02 -0.25298156457E+02  0.23393262083E+03  0.25271515558E+03  0.91140111496E+02 0.  0.
         13    1    3    3    0    0  0.48852284610E+02  0.53265836972E+00  0.15627496074E+03  0.16373360312E+03  0.00000000000E+00 0.  1.
        -13    1    3    3    0    0 -0.34925256070E+02 -0.25830814827E+02  0.77657660094E+02  0.88981552456E+02  0.00000000000E+00 0. -1.
         22    1    1    2    0    0 -0.13927028540E+02  0.25298156457E+02  0.61461021118E+02  0.67907407262E+02  0.00000000000E+00 0. -1.
<mgrwt>
<rscale>  0 0.70877180E+02</rscale>
<asrwt>0</asrwt>
<pdfrwt beam="1">  1        1 0.19406865E-02 0.95605851E+02</pdfrwt>
<pdfrwt beam="2">  1       -1 0.47385856E-01 0.95605851E+02</pdfrwt>
<totfact> 0.25394033E+04</totfact>
</mgrwt>
</event>
<event>
 6    1  0.2975432E-002  0.9483652E+02  0.7546771E-02  0.1395384E+00
          2   -1    0    0  501    0  0.00000000000E+00  0.00000000000E+00  0.17900208330E+03  0.17900208330E+03  0.00000000000E+00 0. -1.
         -2   -1    0    0    0  501 -0.00000000000E+00 -0.00000000000E+00 -0.17960465357E+02  0.17960465357E+02  0.00000000000E+00 0.  1.
         23    2    1    2    0    0  0.13427325135E+02 -0.83233863062E+01  0.15077775659E+03  0.17812326338E+03  0.93511460555E+02 0.  0.
         11    1    3    3    0    0  0.37761435513E+02 -0.14460717644E+01  0.14792503778E+03  0.15267558396E+03  0.00000000000E+00 0. -1.
        -11    1    3    3    0    0 -0.24334110377E+02 -0.68773145418E+01  0.28527188077E+01  0.25447679418E+02  0.00000000000E+00 0.  1.
         22    1    1    2    0    0 -0.13427325135E+02  0.83233863062E+01  0.10263861358E+02  0.18839285280E+02  0.00000000000E+00 0.  1.
<mgrwt>
<rscale>  0 0.60587236E+02</rscale>
<asrwt>0</asrwt>
<pdfrwt beam="1">  1        2 0.27538781E-01 0.94836518E+02</pdfrwt>
<pdfrwt beam="2">  1       -2 0.27631486E-02 0.94836518E+02</pdfrwt>
<totfact> 0.79737378E+04</totfact>
</mgrwt>
</event>
<event>
 6    1  0.2975432E-002  0.6071894E+02  0.7546771E-02  0.1484525E+00
         -2   -1    0    0    0  501 -0.00000000000E+00  0.00000000000E+00  0.23573301258E+01  0.23573301258E+01  0.00000000000E+00 0.  1.
          2   -1    0    0  501    0  0.00000000000E+00 -0.00000000000E+00 -0.65743459952E+03  0.65743459952E+03  0.00000000000E+00 0. -1.
         23    2    1    2    0    0 -0.68913577306E+01 -0.14286369690E+02 -0.57202657604E+03  0.57524011810E+03  0.58610567282E+02 0.  0.
         13    1    3    3    0    0  0.56963447663E+01  0.15515322114E+02 -0.39075335672E+03  0.39110274782E+03  0.00000000000E+00 0. -1.
        -13    1    3    3    0    0 -0.12587702497E+02 -0.29801691805E+02 -0.18127321933E+03  0.18413737028E+03  0.00000000000E+00 0.  1.
         22    1    1    2    0    0  0.68913577306E+01  0.14286369690E+02 -0.83050693356E+02  0.84551811555E+02  0.00000000000E+00 0. -1.
<mgrwt>
<rscale>  0 0.43409028E+02</rscale>
<asrwt>0</asrwt>
<pdfrwt beam="1">  1        2 0.10114368E+00 0.60718941E+02</pdfrwt>
<pdfrwt beam="2">  1       -2 0.36266657E-03 0.60718941E+02</pdfrwt>
<totfact> 0.32661547E+05</totfact>
</mgrwt>
</event>
<event>
 6    1  0.2975432E-002  0.9454204E+02  0.7546771E-02  0.1387867E+00
          1   -1    0    0  501    0  0.00000000000E+00  0.00000000000E+00  0.34824682308E+03  0.34824682308E+03  0.00000000000E+00 0. -1.
         -1   -1    0    0    0  501 -0.00000000000E+00 -0.00000000000E+00 -0.92932398354E+01  0.92932398354E+01  0.00000000000E+00 0.  1.
         23    2    1    2    0    0  0.11347793492E+02 -0.13957068009E+02  0.30178786547E+03  0.31625007935E+03  0.92815003011E+02 0.  0.
         13    1    3    3    0    0 -0.33448840623E+02 -0.54850886374E+01  0.22015530756E+03  0.22274934474E+03  0.00000000000E+00 0. -1.
        -13    1    3    3    0    0  0.44796634115E+02 -0.84719793717E+01  0.81632557906E+02  0.93500734611E+02  0.00000000000E+00 0.  1.
         22    1    1    2    0    0 -0.11347793492E+02  0.13957068009E+02  0.37165717776E+02  0.41289983559E+02  0.00000000000E+00 0. -1.
<mgrwt>
<rscale>  0 0.62440319E+02</rscale>
<asrwt>0</asrwt>
<pdfrwt beam="1">  1        1 0.53576424E-01 0.94542038E+02</pdfrwt>
<pdfrwt beam="2">  1       -1 0.14297295E-02 0.94542038E+02</pdfrwt>
<totfact> 0.70786769E+04</totfact>
</mgrwt>
</event>
<event>
 6    1  0.2975432E-002  0.9353672E+02  0.7546771E-02  0.1426429E+00
          2   -1    0    0  501    0  0.00000000000E+00  0.00000000000E+00  0.30756052844E+03  0.30756052844E+03  0.00000000000E+00 0. -1.
         -2   -1    0    0    0  501 -0.00000000000E+00 -0.00000000000E+00 -0.98483162364E+01  0.98483162364E+01  0.00000000000E+00 0.  1.
         23    2    1    2    0    0 -0.10145132126E+02  0.27881902852E+00  0.28985591136E+03  0.30457440239E+03  0.92984492215E+02 0.  0.
         13    1    3    3    0    0 -0.10459508281E+02 -0.40746014356E+02  0.21628249974E+03  0.22033555931E+03  0.00000000000E+00 0. -1.
        -13    1    3    3    0    0  0.31437615489E+00  0.41024833384E+02  0.73573411617E+02  0.84238843081E+02  0.00000000000E+00 0.  1.
         22    1    1    2    0    0  0.10145132126E+02 -0.27881902852E+00  0.78563008387E+01  0.12834442286E+02  0.00000000000E+00 0. -1.
<mgrwt>
<rscale>  0 0.53683646E+02</rscale>
<asrwt>0</asrwt>
<pdfrwt beam="1">  1        2 0.47316997E-01 0.93536716E+02</pdfrwt>
<pdfrwt beam="2">  1       -2 0.15151258E-02 0.93536716E+02</pdfrwt>
<totfact> 0.10655881E+05</totfact>
</mgrwt>
</event>
<event>
 6    1  0.2975432E-002  0.9077403E+02  0.7546771E-02  0.1414679E+00
         -2   -1    0    0    0  501 -0.00000000000E+00  0.00000000000E+00  0.36651518081E+01  0.36651518081E+01  0.00000000000E+00 0.  1.
          2   -1    0    0  501    0  0.00000000000E+00 -0.00000000000E+00 -0.13807572648E+04  0.13807572648E+04  0.00000000000E+00 0. -1.
         23    2    1    2    0    0  0.54104505236E+01 -0.12151668024E+02 -0.13586752500E+04  0.13617042113E+04  0.89794142559E+02 0.  0.
         11    1    3    3    0    0  0.96001377063E+01  0.24419897589E+02 -0.11108667166E+04  0.11111765639E+04  0.00000000000E+00 0. -1.
        -11    1    3    3    0    0 -0.41896871827E+01 -0.36571565613E+02 -0.24780853338E+03  0.25052764739E+03  0.00000000000E+00 0.  1.
         22    1    1    2    0    0 -0.54104505236E+01  0.12151668024E+02 -0.18416862953E+02  0.22718205291E+02  0.00000000000E+00 0.  1.
<mgrwt>
<rscale>  0 0.56162733E+02</rscale>
<asrwt>0</asrwt>
<pdfrwt beam="1">  1        2 0.21242421E+00 0.90774027E+02</pdfrwt>
<pdfrwt beam="2">  1       -2 0.56386946E-03 0.90774027E+02</pdfrwt>
<totfact> 0.69936361E+04</totfact>
</mgrwt>
</event>
<event>
 6    1  0.2975432E-002  0.1084483E+03  0.7546771E-02  0.1294860E+00
         -4   -1    0    0    0  501 -0.00000000000E+00  0.00000000000E+00  0.25879312756E+03  0.25879312756E+03  0.00000000000E+00 0.  1.
          4   -1    0    0  501    0  0.00000000000E+00 -0.00000000000E+00 -0.27461540668E+02  0.27461540668E+02  0.00000000000E+00 0. -1.
         23    2    1    2    0    0  0.42337856357E+02 -0.41978604513E+02  0.13815374977E+03  0.17563456767E+03  0.90588881581E+02 0.  0.
         11    1    3    3    0    0 -0.14070528342E+02 -0.13422777677E+02  0.99820244178E+02  0.10169676433E+03  0.00000000000E+00 0.  1.
        -11    1    3    3    0    0  0.56408384699E+02 -0.28555826836E+02  0.38333505596E+02  0.73937803334E+02  0.00000000000E+00 0. -1.
         22    1    1    2    0    0 -0.42337856357E+02  0.41978604513E+02  0.93177837121E+02  0.11062010056E+03  0.00000000000E+00 0. -1.
<mgrwt>
<rscale>  0 0.93382934E+02</rscale>
<asrwt>0</asrwt>
<pdfrwt beam="1">  1        4 0.42248526E-02 0.10844834E+03</pdfrwt>
<pdfrwt beam="2">  1       -4 0.39814326E-01 0.10844834E+03</pdfrwt>
<totfact> 0.29856981E+03</totfact>
</mgrwt>
</event>
<event>
 6    1  0.2975432E-002  0.9096127E+02  0.7546771E-02  0.1432518E+00
          2   -1    0    0  501    0  0.00000000000E+00  0.00000000000E+00  0.12103128238E+04  0.12103128238E+04  0.00000000000E+00 0. -1.
         -2   -1    0    0    0  501 -0.00000000000E+00 -0.00000000000E+00 -0.29565585398E+01  0.29565585398E+01  0.00000000000E+00 0.  1.
         23    2    1    2    0    0  0.21890256222E+01 -0.98207743613E+01  0.11877879433E+04  0.11912657766E+04  0.90403057227E+02 0.  0.
         13    1    3    3    0    0 -0.35033533323E+02 -0.28687257826E+02  0.78955149089E+03  0.79084882499E+03  0.00000000000E+00 0. -1.
        -13    1    3    3    0    0  0.37222558945E+02  0.18866483465E+02  0.39823645243E+03  0.40041695161E+03  0.00000000000E+00 0.  1.
         22    1    1    2    0    0 -0.21890256222E+01  0.98207743613E+01  0.19568321974E+02  0.22003605775E+02  0.00000000000E+00 0.  1.
<mgrwt>
<rscale>  0 0.52457924E+02</rscale>
<asrwt>0</asrwt>
<pdfrwt beam="1">  1        2 0.18620158E+00 0.90961268E+02</pdfrwt>
<pdfrwt beam="2">  1       -2 0.45485613E-03 0.90961268E+02</pdfrwt>
<totfact> 0.11638555E+05</totfact>
</mgrwt>
</event>
<event>
 6    1  0.2975432E-002  0.9218658E+02  0.7546771E-02  0.1429017E+00
         -4   -1    0    0    0  501 -0.00000000000E+00  0.00000000000E+00  0.89768562240E+01  0.89768562240E+01  0.00000000000E+00 0. -1.
          4   -1    0    0  501    0  0.00000000000E+00 -0.00000000000E+00 -0.29339869765E+03  0.29339869765E+03  0.00000000000E+00 0.  1.
         23    2    1    2    0    0 -0.99604766294E+01 -0.21608036018E+01 -0.26202332458E+03  0.27776714629E+03  0.91621420900E+02 0.  0.
         11    1    3    3    0    0 -0.25329434684E+02  0.31869730328E+02 -0.61207696519E+02  0.73509469361E+02  0.00000000000E+00 0. -1.
        -11    1    3    3    0    0  0.15368958055E+02 -0.34030533930E+02 -0.20081562806E+03  0.20425767693E+03  0.00000000000E+00 0.  1.
         22    1    1    2    0    0  0.99604766294E+01  0.21608036018E+01 -0.22398516849E+02  0.24608407586E+02  0.00000000000E+00 0.  1.
<mgrwt>
<rscale>  0 0.53157842E+02</rscale>
<asrwt>0</asrwt>
<pdfrwt beam="1">  1        4 0.45138258E-01 0.92186577E+02</pdfrwt>
<pdfrwt beam="2">  1       -4 0.13810549E-02 0.92186577E+02</pdfrwt>
<totfact> 0.12515266E+04</totfact>
</mgrwt>
</event>
<event>
 6    1  0.2975432E-002  0.9609734E+02  0.7546771E-02  0.1358689E+00
          2   -1    0    0  501    0  0.00000000000E+00  0.00000000000E+00  0.11779291806E+03  0.11779291806E+03  0.00000000000E+00 0. -1.
         -2   -1    0    0    0  501 -0.00000000000E+00 -0.00000000000E+00 -0.10895437952E+03  0.10895437952E+03  0.00000000000E+00 0.  1.
         23    2    1    2    0    0  0.11882308940E+02  0.25024328565E+02  0.95672188094E+02  0.13560186993E+03  0.92017896449E+02 0.  0.
         13    1    3    3    0    0  0.24644598479E+02  0.25194451662E+02 -0.36781029569E+01  0.35435082476E+02  0.00000000000E+00 0.  1.
        -13    1    3    3    0    0 -0.12762289539E+02 -0.17012309765E+00  0.99350291051E+02  0.10016678745E+03  0.00000000000E+00 0. -1.
         22    1    1    2    0    0 -0.11882308940E+02 -0.25024328565E+02 -0.86833649561E+02  0.91145427653E+02  0.00000000000E+00 0.  1.
<mgrwt>
<rscale>  0 0.70414436E+02</rscale>
<asrwt>0</asrwt>
<pdfrwt beam="1">  1        2 0.18121987E-01 0.96097344E+02</pdfrwt>
<pdfrwt beam="2">  1       -2 0.16762212E-01 0.96097344E+02</pdfrwt>
<totfact> 0.81199057E+03</totfact>
</mgrwt>
</event>
<event>
 6    1  0.2975432E-002  0.9118811E+02  0.7546771E-02  0.1430641E+00
         -2   -1    0    0    0  501 -0.00000000000E+00  0.00000000000E+00  0.61142577837E+01  0.61142577837E+01  0.00000000000E+00 0.  1.
          2   -1    0    0  501    0  0.00000000000E+00 -0.00000000000E+00 -0.48684569097E+03  0.48684569097E+03  0.00000000000E+00 0. -1.
         23    2    1    2    0    0 -0.10182822199E+02 -0.13695823902E+01 -0.46694731826E+03  0.47576787360E+03  0.90607427367E+02 0.  0.
         11    1    3    3    0    0  0.44983685310E+01 -0.10760393947E+02 -0.45376824087E+03  0.45391809594E+03  0.00000000000E+00 0. -1.
        -11    1    3    3    0    0 -0.14681190730E+02  0.93908115568E+01 -0.13179077389E+02  0.21849777660E+02  0.00000000000E+00 0.  1.
         22    1    1    2    0    0  0.10182822199E+02  0.13695823902E+01 -0.13784114929E+02  0.17192075158E+02  0.00000000000E+00 0. -1.
<mgrwt>
<rscale>  0 0.52831626E+02</rscale>
<asrwt>0</asrwt>
<pdfrwt beam="1">  1        2 0.74899362E-01 0.91188111E+02</pdfrwt>
<pdfrwt beam="2">  1       -2 0.94065473E-03 0.91188111E+02</pdfrwt>
<totfact> 0.12871610E+05</totfact>
</mgrwt>
</event>
<event>
 6    1  0.2975432E-002  0.9521336E+02  0.7546771E-02  0.1375928E+00
         -2   -1    0    0    0  501 -0.00000000000E+00  0.00000000000E+00  0.33965173430E+01  0.33965173430E+01  0.00000000000E+00 0.  1.
          2   -1    0    0  501    0  0.00000000000E+00 -0.00000000000E+00 -0.10311001783E+04  0.10311001783E+04  0.00000000000E+00 0. -1.
         23    2    1    2    0    0  0.47351037637E+01  0.20853624012E+02 -0.89907655500E+03  0.90410410679E+03  0.92780867170E+02 0.  0.
         13    1    3    3    0    0  0.14675892315E+02  0.12067558252E+02 -0.88324157510E+03  0.88344591671E+03  0.00000000000E+00 0. -1.
        -13    1    3    3    0    0 -0.99407885510E+01  0.87860657596E+01 -0.15834979907E+02  0.20658190075E+02  0.00000000000E+00 0.  1.
         22    1    1    2    0    0 -0.47351037637E+01 -0.20853624012E+02 -0.12862710592E+03  0.13039258882E+03  0.00000000000E+00 0.  1.
<mgrwt>
<rscale>  0 0.65546267E+02</rscale>
<asrwt>0</asrwt>
<pdfrwt beam="1">  1        2 0.15863081E+00 0.95213361E+02</pdfrwt>
<pdfrwt beam="2">  1       -2 0.52254109E-03 0.95213361E+02</pdfrwt>
<totfact> 0.12138330E+05</totfact>
</mgrwt>
</event>
<event>
 6    1  0.2975432E-002  0.9379826E+02  0.7546771E-02  0.1418059E+00
         -2   -1    0    0    0  501 -0.00000000000E+00  0.00000000000E+00  0.78303637775E+01  0.78303637775E+01  0.00000000000E+00 0.  1.
          2   -1    0    0  501    0  0.00000000000E+00 -0.00000000000E+00 -0.41621611852E+03  0.41621611852E+03  0.00000000000E+00 0. -1.
         23    2    1    2    0    0  0.11441844805E+02 -0.10428658013E+00 -0.39690338016E+03  0.40783625052E+03  0.93097730198E+02 0.  0.
         11    1    3    3    0    0  0.24368583268E+02  0.69267189806E+01 -0.39125491323E+03  0.39207424604E+03  0.00000000000E+00 0. -1.
        -11    1    3    3    0    0 -0.12926738463E+02 -0.70310055607E+01 -0.56484669348E+01  0.15762004479E+02  0.00000000000E+00 0.  1.
         22    1    1    2    0    0 -0.11441844805E+02  0.10428658013E+00 -0.11482374586E+02  0.16210231780E+02  0.00000000000E+00 0.  1.
<mgrwt>
<rscale>  0 0.55433796E+02</rscale>
<asrwt>0</asrwt>
<pdfrwt beam="1">  1        2 0.64033240E-01 0.93798263E+02</pdfrwt>
<pdfrwt beam="2">  1       -2 0.12046715E-02 0.93798263E+02</pdfrwt>
<totfact> 0.10757652E+05</totfact>
</mgrwt>
</event>
<event>
 6    1  0.2975432E-002  0.9330470E+02  0.7546771E-02  0.1372142E+00
         -2   -1    0    0    0  501 -0.00000000000E+00  0.00000000000E+00  0.45371689229E+01  0.45371689229E+01  0.00000000000E+00 0.  1.
          2   -1    0    0  501    0  0.00000000000E+00 -0.00000000000E+00 -0.78353496834E+03  0.78353496834E+03  0.00000000000E+00 0. -1.
         23    2    1    2    0    0 -0.24101388651E+02 -0.20048081646E+01 -0.66687933060E+03  0.67337493921E+03  0.90115875334E+02 0.  0.
         13    1    3    3    0    0  0.64393657357E+01  0.20964266604E+02 -0.54938142311E+03  0.54981898291E+03  0.00000000000E+00 0. -1.
        -13    1    3    3    0    0 -0.30540754387E+02 -0.22969074769E+02 -0.11749790749E+03  0.12355595630E+03  0.00000000000E+00 0.  1.
         22    1    1    2    0    0  0.24101388651E+02  0.20048081646E+01 -0.11211846881E+03  0.11469719805E+03  0.00000000000E+00 0. -1.
<mgrwt>
<rscale>  0 0.66575202E+02</rscale>
<asrwt>0</asrwt>
<pdfrwt beam="1">  1        2 0.12054383E+00 0.93304701E+02</pdfrwt>
<pdfrwt beam="2">  1       -2 0.69802608E-03 0.93304701E+02</pdfrwt>
<totfact> 0.11473253E+05</totfact>
</mgrwt>
</event>
<event>
 6    1  0.2975432E-002  0.8734548E+02  0.7546771E-02  0.1367221E+00
         -2   -1    0    0    0  501 -0.00000000000E+00  0.00000000000E+00  0.63315646237E+01  0.63315646237E+01  0.00000000000E+00 0.  1.
          2   -1    0    0  501    0  0.00000000000E+00 -0.00000000000E+00 -0.83924901433E+03  0.83924901433E+03  0.00000000000E+00 0. -1.
         23    2    1    2    0    0  0.12826149298E+02 -0.29299178572E+02 -0.77060356232E+03  0.77553793101E+03  0.81279026761E+02 0.  0.
         13    1    3    3    0    0  0.42899472860E+01 -0.52465787116E+02 -0.66527758069E+03  0.66735696733E+03  0.00000000000E+00 0. -1.
        -13    1    3    3    0    0  0.85362020123E+01  0.23166608543E+02 -0.10532598163E+03  0.10818096368E+03  0.00000000000E+00 0.  1.
         22    1    1    2    0    0 -0.12826149298E+02  0.29299178572E+02 -0.62313887380E+02  0.70042647946E+02  0.00000000000E+00 0.  1.
<mgrwt>
<rscale>  0 0.67945738E+02</rscale>
<asrwt>0</asrwt>
<pdfrwt beam="1">  1        2 0.12911516E+00 0.87345476E+02</pdfrwt>
<pdfrwt beam="2">  1       -2 0.97408738E-03 0.87345476E+02</pdfrwt>
<totfact> 0.65329438E+04</totfact>
</mgrwt>
</event>
<event>
 6    1  0.2975432E-002  0.9569586E+02  0.7546771E-02  0.1379993E+00
         -1   -1    0    0    0  501 -0.00000000000E+00  0.00000000000E+00  0.46845359803E+02  0.46845359803E+02  0.00000000000E+00 0.  1.
          1   -1    0    0  501    0  0.00000000000E+00 -0.00000000000E+00 -0.78329367509E+02  0.78329367509E+02  0.00000000000E+00 0. -1.
         23    2    1    2    0    0  0.22813664484E+01  0.19574961228E+02 -0.39982980671E+02  0.10371275440E+03  0.93644609783E+02 0.  0.
         11    1    3    3    0    0  0.11474711877E+01  0.32076837801E+02  0.23002397121E+02  0.39488612115E+02  0.00000000000E+00 0.  1.
        -11    1    3    3    0    0  0.11338952607E+01 -0.12501876573E+02 -0.62985377792E+02  0.64224142282E+02  0.00000000000E+00 0. -1.
         22    1    1    2    0    0 -0.22813664484E+01 -0.19574961228E+02  0.84989729647E+01  0.21461972915E+02  0.00000000000E+00 0.  1.
<mgrwt>
<rscale>  0 0.64465518E+02</rscale>
<asrwt>0</asrwt>
<pdfrwt beam="1">  1        1 0.12050672E-01 0.95695855E+02</pdfrwt>
<pdfrwt beam="2">  1       -1 0.72069784E-02 0.95695855E+02</pdfrwt>
<totfact> 0.43860429E+04</totfact>
</mgrwt>
</event>
<event>
 6    1  0.2975432E-002  0.1085414E+03  0.7546771E-02  0.1294960E+00
          2   -1    0    0  501    0  0.00000000000E+00  0.00000000000E+00  0.20026268080E+03  0.20026268080E+03  0.00000000000E+00 0.  1.
         -2   -1    0    0    0  501 -0.00000000000E+00 -0.00000000000E+00 -0.14774808560E+03  0.14774808560E+03  0.00000000000E+00 0. -1.
         23    2    1    2    0    0  0.52054450751E+02 -0.28525467897E+02  0.17840454305E+03  0.20882870171E+03  0.90872864558E+02 0.  0.
         11    1    3    3    0    0 -0.22637116915E+02 -0.78166142104E+01  0.80327600117E+02  0.83821607360E+02  0.00000000000E+00 0. -1.
        -11    1    3    3    0    0  0.74691567666E+02 -0.20708853686E+02  0.98076942937E+02  0.12500709435E+03  0.00000000000E+00 0.  1.
         22    1    1    2    0    0 -0.52054450751E+02  0.28525467897E+02 -0.12588994785E+03  0.13918206469E+03  0.00000000000E+00 0. -1.
<mgrwt>
<rscale>  0 0.93339712E+02</rscale>
<asrwt>0</asrwt>
<pdfrwt beam="1">  1        2 0.30809643E-01 0.10854145E+03</pdfrwt>
<pdfrwt beam="2">  1       -2 0.22730475E-01 0.10854145E+03</pdfrwt>
<totfact> 0.27405713E+03</totfact>
</mgrwt>
</event>
<event>
 6    1  0.2975432E-002  0.9047986E+02  0.7546771E-02  0.1421242E+00
          2   -1    0    0  501    0  0.00000000000E+00  0.00000000000E+00  0.98984962256E+02  0.98984962256E+02  0.00000000000E+00 0. -1.
         -2   -1    0    0    0  501 -0.00000000000E+00 -0.00000000000E+00 -0.26601720271E+02  0.26601720271E+02  0.00000000000E+00 0.  1.
         23    2    1    2    0    0 -0.81451316039E+01  0.90000331704E+01  0.63236241568E+02  0.11038762392E+03  0.89661928940E+02 0.  0.
         11    1    3    3    0    0  0.30323127652E+02  0.17478009331E+02  0.61736862134E+02  0.70967690021E+02  0.00000000000E+00 0. -1.
        -11    1    3    3    0    0 -0.38468259256E+02 -0.84779761608E+01  0.14993794341E+01  0.39419933900E+02  0.00000000000E+00 0.  1.
         22    1    1    2    0    0  0.81451316039E+01 -0.90000331704E+01  0.91470004168E+01  0.15199058607E+02  0.00000000000E+00 0.  1.
<mgrwt>
<rscale>  0 0.54758988E+02</rscale>
<asrwt>0</asrwt>
<pdfrwt beam="1">  1        2 0.15228456E-01 0.90479861E+02</pdfrwt>
<pdfrwt beam="2">  1       -2 0.40925724E-02 0.90479861E+02</pdfrwt>
<totfact> 0.86372156E+04</totfact>
</mgrwt>
</event>
<event>
 6    1  0.2975432E-002  0.9442649E+02  0.7546771E-02  0.1417174E+00
          2   -1    0    0  501    0  0.00000000000E+00  0.00000000000E+00  0.14868993927E+04  0.14868993927E+04  0.00000000000E+00 0. -1.
         -2   -1    0    0    0  501 -0.00000000000E+00 -0.00000000000E+00 -0.26445875537E+01  0.26445875537E+01  0.00000000000E+00 0.  1.
         23    2    1    2    0    0 -0.11073406745E+02 -0.25785177792E+01  0.14564031787E+04  0.14594610584E+04  0.93739495409E+02 0.  0.
         11    1    3    3    0    0  0.23055728069E+02  0.15471778727E+02  0.15382462085E+03  0.15631044915E+03  0.00000000000E+00 0.  1.
        -11    1    3    3    0    0 -0.34129134814E+02 -0.18050296507E+02  0.13025785578E+04  0.13031506092E+04  0.00000000000E+00 0. -1.
         22    1    1    2    0    0  0.11073406745E+02  0.25785177792E+01  0.27851626441E+02  0.30082921838E+02  0.00000000000E+00 0.  1.
<mgrwt>
<rscale>  0 0.55623360E+02</rscale>
<asrwt>0</asrwt>
<pdfrwt beam="1">  1        2 0.22875309E+00 0.94426490E+02</pdfrwt>
<pdfrwt beam="2">  1       -2 0.40686081E-03 0.94426490E+02</pdfrwt>
<totfact> 0.97818429E+04</totfact>
</mgrwt>
</event>
<event>
 6    1  0.2975432E-002  0.9493813E+02  0.7546771E-02  0.1409554E+00
         -2   -1    0    0    0  501 -0.00000000000E+00  0.00000000000E+00  0.77940630793E+01  0.77940630793E+01  0.00000000000E+00 0.  1.
          2   -1    0    0  501    0  0.00000000000E+00 -0.00000000000E+00 -0.37624626955E+03  0.37624626955E+03  0.00000000000E+00 0. -1.
         23    2    1    2    0    0  0.11765370223E+02 -0.44873957574E+01 -0.33818576688E+03  0.35125896563E+03  0.94099348321E+02 0.  0.
         11    1    3    3    0    0 -0.36372874726E+02 -0.49791714639E+00 -0.71364547334E+02  0.80100764999E+02  0.00000000000E+00 0.  1.
        -11    1    3    3    0    0  0.48138244949E+02 -0.39894786111E+01 -0.26682121955E+03  0.27115820063E+03  0.00000000000E+00 0. -1.
         22    1    1    2    0    0 -0.11765370223E+02  0.44873957574E+01 -0.30266439585E+02  0.32781366999E+02  0.00000000000E+00 0. -1.
<mgrwt>
<rscale>  0 0.57293443E+02</rscale>
<asrwt>0</asrwt>
<pdfrwt beam="1">  1        2 0.57884043E-01 0.94938127E+02</pdfrwt>
<pdfrwt beam="2">  1       -2 0.11990866E-02 0.94938127E+02</pdfrwt>
<totfact> 0.12066001E+05</totfact>
</mgrwt>
</event>
<event>
 6    1  0.2975432E-002  0.9305061E+02  0.7546771E-02  0.1415985E+00
          1   -1    0    0  501    0  0.00000000000E+00  0.00000000000E+00  0.97706132240E+01  0.97706132240E+01  0.00000000000E+00 0. -1.
         -1   -1    0    0    0  501 -0.00000000000E+00 -0.00000000000E+00 -0.29486056214E+03  0.29486056214E+03  0.00000000000E+00 0.  1.
         23    2    1    2    0    0 -0.12101351527E+02  0.10955753480E+00 -0.22769871694E+03  0.24597788714E+03  0.92260286985E+02 0.  0.
         11    1    3    3    0    0 -0.40238871473E+02  0.31242692692E+02 -0.11804445078E+03  0.12856813363E+03  0.00000000000E+00 0. -1.
        -11    1    3    3    0    0  0.28137519946E+02 -0.31133135157E+02 -0.10965426616E+03  0.11740975351E+03  0.00000000000E+00 0.  1.
         22    1    1    2    0    0  0.12101351527E+02 -0.10955753480E+00 -0.57391231980E+02  0.58653288226E+02  0.00000000000E+00 0. -1.
<mgrwt>
<rscale>  0 0.55879476E+02</rscale>
<asrwt>0</asrwt>
<pdfrwt beam="1">  1        1 0.15031715E-02 0.93050606E+02</pdfrwt>
<pdfrwt beam="2">  1       -1 0.45363158E-01 0.93050606E+02</pdfrwt>
<totfact> 0.38928531E+04</totfact>
</mgrwt>
</event>
<event>
 6    1  0.2975432E-002  0.9096719E+02  0.7546771E-02  0.1363204E+00
         -2   -1    0    0    0  501 -0.00000000000E+00  0.00000000000E+00  0.35388400562E+01  0.35388400562E+01  0.00000000000E+00 0.  1.
          2   -1    0    0  501    0  0.00000000000E+00 -0.00000000000E+00 -0.17824776939E+04  0.17824776939E+04  0.00000000000E+00 0. -1.
         23    2    1    2    0    0  0.30184035039E+02  0.23488352698E+01 -0.16820430284E+04  0.16845010475E+04  0.85781330743E+02 0.  0.
         11    1    3    3    0    0  0.27333023271E+02 -0.38628699347E+02 -0.10954284529E+04  0.10964500746E+04  0.00000000000E+00 0. -1.
        -11    1    3    3    0    0  0.28510117683E+01  0.40977534617E+02 -0.58661457543E+03  0.58805097289E+03  0.00000000000E+00 0.  1.
         22    1    1    2    0    0 -0.30184035039E+02 -0.23488352698E+01 -0.96895825462E+02  0.10151548646E+03  0.00000000000E+00 0.  1.
<mgrwt>
<rscale>  0 0.69093255E+02</rscale>
<asrwt>0</asrwt>
<pdfrwt beam="1">  1        2 0.27422715E+00 0.90967190E+02</pdfrwt>
<pdfrwt beam="2">  1       -2 0.54443731E-03 0.90967190E+02</pdfrwt>
<totfact> 0.45926154E+04</totfact>
</mgrwt>
</event>
<event>
 6    1  0.2975432E-002  0.9163232E+02  0.7546771E-02  0.1412224E+00
         -4   -1    0    0    0  501 -0.00000000000E+00  0.00000000000E+00  0.25642478535E+02  0.25642478535E+02  0.00000000000E+00 0.  1.
          4   -1    0    0  501    0  0.00000000000E+00 -0.00000000000E+00 -0.12396583355E+03  0.12396583355E+03  0.00000000000E+00 0. -1.
         23    2    1    2    0    0  0.51573914368E+01 -0.12404416359E+02 -0.10049619030E+03  0.13599987922E+03  0.90642234377E+02 0.  0.
         13    1    3    3    0    0 -0.10028873791E+02 -0.38732349291E+02 -0.97583167110E+02  0.10546680850E+03  0.00000000000E+00 0. -1.
        -13    1    3    3    0    0  0.15186265228E+02  0.26327932931E+02 -0.29130231879E+01  0.30533070728E+02  0.00000000000E+00 0.  1.
         22    1    1    2    0    0 -0.51573914368E+01  0.12404416359E+02  0.21728352870E+01  0.13608432857E+02  0.00000000000E+00 0. -1.
<mgrwt>
<rscale>  0 0.56700465E+02</rscale>
<asrwt>0</asrwt>
<pdfrwt beam="1">  1        4 0.19071667E-01 0.91632324E+02</pdfrwt>
<pdfrwt beam="2">  1       -4 0.39449967E-02 0.91632324E+02</pdfrwt>
<totfact> 0.12475545E+04</totfact>
</mgrwt>
</event>
<event>
 6    1  0.2975432E-002  0.9151268E+02  0.7546771E-02  0.1407931E+00
         -1   -1    0    0    0  501 -0.00000000000E+00  0.00000000000E+00  0.88801636499E+01  0.88801636499E+01  0.00000000000E+00 0.  1.
          1   -1    0    0  501    0  0.00000000000E+00 -0.00000000000E+00 -0.75951264160E+03  0.75951264160E+03  0.00000000000E+00 0. -1.
         23    2    1    2    0    0  0.14372263039E+02 -0.11856967821E+01 -0.74819068047E+03  0.75376645244E+03  0.90369257224E+02 0.  0.
         11    1    3    3    0    0  0.42549497891E+02  0.29536225331E+01 -0.65338159026E+03  0.65477223990E+03  0.00000000000E+00 0. -1.
        -11    1    3    3    0    0 -0.28177234851E+02 -0.41393193152E+01 -0.94809090217E+02  0.98994212538E+02  0.00000000000E+00 0.  1.
         22    1    1    2    0    0 -0.14372263039E+02  0.11856967821E+01 -0.24417974790E+01  0.14626352815E+02  0.00000000000E+00 0.  1.
<mgrwt>
<rscale>  0 0.57658119E+02</rscale>
<asrwt>0</asrwt>
<pdfrwt beam="1">  1        1 0.11684816E+00 0.91512679E+02</pdfrwt>
<pdfrwt beam="2">  1       -1 0.13661783E-02 0.91512679E+02</pdfrwt>
<totfact> 0.27106771E+04</totfact>
</mgrwt>
</event>
<event>
 6    1  0.2975432E-002  0.9608796E+02  0.7546771E-02  0.1361784E+00
          2   -1    0    0  501    0  0.00000000000E+00  0.00000000000E+00  0.10846038678E+04  0.10846038678E+04  0.00000000000E+00 0. -1.
         -2   -1    0    0    0  501 -0.00000000000E+00 -0.00000000000E+00 -0.90248204328E+01  0.90248204328E+01  0.00000000000E+00 0.  1.
         23    2    1    2    0    0  0.18001115375E+02  0.19182712013E+02  0.10571536406E+04  0.10615115245E+04  0.92416882072E+02 0.  0.
         13    1    3    3    0    0  0.47225206527E+02 -0.16034269689E+02  0.49972710551E+03  0.50220961552E+03  0.00000000000E+00 0.  1.
        -13    1    3    3    0    0 -0.29224091151E+02  0.35216981701E+02  0.55742653511E+03  0.55930190894E+03  0.00000000000E+00 0. -1.
         22    1    1    2    0    0 -0.18001115375E+02 -0.19182712013E+02  0.18425406745E+02  0.32117163770E+02  0.00000000000E+00 0.  1.
<mgrwt>
<rscale>  0 0.69505041E+02</rscale>
<asrwt>0</asrwt>
<pdfrwt beam="1">  1        2 0.16686203E+00 0.96087963E+02</pdfrwt>
<pdfrwt beam="2">  1       -2 0.13884348E-02 0.96087963E+02</pdfrwt>
<totfact> 0.28429584E+04</totfact>
</mgrwt>
</event>
<event>
 6    1  0.2975432E-002  0.9429094E+02  0.7546771E-02  0.1387539E+00
          4   -1    0    0  501    0  0.00000000000E+00  0.00000000000E+00  0.25066717295E+03  0.25066717295E+03  0.00000000000E+00 0. -1.
         -4   -1    0    0    0  501 -0.00000000000E+00 -0.00000000000E+00 -0.19014789528E+02  0.19014789528E+02  0.00000000000E+00 0.  1.
         23    2    1    2    0    0 -0.83996071862E+01 -0.16177644830E+02  0.23304796926E+03  0.25140035279E+03  0.92512225197E+02 0.  0.
         11    1    3    3    0    0 -0.29276148939E+01 -0.51015163283E+02  0.84714655586E+02  0.98932758401E+02  0.00000000000E+00 0.  1.
        -11    1    3    3    0    0 -0.54719922923E+01  0.34837518453E+02  0.14833331367E+03  0.15246759438E+03  0.00000000000E+00 0. -1.
         22    1    1    2    0    0  0.83996071862E+01  0.16177644830E+02 -0.13955858381E+01  0.18281609692E+02  0.00000000000E+00 0. -1.
<mgrwt>
<rscale>  0 0.62522855E+02</rscale>
<asrwt>0</asrwt>
<pdfrwt beam="1">  1        4 0.38564178E-01 0.94290940E+02</pdfrwt>
<pdfrwt beam="2">  1       -4 0.29253524E-02 0.94290940E+02</pdfrwt>
<totfact> 0.54465828E+03</totfact>
</mgrwt>
</event>
<event>
 6    1  0.2975432E-002  0.9638189E+02  0.7546771E-02  0.1350595E+00
          2   -1    0    0  501    0  0.00000000000E+00  0.00000000000E+00  0.19111726118E+03  0.19111726118E+03  0.00000000000E+00 0. -1.
         -2   -1    0    0    0  501 -0.00000000000E+00 -0.00000000000E+00 -0.22538549280E+02  0.22538549280E+02  0.00000000000E+00 0.  1.
         23    2    1    2    0    0  0.21380341451E+02  0.23124309260E+02  0.14584219391E+03  0.17481251078E+03  0.91091249430E+02 0.  0.
         13    1    3    3    0    0  0.39745449992E+02 -0.21147620792E+02  0.93900621309E+02  0.10413572558E+03  0.00000000000E+00 0. -1.
        -13    1    3    3    0    0 -0.18365108541E+02  0.44271930051E+02  0.51941572602E+02  0.70676785203E+02  0.00000000000E+00 0.  1.
         22    1    1    2    0    0 -0.21380341451E+02 -0.23124309260E+02  0.22736517987E+02  0.38843299673E+02  0.00000000000E+00 0. -1.
<mgrwt>
<rscale>  0 0.72870621E+02</rscale>
<asrwt>0</asrwt>
<pdfrwt beam="1">  1        2 0.29402654E-01 0.96381888E+02</pdfrwt>
<pdfrwt beam="2">  1       -2 0.34674692E-02 0.96381888E+02</pdfrwt>
<totfact> 0.53490710E+04</totfact>
</mgrwt>
</event>
<event>
 6    1  0.2975432E-002  0.9430149E+02  0.7546771E-02  0.1387376E+00
         -4   -1    0    0    0  501 -0.00000000000E+00  0.00000000000E+00  0.14291817204E+03  0.14291817204E+03  0.00000000000E+00 0.  1.
          4   -1    0    0  501    0  0.00000000000E+00 -0.00000000000E+00 -0.27858021097E+02  0.27858021097E+02  0.00000000000E+00 0. -1.
         23    2    1    2    0    0  0.96200356819E+01 -0.15532414065E+02  0.57646205421E+02  0.11052536647E+03  0.92514705108E+02 0.  0.
         13    1    3    3    0    0  0.89818374041E+01 -0.18169882024E+02  0.82790297923E+02  0.85235271139E+02  0.00000000000E+00 0.  1.
        -13    1    3    3    0    0  0.63819827781E+00  0.26374679590E+01 -0.25144092502E+02  0.25290095334E+02  0.00000000000E+00 0. -1.
         22    1    1    2    0    0 -0.96200356819E+01  0.15532414065E+02  0.57413945519E+02  0.60250826660E+02  0.00000000000E+00 0.  1.
<mgrwt>
<rscale>  0 0.62564053E+02</rscale>
<asrwt>0</asrwt>
<pdfrwt beam="1">  1        4 0.42858495E-02 0.94301493E+02</pdfrwt>
<pdfrwt beam="2">  1       -4 0.21987411E-01 0.94301493E+02</pdfrwt>
<totfact> 0.85589634E+03</totfact>
</mgrwt>
</event>
<event>
 6    1  0.2975432E-002  0.9122270E+02  0.7546771E-02  0.1408995E+00
          2   -1    0    0  501    0  0.00000000000E+00  0.00000000000E+00  0.44991650359E+03  0.44991650359E+03  0.00000000000E+00 0.  1.
         -2   -1    0    0    0  501 -0.00000000000E+00 -0.00000000000E+00 -0.68737931460E+01  0.68737931460E+01  0.00000000000E+00 0. -1.
         23    2    1    2    0    0 -0.32421068364E+01  0.13946929260E+02  0.41892691927E+03  0.42874391593E+03  0.90091917856E+02 0.  0.
         11    1    3    3    0    0  0.13737341301E+02 -0.34501028981E+02  0.22944076429E+03  0.23242654725E+03  0.00000000000E+00 0.  1.
        -11    1    3    3    0    0 -0.16979448137E+02  0.48447958241E+02  0.18948615498E+03  0.19631736868E+03  0.00000000000E+00 0. -1.
         22    1    1    2    0    0  0.32421068364E+01 -0.13946929260E+02  0.24115791175E+02  0.28046380810E+02  0.00000000000E+00 0.  1.
<mgrwt>
<rscale>  0 0.57418769E+02</rscale>
<asrwt>0</asrwt>
<pdfrwt beam="1">  1        2 0.69217901E-01 0.91222704E+02</pdfrwt>
<pdfrwt beam="2">  1       -2 0.10575070E-02 0.91222704E+02</pdfrwt>
<totfact> 0.11867369E+05</totfact>
</mgrwt>
</event>
<event>
 6    1  0.2975432E-002  0.9980747E+02  0.7546771E-02  0.1339171E+00
          1   -1    0    0  501    0  0.00000000000E+00  0.00000000000E+00  0.45548472278E+02  0.45548472278E+02  0.00000000000E+00 0. -1.
         -1   -1    0    0    0  501 -0.00000000000E+00 -0.00000000000E+00 -0.16619322824E+03  0.16619322824E+03  0.00000000000E+00 0.  1.
         23    2    1    2    0    0 -0.26629649579E+02 -0.21961860956E+02 -0.15409418147E+02  0.10099000573E+03  0.93648649303E+02 0.  0.
         13    1    3    3    0    0 -0.44075279766E+02  0.17626714045E+02 -0.29020387649E+02  0.55637345675E+02  0.00000000000E+00 0.  1.
        -13    1    3    3    0    0  0.17445630187E+02 -0.39588575001E+02  0.13610969502E+02  0.45352660055E+02  0.00000000000E+00 0. -1.
         22    1    1    2    0    0  0.26629649579E+02  0.21961860956E+02 -0.10523533781E+03  0.11075169478E+03  0.00000000000E+00 0.  1.
<mgrwt>
<rscale>  0 0.76538913E+02</rscale>
<asrwt>0</asrwt>
<pdfrwt beam="1">  1        1 0.70074573E-02 0.99807470E+02</pdfrwt>
<pdfrwt beam="2">  1       -1 0.25568189E-01 0.99807470E+02</pdfrwt>
<totfact> 0.12682561E+04</totfact>
</mgrwt>
</event>
<event>
 6    1  0.2975432E-002  0.8913292E+02  0.7546771E-02  0.1429083E+00
          2   -1    0    0  501    0  0.00000000000E+00  0.00000000000E+00  0.10841508236E+04  0.10841508236E+04  0.00000000000E+00 0. -1.
         -2   -1    0    0    0  501 -0.00000000000E+00 -0.00000000000E+00 -0.51238842118E+01  0.51238842118E+01  0.00000000000E+00 0.  1.
         23    2    1    2    0    0  0.11243028571E+02  0.69932500735E+00  0.10726167629E+04  0.10763138008E+04  0.88418228263E+02 0.  0.
         13    1    3    3    0    0 -0.73719809687E+01  0.24404707073E+02  0.93873811555E+03  0.93908422701E+03  0.00000000000E+00 0. -1.
        -13    1    3    3    0    0  0.18615009540E+02 -0.23705382065E+02  0.13387864734E+03  0.13722957383E+03  0.00000000000E+00 0.  1.
         22    1    1    2    0    0 -0.11243028571E+02 -0.69932500735E+00  0.64101764984E+01  0.12960906977E+02  0.00000000000E+00 0.  1.
<mgrwt>
<rscale>  0 0.53144590E+02</rscale>
<asrwt>0</asrwt>
<pdfrwt beam="1">  1        2 0.16679225E+00 0.89132922E+02</pdfrwt>
<pdfrwt beam="2">  1       -2 0.78829074E-03 0.89132922E+02</pdfrwt>
<totfact> 0.62971104E+04</totfact>
</mgrwt>
</event>
<event>
 6    1  0.2975432E-002  0.1060696E+03  0.7546771E-02  0.1322031E+00
          2   -1    0    0  501    0  0.00000000000E+00  0.00000000000E+00  0.17275652770E+04  0.17275652770E+04  0.00000000000E+00 0.  1.
         -2   -1    0    0    0  501 -0.00000000000E+00 -0.00000000000E+00 -0.40659702730E+01  0.40659702730E+01  0.00000000000E+00 0. -1.
         23    2    1    2    0    0  0.12966891204E+02 -0.36641687678E+02  0.15589252196E+04  0.15625295510E+04  0.98691457385E+02 0.  0.
         13    1    3    3    0    0 -0.18294357599E+02  0.28227877841E+02  0.56356558439E+03  0.56456856494E+03  0.00000000000E+00 0. -1.
        -13    1    3    3    0    0  0.31261248804E+02 -0.64869565519E+02  0.99535963523E+03  0.99796098604E+03  0.00000000000E+00 0.  1.
         22    1    1    2    0    0 -0.12966891204E+02  0.36641687678E+02  0.16457408708E+03  0.16910169627E+03  0.00000000000E+00 0. -1.
<mgrwt>
<rscale>  0 0.82526298E+02</rscale>
<asrwt>0</asrwt>
<pdfrwt beam="1">  1        2 0.26577869E+00 0.10606959E+03</pdfrwt>
<pdfrwt beam="2">  1       -2 0.62553527E-03 0.10606959E+03</pdfrwt>
<totfact> 0.40783336E+04</totfact>
</mgrwt>
</event>
<event>
 6    1  0.2975432E-002  0.1955585E+03  0.7546771E-02  0.1158756E+00
          2   -1    0    0  501    0  0.00000000000E+00  0.00000000000E+00  0.15363185327E+04  0.15363185327E+04  0.00000000000E+00 0. -1.
         -2   -1    0    0    0  501 -0.00000000000E+00 -0.00000000000E+00 -0.25007064432E+02  0.25007064432E+02  0.00000000000E+00 0.  1.
         23    2    1    2    0    0  0.10414141913E+03  0.13822043228E+03  0.10616419114E+04  0.10795029810E+04  0.91064893235E+02 0.  0.
         11    1    3    3    0    0  0.47607722368E+02  0.98247642376E+02  0.84607540618E+03  0.85309008165E+03  0.00000000000E+00 0. -1.
        -11    1    3    3    0    0  0.56533696767E+02  0.39972789902E+02  0.21556650525E+03  0.22641289934E+03  0.00000000000E+00 0.  1.
         22    1    1    2    0    0 -0.10414141913E+03 -0.13822043228E+03  0.44966955680E+03  0.48182261610E+03  0.00000000000E+00 0.  1.
<mgrwt>
<rscale>  0 0.18967398E+03</rscale>
<asrwt>0</asrwt>
<pdfrwt beam="1">  1        2 0.23635662E+00 0.19555853E+03</pdfrwt>
<pdfrwt beam="2">  1       -2 0.38472419E-02 0.19555853E+03</pdfrwt>
<totfact> 0.37903854E+03</totfact>
</mgrwt>
</event>
<event>
 6    1  0.2975432E-002  0.9416214E+02  0.7546771E-02  0.1425237E+00
         -2   -1    0    0    0  501 -0.00000000000E+00  0.00000000000E+00  0.24222940357E+03  0.24222940357E+03  0.00000000000E+00 0.  1.
          2   -1    0    0  501    0  0.00000000000E+00 -0.00000000000E+00 -0.11406115996E+02  0.11406115996E+02  0.00000000000E+00 0. -1.
         23    2    1    2    0    0  0.10122639129E+02  0.40087041026E+00  0.19735420501E+03  0.21866684777E+03  0.93615594616E+02 0.  0.
         11    1    3    3    0    0  0.93780281054E+01  0.81708065713E+01 -0.69266974958E+01  0.14236875688E+02  0.00000000000E+00 0. -1.
        -11    1    3    3    0    0  0.74461102331E+00 -0.77699361610E+01  0.20428090251E+03  0.20442997208E+03  0.00000000000E+00 0.  1.
         22    1    1    2    0    0 -0.10122639129E+02 -0.40087041026E+00  0.33469082561E+02  0.34968671801E+02  0.00000000000E+00 0.  1.
<mgrwt>
<rscale>  0 0.53928177E+02</rscale>
<asrwt>0</asrwt>
<pdfrwt beam="1">  1        2 0.17547873E-02 0.94162137E+02</pdfrwt>
<pdfrwt beam="2">  1       -2 0.37266058E-01 0.94162137E+02</pdfrwt>
<totfact> 0.38940201E+04</totfact>
</mgrwt>
</event>
<event>
 6    1  0.2975432E-002  0.9720715E+02  0.7546771E-02  0.1399793E+00
         -2   -1    0    0    0  501 -0.00000000000E+00  0.00000000000E+00  0.27262113708E+02  0.27262113708E+02  0.00000000000E+00 0.  1.
          2   -1    0    0  501    0  0.00000000000E+00 -0.00000000000E+00 -0.11578420908E+03  0.11578420908E+03  0.00000000000E+00 0. -1.
         23    2    1    2    0    0 -0.95654838628E+01 -0.97759145740E+01 -0.84472630017E+02  0.12878220147E+03  0.96240133029E+02 0.  0.
         11    1    3    3    0    0  0.35239619815E+02 -0.25461832355E+01 -0.74298134018E+02  0.82271055495E+02  0.00000000000E+00 0. -1.
        -11    1    3    3    0    0 -0.44805103678E+02 -0.72297313386E+01 -0.10174495999E+02  0.46511145972E+02  0.00000000000E+00 0.  1.
         22    1    1    2    0    0  0.95654838628E+01  0.97759145740E+01 -0.40494653506E+01  0.14264121316E+02  0.00000000000E+00 0. -1.
<mgrwt>
<rscale>  0 0.59535130E+02</rscale>
<asrwt>0</asrwt>
<pdfrwt beam="1">  1        2 0.17812955E-01 0.97207151E+02</pdfrwt>
<pdfrwt beam="2">  1       -2 0.41941713E-02 0.97207151E+02</pdfrwt>
<totfact> 0.70357750E+04</totfact>
</mgrwt>
</event>
<event>
 6    1  0.2975432E-002  0.1060902E+03  0.7546771E-02  0.1379481E+00
         -2   -1    0    0    0  501 -0.00000000000E+00  0.00000000000E+00  0.11934562056E+02  0.11934562056E+02  0.00000000000E+00 0.  1.
          2   -1    0    0  501    0  0.00000000000E+00 -0.00000000000E+00 -0.11876763446E+04  0.11876763446E+04  0.00000000000E+00 0. -1.
         23    2    1    2    0    0  0.13903798351E+02 -0.44058525541E+01 -0.11797297438E+04  0.11844903584E+04  0.10508288896E+03 0.  0.
         13    1    3    3    0    0 -0.38023715979E+02 -0.81511935352E+01 -0.82961500326E+03  0.83052591686E+03  0.00000000000E+00 0. -1.
        -13    1    3    3    0    0  0.51927514329E+02  0.37453409811E+01 -0.35011474052E+03  0.35396444151E+03  0.00000000000E+00 0.  1.
         22    1    1    2    0    0 -0.13903798351E+02  0.44058525541E+01  0.39879612495E+01  0.15120548278E+02  0.00000000000E+00 0.  1.
<mgrwt>
<rscale>  0 0.64600289E+02</rscale>
<asrwt>0</asrwt>
<pdfrwt beam="1">  1        2 0.18271947E+00 0.10609025E+03</pdfrwt>
<pdfrwt beam="2">  1       -2 0.18360862E-02 0.10609025E+03</pdfrwt>
<totfact> 0.16822552E+04</totfact>
</mgrwt>
</event>
<event>
 6    1  0.2975432E-002  0.9143069E+02  0.7546771E-02  0.1423582E+00
          2   -1    0    0  501    0  0.00000000000E+00  0.00000000000E+00  0.37449296262E+03  0.37449296262E+03  0.00000000000E+00 0. -1.
         -2   -1    0    0    0  501 -0.00000000000E+00 -0.00000000000E+00 -0.85834505870E+01  0.85834505870E+01  0.00000000000E+00 0.  1.
         23    2    1    2    0    0  0.31436134739E+01 -0.10905305795E+02  0.35734987643E+03  0.36886109183E+03  0.90723551971E+02 0.  0.
         13    1    3    3    0    0 -0.20579018615E+02  0.24130545608E+01  0.15363985982E+02  0.25794784448E+02  0.00000000000E+00 0.  1.
        -13    1    3    3    0    0  0.23722632089E+02 -0.13318360356E+02  0.34198589045E+03  0.34306630739E+03  0.00000000000E+00 0. -1.
         22    1    1    2    0    0 -0.31436134739E+01  0.10905305795E+02  0.85596356024E+01  0.14215321375E+02  0.00000000000E+00 0.  1.
<mgrwt>
<rscale>  0 0.54270253E+02</rscale>
<asrwt>0</asrwt>
<pdfrwt beam="1">  1        2 0.57614289E-01 0.91430689E+02</pdfrwt>
<pdfrwt beam="2">  1       -2 0.13205311E-02 0.91430689E+02</pdfrwt>
<totfact> 0.10511592E+05</totfact>
</mgrwt>
</event>
<event>
 6    1  0.2975432E-002  0.9444843E+02  0.7546771E-02  0.1376471E+00
         -2   -1    0    0    0  501 -0.00000000000E+00  0.00000000000E+00  0.27739328508E+02  0.27739328508E+02  0.00000000000E+00 0.  1.
          2   -1    0    0  501    0  0.00000000000E+00 -0.00000000000E+00 -0.12522178400E+03  0.12522178400E+03  0.00000000000E+00 0. -1.
         23    2    1    2    0    0 -0.21418282959E+02  0.35712818249E+01 -0.68161544399E+02  0.11647532451E+03  0.91918486634E+02 0.  0.
         11    1    3    3    0    0  0.33933943214E+02  0.16217569733E+02 -0.29197341052E+02  0.47613094781E+02  0.00000000000E+00 0. -1.
        -11    1    3    3    0    0 -0.55352226173E+02 -0.12646287908E+02 -0.38964203347E+02  0.68862229725E+02  0.00000000000E+00 0.  1.
         22    1    1    2    0    0  0.21418282959E+02 -0.35712818249E+01 -0.29320911090E+02  0.36485787999E+02  0.00000000000E+00 0.  1.
<mgrwt>
<rscale>  0 0.65400474E+02</rscale>
<asrwt>0</asrwt>
<pdfrwt beam="1">  1        2 0.19264890E-01 0.94448426E+02</pdfrwt>
<pdfrwt beam="2">  1       -2 0.42675890E-02 0.94448426E+02</pdfrwt>
<totfact> 0.62517601E+04</totfact>
</mgrwt>
</event>
<event>
 6    1  0.2975432E-002  0.9159434E+02  0.7546771E-02  0.1381023E+00
         -2   -1    0    0    0  501 -0.00000000000E+00  0.00000000000E+00  0.31238249456E+01  0.31238249456E+01  0.00000000000E+00 0.  1.
          2   -1    0    0  501    0  0.00000000000E+00 -0.00000000000E+00 -0.11151023174E+04  0.11151023174E+04  0.00000000000E+00 0. -1.
         23    2    1    2    0    0  0.44108557174E+01 -0.21656621535E+02 -0.99275551784E+03  0.99697193590E+03  0.88887894958E+02 0.  0.
         13    1    3    3    0    0 -0.22457491396E+02 -0.35517617059E+02 -0.85058521257E+03  0.85162259475E+03  0.00000000000E+00 0. -1.
        -13    1    3    3    0    0  0.26868347114E+02  0.13860995524E+02 -0.14217030527E+03  0.14534934115E+03  0.00000000000E+00 0.  1.
         22    1    1    2    0    0 -0.44108557174E+01  0.21656621535E+02 -0.11922297464E+03  0.12125420647E+03  0.00000000000E+00 0.  1.
<mgrwt>
<rscale>  0 0.64195656E+02</rscale>
<asrwt>0</asrwt>
<pdfrwt beam="1">  1        2 0.17155404E+00 0.91594338E+02</pdfrwt>
<pdfrwt beam="2">  1       -2 0.48058890E-03 0.91594338E+02</pdfrwt>
<totfact> 0.12166254E+05</totfact>
</mgrwt>
</event>
<event>
 6    1  0.2975432E-002  0.9499403E+02  0.7546771E-02  0.1352925E+00
         -2   -1    0    0    0  501 -0.00000000000E+00  0.00000000000E+00  0.39715284959E+02  0.39715284959E+02  0.00000000000E+00 0.  1.
          2   -1    0    0  501    0  0.00000000000E+00 -0.00000000000E+00 -0.22740770593E+03  0.22740770593E+03  0.00000000000E+00 0. -1.
         23    2    1    2    0    0  0.28525090949E+02 -0.13633159690E+02 -0.20860563645E+03  0.22921644214E+03  0.89578579655E+02 0.  0.
         13    1    3    3    0    0  0.52096526133E+02 -0.29043858391E+02 -0.17751339393E+03  0.18726611752E+03  0.00000000000E+00 0. -1.
        -13    1    3    3    0    0 -0.23571435185E+02  0.15410698702E+02 -0.31092242513E+02  0.41950324619E+02  0.00000000000E+00 0.  1.
         22    1    1    2    0    0 -0.28525090949E+02  0.13633159690E+02  0.20913215475E+02  0.37906548751E+02  0.00000000000E+00 0.  1.
<mgrwt>
<rscale>  0 0.72151849E+02</rscale>
<asrwt>0</asrwt>
<pdfrwt beam="1">  1        2 0.34985801E-01 0.94994030E+02</pdfrwt>
<pdfrwt beam="2">  1       -2 0.61100438E-02 0.94994030E+02</pdfrwt>
<totfact> 0.19158538E+04</totfact>
</mgrwt>
</event>
<event>
 6    1  0.2975432E-002  0.9973487E+02  0.7546771E-02  0.1396892E+00
         -2   -1    0    0    0  501 -0.00000000000E+00  0.00000000000E+00  0.33154279231E+01  0.33154279231E+01  0.00000000000E+00 0.  1.
          2   -1    0    0  501    0  0.00000000000E+00 -0.00000000000E+00 -0.10499744714E+04  0.10499744714E+04  0.00000000000E+00 0. -1.
         23    2    1    2    0    0 -0.11998442802E+02  0.56456602658E+01 -0.99383842738E+03  0.99883024826E+03  0.98849425828E+02 0.  0.
         13    1    3    3    0    0 -0.19033235090E+02  0.26006499179E+02 -0.94382202651E+03  0.94437207698E+03  0.00000000000E+00 0. -1.
        -13    1    3    3    0    0  0.70347922880E+01 -0.20360838913E+02 -0.50016400867E+02  0.54458171282E+02  0.00000000000E+00 0.  1.
         22    1    1    2    0    0  0.11998442802E+02 -0.56456602658E+01 -0.52820616134E+02  0.54459651103E+02  0.00000000000E+00 0. -1.
<mgrwt>
<rscale>  0 0.60224582E+02</rscale>
<asrwt>0</asrwt>
<pdfrwt beam="1">  1        2 0.16153450E+00 0.99734874E+02</pdfrwt>
<pdfrwt beam="2">  1       -2 0.51006593E-03 0.99734874E+02</pdfrwt>
<totfact> 0.12320727E+05</totfact>
</mgrwt>
</event>
<event>
 6    1  0.2975432E-002  0.9264149E+02  0.7546771E-02  0.1367794E+00
         -2   -1    0    0    0  501 -0.00000000000E+00  0.00000000000E+00  0.29222480280E+01  0.29222480280E+01  0.00000000000E+00 0.  1.
          2   -1    0    0  501    0  0.00000000000E+00 -0.00000000000E+00 -0.21894081232E+04  0.21894081232E+04  0.00000000000E+00 0. -1.
         23    2    1    2    0    0 -0.24602315949E+02 -0.99869660535E+01 -0.20955643921E+04  0.20976111571E+04  0.88754895674E+02 0.  0.
         13    1    3    3    0    0 -0.53081577559E+02 -0.77489599256E+01 -0.17648977149E+04  0.17657127865E+04  0.00000000000E+00 0. -1.
        -13    1    3    3    0    0  0.28479261610E+02 -0.22380061279E+01 -0.33066667723E+03  0.33189837066E+03  0.00000000000E+00 0.  1.
         22    1    1    2    0    0  0.24602315949E+02  0.99869660535E+01 -0.90921483033E+02  0.94719214090E+02  0.00000000000E+00 0.  1.
<mgrwt>
<rscale>  0 0.67784252E+02</rscale>
<asrwt>0</asrwt>
<pdfrwt beam="1">  1        2 0.33683202E+00 0.92641486E+02</pdfrwt>
<pdfrwt beam="2">  1       -2 0.44957662E-03 0.92641486E+02</pdfrwt>
<totfact> 0.37526193E+04</totfact>
</mgrwt>
</event>
<event>
 6    1  0.2975432E-002  0.8907185E+02  0.7546771E-02  0.1404814E+00
          2   -1    0    0  501    0  0.00000000000E+00  0.00000000000E+00  0.17184971771E+03  0.17184971771E+03  0.00000000000E+00 0. -1.
         -2   -1    0    0    0  501 -0.00000000000E+00 -0.00000000000E+00 -0.17061836149E+02  0.17061836149E+02  0.00000000000E+00 0.  1.
         23    2    1    2    0    0 -0.52688660723E+00  0.16414679918E+02  0.14380054915E+03  0.16915197897E+03  0.87544701305E+02 0.  0.
         11    1    3    3    0    0  0.32241845820E+02 -0.37622209877E+01  0.11905296819E+03  0.12339894717E+03  0.00000000000E+00 0. -1.
        -11    1    3    3    0    0 -0.32768732427E+02  0.20176900906E+02  0.24747580964E+02  0.45753031797E+02  0.00000000000E+00 0.  1.
         22    1    1    2    0    0  0.52688660723E+00 -0.16414679918E+02  0.10987332408E+02  0.19759574888E+02  0.00000000000E+00 0. -1.
<mgrwt>
<rscale>  0 0.58367266E+02</rscale>
<asrwt>0</asrwt>
<pdfrwt beam="1">  1        2 0.26438417E-01 0.89071848E+02</pdfrwt>
<pdfrwt beam="2">  1       -2 0.26248980E-02 0.89071848E+02</pdfrwt>
<totfact> 0.88936797E+04</totfact>
</mgrwt>
</event>
<event>
 6    1  0.2975432E-002  0.9221933E+02  0.7546771E-02  0.1412116E+00
          4   -1    0    0  501    0  0.00000000000E+00  0.00000000000E+00  0.68097757199E+03  0.68097757199E+03  0.00000000000E+00 0. -1.
         -4   -1    0    0    0  501 -0.00000000000E+00 -0.00000000000E+00 -0.49349647533E+01  0.49349647533E+01  0.00000000000E+00 0.  1.
         23    2    1    2    0    0  0.13200522320E+02 -0.12247871490E+00  0.65195302716E+03  0.65844297798E+03  0.91269583283E+02 0.  0.
         13    1    3    3    0    0  0.38539947053E+02 -0.17211877332E+02  0.55906024133E+03  0.56065134413E+03  0.00000000000E+00 0. -1.
        -13    1    3    3    0    0 -0.25339424733E+02  0.17089398617E+02  0.92892785838E+02  0.97791633853E+02  0.00000000000E+00 0.  1.
         22    1    1    2    0    0 -0.13200522320E+02  0.12247871490E+00  0.24089580074E+02  0.27469558764E+02  0.00000000000E+00 0.  1.
<mgrwt>
<rscale>  0 0.56724273E+02</rscale>
<asrwt>0</asrwt>
<pdfrwt beam="1">  1        4 0.10476571E+00 0.92219334E+02</pdfrwt>
<pdfrwt beam="2">  1       -4 0.75922589E-03 0.92219334E+02</pdfrwt>
<totfact> 0.50626327E+03</totfact>
</mgrwt>
</event>
<event>
 6    1  0.2975432E-002  0.9159363E+02  0.7546771E-02  0.1379293E+00
          4   -1    0    0  501    0  0.00000000000E+00  0.00000000000E+00  0.16712202797E+02  0.16712202797E+02  0.00000000000E+00 0. -1.
         -4   -1    0    0    0  501 -0.00000000000E+00 -0.00000000000E+00 -0.19974554211E+03  0.19974554211E+03  0.00000000000E+00 0.  1.
         23    2    1    2    0    0  0.22222150813E+02  0.47981818598E+01 -0.13284511909E+03  0.16136052188E+03  0.88727367932E+02 0.  0.
         11    1    3    3    0    0  0.43032034887E+02  0.73318604601E+01 -0.22629945731E+02  0.49169366969E+02  0.00000000000E+00 0. -1.
        -11    1    3    3    0    0 -0.20809884074E+02 -0.25336786003E+01 -0.11021517335E+03  0.11219115491E+03  0.00000000000E+00 0.  1.
         22    1    1    2    0    0 -0.22222150813E+02 -0.47981818598E+01 -0.50188220226E+02  0.55097223028E+02  0.00000000000E+00 0.  1.
<mgrwt>
<rscale>  0 0.64650091E+02</rscale>
<asrwt>0</asrwt>
<pdfrwt beam="1">  1        4 0.25711082E-02 0.91593626E+02</pdfrwt>
<pdfrwt beam="2">  1       -4 0.30730083E-01 0.91593626E+02</pdfrwt>
<totfact> 0.10177087E+04</totfact>
</mgrwt>
</event>
<event>
 6    1  0.2975432E-002  0.1102583E+03  0.7546771E-02  0.1290977E+00
          2   -1    0    0  501    0  0.00000000000E+00  0.00000000000E+00  0.49333729633E+02  0.49333729633E+02  0.00000000000E+00 0. -1.
         -2   -1    0    0    0  501 -0.00000000000E+00 -0.00000000000E+00 -0.15753915804E+03  0.15753915804E+03  0.00000000000E+00 0.  1.
         23    2    1    2    0    0 -0.52981777469E+02 -0.30215948494E+02 -0.45146496778E+02  0.11914318264E+03  0.91852161166E+02 0.  0.
         11    1    3    3    0    0 -0.66843155142E+02 -0.50569052340E+02 -0.25405984156E+02  0.87582535216E+02  0.00000000000E+00 0. -1.
        -11    1    3    3    0    0  0.13861377674E+02  0.20353103846E+02 -0.19740512622E+02  0.31560647423E+02  0.00000000000E+00 0.  1.
         22    1    1    2    0    0  0.52981777469E+02  0.30215948494E+02 -0.63058931631E+02  0.87729705035E+02  0.00000000000E+00 0.  1.
<mgrwt>
<rscale>  0 0.95088365E+02</rscale>
<asrwt>0</asrwt>
<pdfrwt beam="1">  1        2 0.75898046E-02 0.11025830E+03</pdfrwt>
<pdfrwt beam="2">  1       -2 0.24236793E-01 0.11025830E+03</pdfrwt>
<totfact> 0.12501430E+04</totfact>
</mgrwt>
</event>
<event>
 6    1  0.2975432E-002  0.9489528E+02  0.7546771E-02  0.1397234E+00
          2   -1    0    0  501    0  0.00000000000E+00  0.00000000000E+00  0.20804213703E+03  0.20804213703E+03  0.00000000000E+00 0. -1.
         -2   -1    0    0    0  501 -0.00000000000E+00 -0.00000000000E+00 -0.20408052957E+02  0.20408052957E+02  0.00000000000E+00 0.  1.
         23    2    1    2    0    0 -0.13101465771E+02  0.79230261255E+01  0.19054288227E+03  0.21286545851E+03  0.93651965780E+02 0.  0.
         11    1    3    3    0    0 -0.76965102776E+00  0.11508401269E+02 -0.79174395913E+01  0.13990050470E+02  0.00000000000E+00 0.  1.
        -11    1    3    3    0    0 -0.12331814743E+02 -0.35853751433E+01  0.19846032186E+03  0.19887540804E+03  0.00000000000E+00 0. -1.
         22    1    1    2    0    0  0.13101465771E+02 -0.79230261255E+01 -0.29087981954E+01  0.15584731479E+02  0.00000000000E+00 0. -1.
<mgrwt>
<rscale>  0 0.60142768E+02</rscale>
<asrwt>0</asrwt>
<pdfrwt beam="1">  1        2 0.32006481E-01 0.94895276E+02</pdfrwt>
<pdfrwt beam="2">  1       -2 0.31397006E-02 0.94895276E+02</pdfrwt>
<totfact> 0.56363160E+04</totfact>
</mgrwt>
</event>
<event>
 6    1  0.2975432E-002  0.9051412E+02  0.7546771E-02  0.1413924E+00
          2   -1    0    0  501    0  0.00000000000E+00  0.00000000000E+00  0.15716582814E+04  0.15716582814E+04  0.00000000000E+00 0. -1.
         -2   -1    0    0    0  501 -0.00000000000E+00 -0.00000000000E+00 -0.21476728845E+01  0.21476728845E+01  0.00000000000E+00 0.  1.
         23    2    1    2    0    0  0.62649834790E+01 -0.12042397793E+02  0.15123255917E+04  0.15150318485E+04  0.89490431294E+02 0.  0.
         11    1    3    3    0    0 -0.53370011473E+01 -0.48340043177E+02  0.10554182730E+04  0.10565382030E+04  0.00000000000E+00 0. -1.
        -11    1    3    3    0    0  0.11601984626E+02  0.36297645384E+02  0.45690731870E+03  0.45849364553E+03  0.00000000000E+00 0.  1.
         22    1    1    2    0    0 -0.62649834790E+01  0.12042397793E+02  0.57185016784E+02  0.58774105754E+02  0.00000000000E+00 0.  1.
<mgrwt>
<rscale>  0 0.56327296E+02</rscale>
<asrwt>0</asrwt>
<pdfrwt beam="1">  1        2 0.24179266E+00 0.90514124E+02</pdfrwt>
<pdfrwt beam="2">  1       -2 0.33041247E-03 0.90514124E+02</pdfrwt>
<totfact> 0.11784126E+05</totfact>
</mgrwt>
</event>
<event>
 6    1  0.2975432E-002  0.9228573E+02  0.7546771E-02  0.1420538E+00
         -4   -1    0    0    0  501 -0.00000000000E+00  0.00000000000E+00  0.15591166665E+03  0.15591166665E+03  0.00000000000E+00 0.  1.
          4   -1    0    0  501    0  0.00000000000E+00 -0.00000000000E+00 -0.23219322000E+02  0.23219322000E+02  0.00000000000E+00 0. -1.
         23    2    1    2    0    0  0.11459412927E+02 -0.15529389824E+01  0.71196474811E+02  0.11655725797E+03  0.91558323464E+02 0.  0.
         13    1    3    3    0    0  0.15090617611E+02 -0.34451308774E+02  0.74337118520E+02  0.83310423153E+02  0.00000000000E+00 0.  1.
        -13    1    3    3    0    0 -0.36312046844E+01  0.32898369791E+02 -0.31406437084E+01  0.33246834816E+02  0.00000000000E+00 0. -1.
         22    1    1    2    0    0 -0.11459412927E+02  0.15529389824E+01  0.61495869837E+02  0.62573730679E+02  0.00000000000E+00 0. -1.
<mgrwt>
<rscale>  0 0.54907217E+02</rscale>
<asrwt>0</asrwt>
<pdfrwt beam="1">  1        4 0.35722035E-02 0.92285732E+02</pdfrwt>
<pdfrwt beam="2">  1       -4 0.23986410E-01 0.92285732E+02</pdfrwt>
<totfact> 0.96753972E+03</totfact>
</mgrwt>
</event>
<event>
 6    1  0.2975432E-002  0.1219964E+03  0.7546771E-02  0.1375458E+00
         -1   -1    0    0    0  501 -0.00000000000E+00  0.00000000000E+00  0.45767521201E+02  0.45767521201E+02  0.00000000000E+00 0.  1.
          1   -1    0    0  501    0  0.00000000000E+00 -0.00000000000E+00 -0.12328151627E+03  0.12328151627E+03  0.00000000000E+00 0. -1.
         23    2    1    2    0    0 -0.30830384737E+01  0.97699657843E+01 -0.90939245781E+02  0.15216132851E+03  0.12156548076E+03 0.  0.
         11    1    3    3    0    0 -0.16124291910E+02  0.64107172993E+02 -0.50353847992E+02  0.83097728166E+02  0.00000000000E+00 0. -1.
        -11    1    3    3    0    0  0.13041253436E+02 -0.54337207208E+02 -0.40585397789E+02  0.69063600341E+02  0.00000000000E+00 0.  1.
         22    1    1    2    0    0  0.30830384737E+01 -0.97699657843E+01  0.13425250707E+02  0.16887708969E+02  0.00000000000E+00 0.  1.
<mgrwt>
<rscale>  0 0.65673006E+02</rscale>
<asrwt>0</asrwt>
<pdfrwt beam="1">  1        1 0.18966387E-01 0.12199641E+03</pdfrwt>
<pdfrwt beam="2">  1       -1 0.70411572E-02 0.12199641E+03</pdfrwt>
<totfact> 0.26113088E+04</totfact>
</mgrwt>
</event>
<event>
 6    1  0.2975432E-002  0.9717916E+02  0.7546771E-02  0.1351086E+00
          2   -1    0    0  501    0  0.00000000000E+00  0.00000000000E+00  0.47615407551E+03  0.47615407551E+03  0.00000000000E+00 0.  1.
         -2   -1    0    0    0  501 -0.00000000000E+00 -0.00000000000E+00 -0.87626953330E+01  0.87626953330E+01  0.00000000000E+00 0. -1.
         23    2    1    2    0    0 -0.29228277043E+02 -0.86049959641E+01  0.38490042254E+03  0.39697874592E+03  0.92279203024E+02 0.  0.
         13    1    3    3    0    0 -0.18777676525E+02 -0.44987275319E+02  0.12219485648E+03  0.13156002063E+03  0.00000000000E+00 0. -1.
        -13    1    3    3    0    0 -0.10450600518E+02  0.36382279355E+02  0.26270556605E+03  0.26541872530E+03  0.00000000000E+00 0.  1.
         22    1    1    2    0    0  0.29228277043E+02  0.86049959641E+01  0.82490957635E+02  0.87938024915E+02  0.00000000000E+00 0. -1.
<mgrwt>
<rscale>  0 0.72718202E+02</rscale>
<asrwt>0</asrwt>
<pdfrwt beam="1">  1        2 0.73254453E-01 0.97179162E+02</pdfrwt>
<pdfrwt beam="2">  1       -2 0.13481073E-02 0.97179162E+02</pdfrwt>
<totfact> 0.79805363E+04</totfact>
</mgrwt>
</event>
<event>
 6    1  0.2975432E-002  0.9719371E+02  0.7546771E-02  0.1362193E+00
          2   -1    0    0  501    0  0.00000000000E+00  0.00000000000E+00  0.75781880691E+02  0.75781880691E+02  0.00000000000E+00 0.  1.
         -2   -1    0    0    0  501 -0.00000000000E+00 -0.00000000000E+00 -0.49554042328E+02  0.49554042328E+02  0.00000000000E+00 0. -1.
         23    2    1    2    0    0  0.71272180355E+01  0.24217954759E+02  0.23070916136E+02  0.99894367887E+02  0.93857929844E+02 0.  0.
         13    1    3    3    0    0  0.21259430436E+02 -0.28444324947E+02  0.27893046298E+02  0.45156007750E+02  0.00000000000E+00 0. -1.
        -13    1    3    3    0    0 -0.14132212400E+02  0.52662279706E+02 -0.48221301623E+01  0.54738360137E+02  0.00000000000E+00 0.  1.
         22    1    1    2    0    0 -0.71272180355E+01 -0.24217954759E+02  0.31569222271E+01  0.25441555133E+02  0.00000000000E+00 0. -1.
<mgrwt>
<rscale>  0 0.69386052E+02</rscale>
<asrwt>0</asrwt>
<pdfrwt beam="1">  1        2 0.11658751E-01 0.97193712E+02</pdfrwt>
<pdfrwt beam="2">  1       -2 0.76236988E-02 0.97193712E+02</pdfrwt>
<totfact> 0.47058461E+04</totfact>
</mgrwt>
</event>
<event>
 6    1  0.2975432E-002  0.1013003E+03  0.7546771E-02  0.1312945E+00
          2   -1    0    0  501    0  0.00000000000E+00  0.00000000000E+00  0.41761442868E+03  0.41761442868E+03  0.00000000000E+00 0. -1.
         -2   -1    0    0    0  501 -0.00000000000E+00 -0.00000000000E+00 -0.14262198036E+02  0.14262198036E+02  0.00000000000E+00 0.  1.
         23    2    1    2    0    0 -0.46372863768E+02 -0.24655778124E+02  0.28217588111E+03  0.29980824452E+03  0.86622201051E+02 0.  0.
         11    1    3    3    0    0  0.13760666729E+02 -0.19276683640E+00  0.16724139806E+03  0.16780666951E+03  0.00000000000E+00 0. -1.
        -11    1    3    3    0    0 -0.60133530497E+02 -0.24463011288E+02  0.11493448305E+03  0.13200157501E+03  0.00000000000E+00 0.  1.
         22    1    1    2    0    0  0.46372863768E+02  0.24655778124E+02  0.12117634954E+03  0.13206838220E+03  0.00000000000E+00 0. -1.
<mgrwt>
<rscale>  0 0.85958592E+02</rscale>
<asrwt>0</asrwt>
<pdfrwt beam="1">  1        2 0.64248364E-01 0.10130032E+03</pdfrwt>
<pdfrwt beam="2">  1       -2 0.21941846E-02 0.10130032E+03</pdfrwt>
<totfact> 0.45886520E+04</totfact>
</mgrwt>
</event>
<event>
 6    1  0.2975432E-002  0.9611279E+02  0.7546771E-02  0.1347958E+00
         -2   -1    0    0    0  501 -0.00000000000E+00  0.00000000000E+00  0.25798124892E+02  0.25798124892E+02  0.00000000000E+00 0.  1.
          2   -1    0    0  501    0  0.00000000000E+00 -0.00000000000E+00 -0.18031145184E+03  0.18031145184E+03  0.00000000000E+00 0. -1.
         23    2    1    2    0    0 -0.18558301048E+02 -0.27555079514E+02 -0.14009246359E+03  0.16989280928E+03  0.90188554408E+02 0.  0.
         13    1    3    3    0    0 -0.49501006076E+02 -0.14039797066E+02 -0.12008659220E+03  0.13064553238E+03  0.00000000000E+00 0. -1.
        -13    1    3    3    0    0  0.30942705028E+02 -0.13515282448E+02 -0.20005871384E+02  0.39247276899E+02  0.00000000000E+00 0.  1.
         22    1    1    2    0    0  0.18558301048E+02  0.27555079514E+02 -0.14420863363E+02  0.36216767456E+02  0.00000000000E+00 0.  1.
<mgrwt>
<rscale>  0 0.73695661E+02</rscale>
<asrwt>0</asrwt>
<pdfrwt beam="1">  1        2 0.27740224E-01 0.96112789E+02</pdfrwt>
<pdfrwt beam="2">  1       -2 0.39689422E-02 0.96112789E+02</pdfrwt>
<totfact> 0.46687322E+04</totfact>
</mgrwt>
</event>
<event>
 6    1  0.2975432E-002  0.9217806E+02  0.7546771E-02  0.1406865E+00
         -2   -1    0    0    0  501 -0.00000000000E+00  0.00000000000E+00  0.13738247146E+01  0.13738247146E+01  0.00000000000E+00 0.  1.
          2   -1    0    0  501    0  0.00000000000E+00 -0.00000000000E+00 -0.28348067700E+04  0.28348067700E+04  0.00000000000E+00 0. -1.
         23    2    1    2    0    0 -0.13410229023E+02  0.51037824630E+01 -0.27484152013E+04  0.27499605296E+04  0.91054449203E+02 0.  0.
         13    1    3    3    0    0 -0.53897037512E+01  0.13030905942E+02 -0.64581122575E+02  0.66102759467E+02  0.00000000000E+00 0.  1.
        -13    1    3    3    0    0 -0.80205252714E+01 -0.79271234786E+01 -0.26838340787E+04  0.26838577701E+04  0.00000000000E+00 0. -1.
         22    1    1    2    0    0  0.13410229023E+02 -0.51037824630E+01 -0.85017743928E+02  0.86220065069E+02  0.00000000000E+00 0.  1.
<mgrwt>
<rscale>  0 0.57899286E+02</rscale>
<asrwt>0</asrwt>
<pdfrwt beam="1">  1        2 0.43612452E+00 0.92178064E+02</pdfrwt>
<pdfrwt beam="2">  1       -2 0.21135746E-03 0.92178064E+02</pdfrwt>
<totfact> 0.49026080E+04</totfact>
</mgrwt>
</event>
<event>
 6    1  0.2975432E-002  0.9497541E+02  0.7546771E-02  0.1371158E+00
         -1   -1    0    0    0  501 -0.00000000000E+00  0.00000000000E+00  0.83882932497E+02  0.83882932497E+02  0.00000000000E+00 0.  1.
          1   -1    0    0  501    0  0.00000000000E+00 -0.00000000000E+00 -0.54652349891E+02  0.54652349891E+02  0.00000000000E+00 0. -1.
         23    2    1    2    0    0  0.19191122516E+02 -0.13224876119E+02 -0.72429187153E+01  0.95251187961E+02  0.92071344101E+02 0.  0.
         11    1    3    3    0    0  0.21676712898E+02 -0.24164647006E+02  0.37224160785E+02  0.49390770323E+02  0.00000000000E+00 0.  1.
        -11    1    3    3    0    0 -0.24855903818E+01  0.10939770886E+02 -0.44467079500E+02  0.45860417637E+02  0.00000000000E+00 0. -1.
         22    1    1    2    0    0 -0.19191122516E+02  0.13224876119E+02  0.36473501321E+02  0.43284094428E+02  0.00000000000E+00 0. -1.
<mgrwt>
<rscale>  0 0.66846399E+02</rscale>
<asrwt>0</asrwt>
<pdfrwt beam="1">  1        1 0.84080538E-02 0.94975412E+02</pdfrwt>
<pdfrwt beam="2">  1       -1 0.12905067E-01 0.94975412E+02</pdfrwt>
<totfact> 0.29150894E+04</totfact>
</mgrwt>
</event>
<event>
 6    1  0.2975432E-002  0.9202520E+02  0.7546771E-02  0.1429227E+00
         -2   -1    0    0    0  501 -0.00000000000E+00  0.00000000000E+00  0.42725472375E+01  0.42725472375E+01  0.00000000000E+00 0.  1.
          2   -1    0    0  501    0  0.00000000000E+00 -0.00000000000E+00 -0.61165515821E+03  0.61165515821E+03  0.00000000000E+00 0. -1.
         23    2    1    2    0    0  0.70065165554E+01 -0.74310382972E+01 -0.54808213983E+03  0.55575414412E+03  0.91456684326E+02 0.  0.
         13    1    3    3    0    0 -0.10273636106E+02 -0.35109027989E+02 -0.46586275114E+03  0.46729679470E+03  0.00000000000E+00 0. -1.
        -13    1    3    3    0    0  0.17280152661E+02  0.27677989692E+02 -0.82219388691E+02  0.88457349418E+02  0.00000000000E+00 0.  1.
         22    1    1    2    0    0 -0.70065165554E+01  0.74310382972E+01 -0.59300471150E+02  0.60173561330E+02  0.00000000000E+00 0. -1.
<mgrwt>
<rscale>  0 0.53115545E+02</rscale>
<asrwt>0</asrwt>
<pdfrwt beam="1">  1        2 0.94100839E-01 0.92025196E+02</pdfrwt>
<pdfrwt beam="2">  1       -2 0.65731465E-03 0.92025196E+02</pdfrwt>
<totfact> 0.16630611E+05</totfact>
</mgrwt>
</event>
<event>
 6    1  0.2975432E-002  0.1057922E+03  0.7546771E-02  0.1303137E+00
         -2   -1    0    0    0  501 -0.00000000000E+00  0.00000000000E+00  0.94804449064E+01  0.94804449064E+01  0.00000000000E+00 0.  1.
          2   -1    0    0  501    0  0.00000000000E+00 -0.00000000000E+00 -0.71483742249E+03  0.71483742249E+03  0.00000000000E+00 0. -1.
         23    2    1    2    0    0  0.48114419593E+02 -0.26900439148E+02 -0.53167515240E+03  0.54209819942E+03  0.90295953027E+02 0.  0.
         13    1    3    3    0    0  0.17978172294E+02 -0.26747473616E+02 -0.48783741600E+03  0.48890079410E+03  0.00000000000E+00 0. -1.
        -13    1    3    3    0    0  0.30136247299E+02 -0.15296553269E+00 -0.43837736404E+02  0.53197405320E+02  0.00000000000E+00 0.  1.
         22    1    1    2    0    0 -0.48114419593E+02  0.26900439148E+02 -0.17368182518E+03  0.18221966798E+03  0.00000000000E+00 0. -1.
<mgrwt>
<rscale>  0 0.89882468E+02</rscale>
<asrwt>0</asrwt>
<pdfrwt beam="1">  1        2 0.10997502E+00 0.10579220E+03</pdfrwt>
<pdfrwt beam="2">  1       -2 0.14585296E-02 0.10579220E+03</pdfrwt>
<totfact> 0.45697829E+04</totfact>
</mgrwt>
</event>
<event>
 6    1  0.2975432E-002  0.9803292E+02  0.7546771E-02  0.1338661E+00
          2   -1    0    0  501    0  0.00000000000E+00  0.00000000000E+00  0.58320596593E+01  0.58320596593E+01  0.00000000000E+00 0. -1.
         -2   -1    0    0    0  501 -0.00000000000E+00 -0.00000000000E+00 -0.78735680045E+03  0.78735680045E+03  0.00000000000E+00 0.  1.
         23    2    1    2    0    0 -0.27734837583E+02  0.24111103520E+02 -0.60350932317E+03  0.61141962333E+03  0.90883915580E+02 0.  0.
         11    1    3    3    0    0  0.30691160435E+02  0.23479528379E+02 -0.28326928757E+03  0.28589285557E+03  0.00000000000E+00 0. -1.
        -11    1    3    3    0    0 -0.58425998017E+02  0.63157514169E+00 -0.32024003560E+03  0.32552676776E+03  0.00000000000E+00 0.  1.
         22    1    1    2    0    0  0.27734837583E+02 -0.24111103520E+02 -0.17801541763E+03  0.18176923679E+03  0.00000000000E+00 0.  1.
<mgrwt>
<rscale>  0 0.76708491E+02</rscale>
<asrwt>0</asrwt>
<pdfrwt beam="1">  1        2 0.89723999E-03 0.98032916E+02</pdfrwt>
<pdfrwt beam="2">  1       -2 0.12113181E+00 0.98032916E+02</pdfrwt>
<totfact> 0.82187414E+03</totfact>
</mgrwt>
</event>
<event>
 6    1  0.2975432E-002  0.9148451E+02  0.7546771E-02  0.1387356E+00
         -2   -1    0    0    0  501 -0.00000000000E+00  0.00000000000E+00  0.87281538489E+02  0.87281538489E+02  0.00000000000E+00 0.  1.
          2   -1    0    0  501    0  0.00000000000E+00 -0.00000000000E+00 -0.40811757977E+02  0.40811757977E+02  0.00000000000E+00 0. -1.
         23    2    1    2    0    0 -0.18027118637E+01  0.19935473530E+02  0.17916130045E+02  0.93222336773E+02  0.89267818853E+02 0.  0.
         13    1    3    3    0    0 -0.67315690849E+01 -0.11875851906E+02 -0.31451721028E+02  0.34286449751E+02  0.00000000000E+00 0. -1.
        -13    1    3    3    0    0  0.49288572212E+01  0.31811325436E+02  0.49367851074E+02  0.58935887023E+02  0.00000000000E+00 0.  1.
         22    1    1    2    0    0  0.18027118637E+01 -0.19935473530E+02  0.28553650467E+02  0.34870959693E+02  0.00000000000E+00 0.  1.
<mgrwt>
<rscale>  0 0.62569032E+02</rscale>
<asrwt>0</asrwt>
<pdfrwt beam="1">  1        2 0.62787320E-02 0.91484514E+02</pdfrwt>
<pdfrwt beam="2">  1       -2 0.13427929E-01 0.91484514E+02</pdfrwt>
<totfact> 0.41395269E+04</totfact>
</mgrwt>
</event>
<event>
 6    1  0.2975432E-002  0.9295303E+02  0.7546771E-02  0.1402705E+00
          2   -1    0    0  501    0  0.00000000000E+00  0.00000000000E+00  0.54951491329E+03  0.54951491329E+03  0.00000000000E+00 0. -1.
         -2   -1    0    0    0  501 -0.00000000000E+00 -0.00000000000E+00 -0.53673300241E+01  0.53673300241E+01  0.00000000000E+00 0.  1.
         23    2    1    2    0    0 -0.15706948395E+00 -0.14937840762E+02  0.48846084811E+03  0.49722657377E+03  0.91744764299E+02 0.  0.
         13    1    3    3    0    0 -0.13111259537E+02  0.13199461697E+02  0.43531474404E+03  0.43571212663E+03  0.00000000000E+00 0. -1.
        -13    1    3    3    0    0  0.12954190053E+02 -0.28137302459E+02  0.53146104064E+02  0.61514447139E+02  0.00000000000E+00 0.  1.
         22    1    1    2    0    0  0.15706948395E+00  0.14937840762E+02  0.55686735162E+02  0.57655669543E+02  0.00000000000E+00 0. -1.
<mgrwt>
<rscale>  0 0.58853950E+02</rscale>
<asrwt>0</asrwt>
<pdfrwt beam="1">  1        2 0.84540711E-01 0.92953029E+02</pdfrwt>
<pdfrwt beam="2">  1       -2 0.82574351E-03 0.92953029E+02</pdfrwt>
<totfact> 0.13603282E+05</totfact>
</mgrwt>
</event>
<event>
 6    1  0.2975432E-002  0.9163929E+02  0.7546771E-02  0.1366835E+00
         -1   -1    0    0    0  501 -0.00000000000E+00  0.00000000000E+00  0.83329472849E+01  0.83329472849E+01  0.00000000000E+00 0.  1.
          1   -1    0    0  501    0  0.00000000000E+00 -0.00000000000E+00 -0.74367845994E+03  0.74367845994E+03  0.00000000000E+00 0. -1.
         23    2    1    2    0    0 -0.96769717070E+01 -0.26139914051E+02 -0.70450992258E+03  0.71044492430E+03  0.87297311245E+02 0.  0.
         13    1    3    3    0    0  0.10419989443E+02 -0.37142318151E+02 -0.13314402202E+03  0.13861983472E+03  0.00000000000E+00 0.  1.
        -13    1    3    3    0    0 -0.20096961150E+02  0.11002404100E+02 -0.57136590056E+03  0.57182508958E+03  0.00000000000E+00 0. -1.
         22    1    1    2    0    0  0.96769717070E+01  0.26139914051E+02 -0.30835590070E+02  0.41566482928E+02  0.00000000000E+00 0.  1.
<mgrwt>
<rscale>  0 0.68054938E+02</rscale>
<asrwt>0</asrwt>
<pdfrwt beam="1">  1        1 0.11441206E+00 0.91639290E+02</pdfrwt>
<pdfrwt beam="2">  1       -1 0.12819920E-02 0.91639290E+02</pdfrwt>
<totfact> 0.30583309E+04</totfact>
</mgrwt>
</event>
<event>
 6    1  0.2975432E-002  0.8488600E+02  0.7546771E-02  0.1423657E+00
         -1   -1    0    0    0  501 -0.00000000000E+00  0.00000000000E+00  0.21175306595E+02  0.21175306595E+02  0.00000000000E+00 0.  1.
          1   -1    0    0  501    0  0.00000000000E+00 -0.00000000000E+00 -0.11583362672E+03  0.11583362672E+03  0.00000000000E+00 0. -1.
         23    2    1    2    0    0 -0.33939434740E+01  0.13753098797E+02 -0.81061759462E+02  0.11737393801E+03  0.83695674308E+02 0.  0.
         13    1    3    3    0    0  0.35747885361E+02  0.18491526622E+02 -0.20653523787E+02  0.45237328717E+02  0.00000000000E+00 0.  1.
        -13    1    3    3    0    0 -0.39141828835E+02 -0.47384278243E+01 -0.60408235675E+02  0.72136609292E+02  0.00000000000E+00 0. -1.
         22    1    1    2    0    0  0.33939434740E+01 -0.13753098797E+02 -0.13596560663E+02  0.19634995306E+02  0.00000000000E+00 0. -1.
<mgrwt>
<rscale>  0 0.54254582E+02</rscale>
<asrwt>0</asrwt>
<pdfrwt beam="1">  1        1 0.17820558E-01 0.84885997E+02</pdfrwt>
<pdfrwt beam="2">  1       -1 0.32577394E-02 0.84885997E+02</pdfrwt>
<totfact> 0.83409321E+04</totfact>
</mgrwt>
</event>
<event>
 6    1  0.2975432E-002  0.9425177E+02  0.7546771E-02  0.1415259E+00
          2   -1    0    0  501    0  0.00000000000E+00  0.00000000000E+00  0.10616099965E+04  0.10616099965E+04  0.00000000000E+00 0. -1.
         -2   -1    0    0    0  501 -0.00000000000E+00 -0.00000000000E+00 -0.27323070312E+01  0.27323070312E+01  0.00000000000E+00 0.  1.
         23    2    1    2    0    0 -0.34022916158E+01  0.11274403235E+02  0.98881320830E+03  0.99329500043E+03  0.93513149947E+02 0.  0.
         11    1    3    3    0    0  0.78376271234E+01  0.18632932323E+02  0.96982054792E+03  0.97003119008E+03  0.00000000000E+00 0. -1.
        -11    1    3    3    0    0 -0.11239918739E+02 -0.73585290879E+01  0.18992660388E+02  0.23263810355E+02  0.00000000000E+00 0.  1.
         22    1    1    2    0    0  0.34022916158E+01 -0.11274403235E+02  0.70064481151E+02  0.71047303084E+02  0.00000000000E+00 0. -1.
<mgrwt>
<rscale>  0 0.56036618E+02</rscale>
<asrwt>0</asrwt>
<pdfrwt beam="1">  1        2 0.16332429E+00 0.94251774E+02</pdfrwt>
<pdfrwt beam="2">  1       -2 0.42035578E-03 0.94251774E+02</pdfrwt>
<totfact> 0.15793544E+05</totfact>
</mgrwt>
</event>
<event>
 6    1  0.2975432E-002  0.1262342E+03  0.7546771E-02  0.1253099E+00
         -2   -1    0    0    0  501 -0.00000000000E+00  0.00000000000E+00  0.68545072098E+03  0.68545072098E+03  0.00000000000E+00 0.  1.
          2   -1    0    0  501    0  0.00000000000E+00 -0.00000000000E+00 -0.16192324646E+02  0.16192324646E+02  0.00000000000E+00 0. -1.
         23    2    1    2    0    0 -0.22346818754E+02 -0.81347174353E+02  0.41215462040E+03  0.43105277476E+03  0.93905912664E+02 0.  0.
         11    1    3    3    0    0 -0.58253620827E+02 -0.46776542693E+02  0.21176609014E+03  0.22455824683E+03  0.00000000000E+00 0. -1.
        -11    1    3    3    0    0  0.35906802073E+02 -0.34570631661E+02  0.20038853026E+03  0.20649452794E+03  0.00000000000E+00 0.  1.
         22    1    1    2    0    0  0.22346818754E+02  0.81347174353E+02  0.25710377593E+03  0.27059027086E+03  0.00000000000E+00 0. -1.
<mgrwt>
<rscale>  0 0.11413474E+03</rscale>
<asrwt>0</asrwt>
<pdfrwt beam="1">  1        2 0.24911274E-02 0.12623416E+03</pdfrwt>
<pdfrwt beam="2">  1       -2 0.10545393E+00 0.12623416E+03</pdfrwt>
<totfact> 0.28990831E+03</totfact>
</mgrwt>
</event>
<event>
 6    1  0.2975432E-002  0.9256480E+02  0.7546771E-02  0.1399222E+00
         -2   -1    0    0    0  501 -0.00000000000E+00  0.00000000000E+00  0.16694573669E+02  0.16694573669E+02  0.00000000000E+00 0.  1.
          2   -1    0    0  501    0  0.00000000000E+00 -0.00000000000E+00 -0.21345994195E+03  0.21345994195E+03  0.00000000000E+00 0. -1.
         23    2    1    2    0    0 -0.59991988113E+01 -0.14815384238E+02 -0.19251918209E+03  0.21361619365E+03  0.91174320503E+02 0.  0.
         13    1    3    3    0    0 -0.35000376810E+02 -0.10646921506E+02 -0.17644410139E+03  0.18019684856E+03  0.00000000000E+00 0. -1.
        -13    1    3    3    0    0  0.29001177999E+02 -0.41684627323E+01 -0.16075080703E+02  0.33419345093E+02  0.00000000000E+00 0.  1.
         22    1    1    2    0    0  0.59991988113E+01  0.14815384238E+02 -0.42461861915E+01  0.16538321973E+02  0.00000000000E+00 0. -1.
<mgrwt>
<rscale>  0 0.59669898E+02</rscale>
<asrwt>0</asrwt>
<pdfrwt beam="1">  1        2 0.32839991E-01 0.92564803E+02</pdfrwt>
<pdfrwt beam="2">  1       -2 0.25683960E-02 0.92564803E+02</pdfrwt>
<totfact> 0.73171270E+04</totfact>
</mgrwt>
</event>
<event>
 6    1  0.2975432E-002  0.9154422E+02  0.7546771E-02  0.1422990E+00
          1   -1    0    0  501    0  0.00000000000E+00  0.00000000000E+00  0.19328335908E+03  0.19328335908E+03  0.00000000000E+00 0. -1.
         -1   -1    0    0    0  501 -0.00000000000E+00 -0.00000000000E+00 -0.17591384325E+02  0.17591384325E+02  0.00000000000E+00 0.  1.
         23    2    1    2    0    0  0.60386428539E+00  0.11394140806E+02  0.17711700422E+03  0.19937596930E+03  0.90830352047E+02 0.  0.
         13    1    3    3    0    0  0.40497751343E+02  0.23768216413E+02  0.11792754835E+03  0.12693266969E+03  0.00000000000E+00 0. -1.
        -13    1    3    3    0    0 -0.39893887058E+02 -0.12374075607E+02  0.59189455871E+02  0.72443299607E+02  0.00000000000E+00 0.  1.
         22    1    1    2    0    0 -0.60386428539E+00 -0.11394140806E+02 -0.14250294727E+01  0.11498774099E+02  0.00000000000E+00 0.  1.
<mgrwt>
<rscale>  0 0.54393356E+02</rscale>
<asrwt>0</asrwt>
<pdfrwt beam="1">  1        1 0.29735900E-01 0.91544219E+02</pdfrwt>
<pdfrwt beam="2">  1       -1 0.27063670E-02 0.91544219E+02</pdfrwt>
<totfact> 0.58248067E+04</totfact>
</mgrwt>
</event>
<event>
 6    1  0.2975432E-002  0.9224272E+02  0.7546771E-02  0.1395653E+00
          1   -1    0    0  501    0  0.00000000000E+00  0.00000000000E+00  0.82977606420E+02  0.82977606420E+02  0.00000000000E+00 0. -1.
         -1   -1    0    0    0  501 -0.00000000000E+00 -0.00000000000E+00 -0.36021654040E+02  0.36021654040E+02  0.00000000000E+00 0.  1.
         23    2    1    2    0    0  0.16883261803E+02 -0.26805274329E+01  0.40060918858E+02  0.10056637562E+03  0.90644850533E+02 0.  0.
         13    1    3    3    0    0 -0.35533262434E+01 -0.56714093829E+01 -0.28337707476E+02  0.29117291714E+02  0.00000000000E+00 0.  1.
        -13    1    3    3    0    0  0.20436588046E+02  0.29908819500E+01  0.68398626334E+02  0.71449083901E+02  0.00000000000E+00 0. -1.
         22    1    1    2    0    0 -0.16883261803E+02  0.26805274329E+01  0.68950335218E+01  0.18432884845E+02  0.00000000000E+00 0. -1.
<mgrwt>
<rscale>  0 0.60522187E+02</rscale>
<asrwt>0</asrwt>
<pdfrwt beam="1">  1        1 0.12765786E-01 0.92242716E+02</pdfrwt>
<pdfrwt beam="2">  1       -1 0.55417929E-02 0.92242716E+02</pdfrwt>
<totfact> 0.59718890E+04</totfact>
</mgrwt>
</event>
<event>
 6    1  0.2975432E-002  0.9307935E+02  0.7546771E-02  0.1409660E+00
         -1   -1    0    0    0  501 -0.00000000000E+00  0.00000000000E+00  0.42089085171E+01  0.42089085171E+01  0.00000000000E+00 0.  1.
          1   -1    0    0  501    0  0.00000000000E+00 -0.00000000000E+00 -0.69064069891E+03  0.69064069891E+03  0.00000000000E+00 0. -1.
         23    2    1    2    0    0  0.40632534499E+01 -0.12705616263E+02 -0.63141611689E+03  0.63823982873E+03  0.92118530139E+02 0.  0.
         11    1    3    3    0    0 -0.19634508304E+02  0.49526687427E+00 -0.27930572650E+02  0.34144927795E+02  0.00000000000E+00 0.  1.
        -11    1    3    3    0    0  0.23697761754E+02 -0.13200883137E+02 -0.60348554424E+03  0.60409490093E+03  0.00000000000E+00 0. -1.
         22    1    1    2    0    0 -0.40632534499E+01  0.12705616263E+02 -0.55015673504E+02  0.56609778699E+02  0.00000000000E+00 0.  1.
<mgrwt>
<rscale>  0 0.57269719E+02</rscale>
<asrwt>0</asrwt>
<pdfrwt beam="1">  1        1 0.10625246E+00 0.93079355E+02</pdfrwt>
<pdfrwt beam="2">  1       -1 0.64752413E-03 0.93079355E+02</pdfrwt>
<totfact> 0.89131672E+04</totfact>
</mgrwt>
</event>
<event>
 6    1  0.2975432E-002  0.9177238E+02  0.7546771E-02  0.1421455E+00
         -4   -1    0    0    0  501 -0.00000000000E+00  0.00000000000E+00  0.17482321192E+03  0.17482321192E+03  0.00000000000E+00 0.  1.
          4   -1    0    0  501    0  0.00000000000E+00 -0.00000000000E+00 -0.15370938062E+02  0.15370938062E+02  0.00000000000E+00 0. -1.
         23    2    1    2    0    0  0.78710850790E+01  0.85140360503E+01  0.13654651056E+03  0.16452088018E+03  0.91036957759E+02 0.  0.
         13    1    3    3    0    0  0.38516905622E+02  0.11165660058E+02  0.21640865562E+02  0.45569189651E+02  0.00000000000E+00 0. -1.
        -13    1    3    3    0    0 -0.30645820543E+02 -0.26516240081E+01  0.11490564500E+03  0.11895169052E+03  0.00000000000E+00 0.  1.
         22    1    1    2    0    0 -0.78710850790E+01 -0.85140360503E+01  0.22905763303E+02  0.25673269809E+02  0.00000000000E+00 0. -1.
<mgrwt>
<rscale>  0 0.54714344E+02</rscale>
<asrwt>0</asrwt>
<pdfrwt beam="1">  1        4 0.23647598E-02 0.91772384E+02</pdfrwt>
<pdfrwt beam="2">  1       -4 0.26895877E-01 0.91772384E+02</pdfrwt>
<totfact> 0.14848376E+04</totfact>
</mgrwt>
</event>
<event>
 6    1  0.2975432E-002  0.9091341E+02  0.7546771E-02  0.1425424E+00
          2   -1    0    0  501    0  0.00000000000E+00  0.00000000000E+00  0.97406652010E+02  0.97406652010E+02  0.00000000000E+00 0.  1.
         -2   -1    0    0    0  501 -0.00000000000E+00 -0.00000000000E+00 -0.27283831996E+02  0.27283831996E+02  0.00000000000E+00 0. -1.
         23    2    1    2    0    0  0.10616397110E+02  0.36419628709E+01  0.67312207117E+02  0.11312020631E+03  0.90217936505E+02 0.  0.
         11    1    3    3    0    0  0.15489007828E+02 -0.12860671981E+02 -0.17441966649E+02  0.26636975201E+02  0.00000000000E+00 0. -1.
        -11    1    3    3    0    0 -0.48726107179E+01  0.16502634852E+02  0.84754173765E+02  0.86483231108E+02  0.00000000000E+00 0.  1.
         22    1    1    2    0    0 -0.10616397110E+02 -0.36419628709E+01  0.28106128968E+01  0.11570277698E+02  0.00000000000E+00 0.  1.
<mgrwt>
<rscale>  0 0.53889619E+02</rscale>
<asrwt>0</asrwt>
<pdfrwt beam="1">  1        2 0.14985639E-01 0.90913409E+02</pdfrwt>
<pdfrwt beam="2">  1       -2 0.41975126E-02 0.90913409E+02</pdfrwt>
<totfact> 0.84834208E+04</totfact>
</mgrwt>
</event>
<event>
 6    1  0.2975432E-002  0.1030986E+03  0.7546771E-02  0.1334451E+00
          2   -1    0    0  501    0  0.00000000000E+00  0.00000000000E+00  0.53391531059E+03  0.53391531059E+03  0.00000000000E+00 0.  1.
         -2   -1    0    0    0  501 -0.00000000000E+00 -0.00000000000E+00 -0.12026209261E+02  0.12026209261E+02  0.00000000000E+00 0. -1.
         23    2    1    2    0    0 -0.27511375535E+02 -0.19974695142E+02  0.48474388839E+03  0.49558646972E+03  0.97331636200E+02 0.  0.
         11    1    3    3    0    0 -0.49579898537E+02  0.57630476106E+01  0.41550774553E+03  0.41849500075E+03  0.00000000000E+00 0.  1.
        -11    1    3    3    0    0  0.22068523002E+02 -0.25737742753E+02  0.69236142859E+02  0.77091468967E+02  0.00000000000E+00 0. -1.
         22    1    1    2    0    0  0.27511375535E+02  0.19974695142E+02  0.37145212942E+02  0.50355050138E+02  0.00000000000E+00 0. -1.
<mgrwt>
<rscale>  0 0.78127294E+02</rscale>
<asrwt>0</asrwt>
<pdfrwt beam="1">  1        2 0.82140799E-01 0.10309855E+03</pdfrwt>
<pdfrwt beam="2">  1       -2 0.18501864E-02 0.10309855E+03</pdfrwt>
<totfact> 0.45116254E+04</totfact>
</mgrwt>
</event>
<event>
 6    1  0.2975432E-002  0.9270320E+02  0.7546771E-02  0.1407792E+00
         -1   -1    0    0    0  501 -0.00000000000E+00  0.00000000000E+00  0.20134811216E+01  0.20134811216E+01  0.00000000000E+00 0.  1.
          1   -1    0    0  501    0  0.00000000000E+00 -0.00000000000E+00 -0.20076611709E+04  0.20076611709E+04  0.00000000000E+00 0. -1.
         23    2    1    2    0    0 -0.89063509427E+01  0.10675323163E+02 -0.19537181129E+04  0.19559162428E+04  0.91654778341E+02 0.  0.
         11    1    3    3    0    0 -0.18314433986E+01 -0.27502041130E+01 -0.19023620324E+04  0.19023649019E+04  0.00000000000E+00 0. -1.
        -11    1    3    3    0    0 -0.70749075440E+01  0.13425527276E+02 -0.51356080558E+02  0.53551340877E+02  0.00000000000E+00 0.  1.
         22    1    1    2    0    0  0.89063509427E+01 -0.10675323163E+02 -0.51929576820E+02  0.53758409207E+02  0.00000000000E+00 0.  1.
<mgrwt>
<rscale>  0 0.57689397E+02</rscale>
<asrwt>0</asrwt>
<pdfrwt beam="1">  1        1 0.30887198E+00 0.92703204E+02</pdfrwt>
<pdfrwt beam="2">  1       -1 0.30976529E-03 0.92703204E+02</pdfrwt>
<totfact> 0.31556946E+04</totfact>
</mgrwt>
</event>
<event>
 6    1  0.2975432E-002  0.9497668E+02  0.7546771E-02  0.1386317E+00
          2   -1    0    0  501    0  0.00000000000E+00  0.00000000000E+00  0.13605984795E+03  0.13605984795E+03  0.00000000000E+00 0.  1.
         -2   -1    0    0    0  501 -0.00000000000E+00 -0.00000000000E+00 -0.29119827953E+02  0.29119827953E+02  0.00000000000E+00 0. -1.
         23    2    1    2    0    0 -0.17497363965E+02 -0.49783235216E+01  0.11145740525E+03  0.14643539090E+03  0.93218179940E+02 0.  0.
         13    1    3    3    0    0  0.10069208043E+02 -0.21789139536E+02 -0.58996996540E+01  0.24717645687E+02  0.00000000000E+00 0. -1.
        -13    1    3    3    0    0 -0.27566572008E+02  0.16810816014E+02  0.11735710491E+03  0.12171774521E+03  0.00000000000E+00 0.  1.
         22    1    1    2    0    0  0.17497363965E+02  0.49783235216E+01 -0.45173852549E+01  0.18744285005E+02  0.00000000000E+00 0.  1.
<mgrwt>
<rscale>  0 0.62832111E+02</rscale>
<asrwt>0</asrwt>
<pdfrwt beam="1">  1        2 0.20932284E-01 0.94976684E+02</pdfrwt>
<pdfrwt beam="2">  1       -2 0.44799736E-02 0.94976684E+02</pdfrwt>
<totfact> 0.53072890E+04</totfact>
</mgrwt>
</event>
<event>
 6    1  0.2975432E-002  0.9354429E+02  0.7546771E-02  0.1380620E+00
          1   -1    0    0  501    0  0.00000000000E+00  0.00000000000E+00  0.15596878296E+03  0.15596878296E+03  0.00000000000E+00 0. -1.
         -1   -1    0    0    0  501 -0.00000000000E+00 -0.00000000000E+00 -0.34352191502E+02  0.34352191502E+02  0.00000000000E+00 0.  1.
         23    2    1    2    0    0 -0.67346720168E+01  0.19768761054E+02  0.13592623020E+03  0.16500446836E+03  0.91183193624E+02 0.  0.
         11    1    3    3    0    0  0.22007841092E+02  0.19567224432E+02  0.36882036192E+01  0.29678682374E+02  0.00000000000E+00 0.  1.
        -11    1    3    3    0    0 -0.28742513109E+02  0.20153662179E+00  0.13223802658E+03  0.13532578598E+03  0.00000000000E+00 0. -1.
         22    1    1    2    0    0  0.67346720168E+01 -0.19768761054E+02 -0.14309638740E+02  0.25316506110E+02  0.00000000000E+00 0.  1.
<mgrwt>
<rscale>  0 0.64301139E+02</rscale>
<asrwt>0</asrwt>
<pdfrwt beam="1">  1        1 0.23995197E-01 0.93544292E+02</pdfrwt>
<pdfrwt beam="2">  1       -1 0.52849526E-02 0.93544292E+02</pdfrwt>
<totfact> 0.28830181E+04</totfact>
</mgrwt>
</event>
<event>
 6    1  0.2975432E-002  0.9095180E+02  0.7546771E-02  0.1430399E+00
         -2   -1    0    0    0  501 -0.00000000000E+00  0.00000000000E+00  0.15380999528E+02  0.15380999528E+02  0.00000000000E+00 0.  1.
          2   -1    0    0  501    0  0.00000000000E+00 -0.00000000000E+00 -0.18503751914E+03  0.18503751914E+03  0.00000000000E+00 0. -1.
         23    2    1    2    0    0  0.12281406903E+00  0.10392076729E+02 -0.16621263786E+03  0.18946997248E+03  0.90356068670E+02 0.  0.
         11    1    3    3    0    0 -0.44325412428E+02 -0.32413967822E+01 -0.83006675473E+02  0.94156024837E+02  0.00000000000E+00 0. -1.
        -11    1    3    3    0    0  0.44448226497E+02  0.13633473511E+02 -0.83205962384E+02  0.95313947642E+02  0.00000000000E+00 0.  1.
         22    1    1    2    0    0 -0.12281406903E+00 -0.10392076729E+02 -0.34438817494E+01  0.10948546184E+02  0.00000000000E+00 0.  1.
<mgrwt>
<rscale>  0 0.52880023E+02</rscale>
<asrwt>0</asrwt>
<pdfrwt beam="1">  1        2 0.28467310E-01 0.90951798E+02</pdfrwt>
<pdfrwt beam="2">  1       -2 0.23663077E-02 0.90951798E+02</pdfrwt>
<totfact> 0.95705740E+04</totfact>
</mgrwt>
</event>
<event>
 6    1  0.2975432E-002  0.9765797E+02  0.7546771E-02  0.1323705E+00
         -2   -1    0    0    0  501 -0.00000000000E+00  0.00000000000E+00  0.75954530544E+01  0.75954530544E+01  0.00000000000E+00 0.  1.
          2   -1    0    0  501    0  0.00000000000E+00 -0.00000000000E+00 -0.72312680582E+03  0.72312680582E+03  0.00000000000E+00 0. -1.
         23    2    1    2    0    0 -0.23391558608E+02  0.42304673499E+02 -0.53447187583E+03  0.54332059238E+03  0.84854166928E+02 0.  0.
         13    1    3    3    0    0 -0.26655806314E+01  0.23218428948E+02 -0.29840426360E+02  0.37903189948E+02  0.00000000000E+00 0.  1.
        -13    1    3    3    0    0 -0.20725977976E+02  0.19086244551E+02 -0.50463144947E+03  0.50541740244E+03  0.00000000000E+00 0. -1.
         22    1    1    2    0    0  0.23391558608E+02 -0.42304673499E+02 -0.18105947694E+03  0.18740166649E+03  0.00000000000E+00 0.  1.
<mgrwt>
<rscale>  0 0.81914286E+02</rscale>
<asrwt>0</asrwt>
<pdfrwt beam="1">  1        2 0.11125031E+00 0.97657975E+02</pdfrwt>
<pdfrwt beam="2">  1       -2 0.11685309E-02 0.97657975E+02</pdfrwt>
<totfact> 0.61279485E+04</totfact>
</mgrwt>
</event>
<event>
 6    1  0.2975432E-002  0.9000999E+02  0.7546771E-02  0.1423463E+00
         -2   -1    0    0    0  501 -0.00000000000E+00  0.00000000000E+00  0.41509644992E+02  0.41509644992E+02  0.00000000000E+00 0.  1.
          2   -1    0    0  501    0  0.00000000000E+00 -0.00000000000E+00 -0.87527549242E+02  0.87527549242E+02  0.00000000000E+00 0. -1.
         23    2    1    2    0    0 -0.11666572153E+02 -0.24300195752E+01 -0.61856955238E+02  0.10921575541E+03  0.89217623914E+02 0.  0.
         11    1    3    3    0    0  0.10943229053E+02  0.17972782792E+02  0.15463965587E+02  0.26113395319E+02  0.00000000000E+00 0.  1.
        -11    1    3    3    0    0 -0.22609801206E+02 -0.20402802367E+02 -0.77320920825E+02  0.83102360088E+02  0.00000000000E+00 0. -1.
         22    1    1    2    0    0  0.11666572153E+02  0.24300195752E+01  0.15839050989E+02  0.19821438827E+02  0.00000000000E+00 0.  1.
<mgrwt>
<rscale>  0 0.54294944E+02</rscale>
<asrwt>0</asrwt>
<pdfrwt beam="1">  1        2 0.13465777E-01 0.90009990E+02</pdfrwt>
<pdfrwt beam="2">  1       -2 0.63860993E-02 0.90009990E+02</pdfrwt>
<totfact> 0.51369295E+04</totfact>
</mgrwt>
</event>
<event>
 6    1  0.2975432E-002  0.9331344E+02  0.7546771E-02  0.1396268E+00
         -2   -1    0    0    0  501 -0.00000000000E+00  0.00000000000E+00  0.17919754525E+02  0.17919754525E+02  0.00000000000E+00 0.  1.
          2   -1    0    0  501    0  0.00000000000E+00 -0.00000000000E+00 -0.19294832134E+03  0.19294832134E+03  0.00000000000E+00 0. -1.
         23    2    1    2    0    0 -0.55991434167E+01 -0.15363581665E+02 -0.16971125104E+03  0.19367319594E+03  0.91869516425E+02 0.  0.
         13    1    3    3    0    0  0.14804073939E+02 -0.34033194053E+01  0.60332312421E+01  0.16344511843E+02  0.00000000000E+00 0.  1.
        -13    1    3    3    0    0 -0.20403217356E+02 -0.11960262260E+02 -0.17574448228E+03  0.17732868409E+03  0.00000000000E+00 0. -1.
         22    1    1    2    0    0  0.55991434167E+01  0.15363581665E+02 -0.53173157783E+01  0.17194879926E+02  0.00000000000E+00 0.  1.
<mgrwt>
<rscale>  0 0.60374188E+02</rscale>
<asrwt>0</asrwt>
<pdfrwt beam="1">  1        2 0.29684357E-01 0.93313440E+02</pdfrwt>
<pdfrwt beam="2">  1       -2 0.27568853E-02 0.93313440E+02</pdfrwt>
<totfact> 0.73631173E+04</totfact>
</mgrwt>
</event>
<event>
 6    1  0.2975432E-002  0.9536351E+02  0.7546771E-02  0.1399742E+00
         -2   -1    0    0    0  501 -0.00000000000E+00  0.00000000000E+00  0.40627502028E+01  0.40627502028E+01  0.00000000000E+00 0. -1.
          2   -1    0    0  501    0  0.00000000000E+00 -0.00000000000E+00 -0.74973102265E+03  0.74973102265E+03  0.00000000000E+00 0.  1.
         23    2    1    2    0    0 -0.12820545363E+02  0.67688262167E+01 -0.66954768839E+03  0.67630489165E+03  0.94255058534E+02 0.  0.
         11    1    3    3    0    0 -0.20081677693E+02 -0.33614738279E+02 -0.14625046459E+03  0.15140152840E+03  0.00000000000E+00 0. -1.
        -11    1    3    3    0    0  0.72611323299E+01  0.40383564495E+02 -0.52329722379E+03  0.52490336325E+03  0.00000000000E+00 0.  1.
         22    1    1    2    0    0  0.12820545363E+02 -0.67688262167E+01 -0.76120584060E+02  0.77488881198E+02  0.00000000000E+00 0.  1.
<mgrwt>
<rscale>  0 0.59547218E+02</rscale>
<asrwt>0</asrwt>
<pdfrwt beam="1">  1        2 0.11534334E+00 0.95363512E+02</pdfrwt>
<pdfrwt beam="2">  1       -2 0.62503793E-03 0.95363512E+02</pdfrwt>
<totfact> 0.14178174E+05</totfact>
</mgrwt>
</event>
<event>
 6    1  0.2975432E-002  0.9365829E+02  0.7546771E-02  0.1377558E+00
          2   -1    0    0  501    0  0.00000000000E+00  0.00000000000E+00  0.10187236948E+03  0.10187236948E+03  0.00000000000E+00 0. -1.
         -2   -1    0    0    0  501 -0.00000000000E+00 -0.00000000000E+00 -0.34245784037E+02  0.34245784037E+02  0.00000000000E+00 0.  1.
         23    2    1    2    0    0 -0.20285671134E+02  0.81864360912E+01  0.65179906319E+02  0.11410651051E+03  0.91067828370E+02 0.  0.
         13    1    3    3    0    0 -0.23539989291E+02  0.41016527397E+02  0.78170224363E+01  0.47933208273E+02  0.00000000000E+00 0. -1.
        -13    1    3    3    0    0  0.32543181572E+01 -0.32830091306E+02  0.57362883883E+02  0.66173302239E+02  0.00000000000E+00 0.  1.
         22    1    1    2    0    0  0.20285671134E+02 -0.81864360912E+01  0.24466791283E+01  0.22011643009E+02  0.00000000000E+00 0.  1.
<mgrwt>
<rscale>  0 0.65110029E+02</rscale>
<asrwt>0</asrwt>
<pdfrwt beam="1">  1        2 0.15672672E-01 0.93658291E+02</pdfrwt>
<pdfrwt beam="2">  1       -2 0.52685822E-02 0.93658291E+02</pdfrwt>
<totfact> 0.57769313E+04</totfact>
</mgrwt>
</event>
<event>
 6    1  0.2975432E-002  0.9501718E+02  0.7546771E-02  0.1379945E+00
         -2   -1    0    0    0  501 -0.00000000000E+00  0.00000000000E+00  0.24418351643E+03  0.24418351643E+03  0.00000000000E+00 0.  1.
          2   -1    0    0  501    0  0.00000000000E+00 -0.00000000000E+00 -0.16877933371E+02  0.16877933371E+02  0.00000000000E+00 0. -1.
         23    2    1    2    0    0 -0.19154026731E+02 -0.62520418943E+01  0.12621538052E+03  0.15798286901E+03  0.92856339868E+02 0.  0.
         13    1    3    3    0    0 -0.65478181252E+01 -0.34634341273E+02  0.85252565989E+01  0.36264190570E+02  0.00000000000E+00 0. -1.
        -13    1    3    3    0    0 -0.12606208606E+02  0.28382299379E+02  0.11769012392E+03  0.12171867844E+03  0.00000000000E+00 0.  1.
         22    1    1    2    0    0  0.19154026731E+02  0.62520418943E+01  0.10109020254E+03  0.10307858079E+03  0.00000000000E+00 0. -1.
<mgrwt>
<rscale>  0 0.64478162E+02</rscale>
<asrwt>0</asrwt>
<pdfrwt beam="1">  1        2 0.25966053E-02 0.95017181E+02</pdfrwt>
<pdfrwt beam="2">  1       -2 0.37566692E-01 0.95017181E+02</pdfrwt>
<totfact> 0.22658369E+04</totfact>
</mgrwt>
</event>
<event>
 6    1  0.2975432E-002  0.9532341E+02  0.7546771E-02  0.1358772E+00
         -2   -1    0    0    0  501 -0.00000000000E+00  0.00000000000E+00  0.73617712387E+01  0.73617712387E+01  0.00000000000E+00 0.  1.
          2   -1    0    0  501    0  0.00000000000E+00 -0.00000000000E+00 -0.52596120099E+03  0.52596120099E+03  0.00000000000E+00 0. -1.
         23    2    1    2    0    0 -0.22277842726E+02  0.17521769531E+02 -0.42317519201E+03  0.43377851064E+03  0.91012298500E+02 0.  0.
         11    1    3    3    0    0 -0.49677065957E+02 -0.14770459013E+02 -0.26575096339E+03  0.27075736718E+03  0.00000000000E+00 0. -1.
        -11    1    3    3    0    0  0.27399223231E+02  0.32292228544E+02 -0.15742422862E+03  0.16302114346E+03  0.00000000000E+00 0.  1.
         22    1    1    2    0    0  0.22277842726E+02 -0.17521769531E+02 -0.95424237745E+02  0.99544461590E+02  0.00000000000E+00 0. -1.
<mgrwt>
<rscale>  0 0.70389909E+02</rscale>
<asrwt>0</asrwt>
<pdfrwt beam="1">  1        2 0.80917128E-01 0.95323414E+02</pdfrwt>
<pdfrwt beam="2">  1       -2 0.11325799E-02 0.95323414E+02</pdfrwt>
<totfact> 0.91566222E+04</totfact>
</mgrwt>
</event>
<event>
 6    1  0.2975432E-002  0.1167368E+03  0.7546771E-02  0.1273257E+00
          2   -1    0    0  501    0  0.00000000000E+00  0.00000000000E+00  0.20724978976E+04  0.20724978976E+04  0.00000000000E+00 0. -1.
         -2   -1    0    0    0  501 -0.00000000000E+00 -0.00000000000E+00 -0.57807933391E+01  0.57807933391E+01  0.00000000000E+00 0.  1.
         23    2    1    2    0    0  0.53725745177E+02 -0.47813349629E+02  0.17316212579E+04  0.17355516883E+04  0.91950583554E+02 0.  0.
         13    1    3    3    0    0  0.30386854899E+02 -0.90799553188E+01  0.15152094172E+03  0.15480440019E+03  0.00000000000E+00 0.  1.
        -13    1    3    3    0    0  0.23338890278E+02 -0.38733394310E+02  0.15801003161E+04  0.15807472881E+04  0.00000000000E+00 0. -1.
         22    1    1    2    0    0 -0.53725745177E+02  0.47813349629E+02  0.33509584642E+03  0.34272700271E+03  0.00000000000E+00 0.  1.
<mgrwt>
<rscale>  0 0.10342349E+03</rscale>
<asrwt>0</asrwt>
<pdfrwt beam="1">  1        2 0.31884524E+00 0.11673681E+03</pdfrwt>
<pdfrwt beam="2">  1       -2 0.88935447E-03 0.11673681E+03</pdfrwt>
<totfact> 0.16665615E+04</totfact>
</mgrwt>
</event>
<event>
 6    1  0.2975432E-002  0.1040996E+03  0.7546771E-02  0.1305438E+00
          4   -1    0    0  501    0  0.00000000000E+00  0.00000000000E+00  0.41623160514E+03  0.41623160514E+03  0.00000000000E+00 0.  1.
         -4   -1    0    0    0  501 -0.00000000000E+00 -0.00000000000E+00 -0.15303162300E+02  0.15303162300E+02  0.00000000000E+00 0. -1.
         23    2    1    2    0    0 -0.33817255675E+02 -0.43968270689E+02  0.25629347662E+03  0.27662805660E+03  0.88090407726E+02 0.  0.
         13    1    3    3    0    0  0.23472367325E+02 -0.33807003362E+02  0.67358039437E+02  0.78936499675E+02  0.00000000000E+00 0. -1.
        -13    1    3    3    0    0 -0.57289623000E+02 -0.10161267327E+02  0.18893543718E+03  0.19769155693E+03  0.00000000000E+00 0.  1.
         22    1    1    2    0    0  0.33817255675E+02  0.43968270689E+02  0.14463496622E+03  0.15490671084E+03  0.00000000000E+00 0. -1.
<mgrwt>
<rscale>  0 0.88940509E+02</rscale>
<asrwt>0</asrwt>
<pdfrwt beam="1">  1        4 0.64035623E-01 0.10409964E+03</pdfrwt>
<pdfrwt beam="2">  1       -4 0.23543330E-02 0.10409964E+03</pdfrwt>
<totfact> 0.28056741E+03</totfact>
</mgrwt>
</event>
<event>
 6    1  0.2975432E-002  0.9332451E+02  0.7546771E-02  0.1412831E+00
         -1   -1    0    0    0  501 -0.00000000000E+00  0.00000000000E+00  0.57481393507E+01  0.57481393507E+01  0.00000000000E+00 0.  1.
          1   -1    0    0  501    0  0.00000000000E+00 -0.00000000000E+00 -0.51557567167E+03  0.51557567167E+03  0.00000000000E+00 0. -1.
         23    2    1    2    0    0  0.12471243578E+02 -0.17739365903E+01 -0.47927112353E+03  0.48827274620E+03  0.92470460518E+02 0.  0.
         13    1    3    3    0    0 -0.80786668115E+01 -0.41996038874E+02 -0.31557168095E+03  0.31845630463E+03  0.00000000000E+00 0. -1.
        -13    1    3    3    0    0  0.20549910390E+02  0.40222102284E+02 -0.16369944258E+03  0.16981644158E+03  0.00000000000E+00 0.  1.
         22    1    1    2    0    0 -0.12471243578E+02  0.17739365903E+01 -0.30556408791E+02  0.33051064818E+02  0.00000000000E+00 0. -1.
<mgrwt>
<rscale>  0 0.56566806E+02</rscale>
<asrwt>0</asrwt>
<pdfrwt beam="1">  1        1 0.79319337E-01 0.93324514E+02</pdfrwt>
<pdfrwt beam="2">  1       -1 0.88432910E-03 0.93324514E+02</pdfrwt>
<totfact> 0.85154701E+04</totfact>
</mgrwt>
</event>
<event>
 6    1  0.2975432E-002  0.9814209E+02  0.7546771E-02  0.1343228E+00
         -4   -1    0    0    0  501 -0.00000000000E+00  0.00000000000E+00  0.36773600537E+03  0.36773600537E+03  0.00000000000E+00 0.  1.
          4   -1    0    0  501    0  0.00000000000E+00 -0.00000000000E+00 -0.14573557367E+02  0.14573557367E+02  0.00000000000E+00 0. -1.
         23    2    1    2    0    0  0.32618978639E+02 -0.90260204650E+01  0.17215026833E+03  0.19816050354E+03  0.92121677497E+02 0.  0.
         13    1    3    3    0    0  0.13700954784E+02 -0.29246122790E+02  0.10212680402E+02  0.33872565614E+02  0.00000000000E+00 0. -1.
        -13    1    3    3    0    0  0.18918023855E+02  0.20220102325E+02  0.16193758793E+03  0.16428793793E+03  0.00000000000E+00 0.  1.
         22    1    1    2    0    0 -0.32618978639E+02  0.90260204650E+01  0.18101217967E+03  0.18414905920E+03  0.00000000000E+00 0. -1.
<mgrwt>
<rscale>  0 0.75208045E+02</rscale>
<asrwt>0</asrwt>
<pdfrwt beam="1">  1        4 0.22420860E-02 0.98142092E+02</pdfrwt>
<pdfrwt beam="2">  1       -4 0.56574763E-01 0.98142092E+02</pdfrwt>
<totfact> 0.38570574E+03</totfact>
</mgrwt>
</event>
<event>
 6    1  0.2975432E-002  0.9129516E+02  0.7546771E-02  0.1423644E+00
          2   -1    0    0  501    0  0.00000000000E+00  0.00000000000E+00  0.74774048982E+03  0.74774048982E+03  0.00000000000E+00 0. -1.
         -2   -1    0    0    0  501 -0.00000000000E+00 -0.00000000000E+00 -0.10746585954E+02  0.10746585954E+02  0.00000000000E+00 0.  1.
         23    2    1    2    0    0  0.81130534237E+01  0.79931375093E+01  0.74085678191E+03  0.74646070019E+03  0.90581972491E+02 0.  0.
         13    1    3    3    0    0 -0.28878150708E+02 -0.25113412299E+02  0.42585731138E+03  0.42757347991E+03  0.00000000000E+00 0. -1.
        -13    1    3    3    0    0  0.36991204132E+02  0.33106549808E+02  0.31499947053E+03  0.31888722028E+03  0.00000000000E+00 0.  1.
         22    1    1    2    0    0 -0.81130534237E+01 -0.79931375093E+01 -0.38628780395E+01  0.12026375591E+02  0.00000000000E+00 0.  1.
<mgrwt>
<rscale>  0 0.54257312E+02</rscale>
<asrwt>0</asrwt>
<pdfrwt beam="1">  1        2 0.11503696E+00 0.91295157E+02</pdfrwt>
<pdfrwt beam="2">  1       -2 0.16533215E-02 0.91295157E+02</pdfrwt>
<totfact> 0.35630989E+04</totfact>
</mgrwt>
</event>
<event>
 6    1  0.2975432E-002  0.1000989E+03  0.7546771E-02  0.1322811E+00
          2   -1    0    0  501    0  0.00000000000E+00  0.00000000000E+00  0.38138857233E+03  0.38138857233E+03  0.00000000000E+00 0. -1.
         -2   -1    0    0    0  501 -0.00000000000E+00 -0.00000000000E+00 -0.27177560496E+02  0.27177560496E+02  0.00000000000E+00 0.  1.
         23    2    1    2    0    0  0.10120514671E+02 -0.44472223615E+02  0.34851192924E+03  0.36260220096E+03  0.89104364782E+02 0.  0.
         11    1    3    3    0    0  0.94461338002E+01 -0.22835063899E+02  0.33733591055E+03  0.33823983523E+03  0.00000000000E+00 0. -1.
        -11    1    3    3    0    0  0.67438087046E+00 -0.21637159717E+02  0.11176018693E+02  0.24362365730E+02  0.00000000000E+00 0.  1.
         22    1    1    2    0    0 -0.10120514671E+02  0.44472223615E+02  0.56990825913E+01  0.45963931869E+02  0.00000000000E+00 0.  1.
<mgrwt>
<rscale>  0 0.82240403E+02</rscale>
<asrwt>0</asrwt>
<pdfrwt beam="1">  1        2 0.58675161E-01 0.10009891E+03</pdfrwt>
<pdfrwt beam="2">  1       -2 0.41811634E-02 0.10009891E+03</pdfrwt>
<totfact> 0.19684771E+04</totfact>
</mgrwt>
</event>
<event>
 6    1  0.2975432E-002  0.9162568E+02  0.7546771E-02  0.1405745E+00
          1   -1    0    0  501    0  0.00000000000E+00  0.00000000000E+00  0.56378640929E+03  0.56378640929E+03  0.00000000000E+00 0. -1.
         -1   -1    0    0    0  501 -0.00000000000E+00 -0.00000000000E+00 -0.56486643577E+01  0.56486643577E+01  0.00000000000E+00 0.  1.
         23    2    1    2    0    0 -0.83454945032E+01  0.12305675376E+02  0.52728269370E+03  0.53518436400E+03  0.90411213171E+02 0.  0.
         11    1    3    3    0    0  0.13027706607E+02 -0.18957023304E+02  0.43256961848E+03  0.43318075293E+03  0.00000000000E+00 0. -1.
        -11    1    3    3    0    0 -0.21373201110E+02  0.31262698680E+02  0.94713075222E+02  0.10200361108E+03  0.00000000000E+00 0.  1.
         22    1    1    2    0    0  0.83454945032E+01 -0.12305675376E+02  0.30855051231E+02  0.34250709648E+02  0.00000000000E+00 0. -1.
<mgrwt>
<rscale>  0 0.58154164E+02</rscale>
<asrwt>0</asrwt>
<pdfrwt beam="1">  1        1 0.86736326E-01 0.91625675E+02</pdfrwt>
<pdfrwt beam="2">  1       -1 0.86902573E-03 0.91625675E+02</pdfrwt>
<totfact> 0.77461796E+04</totfact>
</mgrwt>
</event>
<event>
 6    1  0.2975432E-002  0.9420585E+02  0.7546771E-02  0.1395119E+00
         -1   -1    0    0    0  501 -0.00000000000E+00  0.00000000000E+00  0.77928477039E+01  0.77928477039E+01  0.00000000000E+00 0.  1.
          1   -1    0    0  501    0  0.00000000000E+00 -0.00000000000E+00 -0.44329880517E+03  0.44329880517E+03  0.00000000000E+00 0. -1.
         23    2    1    2    0    0  0.49263967752E+01  0.15417387636E+02 -0.41145450054E+03  0.42210134748E+03  0.92805044582E+02 0.  0.
         11    1    3    3    0    0  0.95287712301E+01  0.26908076871E+02 -0.40834117326E+03  0.40933770394E+03  0.00000000000E+00 0. -1.
        -11    1    3    3    0    0 -0.46023744548E+01 -0.11490689235E+02 -0.31133272795E+01  0.12763643542E+02  0.00000000000E+00 0.  1.
         22    1    1    2    0    0 -0.49263967752E+01 -0.15417387636E+02 -0.24051456918E+02  0.28990305390E+02  0.00000000000E+00 0.  1.
<mgrwt>
<rscale>  0 0.60651123E+02</rscale>
<asrwt>0</asrwt>
<pdfrwt beam="1">  1        1 0.68199824E-01 0.94205847E+02</pdfrwt>
<pdfrwt beam="2">  1       -1 0.11988995E-02 0.94205847E+02</pdfrwt>
<totfact> 0.67267716E+04</totfact>
</mgrwt>
</event>
<event>
 6    1  0.2975432E-002  0.9267933E+02  0.7546771E-02  0.1402253E+00
          1   -1    0    0  501    0  0.00000000000E+00  0.00000000000E+00  0.10702389718E+02  0.10702389718E+02  0.00000000000E+00 0. -1.
         -1   -1    0    0    0  501 -0.00000000000E+00 -0.00000000000E+00 -0.28597050880E+03  0.28597050880E+03  0.00000000000E+00 0.  1.
         23    2    1    2    0    0  0.14694861370E+02  0.38041743807E+01 -0.20800208680E+03  0.22771544937E+03  0.91427824416E+02 0.  0.
         13    1    3    3    0    0  0.29999714703E+02 -0.19401551120E+02 -0.27498912500E+02  0.45084290577E+02  0.00000000000E+00 0. -1.
        -13    1    3    3    0    0 -0.15304853333E+02  0.23205725501E+02 -0.18050317430E+03  0.18263115880E+03  0.00000000000E+00 0.  1.
         22    1    1    2    0    0 -0.14694861370E+02 -0.38041743807E+01 -0.67266032287E+02  0.68957449148E+02  0.00000000000E+00 0. -1.
<mgrwt>
<rscale>  0 0.58958983E+02</rscale>
<asrwt>0</asrwt>
<pdfrwt beam="1">  1        1 0.16465217E-02 0.92679328E+02</pdfrwt>
<pdfrwt beam="2">  1       -1 0.43995458E-01 0.92679328E+02</pdfrwt>
<totfact> 0.36212326E+04</totfact>
</mgrwt>
</event>
<event>
 6    1  0.2975432E-002  0.9441728E+02  0.7546771E-02  0.1366151E+00
          4   -1    0    0  501    0  0.00000000000E+00  0.00000000000E+00  0.44329595488E+02  0.44329595488E+02  0.00000000000E+00 0. -1.
         -4   -1    0    0    0  501 -0.00000000000E+00 -0.00000000000E+00 -0.81591198553E+02  0.81591198553E+02  0.00000000000E+00 0.  1.
         23    2    1    2    0    0 -0.23303406031E+02 -0.11017911821E+02 -0.31224962781E+02  0.99446577538E+02  0.90830503520E+02 0.  0.
         13    1    3    3    0    0 -0.40518018698E+02  0.73768533838E+01  0.17379355380E+02  0.44700892592E+02  0.00000000000E+00 0. -1.
        -13    1    3    3    0    0  0.17214612667E+02 -0.18394765205E+02 -0.48604318161E+02  0.54745684946E+02  0.00000000000E+00 0.  1.
         22    1    1    2    0    0  0.23303406031E+02  0.11017911821E+02 -0.60366402846E+01  0.26474216503E+02  0.00000000000E+00 0. -1.
<mgrwt>
<rscale>  0 0.68248931E+02</rscale>
<asrwt>0</asrwt>
<pdfrwt beam="1">  1        4 0.68199378E-02 0.94417284E+02</pdfrwt>
<pdfrwt beam="2">  1       -4 0.12552492E-01 0.94417284E+02</pdfrwt>
<totfact> 0.10852720E+04</totfact>
</mgrwt>
</event>
<event>
 6    1  0.2975432E-002  0.1020007E+03  0.7546771E-02  0.1328535E+00
          2   -1    0    0  501    0  0.00000000000E+00  0.00000000000E+00  0.14733721630E+04  0.14733721630E+04  0.00000000000E+00 0. -1.
         -2   -1    0    0    0  501 -0.00000000000E+00 -0.00000000000E+00 -0.14351186228E+02  0.14351186228E+02  0.00000000000E+00 0.  1.
         23    2    1    2    0    0 -0.63928623340E+00 -0.38944671990E+02  0.14413460214E+04  0.14449506920E+04  0.94271165575E+02 0.  0.
         13    1    3    3    0    0  0.15487935689E+02 -0.23404322063E+02  0.11358556353E+03  0.11700136189E+03  0.00000000000E+00 0.  1.
        -13    1    3    3    0    0 -0.16127221922E+02 -0.15540349927E+02  0.13277604579E+04  0.13279493301E+04  0.00000000000E+00 0. -1.
         22    1    1    2    0    0  0.63928623340E+00  0.38944671990E+02  0.17674955410E+02  0.42772657295E+02  0.00000000000E+00 0.  1.
<mgrwt>
<rscale>  0 0.80182408E+02</rscale>
<asrwt>0</asrwt>
<pdfrwt beam="1">  1        2 0.22667252E+00 0.10200073E+03</pdfrwt>
<pdfrwt beam="2">  1       -2 0.22078760E-02 0.10200073E+03</pdfrwt>
<totfact> 0.90778171E+03</totfact>
</mgrwt>
</event>
<event>
 6    1  0.2975432E-002  0.9199262E+02  0.7546771E-02  0.1422111E+00
          4   -1    0    0  501    0  0.00000000000E+00  0.00000000000E+00  0.70250016245E+01  0.70250016245E+01  0.00000000000E+00 0. -1.
         -4   -1    0    0    0  501 -0.00000000000E+00 -0.00000000000E+00 -0.38987730504E+03  0.38987730504E+03  0.00000000000E+00 0.  1.
         23    2    1    2    0    0  0.88561550640E+01 -0.71729071896E+01 -0.31728612378E+03  0.33035303175E+03  0.91283947991E+02 0.  0.
         13    1    3    3    0    0 -0.14753645078E+02  0.56988948655E+01 -0.29501122573E+03  0.29543488411E+03  0.00000000000E+00 0.  1.
        -13    1    3    3    0    0  0.23609800142E+02 -0.12871802055E+02 -0.22274898053E+02  0.34918147634E+02  0.00000000000E+00 0. -1.
         22    1    1    2    0    0 -0.88561550640E+01  0.71729071896E+01 -0.65566179636E+02  0.66549274918E+02  0.00000000000E+00 0. -1.
<mgrwt>
<rscale>  0 0.54576839E+02</rscale>
<asrwt>0</asrwt>
<pdfrwt beam="1">  1        4 0.10807693E-02 0.91992615E+02</pdfrwt>
<pdfrwt beam="2">  1       -4 0.59981132E-01 0.91992615E+02</pdfrwt>
<totfact> 0.10141173E+04</totfact>
</mgrwt>
</event>
<event>
 6    1  0.2975432E-002  0.9579869E+02  0.7546771E-02  0.1352171E+00
         -1   -1    0    0    0  501 -0.00000000000E+00  0.00000000000E+00  0.10214847534E+03  0.10214847534E+03  0.00000000000E+00 0.  1.
          1   -1    0    0  501    0  0.00000000000E+00 -0.00000000000E+00 -0.45218989480E+02  0.45218989480E+02  0.00000000000E+00 0. -1.
         23    2    1    2    0    0 -0.20026993748E+01  0.31158796135E+02  0.18019101402E+02  0.97478594317E+02  0.90567692658E+02 0.  0.
         13    1    3    3    0    0 -0.31287047283E+02 -0.11726046165E+02  0.29183102127E+02  0.44362517243E+02  0.00000000000E+00 0.  1.
        -13    1    3    3    0    0  0.29284347909E+02  0.42884842300E+02 -0.11164000725E+02  0.53116077074E+02  0.00000000000E+00 0. -1.
         22    1    1    2    0    0  0.20026993748E+01 -0.31158796135E+02  0.38910384462E+02  0.49888870506E+02  0.00000000000E+00 0. -1.
<mgrwt>
<rscale>  0 0.72383343E+02</rscale>
<asrwt>0</asrwt>
<pdfrwt beam="1">  1        1 0.69567677E-02 0.95798686E+02</pdfrwt>
<pdfrwt beam="2">  1       -1 0.15715150E-01 0.95798686E+02</pdfrwt>
<totfact> 0.27682387E+04</totfact>
</mgrwt>
</event>
<event>
 6    1  0.2975432E-002  0.9782143E+02  0.7546771E-02  0.1336564E+00
          2   -1    0    0  501    0  0.00000000000E+00  0.00000000000E+00  0.99062245592E+02  0.99062245592E+02  0.00000000000E+00 0. -1.
         -2   -1    0    0    0  501 -0.00000000000E+00 -0.00000000000E+00 -0.11339565799E+03  0.11339565799E+03  0.00000000000E+00 0.  1.
         23    2    1    2    0    0 -0.27347400284E+02  0.26903296027E+02  0.69679313775E+02  0.12010095583E+03  0.89985360938E+02 0.  0.
         11    1    3    3    0    0 -0.40944912842E+02  0.41302927762E+01  0.81316440486E+02  0.91136758223E+02  0.00000000000E+00 0. -1.
        -11    1    3    3    0    0  0.13597512558E+02  0.22773003251E+02 -0.11637126711E+02  0.28964197605E+02  0.00000000000E+00 0.  1.
         22    1    1    2    0    0  0.27347400284E+02 -0.26903296027E+02 -0.84012726178E+02  0.92356947758E+02  0.00000000000E+00 0.  1.
<mgrwt>
<rscale>  0 0.77410832E+02</rscale>
<asrwt>0</asrwt>
<pdfrwt beam="1">  1        2 0.15240346E-01 0.97821433E+02</pdfrwt>
<pdfrwt beam="2">  1       -2 0.17445486E-01 0.97821433E+02</pdfrwt>
<totfact> 0.92847945E+03</totfact>
</mgrwt>
</event>
<event>
 6    1  0.2975432E-002  0.9602669E+02  0.7546771E-02  0.1399765E+00
         -4   -1    0    0    0  501 -0.00000000000E+00  0.00000000000E+00  0.73625819510E+01  0.73625819510E+01  0.00000000000E+00 0.  1.
          4   -1    0    0  501    0  0.00000000000E+00 -0.00000000000E+00 -0.41283254028E+03  0.41283254028E+03  0.00000000000E+00 0. -1.
         23    2    1    2    0    0 -0.69979107805E+01  0.12349353449E+02 -0.34922305944E+03  0.36218485659E+03  0.94971826389E+02 0.  0.
         13    1    3    3    0    0 -0.22450882592E+02 -0.14571652752E+02 -0.31439236108E+03  0.31552960542E+03  0.00000000000E+00 0. -1.
        -13    1    3    3    0    0  0.15452971811E+02  0.26921006201E+02 -0.34830698365E+02  0.46655251165E+02  0.00000000000E+00 0.  1.
         22    1    1    2    0    0  0.69979107805E+01 -0.12349353449E+02 -0.56246898885E+02  0.58010265644E+02  0.00000000000E+00 0. -1.
<mgrwt>
<rscale>  0 0.59541837E+02</rscale>
<asrwt>0</asrwt>
<pdfrwt beam="1">  1        4 0.63512718E-01 0.96026689E+02</pdfrwt>
<pdfrwt beam="2">  1       -4 0.11327046E-02 0.96026689E+02</pdfrwt>
<totfact> 0.84907495E+03</totfact>
</mgrwt>
</event>
<event>
 6    1  0.2975432E-002  0.9670939E+02  0.7546771E-02  0.1358888E+00
          2   -1    0    0  501    0  0.00000000000E+00  0.00000000000E+00  0.30878938083E+02  0.30878938083E+02  0.00000000000E+00 0. -1.
         -2   -1    0    0    0  501 -0.00000000000E+00 -0.00000000000E+00 -0.13574521825E+03  0.13574521825E+03  0.00000000000E+00 0.  1.
         23    2    1    2    0    0  0.17559196134E+02  0.20627137288E+02 -0.58795448962E+02  0.11317955277E+03  0.92838042774E+02 0.  0.
         13    1    3    3    0    0  0.18837322534E+02 -0.79333270921E-01  0.22462110660E+02  0.29315481053E+02  0.00000000000E+00 0. -1.
        -13    1    3    3    0    0 -0.12781263997E+01  0.20706470559E+02 -0.81257559622E+02  0.83864071722E+02  0.00000000000E+00 0.  1.
         22    1    1    2    0    0 -0.17559196134E+02 -0.20627137288E+02 -0.46070831203E+02  0.53444603557E+02  0.00000000000E+00 0.  1.
<mgrwt>
<rscale>  0 0.70355655E+02</rscale>
<asrwt>0</asrwt>
<pdfrwt beam="1">  1        2 0.47506059E-02 0.96709391E+02</pdfrwt>
<pdfrwt beam="2">  1       -2 0.20883880E-01 0.96709391E+02</pdfrwt>
<totfact> 0.28885429E+04</totfact>
</mgrwt>
</event>
<event>
 6    1  0.2975432E-002  0.9026660E+02  0.7546771E-02  0.1400823E+00
          2   -1    0    0  501    0  0.00000000000E+00  0.00000000000E+00  0.22633010964E+03  0.22633010964E+03  0.00000000000E+00 0. -1.
         -2   -1    0    0    0  501 -0.00000000000E+00 -0.00000000000E+00 -0.15219666935E+02  0.15219666935E+02  0.00000000000E+00 0.  1.
         23    2    1    2    0    0 -0.90340737684E+01  0.14169812860E+02  0.20441902614E+03  0.22346184853E+03  0.88688564175E+02 0.  0.
         13    1    3    3    0    0 -0.46739778474E+02 -0.33065985377E+00  0.80057500730E+02  0.92703396113E+02  0.00000000000E+00 0.  1.
        -13    1    3    3    0    0  0.37705704706E+02  0.14500472713E+02  0.12436152541E+03  0.13075845242E+03  0.00000000000E+00 0. -1.
         22    1    1    2    0    0  0.90340737684E+01 -0.14169812860E+02  0.66914165675E+01  0.18087928046E+02  0.00000000000E+00 0.  1.
<mgrwt>
<rscale>  0 0.59292948E+02</rscale>
<asrwt>0</asrwt>
<pdfrwt beam="1">  1        2 0.34820014E-01 0.90266602E+02</pdfrwt>
<pdfrwt beam="2">  1       -2 0.23414874E-02 0.90266602E+02</pdfrwt>
<totfact> 0.78318760E+04</totfact>
</mgrwt>
</event>
<event>
 6    1  0.2975432E-002  0.8275607E+02  0.7546771E-02  0.1405275E+00
          2   -1    0    0  501    0  0.00000000000E+00  0.00000000000E+00  0.25439861812E+04  0.25439861812E+04  0.00000000000E+00 0. -1.
         -2   -1    0    0    0  501 -0.00000000000E+00 -0.00000000000E+00 -0.23132134032E+01  0.23132134032E+01  0.00000000000E+00 0.  1.
         23    2    1    2    0    0 -0.80162356357E+01 -0.18682495745E+02  0.24796305628E+04  0.24810111437E+04  0.80220145707E+02 0.  0.
         13    1    3    3    0    0  0.20309222640E+02 -0.14162535225E+02  0.21479225868E+04  0.21480652878E+04  0.00000000000E+00 0. -1.
        -13    1    3    3    0    0 -0.28325458276E+02 -0.45199605202E+01  0.33170797604E+03  0.33294585595E+03  0.00000000000E+00 0.  1.
         22    1    1    2    0    0  0.80162356357E+01  0.18682495745E+02  0.62042404973E+02  0.65288250825E+02  0.00000000000E+00 0. -1.
<mgrwt>
<rscale>  0 0.58261614E+02</rscale>
<asrwt>0</asrwt>
<pdfrwt beam="1">  1        2 0.39138025E+00 0.82756072E+02</pdfrwt>
<pdfrwt beam="2">  1       -2 0.35588102E-03 0.82756072E+02</pdfrwt>
<totfact> 0.33854310E+04</totfact>
</mgrwt>
</event>
<event>
 6    1  0.2975432E-002  0.9359186E+02  0.7546771E-02  0.1371154E+00
          2   -1    0    0  501    0  0.00000000000E+00  0.00000000000E+00  0.24250653505E+03  0.24250653505E+03  0.00000000000E+00 0. -1.
         -2   -1    0    0    0  501 -0.00000000000E+00 -0.00000000000E+00 -0.14446771774E+02  0.14446771774E+02  0.00000000000E+00 0.  1.
         23    2    1    2    0    0 -0.49024166876E+01 -0.23858506297E+02  0.18936101233E+03  0.21122743519E+03  0.90366887592E+02 0.  0.
         13    1    3    3    0    0  0.33948850090E+02 -0.39151094284E+02  0.10697934246E+03  0.11886930772E+03  0.00000000000E+00 0.  1.
        -13    1    3    3    0    0 -0.38851266778E+02  0.15292587988E+02  0.82381669876E+02  0.92358127467E+02  0.00000000000E+00 0. -1.
         22    1    1    2    0    0  0.49024166876E+01  0.23858506297E+02  0.38698750946E+02  0.45725871636E+02  0.00000000000E+00 0.  1.
<mgrwt>
<rscale>  0 0.66847378E+02</rscale>
<asrwt>0</asrwt>
<pdfrwt beam="1">  1        2 0.37308695E-01 0.93591861E+02</pdfrwt>
<pdfrwt beam="2">  1       -2 0.22225805E-02 0.93591861E+02</pdfrwt>
<totfact> 0.78906168E+04</totfact>
</mgrwt>
</event>
<event>
 6    1  0.2975432E-002  0.9513243E+02  0.7546771E-02  0.1395019E+00
         -2   -1    0    0    0  501 -0.00000000000E+00  0.00000000000E+00  0.37084069600E+02  0.37084069600E+02  0.00000000000E+00 0.  1.
          2   -1    0    0  501    0  0.00000000000E+00 -0.00000000000E+00 -0.88361568891E+02  0.88361568891E+02  0.00000000000E+00 0. -1.
         23    2    1    2    0    0  0.15061479914E+02 -0.45789411054E+01 -0.54119423184E+02  0.10944903228E+03  0.93820913566E+02 0.  0.
         11    1    3    3    0    0  0.41298071746E+02  0.12614223750E+02 -0.63425354724E+02  0.76729557490E+02  0.00000000000E+00 0. -1.
        -11    1    3    3    0    0 -0.26236591832E+02 -0.17193164855E+02  0.93059315398E+01  0.32719474790E+02  0.00000000000E+00 0.  1.
         22    1    1    2    0    0 -0.15061479914E+02  0.45789411054E+01  0.28419238926E+01  0.15996606211E+02  0.00000000000E+00 0.  1.
<mgrwt>
<rscale>  0 0.60675359E+02</rscale>
<asrwt>0</asrwt>
<pdfrwt beam="1">  1        2 0.13594087E-01 0.95132427E+02</pdfrwt>
<pdfrwt beam="2">  1       -2 0.57052415E-02 0.95132427E+02</pdfrwt>
<totfact> 0.60637617E+04</totfact>
</mgrwt>
</event>
<event>
 6    1  0.2975432E-002  0.9215270E+02  0.7546771E-02  0.1399578E+00
         -2   -1    0    0    0  501 -0.00000000000E+00  0.00000000000E+00  0.62245442124E+01  0.62245442124E+01  0.00000000000E+00 0.  1.
          2   -1    0    0  501    0  0.00000000000E+00 -0.00000000000E+00 -0.51019077115E+03  0.51019077115E+03  0.00000000000E+00 0. -1.
         23    2    1    2    0    0  0.41546551636E+01 -0.15563115728E+02 -0.46829173985E+03  0.47727274570E+03  0.90733943194E+02 0.  0.
         11    1    3    3    0    0 -0.11320582024E+02 -0.29766501776E+02 -0.55813364591E+02  0.64259877625E+02  0.00000000000E+00 0.  1.
        -11    1    3    3    0    0  0.15475237187E+02  0.14203386048E+02 -0.41247837526E+03  0.41301286808E+03  0.00000000000E+00 0. -1.
         22    1    1    2    0    0 -0.41546551636E+01  0.15563115728E+02 -0.35674487092E+02  0.39142569665E+02  0.00000000000E+00 0.  1.
<mgrwt>
<rscale>  0 0.59585736E+02</rscale>
<asrwt>0</asrwt>
<pdfrwt beam="1">  1        2 0.78490892E-01 0.92152700E+02</pdfrwt>
<pdfrwt beam="2">  1       -2 0.95762213E-03 0.92152700E+02</pdfrwt>
<totfact> 0.11949426E+05</totfact>
</mgrwt>
</event>
<event>
 6    1  0.2975432E-002  0.9439460E+02  0.7546771E-02  0.1365774E+00
          1   -1    0    0  501    0  0.00000000000E+00  0.00000000000E+00  0.28187702431E+03  0.28187702431E+03  0.00000000000E+00 0. -1.
         -1   -1    0    0    0  501 -0.00000000000E+00 -0.00000000000E+00 -0.38602478051E+02  0.38602478051E+02  0.00000000000E+00 0.  1.
         23    2    1    2    0    0  0.22327995438E+02 -0.13239241772E+02  0.26830114209E+03  0.28442194557E+03  0.90755293905E+02 0.  0.
         11    1    3    3    0    0 -0.41518200481E+01  0.20277978069E+01  0.24728522598E+03  0.24732839013E+03  0.00000000000E+00 0. -1.
        -11    1    3    3    0    0  0.26479815486E+02 -0.15267039579E+02  0.21015916113E+02  0.37093555448E+02  0.00000000000E+00 0.  1.
         22    1    1    2    0    0 -0.22327995438E+02  0.13239241772E+02 -0.25026595830E+02  0.36057556792E+02  0.00000000000E+00 0.  1.
<mgrwt>
<rscale>  0 0.68356229E+02</rscale>
<asrwt>0</asrwt>
<pdfrwt beam="1">  1        1 0.43365695E-01 0.94394599E+02</pdfrwt>
<pdfrwt beam="2">  1       -1 0.59388429E-02 0.94394599E+02</pdfrwt>
<totfact> 0.11749738E+04</totfact>
</mgrwt>
</event>
<event>
 6    1  0.2975432E-002  0.9697737E+02  0.7546771E-02  0.1351813E+00
          1   -1    0    0  501    0  0.00000000000E+00  0.00000000000E+00  0.21997374047E+03  0.21997374047E+03  0.00000000000E+00 0. -1.
         -1   -1    0    0    0  501 -0.00000000000E+00 -0.00000000000E+00 -0.20764004472E+02  0.20764004472E+02  0.00000000000E+00 0.  1.
         23    2    1    2    0    0 -0.30254774270E+02 -0.12857600386E+01  0.18116189420E+03  0.20548538135E+03  0.92128201408E+02 0.  0.
         11    1    3    3    0    0 -0.19870409135E+02 -0.20097673624E+02  0.18180441903E+03  0.18398803337E+03  0.00000000000E+00 0. -1.
        -11    1    3    3    0    0 -0.10384365135E+02  0.18811913585E+02 -0.64252483425E+00  0.21497347979E+02  0.00000000000E+00 0.  1.
         22    1    1    2    0    0  0.30254774270E+02  0.12857600386E+01  0.18047841795E+02  0.35252363587E+02  0.00000000000E+00 0.  1.
<mgrwt>
<rscale>  0 0.72493528E+02</rscale>
<asrwt>0</asrwt>
<pdfrwt beam="1">  1        1 0.33842112E-01 0.96977369E+02</pdfrwt>
<pdfrwt beam="2">  1       -1 0.31944624E-02 0.96977369E+02</pdfrwt>
<totfact> 0.39432933E+04</totfact>
</mgrwt>
</event>
<event>
 6    1  0.2975432E-002  0.8482656E+02  0.7546771E-02  0.1422720E+00
          3   -1    0    0  501    0  0.00000000000E+00  0.00000000000E+00  0.39663775079E+02  0.39663775079E+02  0.00000000000E+00 0. -1.
         -3   -1    0    0    0  501 -0.00000000000E+00 -0.00000000000E+00 -0.74662507419E+02  0.74662507419E+02  0.00000000000E+00 0.  1.
         23    2    1    2    0    0 -0.12438601739E+02 -0.72564989947E+01 -0.99167009418E+01  0.85404251278E+02  0.83595272521E+02 0.  0.
         11    1    3    3    0    0  0.29155392802E+02 -0.11820632939E+02  0.16892594503E+02  0.35708879030E+02  0.00000000000E+00 0.  1.
        -11    1    3    3    0    0 -0.41593994541E+02  0.45641339438E+01 -0.26809295445E+02  0.49695372248E+02  0.00000000000E+00 0. -1.
         22    1    1    2    0    0  0.12438601739E+02  0.72564989947E+01 -0.25082031398E+02  0.28922031221E+02  0.00000000000E+00 0.  1.
<mgrwt>
<rscale>  0 0.54449462E+02</rscale>
<asrwt>0</asrwt>
<pdfrwt beam="1">  1        3 0.61021193E-02 0.84826559E+02</pdfrwt>
<pdfrwt beam="2">  1       -3 0.11486540E-01 0.84826559E+02</pdfrwt>
<totfact> 0.19410213E+04</totfact>
</mgrwt>
</event>
<event>
 6    1  0.2975432E-002  0.9328423E+02  0.7546771E-02  0.1408255E+00
          1   -1    0    0  501    0  0.00000000000E+00  0.00000000000E+00  0.16019688950E+03  0.16019688950E+03  0.00000000000E+00 0. -1.
         -1   -1    0    0    0  501 -0.00000000000E+00 -0.00000000000E+00 -0.19082629466E+02  0.19082629466E+02  0.00000000000E+00 0.  1.
         23    2    1    2    0    0 -0.82898880020E+01  0.10713254876E+02  0.13574579637E+03  0.16470843544E+03  0.92295457080E+02 0.  0.
         11    1    3    3    0    0 -0.24521705353E+01  0.33300393316E+02  0.73234061373E+01  0.34184230470E+02  0.00000000000E+00 0.  1.
        -11    1    3    3    0    0 -0.58377174667E+01 -0.22587138440E+02  0.12842239024E+03  0.13052420497E+03  0.00000000000E+00 0. -1.
         22    1    1    2    0    0  0.82898880020E+01 -0.10713254876E+02  0.53684636578E+01  0.14571083528E+02  0.00000000000E+00 0.  1.
<mgrwt>
<rscale>  0 0.57585020E+02</rscale>
<asrwt>0</asrwt>
<pdfrwt beam="1">  1        1 0.24645674E-01 0.93284229E+02</pdfrwt>
<pdfrwt beam="2">  1       -1 0.29357892E-02 0.93284229E+02</pdfrwt>
<totfact> 0.65505949E+04</totfact>
</mgrwt>
</event>
<event>
 6    1  0.2975432E-002  0.9258709E+02  0.7546771E-02  0.1406905E+00
         -2   -1    0    0    0  501 -0.00000000000E+00  0.00000000000E+00  0.30736094298E+02  0.30736094298E+02  0.00000000000E+00 0. -1.
          2   -1    0    0  501    0  0.00000000000E+00 -0.00000000000E+00 -0.23076344705E+03  0.23076344705E+03  0.00000000000E+00 0.  1.
         23    2    1    2    0    0 -0.13412709094E+02 -0.45095601240E+01 -0.21903689222E+03  0.23780145095E+03  0.91499360763E+02 0.  0.
         11    1    3    3    0    0 -0.18593946851E+02  0.13843660751E+02 -0.21743115772E+03  0.21866341749E+03  0.00000000000E+00 0.  1.
        -11    1    3    3    0    0  0.51812377571E+01 -0.18353220875E+02 -0.16057345036E+01  0.19138033454E+02  0.00000000000E+00 0. -1.
         22    1    1    2    0    0  0.13412709094E+02  0.45095601240E+01  0.19009539471E+02  0.23698090401E+02  0.00000000000E+00 0. -1.
<mgrwt>
<rscale>  0 0.57890307E+02</rscale>
<asrwt>0</asrwt>
<pdfrwt beam="1">  1        2 0.35502069E-01 0.92587094E+02</pdfrwt>
<pdfrwt beam="2">  1       -2 0.47286299E-02 0.92587094E+02</pdfrwt>
<totfact> 0.27578056E+04</totfact>
</mgrwt>
</event>
<event>
 6    1  0.2975432E-002  0.1259349E+03  0.7546771E-02  0.1251930E+00
          1   -1    0    0  501    0  0.00000000000E+00  0.00000000000E+00  0.16740901076E+03  0.16740901076E+03  0.00000000000E+00 0. -1.
         -1   -1    0    0    0  501 -0.00000000000E+00 -0.00000000000E+00 -0.71722405259E+02  0.71722405259E+02  0.00000000000E+00 0.  1.
         23    2    1    2    0    0 -0.41975649446E+02 -0.76161352106E+02  0.84018971175E+02  0.15138951957E+03  0.91088376967E+02 0.  0.
         13    1    3    3    0    0 -0.56420575859E+02 -0.99759677290E+01  0.29567746121E+02  0.64475211695E+02  0.00000000000E+00 0. -1.
        -13    1    3    3    0    0  0.14444926413E+02 -0.66185384377E+02  0.54451225053E+02  0.86914307878E+02  0.00000000000E+00 0.  1.
         22    1    1    2    0    0  0.41975649446E+02  0.76161352106E+02  0.11667634324E+02  0.87741896445E+02  0.00000000000E+00 0.  1.
<mgrwt>
<rscale>  0 0.11480024E+03</rscale>
<asrwt>0</asrwt>
<pdfrwt beam="1">  1        1 0.25755232E-01 0.12593490E+03</pdfrwt>
<pdfrwt beam="2">  1       -1 0.11034216E-01 0.12593490E+03</pdfrwt>
<totfact> 0.90271778E+03</totfact>
</mgrwt>
</event>
<event>
 6    1  0.2975432E-002  0.1029202E+03  0.7546771E-02  0.1312600E+00
          1   -1    0    0  501    0  0.00000000000E+00  0.00000000000E+00  0.20231689951E+03  0.20231689951E+03  0.00000000000E+00 0. -1.
         -1   -1    0    0    0  501 -0.00000000000E+00 -0.00000000000E+00 -0.34512081552E+02  0.34512081552E+02  0.00000000000E+00 0.  1.
         23    2    1    2    0    0  0.35814676290E+01 -0.50264580733E+02  0.15283900095E+03  0.18426158941E+03  0.89739724393E+02 0.  0.
         11    1    3    3    0    0 -0.73424676504E+01 -0.65312313708E+02  0.15205389050E+03  0.16565022116E+03  0.00000000000E+00 0. -1.
        -11    1    3    3    0    0  0.10923935279E+02  0.15047732975E+02  0.78511044479E+00  0.18611368249E+02  0.00000000000E+00 0.  1.
         22    1    1    2    0    0 -0.35814676290E+01  0.50264580733E+02  0.14965817012E+02  0.52567391656E+02  0.00000000000E+00 0.  1.
<mgrwt>
<rscale>  0 0.86092631E+02</rscale>
<asrwt>0</asrwt>
<pdfrwt beam="1">  1        1 0.31125676E-01 0.10292023E+03</pdfrwt>
<pdfrwt beam="2">  1       -1 0.53095511E-02 0.10292023E+03</pdfrwt>
<totfact> 0.20980055E+04</totfact>
</mgrwt>
</event>
<event>
 6    1  0.2975432E-002  0.9491535E+02  0.7546771E-02  0.1401092E+00
          4   -1    0    0  501    0  0.00000000000E+00  0.00000000000E+00  0.14675838206E+02  0.14675838206E+02  0.00000000000E+00 0. -1.
         -4   -1    0    0    0  501 -0.00000000000E+00 -0.00000000000E+00 -0.21624425892E+03  0.21624425892E+03  0.00000000000E+00 0.  1.
         23    2    1    2    0    0  0.97177249694E+01  0.10617503228E+02 -0.15108843002E+03  0.17842824048E+03  0.93817683635E+02 0.  0.
         13    1    3    3    0    0  0.24221095735E+02  0.41870226503E+02 -0.12831094573E+03  0.13712576760E+03  0.00000000000E+00 0.  1.
        -13    1    3    3    0    0 -0.14503370765E+02 -0.31252723275E+02 -0.22777484290E+02  0.41302472883E+02  0.00000000000E+00 0. -1.
         22    1    1    2    0    0 -0.97177249694E+01 -0.10617503228E+02 -0.50479990693E+02  0.52491856642E+02  0.00000000000E+00 0.  1.
<mgrwt>
<rscale>  0 0.59230040E+02</rscale>
<asrwt>0</asrwt>
<pdfrwt beam="1">  1        4 0.22578213E-02 0.94915348E+02</pdfrwt>
<pdfrwt beam="2">  1       -4 0.33268347E-01 0.94915348E+02</pdfrwt>
<totfact> 0.10811088E+04</totfact>
</mgrwt>
</event>
<event>
 6    1  0.2975432E-002  0.9545636E+02  0.7546771E-02  0.1423074E+00
         -2   -1    0    0    0  501 -0.00000000000E+00  0.00000000000E+00  0.68967229404E+02  0.68967229404E+02  0.00000000000E+00 0.  1.
          2   -1    0    0  501    0  0.00000000000E+00 -0.00000000000E+00 -0.41565797564E+02  0.41565797564E+02  0.00000000000E+00 0. -1.
         23    2    1    2    0    0 -0.10033192603E+02  0.59816453422E+00  0.18769585021E+02  0.97284195543E+02  0.94925732159E+02 0.  0.
         13    1    3    3    0    0  0.23509771116E+02  0.32963751547E+02 -0.11025992863E+02  0.41962969063E+02  0.00000000000E+00 0. -1.
        -13    1    3    3    0    0 -0.33542963719E+02 -0.32365587013E+02  0.29795577884E+02  0.55321226479E+02  0.00000000000E+00 0.  1.
         22    1    1    2    0    0  0.10033192603E+02 -0.59816453422E+00  0.86318468191E+01  0.13248831425E+02  0.00000000000E+00 0.  1.
<mgrwt>
<rscale>  0 0.54375851E+02</rscale>
<asrwt>0</asrwt>
<pdfrwt beam="1">  1        2 0.63947381E-02 0.95456364E+02</pdfrwt>
<pdfrwt beam="2">  1       -2 0.10610343E-01 0.95456364E+02</pdfrwt>
<totfact> 0.59044139E+04</totfact>
</mgrwt>
</event>
<event>
 6    1  0.2975432E-002  0.1003247E+03  0.7546771E-02  0.1326216E+00
         -2   -1    0    0    0  501 -0.00000000000E+00  0.00000000000E+00  0.23285415345E+03  0.23285415345E+03  0.00000000000E+00 0.  1.
          2   -1    0    0  501    0  0.00000000000E+00 -0.00000000000E+00 -0.26364121442E+02  0.26364121442E+02  0.00000000000E+00 0. -1.
         23    2    1    2    0    0  0.40301436780E+02 -0.13945976306E+02  0.88582531101E+02  0.13383536205E+03  0.90809378690E+02 0.  0.
         13    1    3    3    0    0  0.40942612412E+02 -0.11543487991E+02  0.10705468722E+03  0.11519659579E+03  0.00000000000E+00 0.  1.
        -13    1    3    3    0    0 -0.64117563164E+00 -0.24024883155E+01 -0.18472156116E+02  0.18638766265E+02  0.00000000000E+00 0. -1.
         22    1    1    2    0    0 -0.40301436780E+02  0.13945976306E+02  0.11790750091E+03  0.12538291284E+03  0.00000000000E+00 0.  1.
<mgrwt>
<rscale>  0 0.81007610E+02</rscale>
<asrwt>0</asrwt>
<pdfrwt beam="1">  1        2 0.40560188E-02 0.10032467E+03</pdfrwt>
<pdfrwt beam="2">  1       -2 0.35823715E-01 0.10032467E+03</pdfrwt>
<totfact> 0.13787293E+04</totfact>
</mgrwt>
</event>
<event>
 6    1  0.2975432E-002  0.1147931E+03  0.7546771E-02  0.1274184E+00
          4   -1    0    0  501    0  0.00000000000E+00  0.00000000000E+00  0.46753787597E+03  0.46753787597E+03  0.00000000000E+00 0.  1.
         -4   -1    0    0    0  501 -0.00000000000E+00 -0.00000000000E+00 -0.40703116817E+02  0.40703116817E+02  0.00000000000E+00 0. -1.
         23    2    1    2    0    0 -0.60354651605E+02 -0.43335470489E+02  0.41792966235E+03  0.43340819435E+03  0.87503218692E+02 0.  0.
         11    1    3    3    0    0 -0.17769708006E+02 -0.29776155535E+02  0.35232617735E+03  0.35402841300E+03  0.00000000000E+00 0.  1.
        -11    1    3    3    0    0 -0.42584943599E+02 -0.13559314954E+02  0.65603485001E+02  0.79379781353E+02  0.00000000000E+00 0. -1.
         22    1    1    2    0    0  0.60354651605E+02  0.43335470489E+02  0.89050967981E+01  0.74832798437E+02  0.00000000000E+00 0. -1.
<mgrwt>
<rscale>  0 0.10296406E+03</rscale>
<asrwt>0</asrwt>
<pdfrwt beam="1">  1        4 0.71928900E-01 0.11479312E+03</pdfrwt>
<pdfrwt beam="2">  1       -4 0.62620183E-02 0.11479312E+03</pdfrwt>
<totfact> 0.47765773E+02</totfact>
</mgrwt>
</event>
<event>
 6    1  0.2975432E-002  0.1052123E+03  0.7546771E-02  0.1323623E+00
          2   -1    0    0  501    0  0.00000000000E+00  0.00000000000E+00  0.57185093020E+03  0.57185093020E+03  0.00000000000E+00 0. -1.
         -2   -1    0    0    0  501 -0.00000000000E+00 -0.00000000000E+00 -0.10309235862E+02  0.10309235862E+02  0.00000000000E+00 0.  1.
         23    2    1    2    0    0  0.17837918262E+02 -0.34359695996E+02  0.48620354288E+03  0.49745705453E+03  0.97830751623E+02 0.  0.
         11    1    3    3    0    0 -0.41485115022E+01 -0.61016878425E+02  0.19909098740E+03  0.20827263590E+03  0.00000000000E+00 0.  1.
        -11    1    3    3    0    0  0.21986429765E+02  0.26657182430E+02  0.28711255548E+03  0.28918441864E+03  0.00000000000E+00 0. -1.
         22    1    1    2    0    0 -0.17837918262E+02  0.34359695996E+02  0.75338151464E+02  0.84703111530E+02  0.00000000000E+00 0. -1.
<mgrwt>
<rscale>  0 0.81944015E+02</rscale>
<asrwt>0</asrwt>
<pdfrwt beam="1">  1        2 0.87977041E-01 0.10521234E+03</pdfrwt>
<pdfrwt beam="2">  1       -2 0.15860367E-02 0.10521234E+03</pdfrwt>
<totfact> 0.52299625E+04</totfact>
</mgrwt>
</event>
<event>
 6    1  0.2975432E-002  0.9301634E+02  0.7546771E-02  0.1373417E+00
          2   -1    0    0  501    0  0.00000000000E+00  0.00000000000E+00  0.87347363616E+01  0.87347363616E+01  0.00000000000E+00 0. -1.
         -2   -1    0    0    0  501 -0.00000000000E+00 -0.00000000000E+00 -0.39468652217E+03  0.39468652217E+03  0.00000000000E+00 0.  1.
         23    2    1    2    0    0 -0.40566177089E+01 -0.23555910590E+02 -0.29085237895E+03  0.30536395766E+03  0.89892731748E+02 0.  0.
         13    1    3    3    0    0 -0.24929737022E+02 -0.20771149395E+02 -0.31719488678E+02  0.45376848691E+02  0.00000000000E+00 0. -1.
        -13    1    3    3    0    0  0.20873119313E+02 -0.27847611949E+01 -0.25913289028E+03  0.25998710896E+03  0.00000000000E+00 0.  1.
         22    1    1    2    0    0  0.40566177089E+01  0.23555910590E+02 -0.95099406850E+02  0.98057300872E+02  0.00000000000E+00 0. -1.
<mgrwt>
<rscale>  0 0.66226378E+02</rscale>
<asrwt>0</asrwt>
<pdfrwt beam="1">  1        2 0.13438053E-02 0.93016344E+02</pdfrwt>
<pdfrwt beam="2">  1       -2 0.60721017E-01 0.93016344E+02</pdfrwt>
<totfact> 0.21616430E+04</totfact>
</mgrwt>
</event>
<event>
 6    1  0.2975432E-002  0.9224607E+02  0.7546771E-02  0.1390130E+00
          1   -1    0    0  501    0  0.00000000000E+00  0.00000000000E+00  0.72053075677E+03  0.72053075677E+03  0.00000000000E+00 0.  1.
         -1   -1    0    0    0  501 -0.00000000000E+00 -0.00000000000E+00 -0.45778865204E+01  0.45778865204E+01  0.00000000000E+00 0. -1.
         23    2    1    2    0    0  0.18594549217E+02  0.17033535519E+01  0.65174652284E+03  0.65824225621E+03  0.90336477395E+02 0.  0.
         13    1    3    3    0    0 -0.89367998910E+01 -0.35635368836E+02  0.15327069836E+03  0.15761235002E+03  0.00000000000E+00 0. -1.
        -13    1    3    3    0    0  0.27531349108E+02  0.37338722388E+02  0.49847582448E+03  0.50062990619E+03  0.00000000000E+00 0.  1.
         22    1    1    2    0    0 -0.18594549217E+02 -0.17033535519E+01  0.64206347403E+02  0.66866387077E+02  0.00000000000E+00 0. -1.
<mgrwt>
<rscale>  0 0.61874396E+02</rscale>
<asrwt>0</asrwt>
<pdfrwt beam="1">  1        1 0.11085080E+00 0.92246072E+02</pdfrwt>
<pdfrwt beam="2">  1       -1 0.70429081E-03 0.92246072E+02</pdfrwt>
<totfact> 0.74522090E+04</totfact>
</mgrwt>
</event>
<event>
 6    1  0.2975432E-002  0.9328356E+02  0.7546771E-02  0.1369365E+00
         -3   -1    0    0    0  501 -0.00000000000E+00  0.00000000000E+00  0.18025671289E+03  0.18025671289E+03  0.00000000000E+00 0.  1.
          3   -1    0    0  501    0  0.00000000000E+00 -0.00000000000E+00 -0.24862413409E+02  0.24862413409E+02  0.00000000000E+00 0. -1.
         23    2    1    2    0    0 -0.19548714882E+02  0.16120727962E+02  0.71647447008E+02  0.11762303826E+03  0.89776346230E+02 0.  0.
         11    1    3    3    0    0 -0.28741889475E+02  0.21143814598E+02 -0.85931388229E+01  0.36701486907E+02  0.00000000000E+00 0. -1.
        -11    1    3    3    0    0  0.91931745931E+01 -0.50230866362E+01  0.80240585831E+02  0.80921551350E+02  0.00000000000E+00 0.  1.
         22    1    1    2    0    0  0.19548714882E+02 -0.16120727962E+02  0.83746852471E+02  0.87496088040E+02  0.00000000000E+00 0.  1.
<mgrwt>
<rscale>  0 0.67343899E+02</rscale>
<asrwt>0</asrwt>
<pdfrwt beam="1">  1        3 0.38249868E-02 0.93283559E+02</pdfrwt>
<pdfrwt beam="2">  1       -3 0.27731801E-01 0.93283559E+02</pdfrwt>
<totfact> 0.90156210E+03</totfact>
</mgrwt>
</event>
<event>
 6    1  0.2975432E-002  0.9379892E+02  0.7546771E-02  0.1403706E+00
         -1   -1    0    0    0  501 -0.00000000000E+00  0.00000000000E+00  0.12280486432E+02  0.12280486432E+02  0.00000000000E+00 0.  1.
          1   -1    0    0  501    0  0.00000000000E+00 -0.00000000000E+00 -0.25155288976E+03  0.25155288976E+03  0.00000000000E+00 0. -1.
         23    2    1    2    0    0  0.13720196263E+02  0.40681602979E+01 -0.22429501415E+03  0.24311826334E+03  0.92700824620E+02 0.  0.
         13    1    3    3    0    0  0.45343341537E+02  0.27272319857E+02 -0.15076738101E+03  0.15978298167E+03  0.00000000000E+00 0.  1.
        -13    1    3    3    0    0 -0.31623145274E+02 -0.23204159559E+02 -0.73527633135E+02  0.83335281677E+02  0.00000000000E+00 0. -1.
         22    1    1    2    0    0 -0.13720196263E+02 -0.40681602979E+01 -0.14977389179E+02  0.20715112849E+02  0.00000000000E+00 0.  1.
<mgrwt>
<rscale>  0 0.58622312E+02</rscale>
<asrwt>0</asrwt>
<pdfrwt beam="1">  1        1 0.38700445E-01 0.93798916E+02</pdfrwt>
<pdfrwt beam="2">  1       -1 0.18893056E-02 0.93798916E+02</pdfrwt>
<totfact> 0.70803685E+04</totfact>
</mgrwt>
</event>
<event>
 6    1  0.2975432E-002  0.9449535E+02  0.7546771E-02  0.1376906E+00
         -2   -1    0    0    0  501 -0.00000000000E+00  0.00000000000E+00  0.26770816515E+02  0.26770816515E+02  0.00000000000E+00 0. -1.
          2   -1    0    0  501    0  0.00000000000E+00 -0.00000000000E+00 -0.21729352449E+03  0.21729352449E+03  0.00000000000E+00 0.  1.
         23    2    1    2    0    0 -0.19409596301E+02  0.93116155991E+01 -0.19949380275E+03  0.22074226659E+03  0.92010501095E+02 0.  0.
         13    1    3    3    0    0 -0.31818430415E+02 -0.20843063829E+02 -0.30850697016E+02  0.48975619753E+02  0.00000000000E+00 0. -1.
        -13    1    3    3    0    0  0.12408834114E+02  0.30154679428E+02 -0.16864310573E+03  0.17176664684E+03  0.00000000000E+00 0.  1.
         22    1    1    2    0    0  0.19409596301E+02 -0.93116155991E+01  0.89710947707E+01  0.23322074415E+02  0.00000000000E+00 0.  1.
<mgrwt>
<rscale>  0 0.65284014E+02</rscale>
<asrwt>0</asrwt>
<pdfrwt beam="1">  1        2 0.33429773E-01 0.94495349E+02</pdfrwt>
<pdfrwt beam="2">  1       -2 0.41185871E-02 0.94495349E+02</pdfrwt>
<totfact> 0.36135101E+04</totfact>
</mgrwt>
</event>
<event>
 6    1  0.2975432E-002  0.1006483E+03  0.7546771E-02  0.1329774E+00
         -1   -1    0    0    0  501 -0.00000000000E+00  0.00000000000E+00  0.12927184481E+03  0.12927184481E+03  0.00000000000E+00 0.  1.
          1   -1    0    0  501    0  0.00000000000E+00 -0.00000000000E+00 -0.38074865740E+02  0.38074865740E+02  0.00000000000E+00 0. -1.
         23    2    1    2    0    0 -0.38884000851E+02 -0.78361356914E+01  0.65391439247E+02  0.12002550568E+03  0.92502492626E+02 0.  0.
         13    1    3    3    0    0 -0.48888428562E+02 -0.41875913322E+02  0.49229165137E+02  0.81038146967E+02  0.00000000000E+00 0.  1.
        -13    1    3    3    0    0  0.10004427710E+02  0.34039777631E+02  0.16162274110E+02  0.38987358712E+02  0.00000000000E+00 0. -1.
         22    1    1    2    0    0  0.38884000851E+02  0.78361356914E+01  0.25805539825E+02  0.47321204871E+02  0.00000000000E+00 0. -1.
<mgrwt>
<rscale>  0 0.79745968E+02</rscale>
<asrwt>0</asrwt>
<pdfrwt beam="1">  1        1 0.58576717E-02 0.10064831E+03</pdfrwt>
<pdfrwt beam="2">  1       -1 0.19887976E-01 0.10064831E+03</pdfrwt>
<totfact> 0.24208098E+04</totfact>
</mgrwt>
</event>
<event>
 6    1  0.2975432E-002  0.9511597E+02  0.7546771E-02  0.1369631E+00
          2   -1    0    0  501    0  0.00000000000E+00  0.00000000000E+00  0.28557911974E+02  0.28557911974E+02  0.00000000000E+00 0. -1.
         -2   -1    0    0    0  501 -0.00000000000E+00 -0.00000000000E+00 -0.19321411799E+03  0.19321411799E+03  0.00000000000E+00 0.  1.
         23    2    1    2    0    0  0.12502709450E+02 -0.20247998433E+02 -0.55652497931E+02  0.11020094249E+03  0.92090976841E+02 0.  0.
         11    1    3    3    0    0 -0.34565125239E+02 -0.18590943949E+02 -0.27090132484E+01  0.39340943462E+02  0.00000000000E+00 0. -1.
        -11    1    3    3    0    0  0.47067834689E+02 -0.16570544838E+01 -0.52943484683E+02  0.70859999028E+02  0.00000000000E+00 0.  1.
         22    1    1    2    0    0 -0.12502709450E+02  0.20247998433E+02 -0.10900370809E+03  0.11157108748E+03  0.00000000000E+00 0.  1.
<mgrwt>
<rscale>  0 0.67269905E+02</rscale>
<asrwt>0</asrwt>
<pdfrwt beam="1">  1        2 0.43935248E-02 0.95115967E+02</pdfrwt>
<pdfrwt beam="2">  1       -2 0.29725250E-01 0.95115967E+02</pdfrwt>
<totfact> 0.17308438E+04</totfact>
</mgrwt>
</event>
<event>
 6    1  0.2975432E-002  0.9269226E+02  0.7546771E-02  0.1379770E+00
          2   -1    0    0  501    0  0.00000000000E+00  0.00000000000E+00  0.57735935244E+03  0.57735935244E+03  0.00000000000E+00 0. -1.
         -2   -1    0    0    0  501 -0.00000000000E+00 -0.00000000000E+00 -0.59708835088E+01  0.59708835088E+01  0.00000000000E+00 0.  1.
         23    2    1    2    0    0  0.21485003388E+02 -0.34798986090E+01  0.50584621070E+03  0.51426864982E+03  0.90100722754E+02 0.  0.
         11    1    3    3    0    0  0.45413873138E+01  0.92572705294E+01  0.48297515686E+03  0.48308521340E+03  0.00000000000E+00 0. -1.
        -11    1    3    3    0    0  0.16943616074E+02 -0.12737169138E+02  0.22871053835E+02  0.31183436418E+02  0.00000000000E+00 0.  1.
         22    1    1    2    0    0 -0.21485003388E+02  0.34798986090E+01  0.65542258231E+02  0.69061586131E+02  0.00000000000E+00 0. -1.
<mgrwt>
<rscale>  0 0.64524145E+02</rscale>
<asrwt>0</asrwt>
<pdfrwt beam="1">  1        2 0.88824472E-01 0.92692261E+02</pdfrwt>
<pdfrwt beam="2">  1       -2 0.91859792E-03 0.92692261E+02</pdfrwt>
<totfact> 0.11075471E+05</totfact>
</mgrwt>
</event>
<event>
 6    1  0.2975432E-002  0.9311902E+02  0.7546771E-02  0.1387516E+00
         -1   -1    0    0    0  501 -0.00000000000E+00  0.00000000000E+00  0.68862086412E+01  0.68862086412E+01  0.00000000000E+00 0.  1.
          1   -1    0    0  501    0  0.00000000000E+00 -0.00000000000E+00 -0.49396069637E+03  0.49396069637E+03  0.00000000000E+00 0. -1.
         23    2    1    2    0    0 -0.16670274695E+02 -0.89738710687E+01 -0.44602694163E+03  0.45564370312E+03  0.91174136210E+02 0.  0.
         11    1    3    3    0    0 -0.12510876366E+02  0.88451576979E+01 -0.43278665497E+03  0.43305778779E+03  0.00000000000E+00 0. -1.
        -11    1    3    3    0    0 -0.41593983289E+01 -0.17819028767E+02 -0.13240286659E+02  0.22585915333E+02  0.00000000000E+00 0.  1.
         22    1    1    2    0    0  0.16670274695E+02  0.89738710687E+01 -0.41047546094E+02  0.45203201885E+02  0.00000000000E+00 0.  1.
<mgrwt>
<rscale>  0 0.62528656E+02</rscale>
<asrwt>0</asrwt>
<pdfrwt beam="1">  1        1 0.75993955E-01 0.93119018E+02</pdfrwt>
<pdfrwt beam="2">  1       -1 0.10594167E-02 0.93119018E+02</pdfrwt>
<totfact> 0.69718466E+04</totfact>
</mgrwt>
</event>
<event>
 6    1  0.2975432E-002  0.8778396E+02  0.7546771E-02  0.1401326E+00
          1   -1    0    0  501    0  0.00000000000E+00  0.00000000000E+00  0.59710251927E+02  0.59710251927E+02  0.00000000000E+00 0.  1.
         -1   -1    0    0    0  501 -0.00000000000E+00 -0.00000000000E+00 -0.95936577730E+02  0.95936577730E+02  0.00000000000E+00 0. -1.
         23    2    1    2    0    0  0.11885493847E+02  0.13685968264E+02  0.25420326116E+02  0.91390465115E+02  0.85892103495E+02 0.  0.
         11    1    3    3    0    0  0.81085445327E+01  0.31915433850E+00 -0.31639887359E+02  0.32663937699E+02  0.00000000000E+00 0. -1.
        -11    1    3    3    0    0  0.37769493141E+01  0.13366813925E+02  0.57060213474E+02  0.58726527416E+02  0.00000000000E+00 0.  1.
         22    1    1    2    0    0 -0.11885493847E+02 -0.13685968264E+02 -0.61646651919E+02  0.64256364542E+02  0.00000000000E+00 0. -1.
<mgrwt>
<rscale>  0 0.59175235E+02</rscale>
<asrwt>0</asrwt>
<pdfrwt beam="1">  1        1 0.91861927E-02 0.87783963E+02</pdfrwt>
<pdfrwt beam="2">  1       -1 0.14759473E-01 0.87783963E+02</pdfrwt>
<totfact> 0.20889410E+04</totfact>
</mgrwt>
</event>
<event>
 6    1  0.2975432E-002  0.1023156E+03  0.7546771E-02  0.1315574E+00
         -4   -1    0    0    0  501 -0.00000000000E+00  0.00000000000E+00  0.36101030354E+02  0.36101030354E+02  0.00000000000E+00 0. -1.
          4   -1    0    0  501    0  0.00000000000E+00 -0.00000000000E+00 -0.19034745253E+03  0.19034745253E+03  0.00000000000E+00 0.  1.
         23    2    1    2    0    0 -0.32902677213E+02 -0.35784769993E+02 -0.14419699917E+03  0.17680851074E+03  0.90029656058E+02 0.  0.
         13    1    3    3    0    0 -0.47342617971E+02 -0.33981746664E+02 -0.37891217608E+02  0.69511344071E+02  0.00000000000E+00 0.  1.
        -13    1    3    3    0    0  0.14439940759E+02 -0.18030233295E+01 -0.10630578156E+03  0.10729716667E+03  0.00000000000E+00 0. -1.
         22    1    1    2    0    0  0.32902677213E+02  0.35784769993E+02 -0.10049423003E+02  0.49639972139E+02  0.00000000000E+00 0. -1.
<mgrwt>
<rscale>  0 0.84945890E+02</rscale>
<asrwt>0</asrwt>
<pdfrwt beam="1">  1        4 0.29284224E-01 0.10231557E+03</pdfrwt>
<pdfrwt beam="2">  1       -4 0.55540046E-02 0.10231557E+03</pdfrwt>
<totfact> 0.34204494E+03</totfact>
</mgrwt>
</event>
<event>
 6    1  0.2975432E-002  0.9049246E+02  0.7546771E-02  0.1395535E+00
          1   -1    0    0  501    0  0.00000000000E+00  0.00000000000E+00  0.69207001555E+02  0.69207001555E+02  0.00000000000E+00 0. -1.
         -1   -1    0    0    0  501 -0.00000000000E+00 -0.00000000000E+00 -0.87904384045E+02  0.87904384045E+02  0.00000000000E+00 0.  1.
         23    2    1    2    0    0  0.51535902629E+01  0.17392630866E+02  0.37577928750E+02  0.97984625533E+02  0.88655642859E+02 0.  0.
         13    1    3    3    0    0 -0.29354131904E+02  0.14723680272E+02  0.51169278884E+02  0.60800879287E+02  0.00000000000E+00 0. -1.
        -13    1    3    3    0    0  0.34507722166E+02  0.26689505937E+01 -0.13591350135E+02  0.37183746246E+02  0.00000000000E+00 0.  1.
         22    1    1    2    0    0 -0.51535902629E+01 -0.17392630866E+02 -0.56275311239E+02  0.59126760068E+02  0.00000000000E+00 0.  1.
<mgrwt>
<rscale>  0 0.60550706E+02</rscale>
<asrwt>0</asrwt>
<pdfrwt beam="1">  1        1 0.10647231E-01 0.90492464E+02</pdfrwt>
<pdfrwt beam="2">  1       -1 0.13523751E-01 0.90492464E+02</pdfrwt>
<totfact> 0.19775291E+04</totfact>
</mgrwt>
</event>
<event>
 6    1  0.2975432E-002  0.9502199E+02  0.7546771E-02  0.1422338E+00
         -3   -1    0    0    0  501 -0.00000000000E+00  0.00000000000E+00  0.55092233235E+02  0.55092233235E+02  0.00000000000E+00 0.  1.
          3   -1    0    0  501    0  0.00000000000E+00 -0.00000000000E+00 -0.83713095396E+02  0.83713095396E+02  0.00000000000E+00 0. -1.
         23    2    1    2    0    0  0.77448686827E+01  0.67978690852E+01 -0.55483061032E+02  0.11003430600E+03  0.94461549958E+02 0.  0.
         11    1    3    3    0    0 -0.21566365443E+02 -0.33823179450E+02 -0.42173616383E+02  0.58204205220E+02  0.00000000000E+00 0. -1.
        -11    1    3    3    0    0  0.29311234126E+02  0.40621048535E+02 -0.13309444649E+02  0.51830100780E+02  0.00000000000E+00 0.  1.
         22    1    1    2    0    0 -0.77448686827E+01 -0.67978690852E+01  0.26862198871E+02  0.28771022631E+02  0.00000000000E+00 0. -1.
<mgrwt>
<rscale>  0 0.54529384E+02</rscale>
<asrwt>0</asrwt>
<pdfrwt beam="1">  1        3 0.12878938E-01 0.95021989E+02</pdfrwt>
<pdfrwt beam="2">  1       -3 0.84757282E-02 0.95021989E+02</pdfrwt>
<totfact> 0.97610985E+03</totfact>
</mgrwt>
</event>
<event>
 6    1  0.2975432E-002  0.1542681E+03  0.7546771E-02  0.1205109E+00
          2   -1    0    0  501    0  0.00000000000E+00  0.00000000000E+00  0.10306520295E+04  0.10306520295E+04  0.00000000000E+00 0. -1.
         -2   -1    0    0    0  501 -0.00000000000E+00 -0.00000000000E+00 -0.26382576961E+02  0.26382576961E+02  0.00000000000E+00 0.  1.
         23    2    1    2    0    0 -0.81620510453E+02  0.94333942846E+02  0.82082076805E+03  0.83519182352E+03  0.90762593131E+02 0.  0.
         11    1    3    3    0    0 -0.99791923385E+02  0.64031279961E+02  0.60710141473E+03  0.61857138679E+03  0.00000000000E+00 0. -1.
        -11    1    3    3    0    0  0.18171412933E+02  0.30302662885E+02  0.21371935332E+03  0.21662043673E+03  0.00000000000E+00 0.  1.
         22    1    1    2    0    0  0.81620510453E+02 -0.94333942846E+02  0.18344868445E+03  0.22184278290E+03  0.00000000000E+00 0.  1.
<mgrwt>
<rscale>  0 0.14628881E+03</rscale>
<asrwt>0</asrwt>
<pdfrwt beam="1">  1        2 0.15856182E+00 0.15426811E+03</pdfrwt>
<pdfrwt beam="2">  1       -2 0.40588588E-02 0.15426811E+03</pdfrwt>
<totfact> 0.66075652E+03</totfact>
</mgrwt>
</event>
<event>
 6    1  0.2975432E-002  0.1000512E+03  0.7546771E-02  0.1342079E+00
          2   -1    0    0  501    0  0.00000000000E+00  0.00000000000E+00  0.54219721313E+03  0.54219721313E+03  0.00000000000E+00 0.  1.
         -2   -1    0    0    0  501 -0.00000000000E+00 -0.00000000000E+00 -0.84823696428E+01  0.84823696428E+01  0.00000000000E+00 0. -1.
         23    2    1    2    0    0  0.29148102290E+02 -0.14563264942E+02  0.44661234154E+03  0.45768202152E+03  0.94596768746E+02 0.  0.
         11    1    3    3    0    0  0.36599464856E+02 -0.85122839139E+01  0.58993547323E+02  0.69944395279E+02  0.00000000000E+00 0. -1.
        -11    1    3    3    0    0 -0.74513625665E+01 -0.60509810286E+01  0.38761879422E+03  0.38773762624E+03  0.00000000000E+00 0.  1.
         22    1    1    2    0    0 -0.29148102290E+02  0.14563264942E+02  0.87102501950E+02  0.92997561252E+02  0.00000000000E+00 0.  1.
<mgrwt>
<rscale>  0 0.75581775E+02</rscale>
<asrwt>0</asrwt>
<pdfrwt beam="1">  1        2 0.83414929E-01 0.10005123E+03</pdfrwt>
<pdfrwt beam="2">  1       -2 0.13049804E-02 0.10005123E+03</pdfrwt>
<totfact> 0.72862395E+04</totfact>
</mgrwt>
</event>
<event>
 6    1  0.2975432E-002  0.9300884E+02  0.7546771E-02  0.1406181E+00
         -2   -1    0    0    0  501 -0.00000000000E+00  0.00000000000E+00  0.98851482286E+01  0.98851482286E+01  0.00000000000E+00 0. -1.
          2   -1    0    0  501    0  0.00000000000E+00 -0.00000000000E+00 -0.29346243376E+03  0.29346243376E+03  0.00000000000E+00 0.  1.
         23    2    1    2    0    0 -0.11099131789E+02 -0.87253591882E+01 -0.25588277451E+03  0.27226207797E+03  0.91931073036E+02 0.  0.
         11    1    3    3    0    0  0.31063652810E+02 -0.19522664982E+02 -0.51110553068E+02  0.62915607037E+02  0.00000000000E+00 0. -1.
        -11    1    3    3    0    0 -0.42162784599E+02  0.10797305794E+02 -0.20477222144E+03  0.20934647093E+03  0.00000000000E+00 0.  1.
         22    1    1    2    0    0  0.11099131789E+02  0.87253591882E+01 -0.27694511022E+02  0.31085504020E+02  0.00000000000E+00 0. -1.
<mgrwt>
<rscale>  0 0.58054749E+02</rscale>
<asrwt>0</asrwt>
<pdfrwt beam="1">  1        2 0.45148058E-01 0.93008843E+02</pdfrwt>
<pdfrwt beam="2">  1       -2 0.15207923E-02 0.93008843E+02</pdfrwt>
<totfact> 0.11122822E+05</totfact>
</mgrwt>
</event>
<event>
 6    1  0.2975432E-002  0.9911719E+02  0.7546771E-02  0.1343535E+00
          2   -1    0    0  501    0  0.00000000000E+00  0.00000000000E+00  0.34338906917E+03  0.34338906917E+03  0.00000000000E+00 0. -1.
         -2   -1    0    0    0  501 -0.00000000000E+00 -0.00000000000E+00 -0.12724145121E+02  0.12724145121E+02  0.00000000000E+00 0.  1.
         23    2    1    2    0    0  0.76558538015E-01  0.32682304304E+02  0.26016329871E+03  0.27840466875E+03  0.93573921080E+02 0.  0.
         13    1    3    3    0    0  0.16674355991E+02 -0.28300445157E+02  0.12419705949E+03  0.12846734577E+03  0.00000000000E+00 0.  1.
        -13    1    3    3    0    0 -0.16597797453E+02  0.60982749460E+02  0.13596623923E+03  0.14993732298E+03  0.00000000000E+00 0. -1.
         22    1    1    2    0    0 -0.76558538015E-01 -0.32682304304E+02  0.70501625339E+02  0.77708545548E+02  0.00000000000E+00 0.  1.
<mgrwt>
<rscale>  0 0.75108693E+02</rscale>
<asrwt>0</asrwt>
<pdfrwt beam="1">  1        2 0.52829081E-01 0.99117191E+02</pdfrwt>
<pdfrwt beam="2">  1       -2 0.19575610E-02 0.99117191E+02</pdfrwt>
<totfact> 0.66302079E+04</totfact>
</mgrwt>
</event>
<event>
 6    1  0.2975432E-002  0.9357146E+02  0.7546771E-02  0.1416533E+00
         -2   -1    0    0    0  501 -0.00000000000E+00  0.00000000000E+00  0.27779932396E+02  0.27779932396E+02  0.00000000000E+00 0.  1.
          2   -1    0    0  501    0  0.00000000000E+00 -0.00000000000E+00 -0.11977352486E+03  0.11977352486E+03  0.00000000000E+00 0. -1.
         23    2    1    2    0    0  0.68003985320E+01  0.96440261969E+01 -0.96962727768E+02  0.13474935764E+03  0.92824383361E+02 0.  0.
         11    1    3    3    0    0 -0.18841526308E+02  0.49197535895E+01 -0.10552441843E+03  0.10730615068E+03  0.00000000000E+00 0. -1.
        -11    1    3    3    0    0  0.25641924840E+02  0.47242726073E+01  0.85616906617E+01  0.27443206958E+02  0.00000000000E+00 0.  1.
         22    1    1    2    0    0 -0.68003985320E+01 -0.96440261969E+01  0.49691352998E+01  0.12804099621E+02  0.00000000000E+00 0.  1.
<mgrwt>
<rscale>  0 0.55761315E+02</rscale>
<asrwt>0</asrwt>
<pdfrwt beam="1">  1        2 0.18426696E-01 0.93571464E+02</pdfrwt>
<pdfrwt beam="2">  1       -2 0.42738358E-02 0.93571464E+02</pdfrwt>
<totfact> 0.65501490E+04</totfact>
</mgrwt>
</event>
<event>
 6    1  0.2975432E-002  0.9231657E+02  0.7546771E-02  0.1424835E+00
         -2   -1    0    0    0  501 -0.00000000000E+00  0.00000000000E+00  0.11620614898E+02  0.11620614898E+02  0.00000000000E+00 0.  1.
          2   -1    0    0  501    0  0.00000000000E+00 -0.00000000000E+00 -0.22959889215E+03  0.22959889215E+03  0.00000000000E+00 0. -1.
         23    2    1    2    0    0 -0.10815451089E+02 -0.14880227486E+00 -0.19912561802E+03  0.21948430784E+03  0.91680715053E+02 0.  0.
         13    1    3    3    0    0  0.33881556666E+02  0.21699589098E+02 -0.65185120985E+02  0.76602428467E+02  0.00000000000E+00 0.  1.
        -13    1    3    3    0    0 -0.44697007755E+02 -0.21848391373E+02 -0.13394049703E+03  0.14288187937E+03  0.00000000000E+00 0. -1.
         22    1    1    2    0    0  0.10815451089E+02  0.14880227486E+00 -0.18852659232E+02  0.21735199205E+02  0.00000000000E+00 0. -1.
<mgrwt>
<rscale>  0 0.54010872E+02</rscale>
<asrwt>0</asrwt>
<pdfrwt beam="1">  1        2 0.35322904E-01 0.92316573E+02</pdfrwt>
<pdfrwt beam="2">  1       -2 0.17877870E-02 0.92316573E+02</pdfrwt>
<totfact> 0.11407169E+05</totfact>
</mgrwt>
</event>
<event>
 6    1  0.2975432E-002  0.1026692E+03  0.7546771E-02  0.1316443E+00
         -2   -1    0    0    0  501 -0.00000000000E+00  0.00000000000E+00  0.33329857554E+03  0.33329857554E+03  0.00000000000E+00 0.  1.
          2   -1    0    0  501    0  0.00000000000E+00 -0.00000000000E+00 -0.16884950751E+02  0.16884950751E+02  0.00000000000E+00 0. -1.
         23    2    1    2    0    0  0.25446943696E+02  0.39949342963E+02  0.21727316207E+03  0.24030937877E+03  0.91090469419E+02 0.  0.
         13    1    3    3    0    0 -0.90792628081E+01  0.11373394308E+02  0.18378950335E+03  0.18436477063E+03  0.00000000000E+00 0.  1.
        -13    1    3    3    0    0  0.34526206505E+02  0.28575948655E+02  0.33483658727E+02  0.55944608131E+02  0.00000000000E+00 0. -1.
         22    1    1    2    0    0 -0.25446943696E+02 -0.39949342963E+02  0.99140462720E+02  0.10987414753E+03  0.00000000000E+00 0.  1.
<mgrwt>
<rscale>  0 0.84614718E+02</rscale>
<asrwt>0</asrwt>
<pdfrwt beam="1">  1        2 0.25976850E-02 0.10266923E+03</pdfrwt>
<pdfrwt beam="2">  1       -2 0.51276699E-01 0.10266923E+03</pdfrwt>
<totfact> 0.12599496E+04</totfact>
</mgrwt>
</event>
<event>
 6    1  0.2975432E-002  0.9176552E+02  0.7546771E-02  0.1428544E+00
          4   -1    0    0  501    0  0.00000000000E+00  0.00000000000E+00  0.36146095715E+02  0.36146095715E+02  0.00000000000E+00 0.  1.
         -4   -1    0    0    0  501 -0.00000000000E+00 -0.00000000000E+00 -0.97936241193E+02  0.97936241193E+02  0.00000000000E+00 0. -1.
         23    2    1    2    0    0 -0.10322081215E+02 -0.13308340658E+01 -0.23953321046E+02  0.94840245183E+02  0.91173428352E+02 0.  0.
         11    1    3    3    0    0  0.27894197403E+02  0.27353619687E+02 -0.26140148345E+02  0.47006532677E+02  0.00000000000E+00 0.  1.
        -11    1    3    3    0    0 -0.38216278618E+02 -0.28684453753E+02  0.21868272990E+01  0.47833712507E+02  0.00000000000E+00 0. -1.
         22    1    1    2    0    0  0.10322081215E+02  0.13308340658E+01 -0.37836824431E+02  0.39242091725E+02  0.00000000000E+00 0.  1.
<mgrwt>
<rscale>  0 0.53253292E+02</rscale>
<asrwt>0</asrwt>
<pdfrwt beam="1">  1        4 0.55609378E-02 0.91765519E+02</pdfrwt>
<pdfrwt beam="2">  1       -4 0.15067114E-01 0.91765519E+02</pdfrwt>
<totfact> 0.10934382E+04</totfact>
</mgrwt>
</event>
<event>
 6    1  0.2975432E-002  0.9567387E+02  0.7546771E-02  0.1350398E+00
          2   -1    0    0  501    0  0.00000000000E+00  0.00000000000E+00  0.28237475417E+03  0.28237475417E+03  0.00000000000E+00 0. -1.
         -2   -1    0    0    0  501 -0.00000000000E+00 -0.00000000000E+00 -0.28259330031E+02  0.28259330031E+02  0.00000000000E+00 0.  1.
         23    2    1    2    0    0  0.44648087196E+00 -0.32303205554E+02  0.26066692073E+03  0.27767018665E+03  0.90054386670E+02 0.  0.
         11    1    3    3    0    0 -0.41769861147E+02 -0.31591586816E+02  0.16468980804E+03  0.17281632600E+03  0.00000000000E+00 0. -1.
        -11    1    3    3    0    0  0.42216342019E+02 -0.71161873882E+00  0.95977112685E+02  0.10485386065E+03  0.00000000000E+00 0.  1.
         22    1    1    2    0    0 -0.44648087196E+00  0.32303205554E+02 -0.65514965868E+01  0.32963897551E+02  0.00000000000E+00 0.  1.
<mgrwt>
<rscale>  0 0.72931773E+02</rscale>
<asrwt>0</asrwt>
<pdfrwt beam="1">  1        2 0.43442268E-01 0.95673868E+02</pdfrwt>
<pdfrwt beam="2">  1       -2 0.43475894E-02 0.95673868E+02</pdfrwt>
<totfact> 0.25350633E+04</totfact>
</mgrwt>
</event>
<event>
 6    1  0.2975432E-002  0.9314658E+02  0.7546771E-02  0.1416864E+00
         -2   -1    0    0    0  501 -0.00000000000E+00  0.00000000000E+00  0.50989645230E+01  0.50989645230E+01  0.00000000000E+00 0.  1.
          2   -1    0    0  501    0  0.00000000000E+00 -0.00000000000E+00 -0.70588546412E+03  0.70588546412E+03  0.00000000000E+00 0. -1.
         23    2    1    2    0    0 -0.20114796067E+01  0.11730475195E+02 -0.68452206078E+03  0.69083046951E+03  0.92383092706E+02 0.  0.
         13    1    3    3    0    0  0.99048385918E+00 -0.33015414979E+02 -0.49393427121E+03  0.49503743591E+03  0.00000000000E+00 0. -1.
        -13    1    3    3    0    0 -0.30019634659E+01  0.44745890174E+02 -0.19058778957E+03  0.19579303360E+03  0.00000000000E+00 0.  1.
         22    1    1    2    0    0  0.20114796067E+01 -0.11730475195E+02 -0.16264438819E+02  0.20153959130E+02  0.00000000000E+00 0.  1.
<mgrwt>
<rscale>  0 0.55690011E+02</rscale>
<asrwt>0</asrwt>
<pdfrwt beam="1">  1        2 0.10859766E+00 0.93146583E+02</pdfrwt>
<pdfrwt beam="2">  1       -2 0.78445680E-03 0.93146583E+02</pdfrwt>
<totfact> 0.11018392E+05</totfact>
</mgrwt>
</event>
<event>
 6    1  0.2975432E-002  0.1099692E+03  0.7546771E-02  0.1287899E+00
         -2   -1    0    0    0  501 -0.00000000000E+00  0.00000000000E+00  0.18256474851E+02  0.18256474851E+02  0.00000000000E+00 0.  1.
          2   -1    0    0  501    0  0.00000000000E+00 -0.00000000000E+00 -0.42113346178E+03  0.42113346178E+03  0.00000000000E+00 0. -1.
         23    2    1    2    0    0 -0.48005927031E+02 -0.44009907964E+02 -0.26468429978E+03  0.28661997947E+03  0.88610343943E+02 0.  0.
         11    1    3    3    0    0 -0.24097598647E+02  0.26094046590E+02 -0.97282328761E+02  0.10356372443E+03  0.00000000000E+00 0.  1.
        -11    1    3    3    0    0 -0.23908328384E+02 -0.70103954554E+02 -0.16740197102E+03  0.18305625504E+03  0.00000000000E+00 0. -1.
         22    1    1    2    0    0  0.48005927031E+02  0.44009907964E+02 -0.13819268715E+03  0.15276995716E+03  0.00000000000E+00 0.  1.
<mgrwt>
<rscale>  0 0.96470072E+02</rscale>
<asrwt>0</asrwt>
<pdfrwt beam="1">  1        2 0.64789755E-01 0.10996924E+03</pdfrwt>
<pdfrwt beam="2">  1       -2 0.28086888E-02 0.10996924E+03</pdfrwt>
<totfact> 0.32085532E+04</totfact>
</mgrwt>
</event>
<event>
 6    1  0.2975432E-002  0.9012574E+02  0.7546771E-02  0.1361877E+00
          4   -1    0    0  501    0  0.00000000000E+00  0.00000000000E+00  0.42362332697E+03  0.42362332697E+03  0.00000000000E+00 0. -1.
         -4   -1    0    0    0  501 -0.00000000000E+00 -0.00000000000E+00 -0.10648652405E+02  0.10648652405E+02  0.00000000000E+00 0.  1.
         23    2    1    2    0    0 -0.25456848730E-01 -0.31830618725E+02  0.36984781219E+03  0.38067053168E+03  0.84317617217E+02 0.  0.
         13    1    3    3    0    0 -0.14258388956E+01  0.28643132542E+02  0.14623074130E+03  0.14901641440E+03  0.00000000000E+00 0. -1.
        -13    1    3    3    0    0  0.14003820469E+01 -0.60473751267E+02  0.22361707089E+03  0.23165411728E+03  0.00000000000E+00 0.  1.
         22    1    1    2    0    0  0.25456848730E-01  0.31830618725E+02  0.43126862378E+02  0.53601447695E+02  0.00000000000E+00 0. -1.
<mgrwt>
<rscale>  0 0.69478102E+02</rscale>
<asrwt>0</asrwt>
<pdfrwt beam="1">  1        4 0.65172806E-01 0.90125743E+02</pdfrwt>
<pdfrwt beam="2">  1       -4 0.16382545E-02 0.90125743E+02</pdfrwt>
<totfact> 0.45274807E+03</totfact>
</mgrwt>
</event>
<event>
 6    1  0.2975432E-002  0.9256271E+02  0.7546771E-02  0.1415877E+00
          2   -1    0    0  501    0  0.00000000000E+00  0.00000000000E+00  0.29876502765E+02  0.29876502765E+02  0.00000000000E+00 0. -1.
         -2   -1    0    0    0  501 -0.00000000000E+00 -0.00000000000E+00 -0.13523297482E+03  0.13523297482E+03  0.00000000000E+00 0.  1.
         23    2    1    2    0    0  0.87560974505E+01  0.86594299724E+01 -0.43925586806E+02  0.10245639600E+03  0.91739854666E+02 0.  0.
         11    1    3    3    0    0 -0.21046483422E+02  0.65602026869E+01  0.21337237941E+02  0.30680098544E+02  0.00000000000E+00 0. -1.
        -11    1    3    3    0    0  0.29802580873E+02  0.20992272855E+01 -0.65262824747E+02  0.71776297452E+02  0.00000000000E+00 0.  1.
         22    1    1    2    0    0 -0.87560974505E+01 -0.86594299724E+01 -0.61430885249E+02  0.62653081589E+02  0.00000000000E+00 0.  1.
<mgrwt>
<rscale>  0 0.55902874E+02</rscale>
<asrwt>0</asrwt>
<pdfrwt beam="1">  1        2 0.45963852E-02 0.92562713E+02</pdfrwt>
<pdfrwt beam="2">  1       -2 0.20805072E-01 0.92562713E+02</pdfrwt>
<totfact> 0.30171533E+04</totfact>
</mgrwt>
</event>
<event>
 6    1  0.2975432E-002  0.9106198E+02  0.7546771E-02  0.1430622E+00
         -2   -1    0    0    0  501 -0.00000000000E+00  0.00000000000E+00  0.13692367682E+03  0.13692367682E+03  0.00000000000E+00 0. -1.
          2   -1    0    0  501    0  0.00000000000E+00 -0.00000000000E+00 -0.24190516533E+02  0.24190516533E+02  0.00000000000E+00 0.  1.
         23    2    1    2    0    0 -0.67778591946E+01 -0.77825257558E+01  0.64005968749E+02  0.11130609885E+03  0.90475281289E+02 0.  0.
         11    1    3    3    0    0  0.14554389974E+01  0.11529659948E+02 -0.20861781963E+02  0.23880228388E+02  0.00000000000E+00 0.  1.
        -11    1    3    3    0    0 -0.82332981920E+01 -0.19312185704E+02  0.84867750712E+02  0.87425870466E+02  0.00000000000E+00 0. -1.
         22    1    1    2    0    0  0.67778591946E+01  0.77825257558E+01  0.48727191535E+02  0.49808094496E+02  0.00000000000E+00 0.  1.
<mgrwt>
<rscale>  0 0.52835414E+02</rscale>
<asrwt>0</asrwt>
<pdfrwt beam="1">  1        2 0.37216180E-02 0.91061977E+02</pdfrwt>
<pdfrwt beam="2">  1       -2 0.21065180E-01 0.91061977E+02</pdfrwt>
<totfact> 0.38839741E+04</totfact>
</mgrwt>
</event>
<event>
 6    1  0.2975432E-002  0.9445711E+02  0.7546771E-02  0.1404386E+00
          2   -1    0    0  501    0  0.00000000000E+00  0.00000000000E+00  0.38786641494E+03  0.38786641494E+03  0.00000000000E+00 0. -1.
         -2   -1    0    0    0  501 -0.00000000000E+00 -0.00000000000E+00 -0.86297265464E+01  0.86297265464E+01  0.00000000000E+00 0.  1.
         23    2    1    2    0    0  0.54710190867E+01 -0.12739208960E+02  0.36327292449E+03  0.37535231845E+03  0.93434071944E+02 0.  0.
         13    1    3    3    0    0  0.41358342460E+02 -0.33241123727E+02  0.21109831636E+03  0.21766484321E+03  0.00000000000E+00 0. -1.
        -13    1    3    3    0    0 -0.35887323373E+02  0.20501914767E+02  0.15217460813E+03  0.15768747524E+03  0.00000000000E+00 0.  1.
         22    1    1    2    0    0 -0.54710190867E+01  0.12739208960E+02  0.15963763899E+02  0.21143823036E+02  0.00000000000E+00 0.  1.
<mgrwt>
<rscale>  0 0.58465634E+02</rscale>
<asrwt>0</asrwt>
<pdfrwt beam="1">  1        2 0.59671742E-01 0.94457108E+02</pdfrwt>
<pdfrwt beam="2">  1       -2 0.13276505E-02 0.94457108E+02</pdfrwt>
<totfact> 0.10101979E+05</totfact>
</mgrwt>
</event>
<event>
 6    1  0.2975432E-002  0.1075038E+03  0.7546771E-02  0.1295454E+00
         -2   -1    0    0    0  501 -0.00000000000E+00  0.00000000000E+00  0.11207227174E+03  0.11207227174E+03  0.00000000000E+00 0.  1.
          2   -1    0    0  501    0  0.00000000000E+00 -0.00000000000E+00 -0.64442286405E+02  0.64442286405E+02  0.00000000000E+00 0. -1.
         23    2    1    2    0    0 -0.60534352505E+02  0.23153214824E+00  0.43062123426E+02  0.11580766560E+03  0.88840348362E+02 0.  0.
         11    1    3    3    0    0 -0.41706424050E+02  0.36869613521E+02  0.49035553473E+02  0.74184093394E+02  0.00000000000E+00 0.  1.
        -11    1    3    3    0    0 -0.18827928455E+02 -0.36638081373E+02 -0.59734300469E+01  0.41623572205E+02  0.00000000000E+00 0. -1.
         22    1    1    2    0    0  0.60534352505E+02 -0.23153214824E+00  0.45678619113E+01  0.60706892548E+02  0.00000000000E+00 0.  1.
<mgrwt>
<rscale>  0 0.93125616E+02</rscale>
<asrwt>0</asrwt>
<pdfrwt beam="1">  1        2 0.99141979E-02 0.10750381E+03</pdfrwt>
<pdfrwt beam="2">  1       -2 0.17241888E-01 0.10750381E+03</pdfrwt>
<totfact> 0.15926240E+04</totfact>
</mgrwt>
</event>
<event>
 6    1  0.2975432E-002  0.1002823E+03  0.7546771E-02  0.1331216E+00
          4   -1    0    0  501    0  0.00000000000E+00  0.00000000000E+00  0.21259079076E+02  0.21259079076E+02  0.00000000000E+00 0. -1.
         -4   -1    0    0    0  501 -0.00000000000E+00 -0.00000000000E+00 -0.23609033887E+03  0.23609033887E+03  0.00000000000E+00 0.  1.
         23    2    1    2    0    0 -0.89031190723E+01  0.38070328236E+02 -0.13216764150E+03  0.16590605180E+03  0.92346722439E+02 0.  0.
         13    1    3    3    0    0 -0.11019475307E+02 -0.29501331854E+02 -0.54430823935E+02  0.62884592799E+02  0.00000000000E+00 0.  1.
        -13    1    3    3    0    0  0.21163562348E+01  0.67571660090E+02 -0.77736817561E+02  0.10302145900E+03  0.00000000000E+00 0. -1.
         22    1    1    2    0    0  0.89031190723E+01 -0.38070328236E+02 -0.82663618296E+02  0.91443366140E+02  0.00000000000E+00 0.  1.
<mgrwt>
<rscale>  0 0.79241991E+02</rscale>
<asrwt>0</asrwt>
<pdfrwt beam="1">  1        4 0.32706277E-02 0.10028226E+03</pdfrwt>
<pdfrwt beam="2">  1       -4 0.36321589E-01 0.10028226E+03</pdfrwt>
<totfact> 0.52285386E+03</totfact>
</mgrwt>
</event>
<event>
 6    1  0.2975432E-002  0.1004617E+03  0.7546771E-02  0.1324554E+00
          4   -1    0    0  501    0  0.00000000000E+00  0.00000000000E+00  0.74185662707E+02  0.74185662707E+02  0.00000000000E+00 0. -1.
         -4   -1    0    0    0  501 -0.00000000000E+00 -0.00000000000E+00 -0.10485560422E+03  0.10485560422E+03  0.00000000000E+00 0.  1.
         23    2    1    2    0    0 -0.43269693962E+02 -0.64061353578E+01  0.29453096878E+02  0.10469017594E+03  0.90439167603E+02 0.  0.
         13    1    3    3    0    0 -0.25995062280E+02  0.13973531706E+02 -0.28405182794E+02  0.40961655982E+02  0.00000000000E+00 0.  1.
        -13    1    3    3    0    0 -0.17274631682E+02 -0.20379667063E+02  0.57858279672E+02  0.63728519957E+02  0.00000000000E+00 0. -1.
         22    1    1    2    0    0  0.43269693962E+02  0.64061353578E+01 -0.60123038395E+02  0.74351090991E+02  0.00000000000E+00 0.  1.
<mgrwt>
<rscale>  0 0.81606234E+02</rscale>
<asrwt>0</asrwt>
<pdfrwt beam="1">  1        4 0.11413179E-01 0.10046167E+03</pdfrwt>
<pdfrwt beam="2">  1       -4 0.16131631E-01 0.10046167E+03</pdfrwt>
<totfact> 0.30512957E+03</totfact>
</mgrwt>
</event>
<event>
 6    1  0.2975432E-002  0.8095600E+02  0.7546771E-02  0.1448652E+00
         -2   -1    0    0    0  501 -0.00000000000E+00  0.00000000000E+00  0.81529541968E+01  0.81529541968E+01  0.00000000000E+00 0.  1.
          2   -1    0    0  501    0  0.00000000000E+00 -0.00000000000E+00 -0.49076036826E+03  0.49076036826E+03  0.00000000000E+00 0. -1.
         23    2    1    2    0    0 -0.78939855114E+01  0.79684559527E+01 -0.48078077108E+03  0.48754899573E+03  0.80175196238E+02 0.  0.
         13    1    3    3    0    0  0.60575272382E+00 -0.34119593306E+02 -0.14123597188E+03  0.14530008030E+03  0.00000000000E+00 0.  1.
        -13    1    3    3    0    0 -0.84997382352E+01  0.42088049258E+02 -0.33954479921E+03  0.34224891542E+03  0.00000000000E+00 0. -1.
         22    1    1    2    0    0  0.78939855114E+01 -0.79684559527E+01 -0.18266429820E+01  0.11364326734E+02  0.00000000000E+00 0.  1.
<mgrwt>
<rscale>  0 0.49391444E+02</rscale>
<asrwt>0</asrwt>
<pdfrwt beam="1">  1        2 0.75501607E-01 0.80955997E+02</pdfrwt>
<pdfrwt beam="2">  1       -2 0.12543005E-02 0.80955997E+02</pdfrwt>
<totfact> 0.83433256E+04</totfact>
</mgrwt>
</event>
<event>
 6    1  0.2975432E-002  0.1015029E+03  0.7546771E-02  0.1411431E+00
          2   -1    0    0  501    0  0.00000000000E+00  0.00000000000E+00  0.15625951296E+02  0.15625951296E+02  0.00000000000E+00 0. -1.
         -2   -1    0    0    0  501 -0.00000000000E+00 -0.00000000000E+00 -0.20040840376E+03  0.20040840376E+03  0.00000000000E+00 0.  1.
         23    2    1    2    0    0 -0.50290514402E+01 -0.86507355430E+01 -0.17297482266E+03  0.20055705861E+03  0.10100850409E+03 0.  0.
         13    1    3    3    0    0  0.35281200556E+02 -0.36592993655E+02 -0.10584580307E+03  0.11741867111E+03  0.00000000000E+00 0.  1.
        -13    1    3    3    0    0 -0.40310251996E+02  0.27942258112E+02 -0.67129019598E+02  0.83138387503E+02  0.00000000000E+00 0. -1.
         22    1    1    2    0    0  0.50290514402E+01  0.86507355430E+01 -0.11807629796E+02  0.15477296444E+02  0.00000000000E+00 0.  1.
<mgrwt>
<rscale>  0 0.56875811E+02</rscale>
<asrwt>0</asrwt>
<pdfrwt beam="1">  1        2 0.24039927E-02 0.10150293E+03</pdfrwt>
<pdfrwt beam="2">  1       -2 0.30832060E-01 0.10150293E+03</pdfrwt>
<totfact> 0.36352573E+04</totfact>
</mgrwt>
</event>
<event>
 6    1  0.2975432E-002  0.9292020E+02  0.7546771E-02  0.1414215E+00
          2   -1    0    0  501    0  0.00000000000E+00  0.00000000000E+00  0.26418763012E+03  0.26418763012E+03  0.00000000000E+00 0.  1.
         -2   -1    0    0    0  501 -0.00000000000E+00 -0.00000000000E+00 -0.10566756597E+02  0.10566756597E+02  0.00000000000E+00 0. -1.
         23    2    1    2    0    0  0.59701475380E+01 -0.10971434957E+02  0.21683894573E+03  0.23590949956E+03  0.92076862172E+02 0.  0.
         11    1    3    3    0    0 -0.33287705897E+02 -0.23361122426E+00  0.30403456200E+02  0.45083212918E+02  0.00000000000E+00 0. -1.
        -11    1    3    3    0    0  0.39257853435E+02 -0.10737823733E+02  0.18643548953E+03  0.19082628664E+03  0.00000000000E+00 0.  1.
         22    1    1    2    0    0 -0.59701475380E+01  0.10971434957E+02  0.36781927790E+02  0.38844887162E+02  0.00000000000E+00 0.  1.
<mgrwt>
<rscale>  0 0.56263716E+02</rscale>
<asrwt>0</asrwt>
<pdfrwt beam="1">  1        2 0.40644246E-01 0.92920200E+02</pdfrwt>
<pdfrwt beam="2">  1       -2 0.16256551E-02 0.92920200E+02</pdfrwt>
<totfact> 0.11286064E+05</totfact>
</mgrwt>
</event>
<event>
 6    1  0.2975432E-002  0.9844950E+02  0.7546771E-02  0.1347373E+00
         -2   -1    0    0    0  501 -0.00000000000E+00  0.00000000000E+00  0.16877166486E+02  0.16877166486E+02  0.00000000000E+00 0.  1.
          2   -1    0    0  501    0  0.00000000000E+00 -0.00000000000E+00 -0.21576332560E+04  0.21576332560E+04  0.00000000000E+00 0. -1.
         23    2    1    2    0    0 -0.24960572713E+02  0.18757871117E+02 -0.21410238009E+04  0.21432860796E+04  0.93367099958E+02 0.  0.
         11    1    3    3    0    0  0.10181399750E+02 -0.14028229954E+02 -0.87521974533E+02  0.89221904052E+02  0.00000000000E+00 0.  1.
        -11    1    3    3    0    0 -0.35141972463E+02  0.32786101071E+02 -0.20535018263E+04  0.20540641756E+04  0.00000000000E+00 0. -1.
         22    1    1    2    0    0  0.24960572713E+02 -0.18757871117E+02  0.26771132473E+00  0.31224342881E+02  0.00000000000E+00 0.  1.
<mgrwt>
<rscale>  0 0.73880438E+02</rscale>
<asrwt>0</asrwt>
<pdfrwt beam="1">  1        2 0.33194332E+00 0.98449496E+02</pdfrwt>
<pdfrwt beam="2">  1       -2 0.25964892E-02 0.98449496E+02</pdfrwt>
<totfact> 0.32295071E+03</totfact>
</mgrwt>
</event>
<event>
 6    1  0.2975432E-002  0.9289136E+02  0.7546771E-02  0.1412664E+00
         -2   -1    0    0    0  501 -0.00000000000E+00  0.00000000000E+00  0.47465546391E+02  0.47465546391E+02  0.00000000000E+00 0.  1.
          2   -1    0    0  501    0  0.00000000000E+00 -0.00000000000E+00 -0.90280261942E+02  0.90280261942E+02  0.00000000000E+00 0. -1.
         23    2    1    2    0    0  0.12465166238E+02 -0.29393319834E+01 -0.64130598911E+02  0.11287842155E+03  0.92004262367E+02 0.  0.
         11    1    3    3    0    0  0.20313566428E+01 -0.45010151091E+02 -0.49959220360E+02  0.67275283797E+02  0.00000000000E+00 0. -1.
        -11    1    3    3    0    0  0.10433809596E+02  0.42070819108E+02 -0.14171378551E+02  0.45603137755E+02  0.00000000000E+00 0.  1.
         22    1    1    2    0    0 -0.12465166238E+02  0.29393319834E+01  0.21315883361E+02  0.24867386781E+02  0.00000000000E+00 0.  1.
<mgrwt>
<rscale>  0 0.56603541E+02</rscale>
<asrwt>0</asrwt>
<pdfrwt beam="1">  1        2 0.13889271E-01 0.92891358E+02</pdfrwt>
<pdfrwt beam="2">  1       -2 0.73023918E-02 0.92891358E+02</pdfrwt>
<totfact> 0.40620575E+04</totfact>
</mgrwt>
</event>
<event>
 6    1  0.2975432E-002  0.1010127E+03  0.7546771E-02  0.1334532E+00
          2   -1    0    0  501    0  0.00000000000E+00  0.00000000000E+00  0.46533460320E+03  0.46533460320E+03  0.00000000000E+00 0.  1.
         -2   -1    0    0    0  501 -0.00000000000E+00 -0.00000000000E+00 -0.10102299360E+02  0.10102299360E+02  0.00000000000E+00 0. -1.
         23    2    1    2    0    0  0.36078322154E+02 -0.11643569667E+01  0.33866834793E+03  0.35341167208E+03  0.94342774051E+02 0.  0.
         13    1    3    3    0    0  0.24009990011E+02  0.13443747711E+02  0.33227688204E+03  0.33341436728E+03  0.00000000000E+00 0.  1.
        -13    1    3    3    0    0  0.12068332143E+02 -0.14608104678E+02  0.63914658952E+01  0.19997304801E+02  0.00000000000E+00 0. -1.
         22    1    1    2    0    0 -0.36078322154E+02  0.11643569667E+01  0.11656395590E+03  0.12202523048E+03  0.00000000000E+00 0.  1.
<mgrwt>
<rscale>  0 0.78099813E+02</rscale>
<asrwt>0</asrwt>
<pdfrwt beam="1">  1        2 0.71589922E-01 0.10101267E+03</pdfrwt>
<pdfrwt beam="2">  1       -2 0.15542003E-02 0.10101267E+03</pdfrwt>
<totfact> 0.67097980E+04</totfact>
</mgrwt>
</event>
<event>
 6    1  0.2975432E-002  0.1171178E+03  0.7546771E-02  0.1272819E+00
          2   -1    0    0  501    0  0.00000000000E+00  0.00000000000E+00  0.80642379425E+03  0.80642379425E+03  0.00000000000E+00 0. -1.
         -2   -1    0    0    0  501 -0.00000000000E+00 -0.00000000000E+00 -0.11769111425E+02  0.11769111425E+02  0.00000000000E+00 0.  1.
         23    2    1    2    0    0 -0.12854656754E+02  0.70663915477E+02  0.38971358858E+03  0.40693152777E+03  0.92509221245E+02 0.  0.
         11    1    3    3    0    0 -0.25111963350E+02  0.41806389087E+02  0.36143316939E+03  0.36470854228E+03  0.00000000000E+00 0. -1.
        -11    1    3    3    0    0  0.12257306597E+02  0.28857526389E+02  0.28280419188E+02  0.42222985491E+02  0.00000000000E+00 0.  1.
         22    1    1    2    0    0  0.12854656754E+02 -0.70663915477E+02  0.40494109425E+03  0.41126137791E+03  0.00000000000E+00 0.  1.
<mgrwt>
<rscale>  0 0.10364159E+03</rscale>
<asrwt>0</asrwt>
<pdfrwt beam="1">  1        2 0.12406516E+00 0.11711783E+03</pdfrwt>
<pdfrwt beam="2">  1       -2 0.18106332E-02 0.11711783E+03</pdfrwt>
<totfact> 0.29245640E+04</totfact>
</mgrwt>
</event>
<event>
 6    1  0.2975432E-002  0.1007851E+03  0.7546771E-02  0.1324067E+00
         -1   -1    0    0    0  501 -0.00000000000E+00  0.00000000000E+00  0.49732686429E+01  0.49732686429E+01  0.00000000000E+00 0.  1.
          1   -1    0    0  501    0  0.00000000000E+00 -0.00000000000E+00 -0.14376478449E+04  0.14376478449E+04  0.00000000000E+00 0. -1.
         23    2    1    2    0    0  0.28321078831E+02  0.33277534021E+02 -0.12757857110E+04  0.12797604559E+04  0.90819415503E+02 0.  0.
         11    1    3    3    0    0  0.39010556097E+02  0.42734522013E+02 -0.12382765523E+04  0.12396277194E+04  0.00000000000E+00 0. -1.
        -11    1    3    3    0    0 -0.10689477266E+02 -0.94569879912E+01 -0.37509158770E+02  0.40132736484E+02  0.00000000000E+00 0.  1.
         22    1    1    2    0    0 -0.28321078831E+02 -0.33277534021E+02 -0.15688886523E+03  0.16286065765E+03  0.00000000000E+00 0.  1.
<mgrwt>
<rscale>  0 0.81782747E+02</rscale>
<asrwt>0</asrwt>
<pdfrwt beam="1">  1        1 0.22117634E+00 0.10078514E+03</pdfrwt>
<pdfrwt beam="2">  1       -1 0.76511912E-03 0.10078514E+03</pdfrwt>
<totfact> 0.20513709E+04</totfact>
</mgrwt>
</event>
<event>
 6    1  0.2975432E-002  0.9554856E+02  0.7546771E-02  0.1368264E+00
         -2   -1    0    0    0  501 -0.00000000000E+00  0.00000000000E+00  0.20568939919E+03  0.20568939919E+03  0.00000000000E+00 0.  1.
          2   -1    0    0  501    0  0.00000000000E+00 -0.00000000000E+00 -0.17405522015E+02  0.17405522015E+02  0.00000000000E+00 0. -1.
         23    2    1    2    0    0  0.23922922337E+02 -0.20809139028E+01  0.14659459765E+03  0.17498429407E+03  0.92481839816E+02 0.  0.
         13    1    3    3    0    0 -0.15555343050E+02  0.36833705738E+02  0.56935813403E+02  0.69572821013E+02  0.00000000000E+00 0.  1.
        -13    1    3    3    0    0  0.39478265387E+02 -0.38914619641E+02  0.89658784248E+02  0.10541147306E+03  0.00000000000E+00 0. -1.
         22    1    1    2    0    0 -0.23922922337E+02  0.20809139028E+01  0.41689279520E+02  0.48110627128E+02  0.00000000000E+00 0.  1.
<mgrwt>
<rscale>  0 0.67652035E+02</rscale>
<asrwt>0</asrwt>
<pdfrwt beam="1">  1        2 0.26777728E-02 0.95548559E+02</pdfrwt>
<pdfrwt beam="2">  1       -2 0.31644521E-01 0.95548559E+02</pdfrwt>
<totfact> 0.29774593E+04</totfact>
</mgrwt>
</event>
<event>
 6    1  0.2975432E-002  0.9976042E+02  0.7546771E-02  0.1331640E+00
          2   -1    0    0  501    0  0.00000000000E+00  0.00000000000E+00  0.26845632089E+02  0.26845632089E+02  0.00000000000E+00 0. -1.
         -2   -1    0    0    0  501 -0.00000000000E+00 -0.00000000000E+00 -0.19243838996E+03  0.19243838996E+03  0.00000000000E+00 0.  1.
         23    2    1    2    0    0  0.37423918161E+02  0.12384624522E+02 -0.91549063404E+02  0.13540078615E+03  0.91641766153E+02 0.  0.
         13    1    3    3    0    0  0.40785852904E+02 -0.21536401464E+02 -0.10254395540E+02  0.47248862558E+02  0.00000000000E+00 0. -1.
        -13    1    3    3    0    0 -0.33619347429E+01  0.33921025986E+02 -0.81294667864E+02  0.88151923588E+02  0.00000000000E+00 0.  1.
         22    1    1    2    0    0 -0.37423918161E+02 -0.12384624522E+02 -0.74043694463E+02  0.83883235898E+02  0.00000000000E+00 0.  1.
<mgrwt>
<rscale>  0 0.79094738E+02</rscale>
<asrwt>0</asrwt>
<pdfrwt beam="1">  1        2 0.41300973E-02 0.99760422E+02</pdfrwt>
<pdfrwt beam="2">  1       -2 0.29605905E-01 0.99760422E+02</pdfrwt>
<totfact> 0.19005384E+04</totfact>
</mgrwt>
</event>
<event>
 6    1  0.2975432E-002  0.1094144E+03  0.7546771E-02  0.1293860E+00
          1   -1    0    0  501    0  0.00000000000E+00  0.00000000000E+00  0.45928443553E+03  0.45928443553E+03  0.00000000000E+00 0. -1.
         -1   -1    0    0    0  501 -0.00000000000E+00 -0.00000000000E+00 -0.22192110545E+02  0.22192110545E+02  0.00000000000E+00 0.  1.
         23    2    1    2    0    0 -0.46877953352E+02  0.36065418520E+02  0.39233083985E+03  0.40730210657E+03  0.92050318855E+02 0.  0.
         13    1    3    3    0    0 -0.46727596719E+02  0.65229751240E+02  0.29017940194E+03  0.30106888589E+03  0.00000000000E+00 0. -1.
        -13    1    3    3    0    0 -0.15035663288E+00 -0.29164332720E+02  0.10215143791E+03  0.10623322069E+03  0.00000000000E+00 0.  1.
         22    1    1    2    0    0  0.46877953352E+02 -0.36065418520E+02  0.44761485137E+02  0.74174439500E+02  0.00000000000E+00 0.  1.
<mgrwt>
<rscale>  0 0.93818271E+02</rscale>
<asrwt>0</asrwt>
<pdfrwt beam="1">  1        1 0.70659137E-01 0.10941443E+03</pdfrwt>
<pdfrwt beam="2">  1       -1 0.34141712E-02 0.10941443E+03</pdfrwt>
<totfact> 0.14604361E+04</totfact>
</mgrwt>
</event>
<event>
 6    1  0.2975432E-002  0.9527243E+02  0.7546771E-02  0.1368115E+00
         -1   -1    0    0    0  501 -0.00000000000E+00  0.00000000000E+00  0.56942194946E+01  0.56942194946E+01  0.00000000000E+00 0.  1.
          1   -1    0    0  501    0  0.00000000000E+00 -0.00000000000E+00 -0.62987007866E+03  0.62987007866E+03  0.00000000000E+00 0. -1.
         23    2    1    2    0    0  0.23616715951E+02 -0.56491897786E+01 -0.51226885188E+03  0.52105298475E+03  0.92125857910E+02 0.  0.
         13    1    3    3    0    0 -0.25309617607E+01  0.40405516237E+02 -0.17288732743E+03  0.17756418416E+03  0.00000000000E+00 0.  1.
        -13    1    3    3    0    0  0.26147677712E+02 -0.46054706015E+02 -0.33938152444E+03  0.34348880059E+03  0.00000000000E+00 0. -1.
         22    1    1    2    0    0 -0.23616715951E+02  0.56491897786E+01 -0.11190700728E+03  0.11451131340E+03  0.00000000000E+00 0. -1.
<mgrwt>
<rscale>  0 0.67694111E+02</rscale>
<asrwt>0</asrwt>
<pdfrwt beam="1">  1        1 0.96903060E-01 0.95272432E+02</pdfrwt>
<pdfrwt beam="2">  1       -1 0.87603403E-03 0.95272432E+02</pdfrwt>
<totfact> 0.66366144E+04</totfact>
</mgrwt>
</event>
<event>
 6    1  0.2975432E-002  0.1110553E+03  0.7546771E-02  0.1282870E+00
          2   -1    0    0  501    0  0.00000000000E+00  0.00000000000E+00  0.12418885793E+03  0.12418885793E+03  0.00000000000E+00 0. -1.
         -2   -1    0    0    0  501 -0.00000000000E+00 -0.00000000000E+00 -0.93199186492E+02  0.93199186492E+02  0.00000000000E+00 0.  1.
         23    2    1    2    0    0  0.31852615194E+02  0.61802831262E+02  0.75992389420E+02  0.13456640671E+03  0.86597318198E+02 0.  0.
         13    1    3    3    0    0 -0.11732230285E+02 -0.10002031084E+02 -0.65954343380E+01  0.16768589904E+02  0.00000000000E+00 0.  1.
        -13    1    3    3    0    0  0.43584845478E+02  0.71804862346E+02  0.82587823758E+02  0.11779781681E+03  0.00000000000E+00 0. -1.
         22    1    1    2    0    0 -0.31852615194E+02 -0.61802831262E+02 -0.45002717984E+02  0.82821637708E+02  0.00000000000E+00 0.  1.
<mgrwt>
<rscale>  0 0.98785850E+02</rscale>
<asrwt>0</asrwt>
<pdfrwt beam="1">  1        2 0.19105978E-01 0.11105528E+03</pdfrwt>
<pdfrwt beam="2">  1       -2 0.14338336E-01 0.11105528E+03</pdfrwt>
<totfact> 0.99892907E+03</totfact>
</mgrwt>
</event>
<event>
 6    1  0.2975432E-002  0.8961937E+02  0.7546771E-02  0.1429862E+00
          2   -1    0    0  501    0  0.00000000000E+00  0.00000000000E+00  0.15966214478E+03  0.15966214478E+03  0.00000000000E+00 0. -1.
         -2   -1    0    0    0  501 -0.00000000000E+00 -0.00000000000E+00 -0.17186571114E+02  0.17186571114E+02  0.00000000000E+00 0.  1.
         23    2    1    2    0    0  0.92648049362E+01  0.58403545354E+01  0.10622464893E+03  0.13897952134E+03  0.88947652927E+02 0.  0.
         11    1    3    3    0    0 -0.84037668425E+01 -0.12305620909E+02  0.11201274631E+03  0.11299958823E+03  0.00000000000E+00 0. -1.
        -11    1    3    3    0    0  0.17668571779E+02  0.18145975445E+02 -0.57880973814E+01  0.25979933118E+02  0.00000000000E+00 0.  1.
         22    1    1    2    0    0 -0.92648049362E+01 -0.58403545354E+01  0.36250924735E+02  0.37869194549E+02  0.00000000000E+00 0. -1.
<mgrwt>
<rscale>  0 0.52987666E+02</rscale>
<asrwt>0</asrwt>
<pdfrwt beam="1">  1        2 0.24563406E-01 0.89619369E+02</pdfrwt>
<pdfrwt beam="2">  1       -2 0.26440880E-02 0.89619369E+02</pdfrwt>
<totfact> 0.95417772E+04</totfact>
</mgrwt>
</event>
<event>
 6    1  0.2975432E-002  0.9154828E+02  0.7546771E-02  0.1414126E+00
         -2   -1    0    0    0  501 -0.00000000000E+00  0.00000000000E+00  0.11940290876E+02  0.11940290876E+02  0.00000000000E+00 0. -1.
          2   -1    0    0  501    0  0.00000000000E+00 -0.00000000000E+00 -0.23337445221E+03  0.23337445221E+03  0.00000000000E+00 0.  1.
         23    2    1    2    0    0 -0.15951977573E+01  0.12981101418E+02 -0.20324454291E+03  0.22291126415E+03  0.90609236908E+02 0.  0.
         13    1    3    3    0    0 -0.97549670793E+01 -0.10964809315E+02 -0.19606599196E+03  0.19661449496E+03  0.00000000000E+00 0.  1.
        -13    1    3    3    0    0  0.81597693220E+01  0.23945910733E+02 -0.71785509552E+01  0.26296769194E+02  0.00000000000E+00 0. -1.
         22    1    1    2    0    0  0.15951977573E+01 -0.12981101418E+02 -0.18189618422E+02  0.22403478932E+02  0.00000000000E+00 0. -1.
<mgrwt>
<rscale>  0 0.56283252E+02</rscale>
<asrwt>0</asrwt>
<pdfrwt beam="1">  1        2 0.35903759E-01 0.91548279E+02</pdfrwt>
<pdfrwt beam="2">  1       -2 0.18369680E-02 0.91548279E+02</pdfrwt>
<totfact> 0.10770862E+05</totfact>
</mgrwt>
</event>
<event>
 6    1  0.2975432E-002  0.9406526E+02  0.7546771E-02  0.1381160E+00
         -2   -1    0    0    0  501 -0.00000000000E+00  0.00000000000E+00  0.13966747799E+03  0.13966747799E+03  0.00000000000E+00 0.  1.
          2   -1    0    0  501    0  0.00000000000E+00 -0.00000000000E+00 -0.25441702220E+02  0.25441702220E+02  0.00000000000E+00 0. -1.
         23    2    1    2    0    0  0.14443346019E+02  0.14348879118E+02  0.72782616698E+02  0.11893520475E+03  0.91835576215E+02 0.  0.
         11    1    3    3    0    0 -0.27360315779E+02  0.37329077033E+02  0.38284276315E+02  0.60064404472E+02  0.00000000000E+00 0. -1.
        -11    1    3    3    0    0  0.41803661798E+02 -0.22980197914E+02  0.34498340383E+02  0.58870800275E+02  0.00000000000E+00 0.  1.
         22    1    1    2    0    0 -0.14443346019E+02 -0.14348879118E+02  0.41443159077E+02  0.46173975467E+02  0.00000000000E+00 0. -1.
<mgrwt>
<rscale>  0 0.64159740E+02</rscale>
<asrwt>0</asrwt>
<pdfrwt beam="1">  1        2 0.39141081E-02 0.94065263E+02</pdfrwt>
<pdfrwt beam="2">  1       -2 0.21487304E-01 0.94065263E+02</pdfrwt>
<totfact> 0.35308600E+04</totfact>
</mgrwt>
</event>
<event>
 6    1  0.2975432E-002  0.9411321E+02  0.7546771E-02  0.1369104E+00
         -2   -1    0    0    0  501 -0.00000000000E+00  0.00000000000E+00  0.55353226785E+03  0.55353226785E+03  0.00000000000E+00 0. -1.
          2   -1    0    0  501    0  0.00000000000E+00 -0.00000000000E+00 -0.63847941017E+01  0.63847941017E+01  0.00000000000E+00 0.  1.
         23    2    1    2    0    0  0.10139270330E+02 -0.22611869930E+02  0.43491944223E+03  0.44498563665E+03  0.90792037790E+02 0.  0.
         11    1    3    3    0    0 -0.20025953685E+02 -0.45049711064E+02  0.32721889582E+03  0.33091195365E+03  0.00000000000E+00 0. -1.
        -11    1    3    3    0    0  0.30165224015E+02  0.22437841133E+02  0.10770054641E+03  0.11407368299E+03  0.00000000000E+00 0.  1.
         22    1    1    2    0    0 -0.10139270330E+02  0.22611869930E+02  0.11222803151E+03  0.11493142530E+03  0.00000000000E+00 0. -1.
<mgrwt>
<rscale>  0 0.67416770E+02</rscale>
<asrwt>0</asrwt>
<pdfrwt beam="1">  1        2 0.98227644E-03 0.94113206E+02</pdfrwt>
<pdfrwt beam="2">  1       -2 0.85158773E-01 0.94113206E+02</pdfrwt>
<totfact> 0.16209614E+04</totfact>
</mgrwt>
</event>
<event>
 6    1  0.2975432E-002  0.9330737E+02  0.7546771E-02  0.1388100E+00
         -2   -1    0    0    0  501 -0.00000000000E+00  0.00000000000E+00  0.68920285695E+01  0.68920285695E+01  0.00000000000E+00 0.  1.
          2   -1    0    0  501    0  0.00000000000E+00 -0.00000000000E+00 -0.45803543778E+03  0.45803543778E+03  0.00000000000E+00 0. -1.
         23    2    1    2    0    0  0.57902018032E+01 -0.17719426897E+02 -0.38993173729E+03  0.40094017616E+03  0.91426257644E+02 0.  0.
         11    1    3    3    0    0  0.36113022134E+01  0.15299626544E+02 -0.81129003014E+01  0.17690088394E+02  0.00000000000E+00 0.  1.
        -11    1    3    3    0    0  0.21788995898E+01 -0.33019053441E+02 -0.38181883699E+03  0.38325008777E+03  0.00000000000E+00 0. -1.
         22    1    1    2    0    0 -0.57902018032E+01  0.17719426897E+02 -0.61211671919E+02  0.63987290188E+02  0.00000000000E+00 0.  1.
<mgrwt>
<rscale>  0 0.62381673E+02</rscale>
<asrwt>0</asrwt>
<pdfrwt beam="1">  1        2 0.70466998E-01 0.93307369E+02</pdfrwt>
<pdfrwt beam="2">  1       -2 0.10603120E-02 0.93307369E+02</pdfrwt>
<totfact> 0.11638280E+05</totfact>
</mgrwt>
</event>
<event>
 6    1  0.2975432E-002  0.9445853E+02  0.7546771E-02  0.1369845E+00
         -2   -1    0    0    0  501 -0.00000000000E+00  0.00000000000E+00  0.66203156767E+02  0.66203156767E+02  0.00000000000E+00 0.  1.
          2   -1    0    0  501    0  0.00000000000E+00 -0.00000000000E+00 -0.68983369288E+02  0.68983369288E+02  0.00000000000E+00 0. -1.
         23    2    1    2    0    0 -0.18695363266E+02  0.15384201470E+02 -0.29664488586E+02  0.99007048971E+02  0.91302922190E+02 0.  0.
         11    1    3    3    0    0  0.21075275370E+01  0.44982334162E+02  0.91447090281E+01  0.45950818950E+02  0.00000000000E+00 0.  1.
        -11    1    3    3    0    0 -0.20802890803E+02 -0.29598132692E+02 -0.38809197614E+02  0.53056230021E+02  0.00000000000E+00 0. -1.
         22    1    1    2    0    0  0.18695363266E+02 -0.15384201470E+02  0.26884276065E+02  0.36179477084E+02  0.00000000000E+00 0.  1.
<mgrwt>
<rscale>  0 0.67210281E+02</rscale>
<asrwt>0</asrwt>
<pdfrwt beam="1">  1        2 0.10612826E-01 0.94458530E+02</pdfrwt>
<pdfrwt beam="2">  1       -2 0.10185101E-01 0.94458530E+02</pdfrwt>
<totfact> 0.33577126E+04</totfact>
</mgrwt>
</event>
<event>
 6    1  0.2975432E-002  0.8929601E+02  0.7546771E-02  0.1432674E+00
         -2   -1    0    0    0  501 -0.00000000000E+00  0.00000000000E+00  0.87500994451E+01  0.87500994451E+01  0.00000000000E+00 0.  1.
          2   -1    0    0  501    0  0.00000000000E+00 -0.00000000000E+00 -0.13802395803E+04  0.13802395803E+04  0.00000000000E+00 0. -1.
         23    2    1    2    0    0  0.95440942593E+01 -0.46354904684E+01 -0.13749368076E+04  0.13778334452E+04  0.88663410640E+02 0.  0.
         13    1    3    3    0    0  0.26576054144E+02  0.23358204005E+02 -0.11477964216E+04  0.11483416381E+04  0.00000000000E+00 0. -1.
        -13    1    3    3    0    0 -0.17031959885E+02 -0.27993694473E+02 -0.22714038597E+03  0.22949180710E+03  0.00000000000E+00 0.  1.
         22    1    1    2    0    0 -0.95440942593E+01  0.46354904684E+01  0.34473267389E+01  0.11156234524E+02  0.00000000000E+00 0.  1.
<mgrwt>
<rscale>  0 0.52427060E+02</rscale>
<asrwt>0</asrwt>
<pdfrwt beam="1">  1        2 0.21234464E+00 0.89296013E+02</pdfrwt>
<pdfrwt beam="2">  1       -2 0.13461686E-02 0.89296013E+02</pdfrwt>
<totfact> 0.20445375E+04</totfact>
</mgrwt>
</event>
<event>
 6    1  0.2975432E-002  0.9231904E+02  0.7546771E-02  0.1390976E+00
         -2   -1    0    0    0  501 -0.00000000000E+00  0.00000000000E+00  0.61726119343E+02  0.61726119343E+02  0.00000000000E+00 0.  1.
          2   -1    0    0  501    0  0.00000000000E+00 -0.00000000000E+00 -0.59824490486E+02  0.59824490486E+02  0.00000000000E+00 0. -1.
         23    2    1    2    0    0  0.10555135076E+02 -0.15042984673E+02 -0.18434403365E+02  0.94141551639E+02  0.90471554939E+02 0.  0.
         13    1    3    3    0    0  0.38177760327E+02 -0.69075346864E+01 -0.41820491927E+02  0.57045674368E+02  0.00000000000E+00 0. -1.
        -13    1    3    3    0    0 -0.27622625251E+02 -0.81354499870E+01  0.23386088562E+02  0.37095877271E+02  0.00000000000E+00 0.  1.
         22    1    1    2    0    0 -0.10555135076E+02  0.15042984673E+02  0.20336032222E+02  0.27409058191E+02  0.00000000000E+00 0.  1.
<mgrwt>
<rscale>  0 0.61664497E+02</rscale>
<asrwt>0</asrwt>
<pdfrwt beam="1">  1        2 0.92037677E-02 0.92319037E+02</pdfrwt>
<pdfrwt beam="2">  1       -2 0.94963261E-02 0.92319037E+02</pdfrwt>
<totfact> 0.44375730E+04</totfact>
</mgrwt>
</event>
<event>
 6    1  0.2975432E-002  0.9271065E+02  0.7546771E-02  0.1407898E+00
         -3   -1    0    0    0  501 -0.00000000000E+00  0.00000000000E+00  0.31402272010E+02  0.31402272010E+02  0.00000000000E+00 0.  1.
          3   -1    0    0  501    0  0.00000000000E+00 -0.00000000000E+00 -0.15042378896E+03  0.15042378896E+03  0.00000000000E+00 0. -1.
         23    2    1    2    0    0  0.84507053395E+01 -0.11006270116E+02 -0.13300351403E+03  0.16212711061E+03  0.91666312505E+02 0.  0.
         11    1    3    3    0    0  0.42287452841E+01 -0.92889459375E+01 -0.14702736256E+03  0.14738117976E+03  0.00000000000E+00 0. -1.
        -11    1    3    3    0    0  0.42219600554E+01 -0.17173241789E+01  0.14023848536E+02  0.14745930856E+02  0.00000000000E+00 0.  1.
         22    1    1    2    0    0 -0.84507053395E+01  0.11006270116E+02  0.13981997084E+02  0.19698950354E+02  0.00000000000E+00 0.  1.
<mgrwt>
<rscale>  0 0.57665472E+02</rscale>
<asrwt>0</asrwt>
<pdfrwt beam="1">  1        3 0.23142121E-01 0.92710653E+02</pdfrwt>
<pdfrwt beam="2">  1       -3 0.48311189E-02 0.92710653E+02</pdfrwt>
<totfact> 0.86591436E+03</totfact>
</mgrwt>
</event>
<event>
 6    1  0.2975432E-002  0.9825843E+02  0.7546771E-02  0.1344146E+00
         -2   -1    0    0    0  501 -0.00000000000E+00  0.00000000000E+00  0.31337252997E+02  0.31337252997E+02  0.00000000000E+00 0.  1.
          2   -1    0    0  501    0  0.00000000000E+00 -0.00000000000E+00 -0.14355705526E+03  0.14355705526E+03  0.00000000000E+00 0. -1.
         23    2    1    2    0    0 -0.13766405576E+02  0.30206438310E+02 -0.98017788980E+02  0.13878835281E+03  0.92481225554E+02 0.  0.
         11    1    3    3    0    0 -0.47248462571E+02  0.46206934318E+01 -0.79857046367E+02  0.92902722660E+02  0.00000000000E+00 0. -1.
        -11    1    3    3    0    0  0.33482056995E+02  0.25585744878E+02 -0.18160742613E+02  0.45885630145E+02  0.00000000000E+00 0.  1.
         22    1    1    2    0    0  0.13766405576E+02 -0.30206438310E+02 -0.14202013285E+02  0.36105955454E+02  0.00000000000E+00 0.  1.
<mgrwt>
<rscale>  0 0.74911288E+02</rscale>
<asrwt>0</asrwt>
<pdfrwt beam="1">  1        2 0.22085701E-01 0.98258434E+02</pdfrwt>
<pdfrwt beam="2">  1       -2 0.48211159E-02 0.98258434E+02</pdfrwt>
<totfact> 0.45051062E+04</totfact>
</mgrwt>
</event>
<event>
 6    1  0.2975432E-002  0.1222799E+03  0.7546771E-02  0.1258163E+00
         -2   -1    0    0    0  501 -0.00000000000E+00  0.00000000000E+00  0.13762351242E+03  0.13762351242E+03  0.00000000000E+00 0.  1.
          2   -1    0    0  501    0  0.00000000000E+00 -0.00000000000E+00 -0.12492268880E+03  0.12492268880E+03  0.00000000000E+00 0. -1.
         23    2    1    2    0    0 -0.49825635983E+02  0.67577833819E+02 -0.73129138975E+02  0.14247896961E+03  0.88898977440E+02 0.  0.
         13    1    3    3    0    0  0.18857502716E+02  0.70880765308E+01  0.64961428442E+01  0.21167099694E+02  0.00000000000E+00 0.  1.
        -13    1    3    3    0    0 -0.68683138699E+02  0.60489757289E+02 -0.79625281819E+02  0.12131186992E+03  0.00000000000E+00 0. -1.
         22    1    1    2    0    0  0.49825635983E+02 -0.67577833819E+02  0.85829962600E+02  0.12006723160E+03  0.00000000000E+00 0.  1.
<mgrwt>
<rscale>  0 0.11131024E+03</rscale>
<asrwt>0</asrwt>
<pdfrwt beam="1">  1        2 0.19218875E-01 0.12227995E+03</pdfrwt>
<pdfrwt beam="2">  1       -2 0.21172848E-01 0.12227995E+03</pdfrwt>
<totfact> 0.52391738E+03</totfact>
</mgrwt>
</event>
<event>
 6    1  0.2975432E-002  0.1174273E+03  0.7546771E-02  0.1272610E+00
         -2   -1    0    0    0  501 -0.00000000000E+00  0.00000000000E+00  0.36425044670E+02  0.36425044670E+02  0.00000000000E+00 0.  1.
          2   -1    0    0  501    0  0.00000000000E+00 -0.00000000000E+00 -0.76086581272E+03  0.76086581272E+03  0.00000000000E+00 0. -1.
         23    2    1    2    0    0 -0.70695060497E+02 -0.10994813884E+02 -0.71563596049E+03  0.72520617006E+03  0.93115431737E+02 0.  0.
         11    1    3    3    0    0 -0.58562207266E+02  0.56791904514E+00 -0.17958295917E+03  0.18889122234E+03  0.00000000000E+00 0.  1.
        -11    1    3    3    0    0 -0.12132853231E+02 -0.11562732929E+02 -0.53605300132E+03  0.53631494772E+03  0.00000000000E+00 0. -1.
         22    1    1    2    0    0  0.70695060497E+02  0.10994813884E+02 -0.88048075521E+01  0.72084687327E+02  0.00000000000E+00 0.  1.
<mgrwt>
<rscale>  0 0.10374601E+03</rscale>
<asrwt>0</asrwt>
<pdfrwt beam="1">  1        2 0.11705628E+00 0.11742726E+03</pdfrwt>
<pdfrwt beam="2">  1       -2 0.56038529E-02 0.11742726E+03</pdfrwt>
<totfact> 0.59723431E+03</totfact>
</mgrwt>
</event>
<event>
 6    1  0.2975432E-002  0.9881705E+02  0.7546771E-02  0.1395677E+00
         -2   -1    0    0    0  501 -0.00000000000E+00  0.00000000000E+00  0.14063474720E+02  0.14063474720E+02  0.00000000000E+00 0.  1.
          2   -1    0    0  501    0  0.00000000000E+00 -0.00000000000E+00 -0.23849318621E+03  0.23849318621E+03  0.00000000000E+00 0. -1.
         23    2    1    2    0    0  0.13648739472E+02  0.26279221714E+01 -0.21204583999E+03  0.23394069097E+03  0.97834628688E+02 0.  0.
         13    1    3    3    0    0  0.36138067282E+02 -0.15773017561E+02 -0.19758941286E+03  0.20148529491E+03  0.00000000000E+00 0. -1.
        -13    1    3    3    0    0 -0.22489327809E+02  0.18400939732E+02 -0.14456427135E+02  0.32455396067E+02  0.00000000000E+00 0.  1.
         22    1    1    2    0    0 -0.13648739472E+02 -0.26279221714E+01 -0.12383871493E+02  0.18615969952E+02  0.00000000000E+00 0.  1.
<mgrwt>
<rscale>  0 0.60516405E+02</rscale>
<asrwt>0</asrwt>
<pdfrwt beam="1">  1        2 0.36691255E-01 0.98817046E+02</pdfrwt>
<pdfrwt beam="2">  1       -2 0.21636118E-02 0.98817046E+02</pdfrwt>
<totfact> 0.84133716E+04</totfact>
</mgrwt>
</event>
<event>
 6    1  0.2975432E-002  0.9191409E+02  0.7546771E-02  0.1410215E+00
         -2   -1    0    0    0  501 -0.00000000000E+00  0.00000000000E+00  0.10108974099E+02  0.10108974099E+02  0.00000000000E+00 0.  1.
          2   -1    0    0  501    0  0.00000000000E+00 -0.00000000000E+00 -0.31609423770E+03  0.31609423770E+03  0.00000000000E+00 0. -1.
         23    2    1    2    0    0 -0.10714495837E+02  0.85919816622E+01 -0.29380320993E+03  0.30784497110E+03  0.90882217704E+02 0.  0.
         13    1    3    3    0    0  0.35413660237E+01 -0.33801937899E+02 -0.53269743879E+02  0.63188431631E+02  0.00000000000E+00 0.  1.
        -13    1    3    3    0    0 -0.14255861861E+02  0.42393919561E+02 -0.24053346606E+03  0.24465653947E+03  0.00000000000E+00 0. -1.
         22    1    1    2    0    0  0.10714495837E+02 -0.85919816622E+01 -0.12182053663E+02  0.18358240694E+02  0.00000000000E+00 0.  1.
<mgrwt>
<rscale>  0 0.57145992E+02</rscale>
<asrwt>0</asrwt>
<pdfrwt beam="1">  1        2 0.48629877E-01 0.91914091E+02</pdfrwt>
<pdfrwt beam="2">  1       -2 0.15552270E-02 0.91914091E+02</pdfrwt>
<totfact> 0.99503012E+04</totfact>
</mgrwt>
</event>
<event>
 6    1  0.2975432E-002  0.9560479E+02  0.7546771E-02  0.1383016E+00
         -2   -1    0    0    0  501 -0.00000000000E+00  0.00000000000E+00  0.67848811568E+01  0.67848811568E+01  0.00000000000E+00 0.  1.
          2   -1    0    0  501    0  0.00000000000E+00 -0.00000000000E+00 -0.48575177640E+03  0.48575177640E+03  0.00000000000E+00 0. -1.
         23    2    1    2    0    0  0.13359515022E+02 -0.13249122769E+02 -0.38387354384E+03  0.39559976377E+03  0.93735049685E+02 0.  0.
         11    1    3    3    0    0  0.38600529042E+02  0.19748742884E+02 -0.10425832241E+03  0.11291506312E+03  0.00000000000E+00 0.  1.
        -11    1    3    3    0    0 -0.25241014020E+02 -0.32997865654E+02 -0.27961522142E+03  0.28268470064E+03  0.00000000000E+00 0. -1.
         22    1    1    2    0    0 -0.13359515022E+02  0.13249122769E+02 -0.95093351404E+02  0.96936893787E+02  0.00000000000E+00 0. -1.
<mgrwt>
<rscale>  0 0.63677730E+02</rscale>
<asrwt>0</asrwt>
<pdfrwt beam="1">  1        2 0.74731025E-01 0.95604788E+02</pdfrwt>
<pdfrwt beam="2">  1       -2 0.10438281E-02 0.95604788E+02</pdfrwt>
<totfact> 0.11212348E+05</totfact>
</mgrwt>
</event>
<event>
 6    1  0.2975432E-002  0.9464531E+02  0.7546771E-02  0.1385197E+00
          4   -1    0    0  501    0  0.00000000000E+00  0.00000000000E+00  0.36483579354E+03  0.36483579354E+03  0.00000000000E+00 0. -1.
         -4   -1    0    0    0  501 -0.00000000000E+00 -0.00000000000E+00 -0.94206065531E+01  0.94206065531E+01  0.00000000000E+00 0.  1.
         23    2    1    2    0    0  0.15339806968E+02  0.10728731534E+02  0.32537778064E+03  0.33886344687E+03  0.92775644052E+02 0.  0.
         13    1    3    3    0    0 -0.14591280703E+02  0.24714957484E+02  0.29540275511E+02  0.41186921143E+02  0.00000000000E+00 0.  1.
        -13    1    3    3    0    0  0.29931087670E+02 -0.13986225950E+02  0.29583750513E+03  0.29767652572E+03  0.00000000000E+00 0. -1.
         22    1    1    2    0    0 -0.15339806968E+02 -0.10728731534E+02  0.30037406348E+02  0.35392953229E+02  0.00000000000E+00 0.  1.
<mgrwt>
<rscale>  0 0.63117128E+02</rscale>
<asrwt>0</asrwt>
<pdfrwt beam="1">  1        4 0.56128573E-01 0.94645314E+02</pdfrwt>
<pdfrwt beam="2">  1       -4 0.14493244E-02 0.94645314E+02</pdfrwt>
<totfact> 0.75456556E+03</totfact>
</mgrwt>
</event>
<event>
 6    1  0.2975432E-002  0.9439773E+02  0.7546771E-02  0.1353088E+00
         -1   -1    0    0    0  501 -0.00000000000E+00  0.00000000000E+00  0.20935876074E+03  0.20935876074E+03  0.00000000000E+00 0.  1.
          1   -1    0    0  501    0  0.00000000000E+00 -0.00000000000E+00 -0.19451375802E+02  0.19451375802E+02  0.00000000000E+00 0. -1.
         23    2    1    2    0    0 -0.29884451633E+02 -0.11798920936E+02  0.15397689850E+03  0.18060956766E+03  0.88761679092E+02 0.  0.
         13    1    3    3    0    0 -0.46214397328E+02 -0.21257309471E+02  0.39011727703E+02  0.64105839240E+02  0.00000000000E+00 0. -1.
        -13    1    3    3    0    0  0.16329945695E+02  0.94583885349E+01  0.11496517079E+03  0.11650372842E+03  0.00000000000E+00 0.  1.
         22    1    1    2    0    0  0.29884451633E+02  0.11798920936E+02  0.35930486446E+02  0.48200568886E+02  0.00000000000E+00 0.  1.
<mgrwt>
<rscale>  0 0.72101886E+02</rscale>
<asrwt>0</asrwt>
<pdfrwt beam="1">  1        1 0.29925195E-02 0.94397726E+02</pdfrwt>
<pdfrwt beam="2">  1       -1 0.32209038E-01 0.94397726E+02</pdfrwt>
<totfact> 0.27257512E+04</totfact>
</mgrwt>
</event>
<event>
 6    1  0.2975432E-002  0.9787732E+02  0.7546771E-02  0.1341466E+00
          1   -1    0    0  501    0  0.00000000000E+00  0.00000000000E+00  0.54110761961E+02  0.54110761961E+02  0.00000000000E+00 0. -1.
         -1   -1    0    0    0  501 -0.00000000000E+00 -0.00000000000E+00 -0.11949177094E+03  0.11949177094E+03  0.00000000000E+00 0.  1.
         23    2    1    2    0    0 -0.24293159174E+02 -0.25437512815E+02  0.16633289109E+01  0.97891451255E+02  0.91338627781E+02 0.  0.
         11    1    3    3    0    0 -0.10323093096E+02 -0.28693520705E+02  0.43805868074E+02  0.53374511325E+02  0.00000000000E+00 0. -1.
        -11    1    3    3    0    0 -0.13970066078E+02  0.32560078895E+01 -0.42142539163E+02  0.44516939930E+02  0.00000000000E+00 0.  1.
         22    1    1    2    0    0  0.24293159174E+02  0.25437512815E+02 -0.67044337886E+02  0.75711081643E+02  0.00000000000E+00 0.  1.
<mgrwt>
<rscale>  0 0.75782271E+02</rscale>
<asrwt>0</asrwt>
<pdfrwt beam="1">  1        1 0.83247326E-02 0.97877319E+02</pdfrwt>
<pdfrwt beam="2">  1       -1 0.18383349E-01 0.97877319E+02</pdfrwt>
<totfact> 0.17089342E+04</totfact>
</mgrwt>
</event>
<event>
 6    1  0.2975432E-002  0.9275675E+02  0.7546771E-02  0.1395305E+00
          2   -1    0    0  501    0  0.00000000000E+00  0.00000000000E+00  0.15071712124E+03  0.15071712124E+03  0.00000000000E+00 0. -1.
         -2   -1    0    0    0  501 -0.00000000000E+00 -0.00000000000E+00 -0.20738384287E+02  0.20738384287E+02  0.00000000000E+00 0.  1.
         23    2    1    2    0    0 -0.32849822448E+01 -0.16583516465E+02  0.12052569593E+03  0.15208635192E+03  0.91203130075E+02 0.  0.
         11    1    3    3    0    0 -0.39683614561E+02 -0.57549876187E+01  0.10247171904E+03  0.11003800412E+03  0.00000000000E+00 0. -1.
        -11    1    3    3    0    0  0.36398632316E+02 -0.10828528846E+02  0.18053976882E+02  0.42048347800E+02  0.00000000000E+00 0.  1.
         22    1    1    2    0    0  0.32849822448E+01  0.16583516465E+02  0.94530410233E+01  0.19369153603E+02  0.00000000000E+00 0.  1.
<mgrwt>
<rscale>  0 0.60606292E+02</rscale>
<asrwt>0</asrwt>
<pdfrwt beam="1">  1        2 0.23187249E-01 0.92756752E+02</pdfrwt>
<pdfrwt beam="2">  1       -2 0.31905208E-02 0.92756752E+02</pdfrwt>
<totfact> 0.77762848E+04</totfact>
</mgrwt>
</event>
<event>
 6    1  0.2975432E-002  0.8174719E+02  0.7546771E-02  0.1436948E+00
          2   -1    0    0  501    0  0.00000000000E+00  0.00000000000E+00  0.70306533190E+03  0.70306533190E+03  0.00000000000E+00 0. -1.
         -2   -1    0    0    0  501 -0.00000000000E+00 -0.00000000000E+00 -0.45497747748E+01  0.45497747748E+01  0.00000000000E+00 0.  1.
         23    2    1    2    0    0  0.10421646747E+02  0.77163794714E+01  0.68063971440E+03  0.68553119882E+03  0.80712145940E+02 0.  0.
         11    1    3    3    0    0  0.35505374972E+02 -0.14945095391E+02  0.51717479478E+03  0.51860751623E+03  0.00000000000E+00 0. -1.
        -11    1    3    3    0    0 -0.25083728226E+02  0.22661474863E+02  0.16346491962E+03  0.16692368259E+03  0.00000000000E+00 0.  1.
         22    1    1    2    0    0 -0.10421646747E+02 -0.77163794714E+01  0.17875842726E+02  0.22083907857E+02  0.00000000000E+00 0.  1.
<mgrwt>
<rscale>  0 0.51590269E+02</rscale>
<asrwt>0</asrwt>
<pdfrwt beam="1">  1        2 0.10816381E+00 0.81747194E+02</pdfrwt>
<pdfrwt beam="2">  1       -2 0.69996591E-03 0.81747194E+02</pdfrwt>
<totfact> 0.12751927E+05</totfact>
</mgrwt>
</event>
<event>
 6    1  0.2975432E-002  0.9585335E+02  0.7546771E-02  0.1356256E+00
          1   -1    0    0  501    0  0.00000000000E+00  0.00000000000E+00  0.37980130877E+03  0.37980130877E+03  0.00000000000E+00 0. -1.
         -1   -1    0    0    0  501 -0.00000000000E+00 -0.00000000000E+00 -0.13873764561E+02  0.13873764561E+02  0.00000000000E+00 0.  1.
         23    2    1    2    0    0 -0.89961487891E+01 -0.27657697580E+02  0.34440123267E+03  0.35749136129E+03  0.91334469967E+02 0.  0.
         11    1    3    3    0    0 -0.35152593186E+01 -0.61479911567E+02  0.22369492353E+03  0.23201628259E+03  0.00000000000E+00 0.  1.
        -11    1    3    3    0    0 -0.54808894704E+01  0.33822213987E+02  0.12070630915E+03  0.12547507870E+03  0.00000000000E+00 0. -1.
         22    1    1    2    0    0  0.89961487891E+01  0.27657697580E+02  0.21526311535E+02  0.36183712037E+02  0.00000000000E+00 0. -1.
<mgrwt>
<rscale>  0 0.71140840E+02</rscale>
<asrwt>0</asrwt>
<pdfrwt beam="1">  1        1 0.58430963E-01 0.95853348E+02</pdfrwt>
<pdfrwt beam="2">  1       -1 0.21344256E-02 0.95853348E+02</pdfrwt>
<totfact> 0.35990295E+04</totfact>
</mgrwt>
</event>
<event>
 6    1  0.2975432E-002  0.9720782E+02  0.7546771E-02  0.1365810E+00
         -1   -1    0    0    0  501 -0.00000000000E+00  0.00000000000E+00  0.41672126497E+02  0.41672126497E+02  0.00000000000E+00 0.  1.
          1   -1    0    0  501    0  0.00000000000E+00 -0.00000000000E+00 -0.11868349302E+03  0.11868349302E+03  0.00000000000E+00 0. -1.
         23    2    1    2    0    0  0.25999837005E+01 -0.23611932206E+02 -0.90690358087E+02  0.13294397841E+03  0.94260686865E+02 0.  0.
         13    1    3    3    0    0  0.23007561084E+02  0.21816461397E+02 -0.73855621128E+02  0.80373867813E+02  0.00000000000E+00 0.  1.
        -13    1    3    3    0    0 -0.20407577383E+02 -0.45428393603E+02 -0.16834736959E+02  0.52570110600E+02  0.00000000000E+00 0. -1.
         22    1    1    2    0    0 -0.25999837005E+01  0.23611932206E+02  0.13678991565E+02  0.27411641103E+02  0.00000000000E+00 0.  1.
<mgrwt>
<rscale>  0 0.68345992E+02</rscale>
<asrwt>0</asrwt>
<pdfrwt beam="1">  1        1 0.18258999E-01 0.97207820E+02</pdfrwt>
<pdfrwt beam="2">  1       -1 0.64110965E-02 0.97207820E+02</pdfrwt>
<totfact> 0.30690621E+04</totfact>
</mgrwt>
</event>
<event>
 6    1  0.2975432E-002  0.8939207E+02  0.7546771E-02  0.1408564E+00
          2   -1    0    0  501    0  0.00000000000E+00  0.00000000000E+00  0.14297562517E+02  0.14297562517E+02  0.00000000000E+00 0. -1.
         -2   -1    0    0    0  501 -0.00000000000E+00 -0.00000000000E+00 -0.19748110806E+03  0.19748110806E+03  0.00000000000E+00 0.  1.
         23    2    1    2    0    0 -0.15250481248E+02  0.14520555641E+01 -0.14152414456E+03  0.16739183318E+03  0.88069612688E+02 0.  0.
         11    1    3    3    0    0 -0.13563615844E+01 -0.70499760783E+01  0.11470790568E+02  0.13532217694E+02  0.00000000000E+00 0. -1.
        -11    1    3    3    0    0 -0.13894119663E+02  0.85020316425E+01 -0.15299493513E+03  0.15385961549E+03  0.00000000000E+00 0.  1.
         22    1    1    2    0    0  0.15250481248E+02 -0.14520555641E+01 -0.41659400988E+02  0.44386837400E+02  0.00000000000E+00 0.  1.
<mgrwt>
<rscale>  0 0.57515522E+02</rscale>
<asrwt>0</asrwt>
<pdfrwt beam="1">  1        2 0.21996252E-02 0.89392071E+02</pdfrwt>
<pdfrwt beam="2">  1       -2 0.30381707E-01 0.89392071E+02</pdfrwt>
<totfact> 0.41300595E+04</totfact>
</mgrwt>
</event>
<event>
 6    1  0.2975432E-002  0.9255760E+02  0.7546771E-02  0.1426435E+00
         -2   -1    0    0    0  501 -0.00000000000E+00  0.00000000000E+00  0.58420427741E+02  0.58420427741E+02  0.00000000000E+00 0. -1.
          2   -1    0    0  501    0  0.00000000000E+00 -0.00000000000E+00 -0.45877883209E+02  0.45877883209E+02  0.00000000000E+00 0.  1.
         23    2    1    2    0    0  0.10370155473E+02  0.14672740650E+01  0.80663253200E+01  0.92908422620E+02  0.91963125066E+02 0.  0.
         13    1    3    3    0    0  0.37843112694E+01 -0.13660243434E+02 -0.39815663227E+02  0.42263581257E+02  0.00000000000E+00 0.  1.
        -13    1    3    3    0    0  0.65858442041E+01  0.15127517499E+02  0.47881988547E+02  0.50644841364E+02  0.00000000000E+00 0. -1.
         22    1    1    2    0    0 -0.10370155473E+02 -0.14672740650E+01  0.44762192127E+01  0.11389888330E+02  0.00000000000E+00 0. -1.
<mgrwt>
<rscale>  0 0.53682340E+02</rscale>
<asrwt>0</asrwt>
<pdfrwt beam="1">  1        2 0.70581359E-02 0.92557600E+02</pdfrwt>
<pdfrwt beam="2">  1       -2 0.89877581E-02 0.92557600E+02</pdfrwt>
<totfact> 0.67166172E+04</totfact>
</mgrwt>
</event>
<event>
 6    1  0.2975432E-002  0.9109246E+02  0.7546771E-02  0.1431264E+00
          1   -1    0    0  501    0  0.00000000000E+00  0.00000000000E+00  0.65648678468E+02  0.65648678468E+02  0.00000000000E+00 0. -1.
         -1   -1    0    0    0  501 -0.00000000000E+00 -0.00000000000E+00 -0.39081634136E+02  0.39081634136E+02  0.00000000000E+00 0.  1.
         23    2    1    2    0    0  0.88767136363E+01  0.50448433412E+01  0.24090160465E+02  0.94224055278E+02  0.90518452663E+02 0.  0.
         13    1    3    3    0    0 -0.33674454277E+02  0.22392282883E+01  0.36598484346E+02  0.49783853513E+02  0.00000000000E+00 0. -1.
        -13    1    3    3    0    0  0.42551167913E+02  0.28056150529E+01 -0.12508323881E+02  0.44440201765E+02  0.00000000000E+00 0.  1.
         22    1    1    2    0    0 -0.88767136363E+01 -0.50448433412E+01  0.24768838667E+01  0.10506257326E+02  0.00000000000E+00 0.  1.
<mgrwt>
<rscale>  0 0.52707147E+02</rscale>
<asrwt>0</asrwt>
<pdfrwt beam="1">  1        1 0.10099797E-01 0.91092463E+02</pdfrwt>
<pdfrwt beam="2">  1       -1 0.60125591E-02 0.91092463E+02</pdfrwt>
<totfact> 0.71704753E+04</totfact>
</mgrwt>
</event>
<event>
 6    1  0.2975432E-002  0.8559934E+02  0.7546771E-02  0.1434883E+00
         -2   -1    0    0    0  501 -0.00000000000E+00  0.00000000000E+00  0.25818453332E+01  0.25818453332E+01  0.00000000000E+00 0. -1.
          2   -1    0    0  501    0  0.00000000000E+00 -0.00000000000E+00 -0.10521002573E+04  0.10521002573E+04  0.00000000000E+00 0.  1.
         23    2    1    2    0    0 -0.98899799903E+01 -0.61579257654E+01 -0.10058678539E+04  0.10095035350E+04  0.84802806051E+02 0.  0.
         11    1    3    3    0    0 -0.38475342060E+02 -0.18306758903E+02 -0.81602404430E+03  0.81713568656E+03  0.00000000000E+00 0.  1.
        -11    1    3    3    0    0  0.28585362070E+02  0.12148833138E+02 -0.18984380957E+03  0.19236784842E+03  0.00000000000E+00 0. -1.
         22    1    1    2    0    0  0.98899799903E+01  0.61579257654E+01 -0.43650558102E+02  0.45178567668E+02  0.00000000000E+00 0. -1.
<mgrwt>
<rscale>  0 0.51992178E+02</rscale>
<asrwt>0</asrwt>
<pdfrwt beam="1">  1        2 0.16186165E+00 0.85599344E+02</pdfrwt>
<pdfrwt beam="2">  1       -2 0.39720680E-03 0.85599344E+02</pdfrwt>
<totfact> 0.17074204E+05</totfact>
</mgrwt>
</event>
<event>
 6    1  0.2975432E-002  0.9342630E+02  0.7546771E-02  0.1414445E+00
          2   -1    0    0  501    0  0.00000000000E+00  0.00000000000E+00  0.27275009534E+02  0.27275009534E+02  0.00000000000E+00 0. -1.
         -2   -1    0    0    0  501 -0.00000000000E+00 -0.00000000000E+00 -0.15557779821E+03  0.15557779821E+03  0.00000000000E+00 0.  1.
         23    2    1    2    0    0 -0.88336101229E+01 -0.84798528159E+01 -0.54748146582E+02  0.10828588515E+03  0.92620369234E+02 0.  0.
         13    1    3    3    0    0 -0.13440108256E+01 -0.71505562438E+01 -0.80809880192E+02  0.81136758355E+02  0.00000000000E+00 0.  1.
        -13    1    3    3    0    0 -0.74895992973E+01 -0.13292965721E+01  0.26061733610E+02  0.27149126796E+02  0.00000000000E+00 0. -1.
         22    1    1    2    0    0  0.88336101229E+01  0.84798528159E+01 -0.73554642091E+02  0.74566922592E+02  0.00000000000E+00 0.  1.
<mgrwt>
<rscale>  0 0.56213646E+02</rscale>
<asrwt>0</asrwt>
<pdfrwt beam="1">  1        2 0.41961553E-02 0.93426299E+02</pdfrwt>
<pdfrwt beam="2">  1       -2 0.23935046E-01 0.93426299E+02</pdfrwt>
<totfact> 0.26790699E+04</totfact>
</mgrwt>
</event>
<event>
 6    1  0.2975432E-002  0.9146612E+02  0.7546771E-02  0.1395245E+00
          2   -1    0    0  501    0  0.00000000000E+00  0.00000000000E+00  0.45747534852E+03  0.45747534852E+03  0.00000000000E+00 0. -1.
         -2   -1    0    0    0  501 -0.00000000000E+00 -0.00000000000E+00 -0.78891465021E+01  0.78891465021E+01  0.00000000000E+00 0.  1.
         23    2    1    2    0    0  0.16995097250E+01  0.17566459238E+02  0.42707560487E+03  0.43676037281E+03  0.89747323979E+02 0.  0.
         11    1    3    3    0    0 -0.27530109308E+02  0.27975667626E+02  0.36749162626E+03  0.36958170987E+03  0.00000000000E+00 0. -1.
        -11    1    3    3    0    0  0.29229619033E+02 -0.10409208388E+02  0.59583978605E+02  0.67178662940E+02  0.00000000000E+00 0.  1.
         22    1    1    2    0    0 -0.16995097250E+01 -0.17566459238E+02  0.22510597153E+02  0.28604122214E+02  0.00000000000E+00 0. -1.
<mgrwt>
<rscale>  0 0.60620849E+02</rscale>
<asrwt>0</asrwt>
<pdfrwt beam="1">  1        2 0.70380802E-01 0.91466119E+02</pdfrwt>
<pdfrwt beam="2">  1       -2 0.12137152E-02 0.91466119E+02</pdfrwt>
<totfact> 0.95921372E+04</totfact>
</mgrwt>
</event>
<event>
 6    1  0.2975432E-002  0.1100618E+03  0.7546771E-02  0.1283977E+00
         -2   -1    0    0    0  501 -0.00000000000E+00  0.00000000000E+00  0.33565133782E+02  0.33565133782E+02  0.00000000000E+00 0.  1.
          2   -1    0    0  501    0  0.00000000000E+00 -0.00000000000E+00 -0.33590753098E+03  0.33590753098E+03  0.00000000000E+00 0. -1.
         23    2    1    2    0    0  0.33714455763E+01  0.69865746850E+02 -0.27162813288E+03  0.29307924056E+03  0.84976522922E+02 0.  0.
         11    1    3    3    0    0 -0.38204872792E+02  0.52532255456E+02 -0.15556565873E+03  0.16858209971E+03  0.00000000000E+00 0.  1.
        -11    1    3    3    0    0  0.41576318368E+02  0.17333491394E+02 -0.11606247415E+03  0.12449714085E+03  0.00000000000E+00 0. -1.
         22    1    1    2    0    0 -0.33714455763E+01 -0.69865746850E+02 -0.30714264313E+02  0.76393424196E+02  0.00000000000E+00 0.  1.
<mgrwt>
<rscale>  0 0.98269736E+02</rscale>
<asrwt>0</asrwt>
<pdfrwt beam="1">  1        2 0.51678082E-01 0.11006179E+03</pdfrwt>
<pdfrwt beam="2">  1       -2 0.51638667E-02 0.11006179E+03</pdfrwt>
<totfact> 0.16594296E+04</totfact>
</mgrwt>
</event>
<event>
 6    1  0.2975432E-002  0.9230619E+02  0.7546771E-02  0.1406742E+00
          2   -1    0    0  501    0  0.00000000000E+00  0.00000000000E+00  0.52447488495E+02  0.52447488495E+02  0.00000000000E+00 0. -1.
         -2   -1    0    0    0  501 -0.00000000000E+00 -0.00000000000E+00 -0.54537647398E+02  0.54537647398E+02  0.00000000000E+00 0.  1.
         23    2    1    2    0    0 -0.10412312921E+02  0.98257892470E+01  0.11206847280E+01  0.92312988419E+02  0.91189196191E+02 0.  0.
         11    1    3    3    0    0  0.32805240545E+02 -0.10653008059E+02  0.21154718511E+02  0.40462235519E+02  0.00000000000E+00 0. -1.
        -11    1    3    3    0    0 -0.43217553466E+02  0.20478797306E+02 -0.20034033783E+02  0.51850752900E+02  0.00000000000E+00 0.  1.
         22    1    1    2    0    0  0.10412312921E+02 -0.98257892470E+01 -0.32108436310E+01  0.14672147474E+02  0.00000000000E+00 0.  1.
<mgrwt>
<rscale>  0 0.57927179E+02</rscale>
<asrwt>0</asrwt>
<pdfrwt beam="1">  1        2 0.80688444E-02 0.92306186E+02</pdfrwt>
<pdfrwt beam="2">  1       -2 0.83904073E-02 0.92306186E+02</pdfrwt>
<totfact> 0.63156349E+04</totfact>
</mgrwt>
</event>
<event>
 6    1  0.2975432E-002  0.9195389E+02  0.7546771E-02  0.1426052E+00
          3   -1    0    0  501    0  0.00000000000E+00  0.00000000000E+00  0.12282514929E+02  0.12282514929E+02  0.00000000000E+00 0. -1.
         -3   -1    0    0    0  501 -0.00000000000E+00 -0.00000000000E+00 -0.22237490985E+03  0.22237490985E+03  0.00000000000E+00 0.  1.
         23    2    1    2    0    0  0.10731944009E+02  0.50033048284E+00 -0.17148690484E+03  0.19458488035E+03  0.91324105119E+02 0.  0.
         11    1    3    3    0    0  0.33772799404E+02 -0.12982336978E+02 -0.21179306739E+02  0.41925005509E+02  0.00000000000E+00 0. -1.
        -11    1    3    3    0    0 -0.23040855395E+02  0.13482667461E+02 -0.15030759810E+03  0.15265987484E+03  0.00000000000E+00 0.  1.
         22    1    1    2    0    0 -0.10731944009E+02 -0.50033048284E+00 -0.38605490081E+02  0.40072544431E+02  0.00000000000E+00 0.  1.
<mgrwt>
<rscale>  0 0.53760714E+02</rscale>
<asrwt>0</asrwt>
<pdfrwt beam="1">  1        3 0.18896177E-02 0.91953886E+02</pdfrwt>
<pdfrwt beam="2">  1       -3 0.34211525E-01 0.91953886E+02</pdfrwt>
<totfact> 0.17913047E+04</totfact>
</mgrwt>
</event>
<event>
 6    1  0.2975432E-002  0.9060272E+02  0.7546771E-02  0.1422540E+00
         -4   -1    0    0    0  501 -0.00000000000E+00  0.00000000000E+00  0.21287004763E+02  0.21287004763E+02  0.00000000000E+00 0.  1.
          4   -1    0    0  501    0  0.00000000000E+00 -0.00000000000E+00 -0.23558886119E+03  0.23558886119E+03  0.00000000000E+00 0. -1.
         23    2    1    2    0    0 -0.11085794703E+02 -0.41894041869E+01 -0.22395697249E+03  0.24158968861E+03  0.89824307196E+02 0.  0.
         11    1    3    3    0    0  0.18502916170E+02 -0.36266049685E+02 -0.15267497586E+03  0.15801022916E+03  0.00000000000E+00 0. -1.
        -11    1    3    3    0    0 -0.29588710872E+02  0.32076645498E+02 -0.71281996629E+02  0.83579459444E+02  0.00000000000E+00 0.  1.
         22    1    1    2    0    0  0.11085794703E+02  0.41894041869E+01  0.96551160628E+01  0.15286177345E+02  0.00000000000E+00 0.  1.
<mgrwt>
<rscale>  0 0.54487209E+02</rscale>
<asrwt>0</asrwt>
<pdfrwt beam="1">  1        4 0.36244440E-01 0.90602716E+02</pdfrwt>
<pdfrwt beam="2">  1       -4 0.32749238E-02 0.90602716E+02</pdfrwt>
<totfact> 0.50939960E+03</totfact>
</mgrwt>
</event>
<event>
 6    1  0.2975432E-002  0.9793587E+02  0.7546771E-02  0.1341542E+00
          2   -1    0    0  501    0  0.00000000000E+00  0.00000000000E+00  0.18375613600E+03  0.18375613600E+03  0.00000000000E+00 0.  1.
         -2   -1    0    0    0  501 -0.00000000000E+00 -0.00000000000E+00 -0.24722127221E+02  0.24722127221E+02  0.00000000000E+00 0. -1.
         23    2    1    2    0    0 -0.15658423860E+02 -0.31374671139E+02  0.13112762933E+03  0.16366395478E+03  0.91443308634E+02 0.  0.
         11    1    3    3    0    0  0.30478375417E+02 -0.27061992380E+01  0.91349832595E+02  0.96338189715E+02  0.00000000000E+00 0.  1.
        -11    1    3    3    0    0 -0.46136799277E+02 -0.28668471901E+02  0.39777796736E+02  0.67325765067E+02  0.00000000000E+00 0. -1.
         22    1    1    2    0    0  0.15658423860E+02  0.31374671139E+02  0.27906379443E+02  0.44814308434E+02  0.00000000000E+00 0.  1.
<mgrwt>
<rscale>  0 0.75757371E+02</rscale>
<asrwt>0</asrwt>
<pdfrwt beam="1">  1        2 0.28270174E-01 0.97935871E+02</pdfrwt>
<pdfrwt beam="2">  1       -2 0.38034043E-02 0.97935871E+02</pdfrwt>
<totfact> 0.48821608E+04</totfact>
</mgrwt>
</event>
<event>
 6    1  0.2975432E-002  0.9488776E+02  0.7546771E-02  0.1365372E+00
         -2   -1    0    0    0  501 -0.00000000000E+00  0.00000000000E+00  0.16940588761E+02  0.16940588761E+02  0.00000000000E+00 0.  1.
          2   -1    0    0  501    0  0.00000000000E+00 -0.00000000000E+00 -0.21936366192E+03  0.21936366192E+03  0.00000000000E+00 0. -1.
         23    2    1    2    0    0 -0.21217935009E+02 -0.14549416344E+02 -0.14380851630E+03  0.17229212247E+03  0.91333454021E+02 0.  0.
         13    1    3    3    0    0 -0.64841466440E+01 -0.42274395987E+02 -0.13198720166E+03  0.13874361288E+03  0.00000000000E+00 0. -1.
        -13    1    3    3    0    0 -0.14733788365E+02  0.27724979644E+02 -0.11821314640E+02  0.33548509589E+02  0.00000000000E+00 0.  1.
         22    1    1    2    0    0  0.21217935009E+02  0.14549416344E+02 -0.58614556855E+02  0.64012128204E+02  0.00000000000E+00 0.  1.
<mgrwt>
<rscale>  0 0.68470824E+02</rscale>
<asrwt>0</asrwt>
<pdfrwt beam="1">  1        2 0.33748254E-01 0.94887755E+02</pdfrwt>
<pdfrwt beam="2">  1       -2 0.26062445E-02 0.94887755E+02</pdfrwt>
<totfact> 0.69834375E+04</totfact>
</mgrwt>
</event>
<event>
 6    1  0.2975432E-002  0.9189167E+02  0.7546771E-02  0.1419785E+00
          2   -1    0    0  501    0  0.00000000000E+00  0.00000000000E+00  0.11464088746E+03  0.11464088746E+03  0.00000000000E+00 0. -1.
         -2   -1    0    0    0  501 -0.00000000000E+00 -0.00000000000E+00 -0.23934306692E+02  0.23934306692E+02  0.00000000000E+00 0.  1.
         23    2    1    2    0    0 -0.67786804239E+00  0.11830571659E+02  0.85894885565E+02  0.12578557564E+03  0.91124408049E+02 0.  0.
         13    1    3    3    0    0  0.31488288583E+01 -0.23994769806E+02 -0.77804112611E+01  0.25420442573E+02  0.00000000000E+00 0.  1.
        -13    1    3    3    0    0 -0.38266969007E+01  0.35825341465E+02  0.93675296826E+02  0.10036513307E+03  0.00000000000E+00 0. -1.
         22    1    1    2    0    0  0.67786804239E+00 -0.11830571659E+02  0.48116951998E+01  0.12789618507E+02  0.00000000000E+00 0.  1.
<mgrwt>
<rscale>  0 0.55066375E+02</rscale>
<asrwt>0</asrwt>
<pdfrwt beam="1">  1        2 0.17637059E-01 0.91891674E+02</pdfrwt>
<pdfrwt beam="2">  1       -2 0.36822011E-02 0.91891674E+02</pdfrwt>
<totfact> 0.85468029E+04</totfact>
</mgrwt>
</event>
<event>
 6    1  0.2975432E-002  0.9579442E+02  0.7546771E-02  0.1412076E+00
         -4   -1    0    0    0  501 -0.00000000000E+00  0.00000000000E+00  0.65274797460E+02  0.65274797460E+02  0.00000000000E+00 0. -1.
          4   -1    0    0  501    0  0.00000000000E+00 -0.00000000000E+00 -0.44483910358E+02  0.44483910358E+02  0.00000000000E+00 0.  1.
         23    2    1    2    0    0 -0.10964631865E+02  0.43198332889E+01  0.16432073057E+02  0.97193542819E+02  0.95066753543E+02 0.  0.
         11    1    3    3    0    0 -0.15079254449E+02 -0.38810439307E+02  0.30531012068E+02  0.51631161248E+02  0.00000000000E+00 0. -1.
        -11    1    3    3    0    0  0.41146225841E+01  0.43130272595E+02 -0.14098939011E+02  0.45562381571E+02  0.00000000000E+00 0.  1.
         22    1    1    2    0    0  0.10964631865E+02 -0.43198332889E+01  0.43588140441E+01  0.12565164999E+02  0.00000000000E+00 0.  1.
<mgrwt>
<rscale>  0 0.56733130E+02</rscale>
<asrwt>0</asrwt>
<pdfrwt beam="1">  1        4 0.68436785E-02 0.95794424E+02</pdfrwt>
<pdfrwt beam="2">  1       -4 0.10042277E-01 0.95794424E+02</pdfrwt>
<totfact> 0.15794017E+04</totfact>
</mgrwt>
</event>
<event>
 6    1  0.2975432E-002  0.9078810E+02  0.7546771E-02  0.1415483E+00
          2   -1    0    0  501    0  0.00000000000E+00  0.00000000000E+00  0.91486869034E+02  0.91486869034E+02  0.00000000000E+00 0. -1.
         -2   -1    0    0    0  501 -0.00000000000E+00 -0.00000000000E+00 -0.30313793174E+02  0.30313793174E+02  0.00000000000E+00 0.  1.
         23    2    1    2    0    0  0.24904973267E+01  0.12892587133E+02  0.59536140907E+02  0.10856809118E+03  0.89833495806E+02 0.  0.
         13    1    3    3    0    0 -0.27482525021E+02 -0.43970818979E+01  0.67542101125E+02  0.73051755182E+02  0.00000000000E+00 0. -1.
        -13    1    3    3    0    0  0.29973022347E+02  0.17289669031E+02 -0.80059602182E+01  0.35516336000E+02  0.00000000000E+00 0.  1.
         22    1    1    2    0    0 -0.24904973267E+01 -0.12892587133E+02  0.16369349526E+01  0.13232571026E+02  0.00000000000E+00 0.  1.
<mgrwt>
<rscale>  0 0.55988079E+02</rscale>
<asrwt>0</asrwt>
<pdfrwt beam="1">  1        2 0.14074903E-01 0.90788096E+02</pdfrwt>
<pdfrwt beam="2">  1       -2 0.46636605E-02 0.90788096E+02</pdfrwt>
<totfact> 0.78079960E+04</totfact>
</mgrwt>
</event>
<event>
 6    1  0.2975432E-002  0.9778846E+02  0.7546771E-02  0.1353045E+00
         -4   -1    0    0    0  501 -0.00000000000E+00  0.00000000000E+00  0.12990045457E+02  0.12990045457E+02  0.00000000000E+00 0.  1.
          4   -1    0    0  501    0  0.00000000000E+00 -0.00000000000E+00 -0.30905661954E+03  0.30905661954E+03  0.00000000000E+00 0. -1.
         23    2    1    2    0    0 -0.22665469560E+02 -0.17966725433E+02 -0.23028954531E+03  0.25019164257E+03  0.93413364149E+02 0.  0.
         11    1    3    3    0    0 -0.60793243061E+01  0.35576945688E+02 -0.52001468015E+02  0.63299525466E+02  0.00000000000E+00 0.  1.
        -11    1    3    3    0    0 -0.16586145254E+02 -0.53543671121E+02 -0.17828807729E+03  0.18689211710E+03  0.00000000000E+00 0. -1.
         22    1    1    2    0    0  0.22665469560E+02  0.17966725433E+02 -0.65777028778E+02  0.71855022427E+02  0.00000000000E+00 0.  1.
<mgrwt>
<rscale>  0 0.72115014E+02</rscale>
<asrwt>0</asrwt>
<pdfrwt beam="1">  1        4 0.47547174E-01 0.97788462E+02</pdfrwt>
<pdfrwt beam="2">  1       -4 0.19984684E-02 0.97788462E+02</pdfrwt>
<totfact> 0.65469306E+03</totfact>
</mgrwt>
</event>
<event>
 6    1  0.2975432E-002  0.9199224E+02  0.7546771E-02  0.1408108E+00
          2   -1    0    0  501    0  0.00000000000E+00  0.00000000000E+00  0.21191485250E+03  0.21191485250E+03  0.00000000000E+00 0. -1.
         -2   -1    0    0    0  501 -0.00000000000E+00 -0.00000000000E+00 -0.34648003853E+02  0.34648003853E+02  0.00000000000E+00 0.  1.
         23    2    1    2    0    0  0.11927065578E+02 -0.76272755313E+01  0.19979478869E+03  0.21995574626E+03  0.90896328310E+02 0.  0.
         13    1    3    3    0    0 -0.83023022014E+01 -0.26249047011E+02  0.18805398010E+03  0.19005851762E+03  0.00000000000E+00 0. -1.
        -13    1    3    3    0    0  0.20229367779E+02  0.18621771480E+02  0.11740808592E+02  0.29897228637E+02  0.00000000000E+00 0.  1.
         22    1    1    2    0    0 -0.11927065578E+02  0.76272755313E+01 -0.22527940039E+02  0.26607110097E+02  0.00000000000E+00 0.  1.
<mgrwt>
<rscale>  0 0.57618083E+02</rscale>
<asrwt>0</asrwt>
<pdfrwt beam="1">  1        2 0.32602284E-01 0.91992243E+02</pdfrwt>
<pdfrwt beam="2">  1       -2 0.53304623E-02 0.91992243E+02</pdfrwt>
<totfact> 0.25241514E+04</totfact>
</mgrwt>
</event>
<event>
 6    1  0.2975432E-002  0.9326671E+02  0.7546771E-02  0.1384328E+00
          2   -1    0    0  501    0  0.00000000000E+00  0.00000000000E+00  0.74664432150E+03  0.74664432150E+03  0.00000000000E+00 0. -1.
         -2   -1    0    0    0  501 -0.00000000000E+00 -0.00000000000E+00 -0.44176415852E+01  0.44176415852E+01  0.00000000000E+00 0.  1.
         23    2    1    2    0    0  0.14011309122E+02  0.14045367880E+02  0.65504752794E+03  0.66165394510E+03  0.91132266815E+02 0.  0.
         11    1    3    3    0    0 -0.49690204014E+01 -0.19894287270E+02  0.53649528123E+03  0.53688700917E+03  0.00000000000E+00 0. -1.
        -11    1    3    3    0    0  0.18980329523E+02  0.33939655151E+02  0.11855224671E+03  0.12476693593E+03  0.00000000000E+00 0.  1.
         22    1    1    2    0    0 -0.14011309122E+02 -0.14045367880E+02  0.87179151969E+02  0.89408017987E+02  0.00000000000E+00 0. -1.
<mgrwt>
<rscale>  0 0.63339610E+02</rscale>
<asrwt>0</asrwt>
<pdfrwt beam="1">  1        2 0.11486826E+00 0.93266710E+02</pdfrwt>
<pdfrwt beam="2">  1       -2 0.67963776E-03 0.93266710E+02</pdfrwt>
<totfact> 0.12623701E+05</totfact>
</mgrwt>
</event>
<event>
 6    1  0.2975432E-002  0.9052076E+02  0.7546771E-02  0.1424200E+00
         -2   -1    0    0    0  501 -0.00000000000E+00  0.00000000000E+00  0.58068977296E+02  0.58068977296E+02  0.00000000000E+00 0.  1.
          2   -1    0    0  501    0  0.00000000000E+00 -0.00000000000E+00 -0.44960989257E+02  0.44960989257E+02  0.00000000000E+00 0. -1.
         23    2    1    2    0    0  0.10885457813E+02  0.39649131417E+01  0.12961168511E+02  0.91443971386E+02  0.89776357053E+02 0.  0.
         13    1    3    3    0    0 -0.37351376740E+02  0.27424747981E+01  0.20358954000E+02  0.42627849117E+02  0.00000000000E+00 0.  1.
        -13    1    3    3    0    0  0.48236834553E+02  0.12224383436E+01 -0.73977854884E+01  0.48816122269E+02  0.00000000000E+00 0. -1.
         22    1    1    2    0    0 -0.10885457813E+02 -0.39649131417E+01  0.14681952811E+00  0.11585995166E+02  0.00000000000E+00 0.  1.
<mgrwt>
<rscale>  0 0.54142183E+02</rscale>
<asrwt>0</asrwt>
<pdfrwt beam="1">  1        2 0.69170752E-02 0.90520760E+02</pdfrwt>
<pdfrwt beam="2">  1       -2 0.89336888E-02 0.90520760E+02</pdfrwt>
<totfact> 0.69305150E+04</totfact>
</mgrwt>
</event>
<event>
 6    1  0.2975432E-002  0.9669209E+02  0.7546771E-02  0.1359381E+00
         -2   -1    0    0    0  501 -0.00000000000E+00  0.00000000000E+00  0.20355224648E+02  0.20355224648E+02  0.00000000000E+00 0. -1.
          2   -1    0    0  501    0  0.00000000000E+00 -0.00000000000E+00 -0.19048612936E+03  0.19048612936E+03  0.00000000000E+00 0.  1.
         23    2    1    2    0    0 -0.16396846611E+02  0.21298850999E+02 -0.14323324494E+03  0.17281528750E+03  0.92880910346E+02 0.  0.
         13    1    3    3    0    0 -0.13368494267E+02  0.54472573453E+02 -0.11920639708E+03  0.13174271518E+03  0.00000000000E+00 0.  1.
        -13    1    3    3    0    0 -0.30283523432E+01 -0.33173722455E+02 -0.24026847857E+02  0.41072572325E+02  0.00000000000E+00 0. -1.
         22    1    1    2    0    0  0.16396846611E+02 -0.21298850999E+02 -0.26897659778E+02  0.38026066509E+02  0.00000000000E+00 0. -1.
<mgrwt>
<rscale>  0 0.70209807E+02</rscale>
<asrwt>0</asrwt>
<pdfrwt beam="1">  1        2 0.29305558E-01 0.96692095E+02</pdfrwt>
<pdfrwt beam="2">  1       -2 0.31315731E-02 0.96692095E+02</pdfrwt>
<totfact> 0.62327105E+04</totfact>
</mgrwt>
</event>
<event>
 6    1  0.2975432E-002  0.8414489E+02  0.7546771E-02  0.1421602E+00
         -2   -1    0    0    0  501 -0.00000000000E+00  0.00000000000E+00  0.26153056827E+03  0.26153056827E+03  0.00000000000E+00 0.  1.
          2   -1    0    0  501    0  0.00000000000E+00 -0.00000000000E+00 -0.96769462639E+01  0.96769462639E+01  0.00000000000E+00 0. -1.
         23    2    1    2    0    0 -0.13684905400E+02  0.61630313425E+01  0.22792752265E+03  0.24296361570E+03  0.82795551692E+02 0.  0.
         13    1    3    3    0    0 -0.20750338860E+01 -0.30168014241E+02  0.34785816400E+02  0.46091950181E+02  0.00000000000E+00 0. -1.
        -13    1    3    3    0    0 -0.11609871514E+02  0.36331045584E+02  0.19314170625E+03  0.19687166552E+03  0.00000000000E+00 0.  1.
         22    1    1    2    0    0  0.13684905400E+02 -0.61630313425E+01  0.23926099356E+02  0.28243898837E+02  0.00000000000E+00 0. -1.
<mgrwt>
<rscale>  0 0.54683491E+02</rscale>
<asrwt>0</asrwt>
<pdfrwt beam="1">  1        2 0.14887612E-02 0.84144893E+02</pdfrwt>
<pdfrwt beam="2">  1       -2 0.40235467E-01 0.84144893E+02</pdfrwt>
<totfact> 0.41466781E+04</totfact>
</mgrwt>
</event>
<event>
 6    1  0.2975432E-002  0.1222392E+03  0.7546771E-02  0.1257704E+00
         -2   -1    0    0    0  501 -0.00000000000E+00  0.00000000000E+00  0.11434263841E+03  0.11434263841E+03  0.00000000000E+00 0.  1.
          2   -1    0    0  501    0  0.00000000000E+00 -0.00000000000E+00 -0.98932072701E+02  0.98932072701E+02  0.00000000000E+00 0. -1.
         23    2    1    2    0    0  0.84104350201E+02 -0.10902197881E+02 -0.15050198250E+02  0.12316223816E+03  0.88034247877E+02 0.  0.
         13    1    3    3    0    0  0.73538278644E+02  0.70621657034E+00 -0.47199723577E+02  0.87385302388E+02  0.00000000000E+00 0. -1.
        -13    1    3    3    0    0  0.10566071557E+02 -0.11608414452E+02  0.32149525328E+02  0.35776935769E+02  0.00000000000E+00 0.  1.
         22    1    1    2    0    0 -0.84104350201E+02  0.10902197881E+02  0.30460763963E+02  0.90112472958E+02  0.00000000000E+00 0. -1.
<mgrwt>
<rscale>  0 0.11156223E+03</rscale>
<asrwt>0</asrwt>
<pdfrwt beam="1">  1        2 0.15220319E-01 0.12223923E+03</pdfrwt>
<pdfrwt beam="2">  1       -2 0.17591175E-01 0.12223923E+03</pdfrwt>
<totfact> 0.93511944E+03</totfact>
</mgrwt>
</event>
<event>
 6    1  0.2975432E-002  0.9480006E+02  0.7546771E-02  0.1379078E+00
          2   -1    0    0  501    0  0.00000000000E+00  0.00000000000E+00  0.13612535253E+03  0.13612535253E+03  0.00000000000E+00 0. -1.
         -2   -1    0    0    0  501 -0.00000000000E+00 -0.00000000000E+00 -0.24720742299E+02  0.24720742299E+02  0.00000000000E+00 0.  1.
         23    2    1    2    0    0  0.39333376203E+01 -0.20197042985E+02  0.84643118482E+02  0.12708859002E+03  0.92540048178E+02 0.  0.
         11    1    3    3    0    0 -0.41514006244E+02 -0.18811519822E+02  0.24662568973E+02  0.51822083138E+02  0.00000000000E+00 0.  1.
        -11    1    3    3    0    0  0.45447343865E+02 -0.13855231636E+01  0.59980549508E+02  0.75266506881E+02  0.00000000000E+00 0. -1.
         22    1    1    2    0    0 -0.39333376203E+01  0.20197042985E+02  0.26761491745E+02  0.33757504804E+02  0.00000000000E+00 0.  1.
<mgrwt>
<rscale>  0 0.64706702E+02</rscale>
<asrwt>0</asrwt>
<pdfrwt beam="1">  1        2 0.20942362E-01 0.94800064E+02</pdfrwt>
<pdfrwt beam="2">  1       -2 0.38031912E-02 0.94800064E+02</pdfrwt>
<totfact> 0.67511073E+04</totfact>
</mgrwt>
</event>
<event>
 6    1  0.2975432E-002  0.9242331E+02  0.7546771E-02  0.1402050E+00
         -4   -1    0    0    0  501 -0.00000000000E+00  0.00000000000E+00  0.33746679729E+03  0.33746679729E+03  0.00000000000E+00 0.  1.
          4   -1    0    0  501    0  0.00000000000E+00 -0.00000000000E+00 -0.86337267256E+01  0.86337267256E+01  0.00000000000E+00 0. -1.
         23    2    1    2    0    0 -0.15136042906E+02 -0.25835248609E+01  0.27465857296E+03  0.28979199370E+03  0.91138869408E+02 0.  0.
         11    1    3    3    0    0 -0.26116876554E+01 -0.44833042766E+02  0.99330571864E+02  0.10901094047E+03  0.00000000000E+00 0.  1.
        -11    1    3    3    0    0 -0.12524355251E+02  0.42249517905E+02  0.17532800110E+03  0.18078105323E+03  0.00000000000E+00 0. -1.
         22    1    1    2    0    0  0.15136042906E+02  0.25835248609E+01  0.54174497602E+02  0.56308530313E+02  0.00000000000E+00 0. -1.
<mgrwt>
<rscale>  0 0.59006277E+02</rscale>
<asrwt>0</asrwt>
<pdfrwt beam="1">  1        4 0.13282659E-02 0.92423308E+02</pdfrwt>
<pdfrwt beam="2">  1       -4 0.51917959E-01 0.92423308E+02</pdfrwt>
<totfact> 0.10026724E+04</totfact>
</mgrwt>
</event>
<event>
 6    1  0.2975432E-002  0.9161165E+02  0.7546771E-02  0.1408891E+00
          2   -1    0    0  501    0  0.00000000000E+00  0.00000000000E+00  0.78501996998E+02  0.78501996998E+02  0.00000000000E+00 0.  1.
         -2   -1    0    0    0  501 -0.00000000000E+00 -0.00000000000E+00 -0.35641069906E+02  0.35641069906E+02  0.00000000000E+00 0. -1.
         23    2    1    2    0    0  0.13148216034E+02 -0.52567767143E+01  0.37844213959E+02  0.99120527273E+02  0.90510690586E+02 0.  0.
         13    1    3    3    0    0  0.12854420317E+02 -0.23641473219E+02 -0.23098765084E+02  0.35464183708E+02  0.00000000000E+00 0. -1.
        -13    1    3    3    0    0  0.29379571658E+00  0.18384696504E+02  0.60942979043E+02  0.63656343565E+02  0.00000000000E+00 0.  1.
         22    1    1    2    0    0 -0.13148216034E+02  0.52567767143E+01  0.50167131333E+01  0.15022539631E+02  0.00000000000E+00 0. -1.
<mgrwt>
<rscale>  0 0.57442038E+02</rscale>
<asrwt>0</asrwt>
<pdfrwt beam="1">  1        2 0.12077230E-01 0.91611650E+02</pdfrwt>
<pdfrwt beam="2">  1       -2 0.54832415E-02 0.91611650E+02</pdfrwt>
<totfact> 0.73582588E+04</totfact>
</mgrwt>
</event>
<event>
 6    1  0.2975432E-002  0.9242235E+02  0.7546771E-02  0.1397649E+00
          2   -1    0    0  501    0  0.00000000000E+00  0.00000000000E+00  0.11050354159E+03  0.11050354159E+03  0.00000000000E+00 0. -1.
         -2   -1    0    0    0  501 -0.00000000000E+00 -0.00000000000E+00 -0.33669853930E+02  0.33669853930E+02  0.00000000000E+00 0.  1.
         23    2    1    2    0    0 -0.10771332906E+02 -0.12451497696E+02  0.85203467465E+02  0.12570410692E+03  0.90944104928E+02 0.  0.
         11    1    3    3    0    0 -0.39368855481E+02 -0.35135635535E+02  0.65866074528E+02  0.84396442105E+02  0.00000000000E+00 0. -1.
        -11    1    3    3    0    0  0.28597522574E+02  0.22684137839E+02  0.19337392937E+02  0.41307664815E+02  0.00000000000E+00 0.  1.
         22    1    1    2    0    0  0.10771332906E+02  0.12451497696E+02 -0.83697798030E+01  0.18469288601E+02  0.00000000000E+00 0. -1.
<mgrwt>
<rscale>  0 0.60043532E+02</rscale>
<asrwt>0</asrwt>
<pdfrwt beam="1">  1        2 0.17000545E-01 0.92422355E+02</pdfrwt>
<pdfrwt beam="2">  1       -2 0.51799776E-02 0.92422355E+02</pdfrwt>
<totfact> 0.53878896E+04</totfact>
</mgrwt>
</event>
<event>
 6    1  0.2975432E-002  0.9367956E+02  0.7546771E-02  0.1424893E+00
          2   -1    0    0  501    0  0.00000000000E+00  0.00000000000E+00  0.41769137164E+03  0.41769137164E+03  0.00000000000E+00 0. -1.
         -2   -1    0    0    0  501 -0.00000000000E+00 -0.00000000000E+00 -0.68596637893E+01  0.68596637893E+01  0.00000000000E+00 0.  1.
         23    2    1    2    0    0 -0.10305746984E+02 -0.86652138279E+00  0.39228711775E+03  0.40331754532E+03  0.93106929550E+02 0.  0.
         11    1    3    3    0    0 -0.33802260096E+02  0.22805833755E+01  0.36735541050E+03  0.36891434165E+03  0.00000000000E+00 0. -1.
        -11    1    3    3    0    0  0.23496513112E+02 -0.31471047583E+01  0.24931707255E+02  0.34403203680E+02  0.00000000000E+00 0.  1.
         22    1    1    2    0    0  0.10305746984E+02  0.86652138279E+00  0.18544590097E+02  0.21233490106E+02  0.00000000000E+00 0.  1.
<mgrwt>
<rscale>  0 0.53999027E+02</rscale>
<asrwt>0</asrwt>
<pdfrwt beam="1">  1        2 0.64260191E-01 0.93679558E+02</pdfrwt>
<pdfrwt beam="2">  1       -2 0.10553332E-02 0.93679558E+02</pdfrwt>
<totfact> 0.12930423E+05</totfact>
</mgrwt>
</event>
<event>
 6    1  0.2975432E-002  0.9143643E+02  0.7546771E-02  0.1416683E+00
         -1   -1    0    0    0  501 -0.00000000000E+00  0.00000000000E+00  0.31132138908E+02  0.31132138908E+02  0.00000000000E+00 0.  1.
          1   -1    0    0  501    0  0.00000000000E+00 -0.00000000000E+00 -0.87094635992E+02  0.87094635992E+02  0.00000000000E+00 0. -1.
         23    2    1    2    0    0  0.12578051731E+02 -0.99254284925E+00 -0.50741243171E+02  0.10457195820E+03  0.90561736714E+02 0.  0.
         13    1    3    3    0    0 -0.11031905732E+02 -0.30522277953E+02 -0.57631335438E+02  0.66141388101E+02  0.00000000000E+00 0. -1.
        -13    1    3    3    0    0  0.23609957463E+02  0.29529735104E+02  0.68900922673E+01  0.38430570100E+02  0.00000000000E+00 0.  1.
         22    1    1    2    0    0 -0.12578051731E+02  0.99254284925E+00 -0.52212539136E+01  0.13654816699E+02  0.00000000000E+00 0.  1.
<mgrwt>
<rscale>  0 0.55728811E+02</rscale>
<asrwt>0</asrwt>
<pdfrwt beam="1">  1        1 0.13399175E-01 0.91436430E+02</pdfrwt>
<pdfrwt beam="2">  1       -1 0.47895599E-02 0.91436430E+02</pdfrwt>
<totfact> 0.69386062E+04</totfact>
</mgrwt>
</event>
<event>
 6    1  0.2975432E-002  0.9248547E+02  0.7546771E-02  0.1401804E+00
         -1   -1    0    0    0  501 -0.00000000000E+00  0.00000000000E+00  0.57949956784E+01  0.57949956784E+01  0.00000000000E+00 0.  1.
          1   -1    0    0  501    0  0.00000000000E+00 -0.00000000000E+00 -0.64483020134E+03  0.64483020134E+03  0.00000000000E+00 0. -1.
         23    2    1    2    0    0  0.13248769747E+02 -0.78180820299E+01 -0.61613517868E+03  0.62303781689E+03  0.91197097356E+02 0.  0.
         11    1    3    3    0    0 -0.16595404908E+02 -0.11927772577E+02 -0.54982956338E+03  0.55020925836E+03  0.00000000000E+00 0. -1.
        -11    1    3    3    0    0  0.29844174654E+02  0.41096905467E+01 -0.66305615298E+02  0.72828558527E+02  0.00000000000E+00 0.  1.
         22    1    1    2    0    0 -0.13248769747E+02  0.78180820299E+01 -0.22900026985E+02  0.27587380129E+02  0.00000000000E+00 0. -1.
<mgrwt>
<rscale>  0 0.59063474E+02</rscale>
<asrwt>0</asrwt>
<pdfrwt beam="1">  1        1 0.99204648E-01 0.92485474E+02</pdfrwt>
<pdfrwt beam="2">  1       -1 0.89153779E-03 0.92485474E+02</pdfrwt>
<totfact> 0.62464582E+04</totfact>
</mgrwt>
</event>
<event>
 6    1  0.2975432E-002  0.9471069E+02  0.7546771E-02  0.1375342E+00
          2   -1    0    0  501    0  0.00000000000E+00  0.00000000000E+00  0.35458737737E+03  0.35458737737E+03  0.00000000000E+00 0. -1.
         -2   -1    0    0    0  501 -0.00000000000E+00 -0.00000000000E+00 -0.97365685586E+01  0.97365685586E+01  0.00000000000E+00 0.  1.
         23    2    1    2    0    0  0.13758764956E+02 -0.17085609535E+02  0.29576593994E+03  0.31056014753E+03  0.92135185125E+02 0.  0.
         11    1    3    3    0    0  0.21658009043E+02 -0.65620365116E+01  0.29651795123E+03  0.29738027016E+03  0.00000000000E+00 0. -1.
        -11    1    3    3    0    0 -0.78992440867E+01 -0.10523573024E+02 -0.75201129485E+00  0.13179877363E+02  0.00000000000E+00 0.  1.
         22    1    1    2    0    0 -0.13758764956E+02  0.17085609535E+02  0.49084868873E+02  0.53763798402E+02  0.00000000000E+00 0.  1.
<mgrwt>
<rscale>  0 0.65704087E+02</rscale>
<asrwt>0</asrwt>
<pdfrwt beam="1">  1        2 0.54551894E-01 0.94710686E+02</pdfrwt>
<pdfrwt beam="2">  1       -2 0.14979339E-02 0.94710686E+02</pdfrwt>
<totfact> 0.93487959E+04</totfact>
</mgrwt>
</event>
<event>
 6    1  0.2975432E-002  0.9134396E+02  0.7546771E-02  0.1410903E+00
          2   -1    0    0  501    0  0.00000000000E+00  0.00000000000E+00  0.82813506803E+02  0.82813506803E+02  0.00000000000E+00 0. -1.
         -2   -1    0    0    0  501 -0.00000000000E+00 -0.00000000000E+00 -0.42509344293E+02  0.42509344293E+02  0.00000000000E+00 0.  1.
         23    2    1    2    0    0 -0.12322588725E+02  0.63079643871E+01  0.53782932423E+02  0.10600151973E+03  0.90288879473E+02 0.  0.
         13    1    3    3    0    0 -0.24689898579E+01  0.28358046907E+02  0.70898969300E+02  0.76399859837E+02  0.00000000000E+00 0. -1.
        -13    1    3    3    0    0 -0.98535988668E+01 -0.22050082520E+02 -0.17116036877E+02  0.29601659888E+02  0.00000000000E+00 0.  1.
         22    1    1    2    0    0  0.12322588725E+02 -0.63079643871E+01 -0.13478769913E+02  0.19321331371E+02  0.00000000000E+00 0. -1.
<mgrwt>
<rscale>  0 0.56992758E+02</rscale>
<asrwt>0</asrwt>
<pdfrwt beam="1">  1        2 0.12740540E-01 0.91343956E+02</pdfrwt>
<pdfrwt beam="2">  1       -2 0.65398991E-02 0.91343956E+02</pdfrwt>
<totfact> 0.53000770E+04</totfact>
</mgrwt>
</event>
<event>
 6    1  0.2975432E-002  0.8503250E+02  0.7546771E-02  0.1414413E+00
          2   -1    0    0  501    0  0.00000000000E+00  0.00000000000E+00  0.63823316504E+03  0.63823316504E+03  0.00000000000E+00 0. -1.
         -2   -1    0    0    0  501 -0.00000000000E+00 -0.00000000000E+00 -0.44222401802E+01  0.44222401802E+01  0.00000000000E+00 0.  1.
         23    2    1    2    0    0  0.13531941041E+02 -0.89953928771E+01  0.58649531617E+03  0.59262743957E+03  0.83465536133E+02 0.  0.
         11    1    3    3    0    0 -0.74810345895E+01 -0.92812204420E+01  0.55271684964E+03  0.55284538780E+03  0.00000000000E+00 0. -1.
        -11    1    3    3    0    0  0.21012975630E+02  0.28582756490E+00  0.33778466522E+02  0.39782051767E+02  0.00000000000E+00 0.  1.
         22    1    1    2    0    0 -0.13531941041E+02  0.89953928771E+01  0.47315608698E+02  0.50027965657E+02  0.00000000000E+00 0.  1.
<mgrwt>
<rscale>  0 0.56220601E+02</rscale>
<asrwt>0</asrwt>
<pdfrwt beam="1">  1        2 0.98189645E-01 0.85032501E+02</pdfrwt>
<pdfrwt beam="2">  1       -2 0.68034515E-03 0.85032501E+02</pdfrwt>
<totfact> 0.14918349E+05</totfact>
</mgrwt>
</event>
<event>
 6    1  0.2975432E-002  0.8643570E+02  0.7546771E-02  0.1434243E+00
         -2   -1    0    0    0  501 -0.00000000000E+00  0.00000000000E+00  0.24341003080E+02  0.24341003080E+02  0.00000000000E+00 0.  1.
          2   -1    0    0  501    0  0.00000000000E+00 -0.00000000000E+00 -0.15789650165E+03  0.15789650165E+03  0.00000000000E+00 0. -1.
         23    2    1    2    0    0 -0.60942075059E+01  0.96640357617E+01 -0.14321436385E+03  0.16727666816E+03  0.85677282557E+02 0.  0.
         13    1    3    3    0    0 -0.11123635397E+02  0.45711087699E+02 -0.10178129202E+03  0.11212791895E+03  0.00000000000E+00 0. -1.
        -13    1    3    3    0    0  0.50294278907E+01 -0.36047051938E+02 -0.41433071829E+02  0.55148749211E+02  0.00000000000E+00 0.  1.
         22    1    1    2    0    0  0.60942075059E+01 -0.96640357617E+01  0.96588652791E+01  0.14960836568E+02  0.00000000000E+00 0.  1.
<mgrwt>
<rscale>  0 0.52117656E+02</rscale>
<asrwt>0</asrwt>
<pdfrwt beam="1">  1        2 0.24291769E-01 0.86435697E+02</pdfrwt>
<pdfrwt beam="2">  1       -2 0.37447697E-02 0.86435697E+02</pdfrwt>
<totfact> 0.57886647E+04</totfact>
</mgrwt>
</event>
<event>
 6    1  0.2975432E-002  0.9195954E+02  0.7546771E-02  0.1388588E+00
         -2   -1    0    0    0  501 -0.00000000000E+00  0.00000000000E+00  0.20715391500E+02  0.20715391500E+02  0.00000000000E+00 0.  1.
          2   -1    0    0  501    0  0.00000000000E+00 -0.00000000000E+00 -0.17603492462E+03  0.17603492462E+03  0.00000000000E+00 0. -1.
         23    2    1    2    0    0  0.19319138441E+02 -0.24559451068E+00 -0.15124081521E+03  0.17700378816E+03  0.89906993111E+02 0.  0.
         11    1    3    3    0    0  0.55286055425E+02 -0.14421965153E+01 -0.10179999671E+03  0.11585278238E+03  0.00000000000E+00 0.  1.
        -11    1    3    3    0    0 -0.35966916984E+02  0.11966020047E+01 -0.49440818497E+02  0.61151005775E+02  0.00000000000E+00 0. -1.
         22    1    1    2    0    0 -0.19319138441E+02  0.24559451068E+00 -0.40787179115E+01  0.19746527962E+02  0.00000000000E+00 0.  1.
<mgrwt>
<rscale>  0 0.62259166E+02</rscale>
<asrwt>0</asrwt>
<pdfrwt beam="1">  1        2 0.27082296E-01 0.91959539E+02</pdfrwt>
<pdfrwt beam="2">  1       -2 0.31869833E-02 0.91959539E+02</pdfrwt>
<totfact> 0.65682980E+04</totfact>
</mgrwt>
</event>
<event>
 6    1  0.2975432E-002  0.9356881E+02  0.7546771E-02  0.1381151E+00
          4   -1    0    0  501    0  0.00000000000E+00  0.00000000000E+00  0.22913914109E+03  0.22913914109E+03  0.00000000000E+00 0. -1.
         -4   -1    0    0    0  501 -0.00000000000E+00 -0.00000000000E+00 -0.23543590383E+02  0.23543590383E+02  0.00000000000E+00 0.  1.
         23    2    1    2    0    0 -0.40180042632E+01 -0.20294296116E+02  0.21141158922E+03  0.23119252168E+03  0.91253050423E+02 0.  0.
         11    1    3    3    0    0  0.23814112563E+02 -0.30009674942E+02  0.33610712346E+02  0.50964424177E+02  0.00000000000E+00 0.  1.
        -11    1    3    3    0    0 -0.27832116826E+02  0.97153788251E+01  0.17780087687E+03  0.18022809750E+03  0.00000000000E+00 0. -1.
         22    1    1    2    0    0  0.40180042632E+01  0.20294296116E+02 -0.58160385097E+01  0.21490209796E+02  0.00000000000E+00 0.  1.
<mgrwt>
<rscale>  0 0.64162186E+02</rscale>
<asrwt>0</asrwt>
<pdfrwt beam="1">  1        4 0.35252174E-01 0.93568809E+02</pdfrwt>
<pdfrwt beam="2">  1       -4 0.36220910E-02 0.93568809E+02</pdfrwt>
<totfact> 0.46311051E+03</totfact>
</mgrwt>
</event>
<event>
 6    1  0.2975432E-002  0.9457535E+02  0.7546771E-02  0.1381293E+00
          2   -1    0    0  501    0  0.00000000000E+00  0.00000000000E+00  0.14669853578E+04  0.14669853578E+04  0.00000000000E+00 0. -1.
         -2   -1    0    0    0  501 -0.00000000000E+00 -0.00000000000E+00 -0.25649339518E+01  0.25649339518E+01  0.00000000000E+00 0.  1.
         23    2    1    2    0    0 -0.19872573205E+02  0.21480847359E+01  0.13566057706E+04  0.13598984205E+04  0.92438972136E+02 0.  0.
         11    1    3    3    0    0 -0.43353412277E+02  0.24987233926E+02  0.11099181729E+04  0.11110455575E+04  0.00000000000E+00 0. -1.
        -11    1    3    3    0    0  0.23480839072E+02 -0.22839149190E+02  0.24668759775E+03  0.24885286300E+03  0.00000000000E+00 0.  1.
         22    1    1    2    0    0  0.19872573205E+02 -0.21480847359E+01  0.10781465316E+03  0.10965187125E+03  0.00000000000E+00 0. -1.
<mgrwt>
<rscale>  0 0.64125035E+02</rscale>
<asrwt>0</asrwt>
<pdfrwt beam="1">  1        2 0.22568939E+00 0.94575351E+02</pdfrwt>
<pdfrwt beam="2">  1       -2 0.39460639E-03 0.94575351E+02</pdfrwt>
<totfact> 0.10454535E+05</totfact>
</mgrwt>
</event>
<event>
 6    1  0.2975432E-002  0.8969783E+02  0.7546771E-02  0.1391035E+00
         -2   -1    0    0    0  501 -0.00000000000E+00  0.00000000000E+00  0.14755328674E+02  0.14755328674E+02  0.00000000000E+00 0.  1.
          2   -1    0    0  501    0  0.00000000000E+00 -0.00000000000E+00 -0.20398924066E+03  0.20398924066E+03  0.00000000000E+00 0. -1.
         23    2    1    2    0    0  0.14003327521E+02  0.14302741657E+02 -0.15348703041E+03  0.17777505453E+03  0.87435918876E+02 0.  0.
         13    1    3    3    0    0 -0.81058289973E+01  0.21425410726E+02 -0.37442353042E+00  0.22910540838E+02  0.00000000000E+00 0.  1.
        -13    1    3    3    0    0  0.22109156518E+02 -0.71226690689E+01 -0.15311260688E+03  0.15486451369E+03  0.00000000000E+00 0. -1.
         22    1    1    2    0    0 -0.14003327521E+02 -0.14302741657E+02 -0.35746881580E+02  0.40969514804E+02  0.00000000000E+00 0.  1.
<mgrwt>
<rscale>  0 0.61650086E+02</rscale>
<asrwt>0</asrwt>
<pdfrwt beam="1">  1        2 0.31382958E-01 0.89697834E+02</pdfrwt>
<pdfrwt beam="2">  1       -2 0.22700507E-02 0.89697834E+02</pdfrwt>
<totfact> 0.91355227E+04</totfact>
</mgrwt>
</event>
<event>
 6    1  0.2975432E-002  0.9300553E+02  0.7546771E-02  0.1393040E+00
         -2   -1    0    0    0  501 -0.00000000000E+00  0.00000000000E+00  0.51323142033E+03  0.51323142033E+03  0.00000000000E+00 0.  1.
          2   -1    0    0  501    0  0.00000000000E+00 -0.00000000000E+00 -0.59389369300E+01  0.59389369300E+01  0.00000000000E+00 0. -1.
         23    2    1    2    0    0 -0.90709377346E+01 -0.14834748651E+02  0.42332776649E+03  0.43342407241E+03  0.91365622575E+02 0.  0.
         13    1    3    3    0    0 -0.28253653813E+02 -0.26591371432E+02  0.75652445086E+02  0.85021541011E+02  0.00000000000E+00 0. -1.
        -13    1    3    3    0    0  0.19182716078E+02  0.11756622781E+02  0.34767532140E+03  0.34840253140E+03  0.00000000000E+00 0.  1.
         22    1    1    2    0    0  0.90709377346E+01  0.14834748651E+02  0.83964716911E+02  0.85746284845E+02  0.00000000000E+00 0. -1.
<mgrwt>
<rscale>  0 0.61156923E+02</rscale>
<asrwt>0</asrwt>
<pdfrwt beam="1">  1        2 0.91368301E-03 0.93005530E+02</pdfrwt>
<pdfrwt beam="2">  1       -2 0.78958645E-01 0.93005530E+02</pdfrwt>
<totfact> 0.21080109E+04</totfact>
</mgrwt>
</event>
<event>
 6    1  0.2975432E-002  0.9108993E+02  0.7546771E-02  0.1429386E+00
          2   -1    0    0  501    0  0.00000000000E+00  0.00000000000E+00  0.15129630902E+04  0.15129630902E+04  0.00000000000E+00 0. -1.
         -2   -1    0    0    0  501 -0.00000000000E+00 -0.00000000000E+00 -0.19197317395E+01  0.19197317395E+01  0.00000000000E+00 0.  1.
         23    2    1    2    0    0 -0.32798454969E+00  0.10500517951E+02  0.14559544065E+04  0.14588010862E+04  0.90482080839E+02 0.  0.
         11    1    3    3    0    0  0.32169990144E+02 -0.98333233913E+01  0.11447918656E+04  0.11452859984E+04  0.00000000000E+00 0.  1.
        -11    1    3    3    0    0 -0.32497974694E+02  0.20333841343E+02  0.31116254091E+03  0.31351508788E+03  0.00000000000E+00 0. -1.
         22    1    1    2    0    0  0.32798454969E+00 -0.10500517951E+02  0.55088951957E+02  0.56081735697E+02  0.00000000000E+00 0. -1.
<mgrwt>
<rscale>  0 0.53083359E+02</rscale>
<asrwt>0</asrwt>
<pdfrwt beam="1">  1        2 0.23276260E+00 0.91089930E+02</pdfrwt>
<pdfrwt beam="2">  1       -2 0.29534455E-03 0.91089930E+02</pdfrwt>
<totfact> 0.14769571E+05</totfact>
</mgrwt>
</event>
<event>
 6    1  0.2975432E-002  0.9793157E+02  0.7546771E-02  0.1336853E+00
          1   -1    0    0  501    0  0.00000000000E+00  0.00000000000E+00  0.67440445878E+02  0.67440445878E+02  0.00000000000E+00 0. -1.
         -1   -1    0    0    0  501 -0.00000000000E+00 -0.00000000000E+00 -0.69103668832E+02  0.69103668832E+02  0.00000000000E+00 0.  1.
         23    2    1    2    0    0  0.15645420553E+02 -0.34674992483E+02  0.43621429037E+01  0.98028672071E+02  0.90241110196E+02 0.  0.
         11    1    3    3    0    0  0.42495417487E+02 -0.51057171144E+02  0.44273322142E+01  0.66575494764E+02  0.00000000000E+00 0. -1.
        -11    1    3    3    0    0 -0.26849996934E+02  0.16382178661E+02 -0.65189310445E-01  0.31453177307E+02  0.00000000000E+00 0.  1.
         22    1    1    2    0    0 -0.15645420553E+02  0.34674992483E+02 -0.60253658570E+01  0.38515442639E+02  0.00000000000E+00 0.  1.
<mgrwt>
<rscale>  0 0.77313554E+02</rscale>
<asrwt>0</asrwt>
<pdfrwt beam="1">  1        1 0.10375453E-01 0.97931569E+02</pdfrwt>
<pdfrwt beam="2">  1       -1 0.10631334E-01 0.97931569E+02</pdfrwt>
<totfact> 0.29822185E+04</totfact>
</mgrwt>
</event>
<event>
 6    1  0.2975432E-002  0.9417125E+02  0.7546771E-02  0.1386030E+00
          2   -1    0    0  501    0  0.00000000000E+00  0.00000000000E+00  0.27827433731E+04  0.27827433731E+04  0.00000000000E+00 0. -1.
         -2   -1    0    0    0  501 -0.00000000000E+00 -0.00000000000E+00 -0.17520878754E+01  0.17520878754E+01  0.00000000000E+00 0.  1.
         23    2    1    2    0    0 -0.13692774982E+02 -0.12807786271E+02  0.26871437236E+04  0.26887933382E+04  0.92285930271E+02 0.  0.
         13    1    3    3    0    0 -0.29118599550E+02 -0.16850872516E+02  0.25990595701E+04  0.25992773022E+04  0.00000000000E+00 0. -1.
        -13    1    3    3    0    0  0.15425824568E+02  0.40430862454E+01  0.88084153524E+02  0.89516036060E+02  0.00000000000E+00 0.  1.
         22    1    1    2    0    0  0.13692774982E+02  0.12807786271E+02  0.93847561590E+02  0.95702122715E+02  0.00000000000E+00 0. -1.
<mgrwt>
<rscale>  0 0.62904872E+02</rscale>
<asrwt>0</asrwt>
<pdfrwt beam="1">  1        2 0.42811083E+00 0.94171250E+02</pdfrwt>
<pdfrwt beam="2">  1       -2 0.26955421E-03 0.94171250E+02</pdfrwt>
<totfact> 0.37403911E+04</totfact>
</mgrwt>
</event>
<event>
 6    1  0.2975432E-002  0.1054512E+03  0.7546771E-02  0.1309357E+00
          1   -1    0    0  501    0  0.00000000000E+00  0.00000000000E+00  0.34865033649E+03  0.34865033649E+03  0.00000000000E+00 0. -1.
         -1   -1    0    0    0  501 -0.00000000000E+00 -0.00000000000E+00 -0.17391157206E+02  0.17391157206E+02  0.00000000000E+00 0.  1.
         23    2    1    2    0    0  0.38869342581E+02 -0.30949031005E+02  0.23968580836E+03  0.26185727908E+03  0.93012254919E+02 0.  0.
         11    1    3    3    0    0  0.64417777326E+02 -0.37991084719E+02  0.20493603245E+03  0.21815533445E+03  0.00000000000E+00 0.  1.
        -11    1    3    3    0    0 -0.25548434745E+02  0.70420537140E+01  0.34749775911E+02  0.43701944628E+02  0.00000000000E+00 0. -1.
         22    1    1    2    0    0 -0.38869342581E+02  0.30949031005E+02  0.91573370920E+02  0.10418421461E+03  0.00000000000E+00 0. -1.
<mgrwt>
<rscale>  0 0.87366789E+02</rscale>
<asrwt>0</asrwt>
<pdfrwt beam="1">  1        1 0.53638508E-01 0.10545116E+03</pdfrwt>
<pdfrwt beam="2">  1       -1 0.26755629E-02 0.10545116E+03</pdfrwt>
<totfact> 0.29240873E+04</totfact>
</mgrwt>
</event>
<event>
 6    1  0.2975432E-002  0.9230883E+02  0.7546771E-02  0.1407365E+00
          2   -1    0    0  501    0  0.00000000000E+00  0.00000000000E+00  0.61299198538E+02  0.61299198538E+02  0.00000000000E+00 0. -1.
         -2   -1    0    0    0  501 -0.00000000000E+00 -0.00000000000E+00 -0.54957880274E+02  0.54957880274E+02  0.00000000000E+00 0.  1.
         23    2    1    2    0    0 -0.82856359342E+01  0.11502752852E+02  0.22245993883E+02  0.94951591430E+02  0.91213789447E+02 0.  0.
         11    1    3    3    0    0 -0.14016069714E+02 -0.48221700857E+01  0.55511208958E+02  0.57456051505E+02  0.00000000000E+00 0. -1.
        -11    1    3    3    0    0  0.57304337798E+01  0.16324922938E+02 -0.33265215076E+02  0.37495539925E+02  0.00000000000E+00 0.  1.
         22    1    1    2    0    0  0.82856359342E+01 -0.11502752852E+02 -0.15904675619E+02  0.21305487381E+02  0.00000000000E+00 0. -1.
<mgrwt>
<rscale>  0 0.57785985E+02</rscale>
<asrwt>0</asrwt>
<pdfrwt beam="1">  1        2 0.94306459E-02 0.92308832E+02</pdfrwt>
<pdfrwt beam="2">  1       -2 0.84550585E-02 0.92308832E+02</pdfrwt>
<totfact> 0.51522875E+04</totfact>
</mgrwt>
</event>
<event>
 6    1  0.2975432E-002  0.9233114E+02  0.7546771E-02  0.1409033E+00
          2   -1    0    0  501    0  0.00000000000E+00  0.00000000000E+00  0.55973183729E+03  0.55973183729E+03  0.00000000000E+00 0. -1.
         -2   -1    0    0    0  501 -0.00000000000E+00 -0.00000000000E+00 -0.53596889544E+01  0.53596889544E+01  0.00000000000E+00 0.  1.
         23    2    1    2    0    0 -0.12073980556E+01 -0.13748012147E+02  0.51848943526E+03  0.52664630878E+03  0.91293890429E+02 0.  0.
         13    1    3    3    0    0 -0.18416294459E+01 -0.18225395318E+01 -0.35916362297E+01  0.44286679902E+01  0.00000000000E+00 0.  1.
        -13    1    3    3    0    0  0.63423139028E+00 -0.11925472615E+02  0.52208107149E+03  0.52221764079E+03  0.00000000000E+00 0. -1.
         22    1    1    2    0    0  0.12073980556E+01  0.13748012147E+02  0.35882713078E+02  0.38445217465E+02  0.00000000000E+00 0.  1.
<mgrwt>
<rscale>  0 0.57410092E+02</rscale>
<asrwt>0</asrwt>
<pdfrwt beam="1">  1        2 0.86112544E-01 0.92331144E+02</pdfrwt>
<pdfrwt beam="2">  1       -2 0.82456797E-03 0.92331144E+02</pdfrwt>
<totfact> 0.13343713E+05</totfact>
</mgrwt>
</event>
<event>
 6    1  0.2975432E-002  0.9277825E+02  0.7546771E-02  0.1389131E+00
         -2   -1    0    0    0  501 -0.00000000000E+00  0.00000000000E+00  0.94339991051E+02  0.94339991051E+02  0.00000000000E+00 0.  1.
          2   -1    0    0  501    0  0.00000000000E+00 -0.00000000000E+00 -0.35737994499E+02  0.35737994499E+02  0.00000000000E+00 0. -1.
         23    2    1    2    0    0  0.10904191126E+02 -0.15130367278E+02  0.33146587726E+02  0.98521571993E+02  0.90884401699E+02 0.  0.
         11    1    3    3    0    0  0.17971948304E+02 -0.74392666568E+01  0.63504703254E+02  0.66416721912E+02  0.00000000000E+00 0.  1.
        -11    1    3    3    0    0 -0.70677571781E+01 -0.76911006212E+01 -0.30358115528E+02  0.32104850081E+02  0.00000000000E+00 0. -1.
         22    1    1    2    0    0 -0.10904191126E+02  0.15130367278E+02  0.25455408826E+02  0.31556413557E+02  0.00000000000E+00 0.  1.
<mgrwt>
<rscale>  0 0.62123429E+02</rscale>
<asrwt>0</asrwt>
<pdfrwt beam="1">  1        2 0.54981530E-02 0.92778251E+02</pdfrwt>
<pdfrwt beam="2">  1       -2 0.14513845E-01 0.92778251E+02</pdfrwt>
<totfact> 0.43353924E+04</totfact>
</mgrwt>
</event>
<event>
 6    1  0.2975432E-002  0.9111092E+02  0.7546771E-02  0.1417384E+00
         -2   -1    0    0    0  501 -0.00000000000E+00  0.00000000000E+00  0.49781550882E+01  0.49781550882E+01  0.00000000000E+00 0.  1.
          2   -1    0    0  501    0  0.00000000000E+00 -0.00000000000E+00 -0.56602719252E+03  0.56602719252E+03  0.00000000000E+00 0. -1.
         23    2    1    2    0    0  0.64193225512E+01  0.10860279763E+02 -0.52413709482E+03  0.53199708071E+03  0.90233288457E+02 0.  0.
         13    1    3    3    0    0  0.52928828859E+01  0.37353775586E+02 -0.97620658430E+02  0.10465711687E+03  0.00000000000E+00 0. -1.
        -13    1    3    3    0    0  0.11264396653E+01 -0.26493495823E+02 -0.42651643639E+03  0.42733996384E+03  0.00000000000E+00 0.  1.
         22    1    1    2    0    0 -0.64193225512E+01 -0.10860279763E+02 -0.36911942618E+02  0.39008266898E+02  0.00000000000E+00 0. -1.
<mgrwt>
<rscale>  0 0.55578242E+02</rscale>
<asrwt>0</asrwt>
<pdfrwt beam="1">  1        2 0.87081118E-01 0.91110920E+02</pdfrwt>
<pdfrwt beam="2">  1       -2 0.76586991E-03 0.91110920E+02</pdfrwt>
<totfact> 0.14597858E+05</totfact>
</mgrwt>
</event>
<event>
 6    1  0.2975432E-002  0.9614679E+02  0.7546771E-02  0.1396552E+00
         -2   -1    0    0    0  501 -0.00000000000E+00  0.00000000000E+00  0.37472872172E+02  0.37472872172E+02  0.00000000000E+00 0.  1.
          2   -1    0    0  501    0  0.00000000000E+00 -0.00000000000E+00 -0.86098504187E+02  0.86098504187E+02  0.00000000000E+00 0. -1.
         23    2    1    2    0    0  0.14699549134E+02 -0.23185425256E+01 -0.50449395845E+02  0.10857876155E+03  0.94988175765E+02 0.  0.
         11    1    3    3    0    0  0.52305344350E+02  0.15179859257E+02 -0.25107791769E+02  0.59972313464E+02  0.00000000000E+00 0. -1.
        -11    1    3    3    0    0 -0.37605795216E+02 -0.17498401783E+02 -0.25341604076E+02  0.48606448090E+02  0.00000000000E+00 0.  1.
         22    1    1    2    0    0 -0.14699549134E+02  0.23185425256E+01  0.18237638307E+01  0.14992614805E+02  0.00000000000E+00 0. -1.
<mgrwt>
<rscale>  0 0.60306087E+02</rscale>
<asrwt>0</asrwt>
<pdfrwt beam="1">  1        2 0.13245924E-01 0.96146794E+02</pdfrwt>
<pdfrwt beam="2">  1       -2 0.57650573E-02 0.96146794E+02</pdfrwt>
<totfact> 0.61634569E+04</totfact>
</mgrwt>
</event>
<event>
 6    1  0.2975432E-002  0.9239248E+02  0.7546771E-02  0.1413008E+00
          2   -1    0    0  501    0  0.00000000000E+00  0.00000000000E+00  0.19483828929E+04  0.19483828929E+04  0.00000000000E+00 0. -1.
         -2   -1    0    0    0  501 -0.00000000000E+00 -0.00000000000E+00 -0.45782830446E+01  0.45782830446E+01  0.00000000000E+00 0.  1.
         23    2    1    2    0    0 -0.93361473862E+01  0.89690442969E+01  0.19352266611E+04  0.19374309278E+04  0.91480941064E+02 0.  0.
         13    1    3    3    0    0  0.42902285488E+01 -0.30587835411E+02  0.14706133907E+04  0.14709377168E+04  0.00000000000E+00 0.  1.
        -13    1    3    3    0    0 -0.13626375935E+02  0.39556879708E+02  0.46461327042E+03  0.46649321099E+03  0.00000000000E+00 0. -1.
         22    1    1    2    0    0  0.93361473862E+01 -0.89690442969E+01  0.85779487246E+01  0.15530248161E+02  0.00000000000E+00 0.  1.
<mgrwt>
<rscale>  0 0.56528064E+02</rscale>
<asrwt>0</asrwt>
<pdfrwt beam="1">  1        2 0.29975055E+00 0.92392478E+02</pdfrwt>
<pdfrwt beam="2">  1       -2 0.70435279E-03 0.92392478E+02</pdfrwt>
<totfact> 0.26434921E+04</totfact>
</mgrwt>
</event>
<event>
 6    1  0.2975432E-002  0.1073197E+03  0.7546771E-02  0.1383352E+00
          2   -1    0    0  501    0  0.00000000000E+00  0.00000000000E+00  0.17919372748E+03  0.17919372748E+03  0.00000000000E+00 0. -1.
         -2   -1    0    0    0  501 -0.00000000000E+00 -0.00000000000E+00 -0.27589997479E+02  0.27589997479E+02  0.00000000000E+00 0.  1.
         23    2    1    2    0    0 -0.11572708378E+02 -0.64100089747E+01  0.15884598696E+03  0.19170174631E+03  0.10650115571E+03 0.  0.
         13    1    3    3    0    0 -0.43516640269E+02  0.40056673512E+01  0.15100297623E+03  0.15719937080E+03  0.00000000000E+00 0. -1.
        -13    1    3    3    0    0  0.31943931891E+02 -0.10415676326E+02  0.78430107356E+01  0.34502375504E+02  0.00000000000E+00 0.  1.
         22    1    1    2    0    0  0.11572708378E+02  0.64100089747E+01 -0.72422569598E+01  0.15081978654E+02  0.00000000000E+00 0. -1.
<mgrwt>
<rscale>  0 0.63590781E+02</rscale>
<asrwt>0</asrwt>
<pdfrwt beam="1">  1        2 0.27568265E-01 0.10731967E+03</pdfrwt>
<pdfrwt beam="2">  1       -2 0.42446151E-02 0.10731967E+03</pdfrwt>
<totfact> 0.43167041E+04</totfact>
</mgrwt>
</event>
<event>
 6    1  0.2975432E-002  0.9605128E+02  0.7546771E-02  0.1364882E+00
         -3   -1    0    0    0  501 -0.00000000000E+00  0.00000000000E+00  0.18855878316E+03  0.18855878316E+03  0.00000000000E+00 0.  1.
          3   -1    0    0  501    0  0.00000000000E+00 -0.00000000000E+00 -0.23083294185E+02  0.23083294185E+02  0.00000000000E+00 0. -1.
         23    2    1    2    0    0 -0.13614788979E+01 -0.24969795886E+02  0.88136221021E+02  0.13036042690E+03  0.92738897526E+02 0.  0.
         11    1    3    3    0    0 -0.16183289760E+02  0.44669563103E+00 -0.15630174748E+02  0.22503350131E+02  0.00000000000E+00 0. -1.
        -11    1    3    3    0    0  0.14821810862E+02 -0.25416491517E+02  0.10376639577E+03  0.10785707677E+03  0.00000000000E+00 0.  1.
         22    1    1    2    0    0  0.13614788979E+01  0.24969795886E+02  0.77339267951E+02  0.81281650442E+02  0.00000000000E+00 0. -1.
<mgrwt>
<rscale>  0 0.68610764E+02</rscale>
<asrwt>0</asrwt>
<pdfrwt beam="1">  1        3 0.35512762E-02 0.96051275E+02</pdfrwt>
<pdfrwt beam="2">  1       -3 0.29009043E-01 0.96051275E+02</pdfrwt>
<totfact> 0.93801131E+03</totfact>
</mgrwt>
</event>
<event>
 6    1  0.2975432E-002  0.9241374E+02  0.7546771E-02  0.1425612E+00
         -2   -1    0    0    0  501 -0.00000000000E+00  0.00000000000E+00  0.95666349603E+02  0.95666349603E+02  0.00000000000E+00 0.  1.
          2   -1    0    0  501    0  0.00000000000E+00 -0.00000000000E+00 -0.29340156920E+02  0.29340156920E+02  0.00000000000E+00 0. -1.
         23    2    1    2    0    0  0.92652138006E+01 -0.52623314715E+01  0.48830181599E+02  0.10452122588E+03  0.91797405762E+02 0.  0.
         11    1    3    3    0    0 -0.17301752430E+02  0.35368573523E+02  0.60896710450E+01  0.39841821290E+02  0.00000000000E+00 0. -1.
        -11    1    3    3    0    0  0.26566966231E+02 -0.40630904995E+02  0.42740510554E+02  0.64679404588E+02  0.00000000000E+00 0.  1.
         22    1    1    2    0    0 -0.92652138006E+01  0.52623314715E+01  0.17496011083E+02  0.20485280645E+02  0.00000000000E+00 0.  1.
<mgrwt>
<rscale>  0 0.53851062E+02</rscale>
<asrwt>0</asrwt>
<pdfrwt beam="1">  1        2 0.45138703E-02 0.92413744E+02</pdfrwt>
<pdfrwt beam="2">  1       -2 0.14717900E-01 0.92413744E+02</pdfrwt>
<totfact> 0.54646373E+04</totfact>
</mgrwt>
</event>
<event>
 6    1  0.2975432E-002  0.9816669E+02  0.7546771E-02  0.1346547E+00
          3   -1    0    0  501    0  0.00000000000E+00  0.00000000000E+00  0.16814618479E+03  0.16814618479E+03  0.00000000000E+00 0. -1.
         -3   -1    0    0    0  501 -0.00000000000E+00 -0.00000000000E+00 -0.27125686769E+02  0.27125686769E+02  0.00000000000E+00 0.  1.
         23    2    1    2    0    0  0.31596602052E+02  0.46917338201E+01  0.12666311543E+03  0.16025056287E+03  0.92824245012E+02 0.  0.
         11    1    3    3    0    0  0.24562859754E+02 -0.42227729414E+02  0.79789963451E+02  0.93557220342E+02  0.00000000000E+00 0. -1.
        -11    1    3    3    0    0  0.70337422976E+01  0.46919463234E+02  0.46873151975E+02  0.66693342524E+02  0.00000000000E+00 0.  1.
         22    1    1    2    0    0 -0.31596602052E+02 -0.46917338201E+01  0.14357382591E+02  0.35021308689E+02  0.00000000000E+00 0.  1.
<mgrwt>
<rscale>  0 0.74142487E+02</rscale>
<asrwt>0</asrwt>
<pdfrwt beam="1">  1        3 0.25868643E-01 0.98166685E+02</pdfrwt>
<pdfrwt beam="2">  1       -3 0.41731827E-02 0.98166685E+02</pdfrwt>
<totfact> 0.90370895E+03</totfact>
</mgrwt>
</event>
<event>
 6    1  0.2975432E-002  0.9354233E+02  0.7546771E-02  0.1413433E+00
          3   -1    0    0  501    0  0.00000000000E+00  0.00000000000E+00  0.39555695340E+03  0.39555695340E+03  0.00000000000E+00 0. -1.
         -3   -1    0    0    0  501 -0.00000000000E+00 -0.00000000000E+00 -0.71419680992E+01  0.71419680992E+01  0.00000000000E+00 0.  1.
         23    2    1    2    0    0  0.12211822226E+02 -0.21094234198E+01  0.35275523133E+03  0.36494714906E+03  0.92717798211E+02 0.  0.
         11    1    3    3    0    0  0.37068127226E+02 -0.26382551555E+02  0.10060737806E+03  0.11041707116E+03  0.00000000000E+00 0.  1.
        -11    1    3    3    0    0 -0.24856305000E+02  0.24273128135E+02  0.25214785327E+03  0.25453007790E+03  0.00000000000E+00 0. -1.
         22    1    1    2    0    0 -0.12211822226E+02  0.21094234198E+01  0.35659753967E+02  0.37751772438E+02  0.00000000000E+00 0. -1.
<mgrwt>
<rscale>  0 0.56434850E+02</rscale>
<asrwt>0</asrwt>
<pdfrwt beam="1">  1        3 0.60854899E-01 0.93542335E+02</pdfrwt>
<pdfrwt beam="2">  1       -3 0.10987646E-02 0.93542335E+02</pdfrwt>
<totfact> 0.13160323E+04</totfact>
</mgrwt>
</event>
<event>
 6    1  0.2975432E-002  0.9026668E+02  0.7546771E-02  0.1424445E+00
         -2   -1    0    0    0  501 -0.00000000000E+00  0.00000000000E+00  0.10649465435E+02  0.10649465435E+02  0.00000000000E+00 0.  1.
          2   -1    0    0  501    0  0.00000000000E+00 -0.00000000000E+00 -0.24970052997E+03  0.24970052997E+03  0.00000000000E+00 0. -1.
         23    2    1    2    0    0  0.10563970077E+02 -0.48864093292E+01 -0.22252672959E+03  0.24013791720E+03  0.89513124379E+02 0.  0.
         13    1    3    3    0    0  0.28877669264E+02 -0.36451153510E+02 -0.16952701033E+03  0.17578968572E+03  0.00000000000E+00 0. -1.
        -13    1    3    3    0    0 -0.18313699187E+02  0.31564744181E+02 -0.52999719257E+02  0.64348231478E+02  0.00000000000E+00 0.  1.
         22    1    1    2    0    0 -0.10563970077E+02  0.48864093292E+01 -0.16524334942E+02  0.20212078201E+02  0.00000000000E+00 0. -1.
<mgrwt>
<rscale>  0 0.54091346E+02</rscale>
<asrwt>0</asrwt>
<pdfrwt beam="1">  1        2 0.38415469E-01 0.90266682E+02</pdfrwt>
<pdfrwt beam="2">  1       -2 0.16383792E-02 0.90266682E+02</pdfrwt>
<totfact> 0.11788880E+05</totfact>
</mgrwt>
</event>
<event>
 6    1  0.2975432E-002  0.9207045E+02  0.7546771E-02  0.1402924E+00
         -2   -1    0    0    0  501 -0.00000000000E+00  0.00000000000E+00  0.19724123561E+02  0.19724123561E+02  0.00000000000E+00 0.  1.
          2   -1    0    0  501    0  0.00000000000E+00 -0.00000000000E+00 -0.17986833298E+03  0.17986833298E+03  0.00000000000E+00 0. -1.
         23    2    1    2    0    0  0.95873110899E+01  0.11948705770E+02 -0.15961247332E+03  0.18426369773E+03  0.90787006552E+02 0.  0.
         11    1    3    3    0    0  0.50162210744E+02  0.25549954105E+01 -0.93195649106E+02  0.10586880750E+03  0.00000000000E+00 0. -1.
        -11    1    3    3    0    0 -0.40574899654E+02  0.93937103597E+01 -0.66416824212E+02  0.78394890233E+02  0.00000000000E+00 0.  1.
         22    1    1    2    0    0 -0.95873110899E+01 -0.11948705770E+02 -0.53173610436E+00  0.15328758815E+02  0.00000000000E+00 0.  1.
<mgrwt>
<rscale>  0 0.58803287E+02</rscale>
<asrwt>0</asrwt>
<pdfrwt beam="1">  1        2 0.27672050E-01 0.92070455E+02</pdfrwt>
<pdfrwt beam="2">  1       -2 0.30344807E-02 0.92070455E+02</pdfrwt>
<totfact> 0.68936388E+04</totfact>
</mgrwt>
</event>
<event>
 6    1  0.2975432E-002  0.9186463E+02  0.7546771E-02  0.1424377E+00
         -2   -1    0    0    0  501 -0.00000000000E+00  0.00000000000E+00  0.24220603879E+02  0.24220603879E+02  0.00000000000E+00 0.  1.
          2   -1    0    0  501    0  0.00000000000E+00 -0.00000000000E+00 -0.10993629664E+03  0.10993629664E+03  0.00000000000E+00 0. -1.
         23    2    1    2    0    0 -0.92947361220E+01  0.59833676332E+01 -0.73228484024E+02  0.11747987471E+03  0.91197134173E+02 0.  0.
         13    1    3    3    0    0 -0.73010782491E+01 -0.39978899344E+02 -0.54080902267E+02  0.67648814671E+02  0.00000000000E+00 0. -1.
        -13    1    3    3    0    0 -0.19936578728E+01  0.45962266977E+02 -0.19147581757E+02  0.49831060038E+02  0.00000000000E+00 0.  1.
         22    1    1    2    0    0  0.92947361220E+01 -0.59833676332E+01 -0.12487208739E+02  0.16677025811E+02  0.00000000000E+00 0. -1.
<mgrwt>
<rscale>  0 0.54105567E+02</rscale>
<asrwt>0</asrwt>
<pdfrwt beam="1">  1        2 0.16913276E-01 0.91864629E+02</pdfrwt>
<pdfrwt beam="2">  1       -2 0.37262467E-02 0.91864629E+02</pdfrwt>
<totfact> 0.88087390E+04</totfact>
</mgrwt>
</event>
<event>
 6    1  0.2975432E-002  0.9277022E+02  0.7546771E-02  0.1388854E+00
          1   -1    0    0  501    0  0.00000000000E+00  0.00000000000E+00  0.11618467271E+04  0.11618467271E+04  0.00000000000E+00 0. -1.
         -1   -1    0    0    0  501 -0.00000000000E+00 -0.00000000000E+00 -0.37464316486E+01  0.37464316486E+01  0.00000000000E+00 0.  1.
         23    2    1    2    0    0 -0.13636687683E+02  0.12851717827E+02  0.11115257524E+04  0.11153904301E+04  0.90858062086E+02 0.  0.
         11    1    3    3    0    0 -0.42927311580E+02 -0.85535514099E+00  0.93109663244E+03  0.93208606076E+03  0.00000000000E+00 0. -1.
        -11    1    3    3    0    0  0.29290623897E+02  0.13707072968E+02  0.18042911993E+03  0.18330436933E+03  0.00000000000E+00 0.  1.
         22    1    1    2    0    0  0.13636687683E+02 -0.12851717827E+02  0.46574543112E+02  0.50202728692E+02  0.00000000000E+00 0.  1.
<mgrwt>
<rscale>  0 0.62192683E+02</rscale>
<asrwt>0</asrwt>
<pdfrwt beam="1">  1        1 0.17874536E+00 0.92770218E+02</pdfrwt>
<pdfrwt beam="2">  1       -1 0.57637502E-03 0.92770218E+02</pdfrwt>
<totfact> 0.46122282E+04</totfact>
</mgrwt>
</event>
<event>
 6    1  0.2975432E-002  0.9150038E+02  0.7546771E-02  0.1416027E+00
         -2   -1    0    0    0  501 -0.00000000000E+00  0.00000000000E+00  0.54764552064E+02  0.54764552064E+02  0.00000000000E+00 0.  1.
          2   -1    0    0  501    0  0.00000000000E+00 -0.00000000000E+00 -0.19406497558E+03  0.19406497558E+03  0.00000000000E+00 0. -1.
         23    2    1    2    0    0  0.60632230654E+01 -0.11181000249E+02 -0.18230739925E+03  0.20398114526E+03  0.90612043137E+02 0.  0.
         13    1    3    3    0    0  0.66197579023E+00  0.18937558880E+02  0.17614626304E+00  0.18949943952E+02  0.00000000000E+00 0.  1.
        -13    1    3    3    0    0  0.54012472751E+01 -0.30118559129E+02 -0.18248354551E+03  0.18503120131E+03  0.00000000000E+00 0. -1.
         22    1    1    2    0    0 -0.60632230654E+01  0.11181000249E+02  0.43006975733E+02  0.44848382381E+02  0.00000000000E+00 0.  1.
<mgrwt>
<rscale>  0 0.55870418E+02</rscale>
<asrwt>0</asrwt>
<pdfrwt beam="1">  1        2 0.29856150E-01 0.91500381E+02</pdfrwt>
<pdfrwt beam="2">  1       -2 0.84253157E-02 0.91500381E+02</pdfrwt>
<totfact> 0.13871480E+04</totfact>
</mgrwt>
</event>
<event>
 6    1  0.2975432E-002  0.1001410E+03  0.7546771E-02  0.1331638E+00
          2   -1    0    0  501    0  0.00000000000E+00  0.00000000000E+00  0.25749106971E+03  0.25749106971E+03  0.00000000000E+00 0. -1.
         -2   -1    0    0    0  501 -0.00000000000E+00 -0.00000000000E+00 -0.23965680033E+02  0.23965680033E+02  0.00000000000E+00 0.  1.
         23    2    1    2    0    0  0.38141703877E+02 -0.80108473587E+01  0.21725375468E+03  0.23922252955E+03  0.92245658271E+02 0.  0.
         13    1    3    3    0    0  0.29164960410E+02  0.39357443184E+02  0.13823035405E+03  0.14665344875E+03  0.00000000000E+00 0. -1.
        -13    1    3    3    0    0  0.89767434671E+01 -0.47368290542E+02  0.79023400629E+02  0.92569080794E+02  0.00000000000E+00 0.  1.
         22    1    1    2    0    0 -0.38141703877E+02  0.80108473587E+01  0.16271634995E+02  0.42234220194E+02  0.00000000000E+00 0. -1.
<mgrwt>
<rscale>  0 0.79095619E+02</rscale>
<asrwt>0</asrwt>
<pdfrwt beam="1">  1        2 0.39614009E-01 0.10014102E+03</pdfrwt>
<pdfrwt beam="2">  1       -2 0.36870279E-02 0.10014102E+03</pdfrwt>
<totfact> 0.35788446E+04</totfact>
</mgrwt>
</event>
<event>
 6    1  0.2975432E-002  0.1013359E+03  0.7546771E-02  0.1329371E+00
          2   -1    0    0  501    0  0.00000000000E+00  0.00000000000E+00  0.96057984199E+02  0.96057984199E+02  0.00000000000E+00 0. -1.
         -2   -1    0    0    0  501 -0.00000000000E+00 -0.00000000000E+00 -0.55019837043E+02  0.55019837043E+02  0.00000000000E+00 0.  1.
         23    2    1    2    0    0 -0.14721605944E+02 -0.36266487135E+02  0.46612384020E+02  0.11154231964E+03  0.93471872534E+02 0.  0.
         13    1    3    3    0    0 -0.11874357252E+02  0.45596837959E+01  0.65317832278E+02  0.66544799120E+02  0.00000000000E+00 0. -1.
        -13    1    3    3    0    0 -0.28472486919E+01 -0.40826170930E+02 -0.18705448258E+02  0.44997520515E+02  0.00000000000E+00 0.  1.
         22    1    1    2    0    0  0.14721605944E+02  0.36266487135E+02 -0.55742368636E+01  0.39535501606E+02  0.00000000000E+00 0.  1.
<mgrwt>
<rscale>  0 0.79887610E+02</rscale>
<asrwt>0</asrwt>
<pdfrwt beam="1">  1        2 0.14778151E-01 0.10133595E+03</pdfrwt>
<pdfrwt beam="2">  1       -2 0.84645903E-02 0.10133595E+03</pdfrwt>
<totfact> 0.30477887E+04</totfact>
</mgrwt>
</event>
<event>
 6    1  0.2975432E-002  0.8983888E+02  0.7546771E-02  0.1423337E+00
          2   -1    0    0  501    0  0.00000000000E+00  0.00000000000E+00  0.18966895841E+02  0.18966895841E+02  0.00000000000E+00 0. -1.
         -2   -1    0    0    0  501 -0.00000000000E+00 -0.00000000000E+00 -0.16371013854E+03  0.16371013854E+03  0.00000000000E+00 0.  1.
         23    2    1    2    0    0  0.28306763628E+01  0.11669927997E+02 -0.92017419531E+02  0.12860104732E+03  0.89032712673E+02 0.  0.
         11    1    3    3    0    0  0.20377917363E+02 -0.27082009186E+02 -0.75876857020E+02  0.83102299420E+02  0.00000000000E+00 0.  1.
        -11    1    3    3    0    0 -0.17547241000E+02  0.38751937183E+02 -0.16140562511E+02  0.45498747898E+02  0.00000000000E+00 0. -1.
         22    1    1    2    0    0 -0.28306763628E+01 -0.11669927997E+02 -0.52725823165E+02  0.54075987060E+02  0.00000000000E+00 0.  1.
<mgrwt>
<rscale>  0 0.54321140E+02</rscale>
<asrwt>0</asrwt>
<pdfrwt beam="1">  1        2 0.29179840E-02 0.89838877E+02</pdfrwt>
<pdfrwt beam="2">  1       -2 0.25186175E-01 0.89838877E+02</pdfrwt>
<totfact> 0.39392857E+04</totfact>
</mgrwt>
</event>
<event>
 6    1  0.2975432E-002  0.9197413E+02  0.7546771E-02  0.1407385E+00
          2   -1    0    0  501    0  0.00000000000E+00  0.00000000000E+00  0.24711198653E+03  0.24711198653E+03  0.00000000000E+00 0.  1.
         -2   -1    0    0    0  501 -0.00000000000E+00 -0.00000000000E+00 -0.11438640358E+02  0.11438640358E+02  0.00000000000E+00 0. -1.
         23    2    1    2    0    0  0.14080659721E+02 -0.26450647692E+01  0.20172883300E+03  0.22170647783E+03  0.90851411104E+02 0.  0.
         13    1    3    3    0    0  0.31628218078E+02  0.15754644919E+02  0.19077818718E+03  0.19402285876E+03  0.00000000000E+00 0.  1.
        -13    1    3    3    0    0 -0.17547558357E+02 -0.18399709688E+02  0.10950645820E+02  0.27683619069E+02  0.00000000000E+00 0. -1.
         22    1    1    2    0    0 -0.14080659721E+02  0.26450647692E+01  0.33944513172E+02  0.36844149064E+02  0.00000000000E+00 0.  1.
<mgrwt>
<rscale>  0 0.57781346E+02</rscale>
<asrwt>0</asrwt>
<pdfrwt beam="1">  1        2 0.38017225E-01 0.91974128E+02</pdfrwt>
<pdfrwt beam="2">  1       -2 0.17597910E-02 0.91974128E+02</pdfrwt>
<totfact> 0.10791374E+05</totfact>
</mgrwt>
</event>
<event>
 6    1  0.2975432E-002  0.9353482E+02  0.7546771E-02  0.1373060E+00
          2   -1    0    0  501    0  0.00000000000E+00  0.00000000000E+00  0.11326383923E+03  0.11326383923E+03  0.00000000000E+00 0. -1.
         -2   -1    0    0    0  501 -0.00000000000E+00 -0.00000000000E+00 -0.31821343195E+02  0.31821343195E+02  0.00000000000E+00 0.  1.
         23    2    1    2    0    0  0.13238839959E+02  0.19592348801E+02  0.50990665182E+02  0.10653079205E+03  0.90496600509E+02 0.  0.
         13    1    3    3    0    0 -0.14784434242E+02  0.39577677613E+02  0.57649046230E+02  0.71472964065E+02  0.00000000000E+00 0. -1.
        -13    1    3    3    0    0  0.28023274202E+02 -0.19985328812E+02 -0.66583810474E+01  0.35057827983E+02  0.00000000000E+00 0.  1.
         22    1    1    2    0    0 -0.13238839959E+02 -0.19592348801E+02  0.30451830852E+02  0.38554390375E+02  0.00000000000E+00 0. -1.
<mgrwt>
<rscale>  0 0.66323705E+02</rscale>
<asrwt>0</asrwt>
<pdfrwt beam="1">  1        2 0.17425206E-01 0.93534816E+02</pdfrwt>
<pdfrwt beam="2">  1       -2 0.48955913E-02 0.93534816E+02</pdfrwt>
<totfact> 0.57068756E+04</totfact>
</mgrwt>
</event>
<event>
 6    1  0.2975432E-002  0.9370702E+02  0.7546771E-02  0.1399861E+00
         -2   -1    0    0    0  501 -0.00000000000E+00  0.00000000000E+00  0.63777882399E+02  0.63777882399E+02  0.00000000000E+00 0.  1.
          2   -1    0    0  501    0  0.00000000000E+00 -0.00000000000E+00 -0.48373931988E+02  0.48373931988E+02  0.00000000000E+00 0. -1.
         23    2    1    2    0    0 -0.63412471212E+01  0.13870653010E+02  0.52993480874E+01  0.93856748985E+02  0.92457556803E+02 0.  0.
         13    1    3    3    0    0 -0.25515174575E+02 -0.33652992839E+02  0.56597912196E+01  0.42609638549E+02  0.00000000000E+00 0.  1.
        -13    1    3    3    0    0  0.19173927454E+02  0.47523645849E+02 -0.36044313224E+00  0.51247110436E+02  0.00000000000E+00 0. -1.
         22    1    1    2    0    0  0.63412471212E+01 -0.13870653010E+02  0.10104602323E+02  0.18295065402E+02  0.00000000000E+00 0.  1.
<mgrwt>
<rscale>  0 0.59519164E+02</rscale>
<asrwt>0</asrwt>
<pdfrwt beam="1">  1        2 0.74421434E-02 0.93707023E+02</pdfrwt>
<pdfrwt beam="2">  1       -2 0.98119819E-02 0.93707023E+02</pdfrwt>
<totfact> 0.54967428E+04</totfact>
</mgrwt>
</event>
<event>
 6    1  0.2975432E-002  0.8454650E+02  0.7546771E-02  0.1405888E+00
         -4   -1    0    0    0  501 -0.00000000000E+00  0.00000000000E+00  0.54315671004E+02  0.54315671004E+02  0.00000000000E+00 0. -1.
          4   -1    0    0  501    0  0.00000000000E+00 -0.00000000000E+00 -0.49317578834E+02  0.49317578834E+02  0.00000000000E+00 0.  1.
         23    2    1    2    0    0  0.90968429298E+00 -0.18860650630E+02  0.24737261437E+01  0.84582683139E+02  0.82410917349E+02 0.  0.
         11    1    3    3    0    0  0.10064725139E+02 -0.31659497532E+02  0.35119294248E+02  0.48342396554E+02  0.00000000000E+00 0. -1.
        -11    1    3    3    0    0 -0.91550408465E+01  0.12798846902E+02 -0.32645568104E+02  0.36240286585E+02  0.00000000000E+00 0.  1.
         22    1    1    2    0    0 -0.90968429298E+00  0.18860650630E+02  0.25243660262E+01  0.19050566698E+02  0.00000000000E+00 0.  1.
<mgrwt>
<rscale>  0 0.58121530E+02</rscale>
<asrwt>0</asrwt>
<pdfrwt beam="1">  1        4 0.75873197E-02 0.84546502E+02</pdfrwt>
<pdfrwt beam="2">  1       -4 0.83562572E-02 0.84546502E+02</pdfrwt>
<totfact> 0.17412181E+04</totfact>
</mgrwt>
</event>
<event>
 6    1  0.2975432E-002  0.9102993E+02  0.7546771E-02  0.1402043E+00
          2   -1    0    0  501    0  0.00000000000E+00  0.00000000000E+00  0.54765959132E+03  0.54765959132E+03  0.00000000000E+00 0. -1.
         -2   -1    0    0    0  501 -0.00000000000E+00 -0.00000000000E+00 -0.28247700784E+02  0.28247700784E+02  0.00000000000E+00 0.  1.
         23    2    1    2    0    0  0.14589708504E+02  0.67434750706E+01  0.54121678382E+03  0.54881878122E+03  0.89599740429E+02 0.  0.
         11    1    3    3    0    0  0.15523592721E+02 -0.40012234070E+02  0.21235471958E+03  0.21664830425E+03  0.00000000000E+00 0.  1.
        -11    1    3    3    0    0 -0.93388421692E+00  0.46755709141E+02  0.32886206424E+03  0.33217047697E+03  0.00000000000E+00 0. -1.
         22    1    1    2    0    0 -0.14589708504E+02 -0.67434750706E+01 -0.21804893287E+02  0.27088510877E+02  0.00000000000E+00 0.  1.
<mgrwt>
<rscale>  0 0.59007994E+02</rscale>
<asrwt>0</asrwt>
<pdfrwt beam="1">  1        2 0.84255314E-01 0.91029927E+02</pdfrwt>
<pdfrwt beam="2">  1       -2 0.43458005E-02 0.91029927E+02</pdfrwt>
<totfact> 0.12509831E+04</totfact>
</mgrwt>
</event>
<event>
 6    1  0.2975432E-002  0.8767761E+02  0.7546771E-02  0.1407804E+00
         -4   -1    0    0    0  501 -0.00000000000E+00  0.00000000000E+00  0.17548648001E+02  0.17548648001E+02  0.00000000000E+00 0.  1.
          4   -1    0    0  501    0  0.00000000000E+00 -0.00000000000E+00 -0.23943585689E+03  0.23943585689E+03  0.00000000000E+00 0. -1.
         23    2    1    2    0    0 -0.52878962503E+01 -0.15555713351E+02 -0.22387797598E+03  0.24043442277E+03  0.86124453334E+02 0.  0.
         13    1    3    3    0    0 -0.20683240501E+02  0.12628538060E+02 -0.19720203303E+03  0.19868547567E+03  0.00000000000E+00 0. -1.
        -13    1    3    3    0    0  0.15395344251E+02 -0.28184251411E+02 -0.26675942951E+02  0.41748947107E+02  0.00000000000E+00 0.  1.
         22    1    1    2    0    0  0.52878962503E+01  0.15555713351E+02  0.19907670853E+01  0.16550082120E+02  0.00000000000E+00 0.  1.
<mgrwt>
<rscale>  0 0.57686654E+02</rscale>
<asrwt>0</asrwt>
<pdfrwt beam="1">  1        4 0.36836285E-01 0.87677611E+02</pdfrwt>
<pdfrwt beam="2">  1       -4 0.26997920E-02 0.87677611E+02</pdfrwt>
<totfact> 0.65988737E+03</totfact>
</mgrwt>
</event>
<event>
 6    1  0.2975432E-002  0.9198168E+02  0.7546771E-02  0.1419321E+00
          1   -1    0    0  501    0  0.00000000000E+00  0.00000000000E+00  0.33713370905E+03  0.33713370905E+03  0.00000000000E+00 0. -1.
         -1   -1    0    0    0  501 -0.00000000000E+00 -0.00000000000E+00 -0.93575985460E+01  0.93575985460E+01  0.00000000000E+00 0.  1.
         23    2    1    2    0    0  0.49605085373E+00  0.11889537999E+02  0.31816706029E+03  0.33119617679E+03  0.91208673316E+02 0.  0.
         13    1    3    3    0    0  0.29483527877E+02  0.40221990326E+02  0.20532993692E+03  0.21129947922E+03  0.00000000000E+00 0. -1.
        -13    1    3    3    0    0 -0.28987477023E+02 -0.28332452327E+02  0.11283712337E+03  0.11989669758E+03  0.00000000000E+00 0.  1.
         22    1    1    2    0    0 -0.49605085373E+00 -0.11889537999E+02  0.96090502136E+01  0.15295130803E+02  0.00000000000E+00 0.  1.
<mgrwt>
<rscale>  0 0.55164751E+02</rscale>
<asrwt>0</asrwt>
<pdfrwt beam="1">  1        1 0.51866715E-01 0.91981679E+02</pdfrwt>
<pdfrwt beam="2">  1       -1 0.14396308E-02 0.91981679E+02</pdfrwt>
<totfact> 0.72670024E+04</totfact>
</mgrwt>
</event>
<event>
 6    1  0.2975432E-002  0.9374848E+02  0.7546771E-02  0.1377393E+00
         -2   -1    0    0    0  501 -0.00000000000E+00  0.00000000000E+00  0.32530190057E+01  0.32530190057E+01  0.00000000000E+00 0.  1.
          2   -1    0    0  501    0  0.00000000000E+00 -0.00000000000E+00 -0.12466402260E+04  0.12466402260E+04  0.00000000000E+00 0. -1.
         23    2    1    2    0    0 -0.14601301581E+00 -0.21870567101E+02 -0.11565791173E+04  0.11603723678E+04  0.91161583328E+02 0.  0.
         13    1    3    3    0    0  0.44618631938E+02 -0.22037702477E+01 -0.58831120993E+03  0.59000488019E+03  0.00000000000E+00 0. -1.
        -13    1    3    3    0    0 -0.44764644954E+02 -0.19666796853E+02 -0.56826790738E+03  0.57036748759E+03  0.00000000000E+00 0.  1.
         22    1    1    2    0    0  0.14601301581E+00  0.21870567101E+02 -0.86808089632E+02  0.89520877178E+02  0.00000000000E+00 0. -1.
<mgrwt>
<rscale>  0 0.65153928E+02</rscale>
<asrwt>0</asrwt>
<pdfrwt beam="1">  1        2 0.19179060E+00 0.93748479E+02</pdfrwt>
<pdfrwt beam="2">  1       -2 0.50046501E-03 0.93748479E+02</pdfrwt>
<totfact> 0.97679550E+04</totfact>
</mgrwt>
</event>
<event>
 6    1  0.2975432E-002  0.9253783E+02  0.7546771E-02  0.1405311E+00
          2   -1    0    0  501    0  0.00000000000E+00  0.00000000000E+00  0.21295386839E+04  0.21295386839E+04  0.00000000000E+00 0. -1.
         -2   -1    0    0    0  501 -0.00000000000E+00 -0.00000000000E+00 -0.18316665975E+01  0.18316665975E+01  0.00000000000E+00 0.  1.
         23    2    1    2    0    0  0.72878821783E+01 -0.12572630643E+02  0.20620046762E+04  0.20640800696E+04  0.91389633224E+02 0.  0.
         13    1    3    3    0    0 -0.25042061991E+02 -0.14931509329E+01  0.17734294478E+03  0.17910849905E+03  0.00000000000E+00 0.  1.
        -13    1    3    3    0    0  0.32329944169E+02 -0.11079479710E+02  0.18846617314E+04  0.18849715706E+04  0.00000000000E+00 0. -1.
         22    1    1    2    0    0 -0.72878821783E+01  0.12572630643E+02  0.65702341141E+02  0.67290280868E+02  0.00000000000E+00 0.  1.
<mgrwt>
<rscale>  0 0.58253519E+02</rscale>
<asrwt>0</asrwt>
<pdfrwt beam="1">  1        2 0.32761936E+00 0.92537826E+02</pdfrwt>
<pdfrwt beam="2">  1       -2 0.28179656E-03 0.92537826E+02</pdfrwt>
<totfact> 0.77251654E+04</totfact>
</mgrwt>
</event>
<event>
 6    1  0.2975432E-002  0.9258237E+02  0.7546771E-02  0.1408601E+00
         -1   -1    0    0    0  501 -0.00000000000E+00  0.00000000000E+00  0.13353308105E+02  0.13353308105E+02  0.00000000000E+00 0.  1.
          1   -1    0    0  501    0  0.00000000000E+00 -0.00000000000E+00 -0.21442920315E+03  0.21442920315E+03  0.00000000000E+00 0. -1.
         23    2    1    2    0    0  0.62934904085E+01 -0.12260879399E+02 -0.18263249221E+03  0.20475869113E+03  0.91550844867E+02 0.  0.
         11    1    3    3    0    0  0.21022215912E+02 -0.13996615077E+02 -0.18746653945E+03  0.18916009677E+03  0.00000000000E+00 0. -1.
        -11    1    3    3    0    0 -0.14728725504E+02  0.17357356779E+01  0.48340472389E+01  0.15598594360E+02  0.00000000000E+00 0.  1.
         22    1    1    2    0    0 -0.62934904085E+01  0.12260879399E+02 -0.18443402833E+02  0.23023820126E+02  0.00000000000E+00 0.  1.
<mgrwt>
<rscale>  0 0.57507231E+02</rscale>
<asrwt>0</asrwt>
<pdfrwt beam="1">  1        1 0.32989105E-01 0.92582365E+02</pdfrwt>
<pdfrwt beam="2">  1       -1 0.20543553E-02 0.92582365E+02</pdfrwt>
<totfact> 0.76233386E+04</totfact>
</mgrwt>
</event>
<event>
 6    1  0.2975432E-002  0.9893610E+02  0.7546771E-02  0.1356062E+00
         -1   -1    0    0    0  501 -0.00000000000E+00  0.00000000000E+00  0.20316563800E+03  0.20316563800E+03  0.00000000000E+00 0.  1.
          1   -1    0    0  501    0  0.00000000000E+00 -0.00000000000E+00 -0.22773472403E+02  0.22773472403E+02  0.00000000000E+00 0. -1.
         23    2    1    2    0    0  0.22916035551E+02  0.13379552326E+02  0.97507649531E+02  0.13891037889E+03  0.95311041018E+02 0.  0.
         13    1    3    3    0    0 -0.19986676905E+02  0.39528407577E+02  0.66394771374E+02  0.79813707626E+02  0.00000000000E+00 0.  1.
        -13    1    3    3    0    0  0.42902712456E+02 -0.26148855250E+02  0.31112878157E+02  0.59096671262E+02  0.00000000000E+00 0. -1.
         22    1    1    2    0    0 -0.22916035551E+02 -0.13379552326E+02  0.82884516064E+02  0.87028731515E+02  0.00000000000E+00 0. -1.
<mgrwt>
<rscale>  0 0.71199146E+02</rscale>
<asrwt>0</asrwt>
<pdfrwt beam="1">  1        1 0.35036113E-02 0.98936099E+02</pdfrwt>
<pdfrwt beam="2">  1       -1 0.31256251E-01 0.98936099E+02</pdfrwt>
<totfact> 0.23232960E+04</totfact>
</mgrwt>
</event>
<event>
 6    1  0.2975432E-002  0.9267068E+02  0.7546771E-02  0.1410343E+00
          2   -1    0    0  501    0  0.00000000000E+00  0.00000000000E+00  0.15128022421E+02  0.15128022421E+02  0.00000000000E+00 0. -1.
         -2   -1    0    0    0  501 -0.00000000000E+00 -0.00000000000E+00 -0.19405714873E+03  0.19405714873E+03  0.00000000000E+00 0.  1.
         23    2    1    2    0    0  0.10760060334E+02  0.79416693544E+01 -0.13885797789E+03  0.16694128465E+03  0.91700629706E+02 0.  0.
         13    1    3    3    0    0  0.99704581251E+01  0.56667590532E+01  0.11688774143E+02  0.16375275093E+02  0.00000000000E+00 0. -1.
        -13    1    3    3    0    0  0.78960220898E+00  0.22749103012E+01 -0.15054675203E+03  0.15056600956E+03  0.00000000000E+00 0.  1.
         22    1    1    2    0    0 -0.10760060334E+02 -0.79416693544E+01 -0.40071148422E+02  0.42243886497E+02  0.00000000000E+00 0.  1.
<mgrwt>
<rscale>  0 0.57117287E+02</rscale>
<asrwt>0</asrwt>
<pdfrwt beam="1">  1        2 0.23273881E-02 0.92670678E+02</pdfrwt>
<pdfrwt beam="2">  1       -2 0.29854945E-01 0.92670678E+02</pdfrwt>
<totfact> 0.39706883E+04</totfact>
</mgrwt>
</event>
<event>
 6    1  0.2975432E-002  0.9699459E+02  0.7546771E-02  0.1342803E+00
         -2   -1    0    0    0  501 -0.00000000000E+00  0.00000000000E+00  0.49218906404E+01  0.49218906404E+01  0.00000000000E+00 0.  1.
          2   -1    0    0  501    0  0.00000000000E+00 -0.00000000000E+00 -0.13605560262E+04  0.13605560262E+04  0.00000000000E+00 0. -1.
         23    2    1    2    0    0 -0.52333528467E+01 -0.34928395995E+02 -0.12565388637E+04  0.12602769010E+04  0.90335875370E+02 0.  0.
         11    1    3    3    0    0  0.31797912390E+02  0.14505977132E+01 -0.20491029697E+03  0.20736788871E+03  0.00000000000E+00 0.  1.
        -11    1    3    3    0    0 -0.37031265237E+02 -0.36378993708E+02 -0.10516285668E+04  0.10529090123E+04  0.00000000000E+00 0. -1.
         22    1    1    2    0    0  0.52333528467E+01  0.34928395995E+02 -0.99095271863E+02  0.10520101584E+03  0.00000000000E+00 0.  1.
<mgrwt>
<rscale>  0 0.75346057E+02</rscale>
<asrwt>0</asrwt>
<pdfrwt beam="1">  1        2 0.20931603E+00 0.96994594E+02</pdfrwt>
<pdfrwt beam="2">  1       -2 0.75721497E-03 0.96994594E+02</pdfrwt>
<totfact> 0.47643463E+04</totfact>
</mgrwt>
</event>
<event>
 6    1  0.2975432E-002  0.9521534E+02  0.7546771E-02  0.1359968E+00
          4   -1    0    0  501    0  0.00000000000E+00  0.00000000000E+00  0.59303720424E+03  0.59303720424E+03  0.00000000000E+00 0. -1.
         -4   -1    0    0    0  501 -0.00000000000E+00 -0.00000000000E+00 -0.69931941970E+01  0.69931941970E+01  0.00000000000E+00 0.  1.
         23    2    1    2    0    0 -0.11163306033E+02  0.25539668359E+02  0.51473868252E+03  0.52347098494E+03  0.91044311920E+02 0.  0.
         11    1    3    3    0    0  0.18467135628E+02 -0.26618792694E+02  0.24563838931E+03  0.24776564234E+03  0.00000000000E+00 0. -1.
        -11    1    3    3    0    0 -0.29630441662E+02  0.52158461052E+02  0.26910029321E+03  0.27570534260E+03  0.00000000000E+00 0.  1.
         22    1    1    2    0    0  0.11163306033E+02 -0.25539668359E+02  0.71305327528E+02  0.76559413499E+02  0.00000000000E+00 0. -1.
<mgrwt>
<rscale>  0 0.70036658E+02</rscale>
<asrwt>0</asrwt>
<pdfrwt beam="1">  1        4 0.91236453E-01 0.95215339E+02</pdfrwt>
<pdfrwt beam="2">  1       -4 0.10758765E-02 0.95215339E+02</pdfrwt>
<totfact> 0.41638909E+03</totfact>
</mgrwt>
</event>
<event>
 6    1  0.2975432E-002  0.9849561E+02  0.7546771E-02  0.1337817E+00
         -2   -1    0    0    0  501 -0.00000000000E+00  0.00000000000E+00  0.12870727862E+02  0.12870727862E+02  0.00000000000E+00 0.  1.
          2   -1    0    0  501    0  0.00000000000E+00 -0.00000000000E+00 -0.38362693624E+03  0.38362693624E+03  0.00000000000E+00 0. -1.
         23    2    1    2    0    0 -0.28261967627E+02  0.23521418107E+02 -0.31206395655E+03  0.32723890040E+03  0.91374991316E+02 0.  0.
         13    1    3    3    0    0 -0.27128023806E+02  0.55063437978E+02 -0.14900488308E+03  0.16115324092E+03  0.00000000000E+00 0.  1.
        -13    1    3    3    0    0 -0.11339438212E+01 -0.31542019871E+02 -0.16305907347E+03  0.16608565948E+03  0.00000000000E+00 0. -1.
         22    1    1    2    0    0  0.28261967627E+02 -0.23521418107E+02 -0.58692251827E+02  0.69258763694E+02  0.00000000000E+00 0. -1.
<mgrwt>
<rscale>  0 0.76990045E+02</rscale>
<asrwt>0</asrwt>
<pdfrwt beam="1">  1        2 0.59019514E-01 0.98495609E+02</pdfrwt>
<pdfrwt beam="2">  1       -2 0.19801125E-02 0.98495609E+02</pdfrwt>
<totfact> 0.57996664E+04</totfact>
</mgrwt>
</event>
<event>
 6    1  0.2975432E-002  0.9405004E+02  0.7546771E-02  0.1375494E+00
          2   -1    0    0  501    0  0.00000000000E+00  0.00000000000E+00  0.56931269090E+02  0.56931269090E+02  0.00000000000E+00 0. -1.
         -2   -1    0    0    0  501 -0.00000000000E+00 -0.00000000000E+00 -0.80745799546E+02  0.80745799546E+02  0.00000000000E+00 0.  1.
         23    2    1    2    0    0  0.18263191996E+02  0.12877215125E+02  0.12663147509E+02  0.94898711481E+02  0.91356681664E+02 0.  0.
         11    1    3    3    0    0  0.22277604497E+02  0.67981876106E+01  0.50898963798E+02  0.55975097433E+02  0.00000000000E+00 0. -1.
        -11    1    3    3    0    0 -0.40144125014E+01  0.60790275143E+01 -0.38235816289E+02  0.38923614048E+02  0.00000000000E+00 0.  1.
         22    1    1    2    0    0 -0.18263191996E+02 -0.12877215125E+02 -0.36477677965E+02  0.42778357156E+02  0.00000000000E+00 0.  1.
<mgrwt>
<rscale>  0 0.65663149E+02</rscale>
<asrwt>0</asrwt>
<pdfrwt beam="1">  1        2 0.87586567E-02 0.94050041E+02</pdfrwt>
<pdfrwt beam="2">  1       -2 0.12422431E-01 0.94050041E+02</pdfrwt>
<totfact> 0.31026658E+04</totfact>
</mgrwt>
</event>
<event>
 6    1  0.2975432E-002  0.9427523E+02  0.7546771E-02  0.1386875E+00
          2   -1    0    0  501    0  0.00000000000E+00  0.00000000000E+00  0.35044093247E+03  0.35044093247E+03  0.00000000000E+00 0. -1.
         -2   -1    0    0    0  501 -0.00000000000E+00 -0.00000000000E+00 -0.97600442280E+01  0.97600442280E+01  0.00000000000E+00 0.  1.
         23    2    1    2    0    0 -0.75780822917E+01 -0.16804293624E+02  0.31342551552E+03  0.32729707180E+03  0.92455436903E+02 0.  0.
         11    1    3    3    0    0  0.47813045678E+01 -0.28037727604E+02  0.30860606917E+03  0.30991398963E+03  0.00000000000E+00 0. -1.
        -11    1    3    3    0    0 -0.12359386860E+02  0.11233433980E+02  0.48194463558E+01  0.17383082169E+02  0.00000000000E+00 0.  1.
         22    1    1    2    0    0  0.75780822917E+01  0.16804293624E+02  0.27255372718E+02  0.32903904896E+02  0.00000000000E+00 0.  1.
<mgrwt>
<rscale>  0 0.62690681E+02</rscale>
<asrwt>0</asrwt>
<pdfrwt beam="1">  1        2 0.53913980E-01 0.94275232E+02</pdfrwt>
<pdfrwt beam="2">  1       -2 0.15015455E-02 0.94275232E+02</pdfrwt>
<totfact> 0.94261263E+04</totfact>
</mgrwt>
</event>
<event>
 6    1  0.2975432E-002  0.9665278E+02  0.7546771E-02  0.1357206E+00
         -2   -1    0    0    0  501 -0.00000000000E+00  0.00000000000E+00  0.48512046153E+02  0.48512046153E+02  0.00000000000E+00 0.  1.
          2   -1    0    0  501    0  0.00000000000E+00 -0.00000000000E+00 -0.11121877253E+03  0.11121877253E+03  0.00000000000E+00 0. -1.
         23    2    1    2    0    0 -0.22363915247E+02 -0.16709148877E+02 -0.81208097526E+02  0.12623990804E+03  0.92533339483E+02 0.  0.
         13    1    3    3    0    0 -0.36756060504E+02 -0.45945030841E+01 -0.95618462320E+02  0.10254271197E+03  0.00000000000E+00 0. -1.
        -13    1    3    3    0    0  0.14392145256E+02 -0.12114645793E+02  0.14410364794E+02  0.23697196064E+02  0.00000000000E+00 0.  1.
         22    1    1    2    0    0  0.22363915247E+02  0.16709148877E+02  0.18501371150E+02  0.33490910645E+02  0.00000000000E+00 0.  1.
<mgrwt>
<rscale>  0 0.70856003E+02</rscale>
<asrwt>0</asrwt>
<pdfrwt beam="1">  1        2 0.17110580E-01 0.96652777E+02</pdfrwt>
<pdfrwt beam="2">  1       -2 0.74633918E-02 0.96652777E+02</pdfrwt>
<totfact> 0.31041065E+04</totfact>
</mgrwt>
</event>
<event>
 6    1  0.2975432E-002  0.9718498E+02  0.7546771E-02  0.1347096E+00
         -2   -1    0    0    0  501 -0.00000000000E+00  0.00000000000E+00  0.84800530344E+02  0.84800530344E+02  0.00000000000E+00 0.  1.
          2   -1    0    0  501    0  0.00000000000E+00 -0.00000000000E+00 -0.63332199842E+02  0.63332199842E+02  0.00000000000E+00 0. -1.
         23    2    1    2    0    0 -0.49981218797E+01 -0.32227514821E+02 -0.15962727205E+02  0.98487206572E+02  0.91549589102E+02 0.  0.
         13    1    3    3    0    0 -0.88941014190E+01 -0.42142005715E+02  0.29232371422E+02  0.52053676380E+02  0.00000000000E+00 0.  1.
        -13    1    3    3    0    0  0.38959795393E+01  0.99144908947E+01 -0.45195098626E+02  0.46433530192E+02  0.00000000000E+00 0. -1.
         22    1    1    2    0    0  0.49981218797E+01  0.32227514821E+02  0.37431057707E+02  0.49645523614E+02  0.00000000000E+00 0.  1.
<mgrwt>
<rscale>  0 0.73968423E+02</rscale>
<asrwt>0</asrwt>
<pdfrwt beam="1">  1        2 0.97434153E-02 0.97184984E+02</pdfrwt>
<pdfrwt beam="2">  1       -2 0.13046236E-01 0.97184984E+02</pdfrwt>
<totfact> 0.25290184E+04</totfact>
</mgrwt>
</event>
<event>
 6    1  0.2975432E-002  0.8076956E+02  0.7546771E-02  0.1426720E+00
          2   -1    0    0  501    0  0.00000000000E+00  0.00000000000E+00  0.34075788974E+02  0.34075788974E+02  0.00000000000E+00 0. -1.
         -2   -1    0    0    0  501 -0.00000000000E+00 -0.00000000000E+00 -0.75782827619E+02  0.75782827619E+02  0.00000000000E+00 0.  1.
         23    2    1    2    0    0 -0.86409959840E+01  0.13099473953E+02 -0.20239282080E+02  0.83266745628E+02  0.79230419404E+02 0.  0.
         11    1    3    3    0    0 -0.19700156902E+02  0.26082105410E+02  0.20856137453E+02  0.38773068927E+02  0.00000000000E+00 0. -1.
        -11    1    3    3    0    0  0.11059160918E+02 -0.12982631457E+02 -0.41095419533E+02  0.44493676701E+02  0.00000000000E+00 0.  1.
         22    1    1    2    0    0  0.86409959840E+01 -0.13099473953E+02 -0.21467756566E+02  0.26591870965E+02  0.00000000000E+00 0.  1.
<mgrwt>
<rscale>  0 0.53624185E+02</rscale>
<asrwt>0</asrwt>
<pdfrwt beam="1">  1        2 0.52424291E-02 0.80769564E+02</pdfrwt>
<pdfrwt beam="2">  1       -2 0.11658896E-01 0.80769564E+02</pdfrwt>
<totfact> 0.63975232E+04</totfact>
</mgrwt>
</event>
<event>
 6    1  0.2975432E-002  0.9131660E+02  0.7546771E-02  0.1430867E+00
         -2   -1    0    0    0  501 -0.00000000000E+00  0.00000000000E+00  0.35983902427E+01  0.35983902427E+01  0.00000000000E+00 0. -1.
          2   -1    0    0  501    0  0.00000000000E+00 -0.00000000000E+00 -0.95469553484E+03  0.95469553484E+03  0.00000000000E+00 0.  1.
         23    2    1    2    0    0 -0.10111197803E+02  0.13140564820E+01 -0.93350362978E+03  0.93795935282E+03  0.90745565544E+02 0.  0.
         11    1    3    3    0    0 -0.20271576291E+02 -0.13414772766E+02 -0.67039759266E+02  0.71310744325E+02  0.00000000000E+00 0. -1.
        -11    1    3    3    0    0  0.10160378488E+02  0.14728829248E+02 -0.86646387051E+03  0.86664860850E+03  0.00000000000E+00 0.  1.
         22    1    1    2    0    0  0.10111197803E+02 -0.13140564820E+01 -0.17593514816E+02  0.20334572261E+02  0.00000000000E+00 0. -1.
<mgrwt>
<rscale>  0 0.52786415E+02</rscale>
<asrwt>0</asrwt>
<pdfrwt beam="1">  1        2 0.14687617E+00 0.91316596E+02</pdfrwt>
<pdfrwt beam="2">  1       -2 0.55359875E-03 0.91316596E+02</pdfrwt>
<totfact> 0.12346836E+05</totfact>
</mgrwt>
</event>
<event>
 6    1  0.2975432E-002  0.8918329E+02  0.7546771E-02  0.1415256E+00
          2   -1    0    0  501    0  0.00000000000E+00  0.00000000000E+00  0.16098409131E+03  0.16098409131E+03  0.00000000000E+00 0. -1.
         -2   -1    0    0    0  501 -0.00000000000E+00 -0.00000000000E+00 -0.17645156718E+02  0.17645156718E+02  0.00000000000E+00 0.  1.
         23    2    1    2    0    0  0.99786811709E+01 -0.96786390601E+01  0.10452721739E+03  0.13740304854E+03  0.88093180446E+02 0.  0.
         11    1    3    3    0    0 -0.28822863210E+02 -0.12248986321E+02  0.65559100570E+01  0.31996485216E+02  0.00000000000E+00 0.  1.
        -11    1    3    3    0    0  0.38801544381E+02  0.25703472607E+01  0.97971307330E+02  0.10540656332E+03  0.00000000000E+00 0. -1.
         22    1    1    2    0    0 -0.99786811709E+01  0.96786390601E+01  0.38811717207E+02  0.41226199491E+02  0.00000000000E+00 0.  1.
<mgrwt>
<rscale>  0 0.56037349E+02</rscale>
<asrwt>0</asrwt>
<pdfrwt beam="1">  1        2 0.24766782E-01 0.89183286E+02</pdfrwt>
<pdfrwt beam="2">  1       -2 0.27146396E-02 0.89183286E+02</pdfrwt>
<totfact> 0.90957590E+04</totfact>
</mgrwt>
</event>
<event>
 6    1  0.2975432E-002  0.9178198E+02  0.7546771E-02  0.1413226E+00
          2   -1    0    0  501    0  0.00000000000E+00  0.00000000000E+00  0.16470734328E+03  0.16470734328E+03  0.00000000000E+00 0. -1.
         -2   -1    0    0    0  501 -0.00000000000E+00 -0.00000000000E+00 -0.20373216186E+02  0.20373216186E+02  0.00000000000E+00 0.  1.
         23    2    1    2    0    0 -0.46121842843E+01  0.12327204446E+02  0.14532492689E+03  0.17188154823E+03  0.90833364094E+02 0.  0.
         11    1    3    3    0    0 -0.36165912638E+02  0.35579736395E+02  0.98655836966E+02  0.11093631077E+03  0.00000000000E+00 0. -1.
        -11    1    3    3    0    0  0.31553728354E+02 -0.23252531949E+02  0.46669089924E+02  0.60945237463E+02  0.00000000000E+00 0.  1.
         22    1    1    2    0    0  0.46121842843E+01 -0.12327204446E+02 -0.99079979862E+00  0.13199011235E+02  0.00000000000E+00 0.  1.
<mgrwt>
<rscale>  0 0.56480256E+02</rscale>
<asrwt>0</asrwt>
<pdfrwt beam="1">  1        2 0.25339590E-01 0.91781982E+02</pdfrwt>
<pdfrwt beam="2">  1       -2 0.31343411E-02 0.91781982E+02</pdfrwt>
<totfact> 0.72311060E+04</totfact>
</mgrwt>
</event>
<event>
 6    1  0.2975432E-002  0.9428646E+02  0.7546771E-02  0.1402729E+00
         -2   -1    0    0    0  501 -0.00000000000E+00  0.00000000000E+00  0.12380349243E+02  0.12380349243E+02  0.00000000000E+00 0.  1.
          2   -1    0    0  501    0  0.00000000000E+00 -0.00000000000E+00 -0.24274354256E+03  0.24274354256E+03  0.00000000000E+00 0. -1.
         23    2    1    2    0    0 -0.43247731704E+01  0.13639086135E+02 -0.18637931821E+03  0.20887122050E+03  0.93194464224E+02 0.  0.
         11    1    3    3    0    0 -0.36299412624E+01 -0.12928702730E+02 -0.18132060346E+03  0.18181718584E+03  0.00000000000E+00 0. -1.
        -11    1    3    3    0    0 -0.69483190805E+00  0.26567788865E+02 -0.50587147563E+01  0.27054034663E+02  0.00000000000E+00 0.  1.
         22    1    1    2    0    0  0.43247731704E+01 -0.13639086135E+02 -0.43983875108E+02  0.46252671308E+02  0.00000000000E+00 0.  1.
<mgrwt>
<rscale>  0 0.58848343E+02</rscale>
<asrwt>0</asrwt>
<pdfrwt beam="1">  1        2 0.37345160E-01 0.94286460E+02</pdfrwt>
<pdfrwt beam="2">  1       -2 0.19046691E-02 0.94286460E+02</pdfrwt>
<totfact> 0.98533100E+04</totfact>
</mgrwt>
</event>
<event>
 6    1  0.2975432E-002  0.9331125E+02  0.7546771E-02  0.1422598E+00
          2   -1    0    0  501    0  0.00000000000E+00  0.00000000000E+00  0.10741040504E+03  0.10741040504E+03  0.00000000000E+00 0. -1.
         -2   -1    0    0    0  501 -0.00000000000E+00 -0.00000000000E+00 -0.30292973730E+02  0.30292973730E+02  0.00000000000E+00 0.  1.
         23    2    1    2    0    0 -0.84387800671E+01 -0.68021978930E+01  0.83421532081E+02  0.12516445570E+03  0.92679588097E+02 0.  0.
         13    1    3    3    0    0 -0.37307594593E+02 -0.13917168753E+02  0.86547304855E+02  0.95267938878E+02  0.00000000000E+00 0. -1.
        -13    1    3    3    0    0  0.28868814526E+02  0.71149708602E+01 -0.31257727732E+01  0.29896516819E+02  0.00000000000E+00 0.  1.
         22    1    1    2    0    0  0.84387800671E+01  0.68021978930E+01 -0.63041007746E+01  0.12538923071E+02  0.00000000000E+00 0. -1.
<mgrwt>
<rscale>  0 0.54475012E+02</rscale>
<asrwt>0</asrwt>
<pdfrwt beam="1">  1        2 0.16524678E-01 0.93311248E+02</pdfrwt>
<pdfrwt beam="2">  1       -2 0.46604575E-02 0.93311248E+02</pdfrwt>
<totfact> 0.65199740E+04</totfact>
</mgrwt>
</event>
<event>
 6    1  0.2975432E-002  0.8867461E+02  0.7546771E-02  0.1378110E+00
         -2   -1    0    0    0  501 -0.00000000000E+00  0.00000000000E+00  0.21977535175E+02  0.21977535175E+02  0.00000000000E+00 0.  1.
          2   -1    0    0  501    0  0.00000000000E+00 -0.00000000000E+00 -0.16010381146E+03  0.16010381146E+03  0.00000000000E+00 0. -1.
         23    2    1    2    0    0 -0.25446654735E+02 -0.22165638226E+01 -0.12528778739E+03  0.15349337382E+03  0.84916080608E+02 0.  0.
         13    1    3    3    0    0  0.58601834059E+01 -0.11407664406E+02 -0.11970624838E+03  0.12039128896E+03  0.00000000000E+00 0. -1.
        -13    1    3    3    0    0 -0.31306838141E+02  0.91911005834E+01 -0.55815390085E+01  0.33102084859E+02  0.00000000000E+00 0.  1.
         22    1    1    2    0    0  0.25446654735E+02  0.22165638226E+01 -0.12838488895E+02  0.28587972812E+02  0.00000000000E+00 0. -1.
<mgrwt>
<rscale>  0 0.64963211E+02</rscale>
<asrwt>0</asrwt>
<pdfrwt beam="1">  1        2 0.24631356E-01 0.88674608E+02</pdfrwt>
<pdfrwt beam="2">  1       -2 0.33811592E-02 0.88674608E+02</pdfrwt>
<totfact> 0.66442101E+04</totfact>
</mgrwt>
</event>
<event>
 6    1  0.2975432E-002  0.8693958E+02  0.7546771E-02  0.1395978E+00
         -2   -1    0    0    0  501 -0.00000000000E+00  0.00000000000E+00  0.42510269194E+01  0.42510269194E+01  0.00000000000E+00 0.  1.
          2   -1    0    0  501    0  0.00000000000E+00 -0.00000000000E+00 -0.69171346412E+03  0.69171346412E+03  0.00000000000E+00 0. -1.
         23    2    1    2    0    0 -0.20246101610E+02 -0.16393488649E+01 -0.59330604600E+03  0.59964202170E+03  0.84533412784E+02 0.  0.
         13    1    3    3    0    0  0.95256369762E+01 -0.19968318713E+02 -0.49154579705E+03  0.49204343518E+03  0.00000000000E+00 0. -1.
        -13    1    3    3    0    0 -0.29771738587E+02  0.18328969848E+02 -0.10176024895E+03  0.10759858652E+03  0.00000000000E+00 0.  1.
         22    1    1    2    0    0  0.20246101610E+02  0.16393488649E+01 -0.94156391202E+02  0.96322469338E+02  0.00000000000E+00 0. -1.
<mgrwt>
<rscale>  0 0.60444008E+02</rscale>
<asrwt>0</asrwt>
<pdfrwt beam="1">  1        2 0.10641722E+00 0.86939577E+02</pdfrwt>
<pdfrwt beam="2">  1       -2 0.65400559E-03 0.86939577E+02</pdfrwt>
<totfact> 0.14428587E+05</totfact>
</mgrwt>
</event>
<event>
 6    1  0.2975432E-002  0.9563805E+02  0.7546771E-02  0.1367046E+00
          2   -1    0    0  501    0  0.00000000000E+00  0.00000000000E+00  0.69536779865E+02  0.69536779865E+02  0.00000000000E+00 0. -1.
         -2   -1    0    0    0  501 -0.00000000000E+00 -0.00000000000E+00 -0.63331240490E+02  0.63331240490E+02  0.00000000000E+00 0.  1.
         23    2    1    2    0    0  0.48339136053E+01 -0.23952525013E+02  0.28495954063E+02  0.99793063632E+02  0.92463754930E+02 0.  0.
         13    1    3    3    0    0 -0.43625993853E+02 -0.12148099971E+02  0.86046134996E+01  0.46096019850E+02  0.00000000000E+00 0. -1.
        -13    1    3    3    0    0  0.48459907458E+02 -0.11804425042E+02  0.19891340564E+02  0.53697043781E+02  0.00000000000E+00 0.  1.
         22    1    1    2    0    0 -0.48339136053E+01  0.23952525013E+02 -0.22290414689E+02  0.33074956723E+02  0.00000000000E+00 0.  1.
<mgrwt>
<rscale>  0 0.67995163E+02</rscale>
<asrwt>0</asrwt>
<pdfrwt beam="1">  1        2 0.10697966E-01 0.95638048E+02</pdfrwt>
<pdfrwt beam="2">  1       -2 0.97432678E-02 0.95638048E+02</pdfrwt>
<totfact> 0.35687918E+04</totfact>
</mgrwt>
</event>
<event>
 6    1  0.2975432E-002  0.1032373E+03  0.7546771E-02  0.1406444E+00
         -4   -1    0    0    0  501 -0.00000000000E+00  0.00000000000E+00  0.14649120759E+03  0.14649120759E+03  0.00000000000E+00 0.  1.
          4   -1    0    0  501    0  0.00000000000E+00 -0.00000000000E+00 -0.22022701621E+02  0.22022701621E+02  0.00000000000E+00 0. -1.
         23    2    1    2    0    0 -0.49459805444E+01 -0.90134780386E+01  0.11131265849E+03  0.15181714807E+03  0.10272406240E+03 0.  0.
         11    1    3    3    0    0  0.12325271644E+02 -0.37510364657E+02  0.42768513663E+01  0.39714370641E+02  0.00000000000E+00 0. -1.
        -11    1    3    3    0    0 -0.17271252189E+02  0.28496886618E+02  0.10703580713E+03  0.11210277742E+03  0.00000000000E+00 0.  1.
         22    1    1    2    0    0  0.49459805444E+01  0.90134780386E+01  0.13155847474E+02  0.16696761143E+02  0.00000000000E+00 0.  1.
<mgrwt>
<rscale>  0 0.57994880E+02</rscale>
<asrwt>0</asrwt>
<pdfrwt beam="1">  1        4 0.33881080E-02 0.10323729E+03</pdfrwt>
<pdfrwt beam="2">  1       -4 0.22537108E-01 0.10323729E+03</pdfrwt>
<totfact> 0.12163618E+04</totfact>
</mgrwt>
</event>
<event>
 6    1  0.2975432E-002  0.9235957E+02  0.7546771E-02  0.1411102E+00
         -2   -1    0    0    0  501 -0.00000000000E+00  0.00000000000E+00  0.52928221892E+02  0.52928221892E+02  0.00000000000E+00 0.  1.
          2   -1    0    0  501    0  0.00000000000E+00 -0.00000000000E+00 -0.56127895814E+02  0.56127895814E+02  0.00000000000E+00 0. -1.
         23    2    1    2    0    0 -0.11594149463E+02 -0.66186424232E+01 -0.11897045437E+02  0.93122662320E+02  0.91389604540E+02 0.  0.
         11    1    3    3    0    0 -0.38660483122E+02  0.12801258914E+02 -0.34077426068E+02  0.53101564501E+02  0.00000000000E+00 0. -1.
        -11    1    3    3    0    0  0.27066333659E+02 -0.19419901337E+02  0.22180380631E+02  0.40021097819E+02  0.00000000000E+00 0.  1.
         22    1    1    2    0    0  0.11594149463E+02  0.66186424232E+01  0.86973715152E+01  0.15933455387E+02  0.00000000000E+00 0.  1.
<mgrwt>
<rscale>  0 0.56948758E+02</rscale>
<asrwt>0</asrwt>
<pdfrwt beam="1">  1        2 0.86350608E-02 0.92359572E+02</pdfrwt>
<pdfrwt beam="2">  1       -2 0.81428034E-02 0.92359572E+02</pdfrwt>
<totfact> 0.60813489E+04</totfact>
</mgrwt>
</event>
<event>
 6    1  0.2975432E-002  0.9358713E+02  0.7546771E-02  0.1367841E+00
          2   -1    0    0  501    0  0.00000000000E+00  0.00000000000E+00  0.23781241492E+03  0.23781241492E+03  0.00000000000E+00 0.  1.
         -2   -1    0    0    0  501 -0.00000000000E+00 -0.00000000000E+00 -0.14981351180E+02  0.14981351180E+02  0.00000000000E+00 0. -1.
         23    2    1    2    0    0 -0.14726347093E+02 -0.21105202471E+02  0.17787917246E+03  0.20099639744E+03  0.89979202710E+02 0.  0.
         13    1    3    3    0    0 -0.34141186143E+02  0.66578213612E+01  0.21285843004E+02  0.40780317421E+02  0.00000000000E+00 0. -1.
        -13    1    3    3    0    0  0.19414839051E+02 -0.27763023832E+02  0.15659332946E+03  0.16021608002E+03  0.00000000000E+00 0.  1.
         22    1    1    2    0    0  0.14726347093E+02  0.21105202471E+02  0.44951891277E+02  0.51797368654E+02  0.00000000000E+00 0. -1.
<mgrwt>
<rscale>  0 0.67770944E+02</rscale>
<asrwt>0</asrwt>
<pdfrwt beam="1">  1        2 0.36586522E-01 0.93587135E+02</pdfrwt>
<pdfrwt beam="2">  1       -2 0.23048234E-02 0.93587135E+02</pdfrwt>
<totfact> 0.76436613E+04</totfact>
</mgrwt>
</event>
<event>
 6    1  0.2975432E-002  0.9806454E+02  0.7546771E-02  0.1341018E+00
          2   -1    0    0  501    0  0.00000000000E+00  0.00000000000E+00  0.49840865539E+03  0.49840865539E+03  0.00000000000E+00 0. -1.
         -2   -1    0    0    0  501 -0.00000000000E+00 -0.00000000000E+00 -0.90893785445E+01  0.90893785445E+01  0.00000000000E+00 0.  1.
         23    2    1    2    0    0 -0.33063955212E+02 -0.12206329211E+02  0.38889176969E+03  0.40106540829E+03  0.91511931413E+02 0.  0.
         13    1    3    3    0    0  0.26293364074E+02 -0.24445353368E+02  0.18068401158E+03  0.18421625427E+03  0.00000000000E+00 0.  1.
        -13    1    3    3    0    0 -0.59357319286E+02  0.12239024157E+02  0.20820775810E+03  0.21684915402E+03  0.00000000000E+00 0. -1.
         22    1    1    2    0    0  0.33063955212E+02  0.12206329211E+02  0.10042750715E+03  0.10643262564E+03  0.00000000000E+00 0.  1.
<mgrwt>
<rscale>  0 0.75929192E+02</rscale>
<asrwt>0</asrwt>
<pdfrwt beam="1">  1        2 0.76678233E-01 0.98064536E+02</pdfrwt>
<pdfrwt beam="2">  1       -2 0.13983663E-02 0.98064536E+02</pdfrwt>
<totfact> 0.72187236E+04</totfact>
</mgrwt>
</event>
<event>
 6    1  0.2975432E-002  0.9387815E+02  0.7546771E-02  0.1416600E+00
          2   -1    0    0  501    0  0.00000000000E+00  0.00000000000E+00  0.22620588827E+04  0.22620588827E+04  0.00000000000E+00 0. -1.
         -2   -1    0    0    0  501 -0.00000000000E+00 -0.00000000000E+00 -0.17398710604E+01  0.17398710604E+01  0.00000000000E+00 0.  1.
         23    2    1    2    0    0  0.11574961606E+02 -0.15109931531E+01  0.22153870599E+04  0.22173752347E+04  0.93149575231E+02 0.  0.
         13    1    3    3    0    0  0.40531794426E+00  0.29799796684E+02  0.19013452776E+04  0.19015788327E+04  0.00000000000E+00 0. -1.
        -13    1    3    3    0    0  0.11169643662E+02 -0.31310789837E+02  0.31404178235E+03  0.31579640207E+03  0.00000000000E+00 0.  1.
         22    1    1    2    0    0 -0.11574961606E+02  0.15109931531E+01  0.44931951695E+02  0.46423519035E+02  0.00000000000E+00 0.  1.
<mgrwt>
<rscale>  0 0.55746879E+02</rscale>
<asrwt>0</asrwt>
<pdfrwt beam="1">  1        2 0.34800671E+00 0.93878145E+02</pdfrwt>
<pdfrwt beam="2">  1       -2 0.26767428E-03 0.93878145E+02</pdfrwt>
<totfact> 0.71135067E+04</totfact>
</mgrwt>
</event>
<event>
 6    1  0.2975432E-002  0.9528040E+02  0.7546771E-02  0.1365180E+00
         -2   -1    0    0    0  501 -0.00000000000E+00  0.00000000000E+00  0.99296673401E+01  0.99296673401E+01  0.00000000000E+00 0. -1.
          2   -1    0    0  501    0  0.00000000000E+00 -0.00000000000E+00 -0.40970892315E+03  0.40970892315E+03  0.00000000000E+00 0.  1.
         23    2    1    2    0    0 -0.25013094795E+02 -0.49159464694E+01 -0.35997502395E+03  0.37237128345E+03  0.91807044552E+02 0.  0.
         13    1    3    3    0    0 -0.19927236770E+01 -0.10685412486E+02  0.72272347524E+00  0.10893636531E+02  0.00000000000E+00 0. -1.
        -13    1    3    3    0    0 -0.23020371118E+02  0.57694660165E+01 -0.36069774742E+03  0.36147764692E+03  0.00000000000E+00 0.  1.
         22    1    1    2    0    0  0.25013094795E+02  0.49159464694E+01 -0.39804231863E+02  0.47267307043E+02  0.00000000000E+00 0. -1.
<mgrwt>
<rscale>  0 0.68525457E+02</rscale>
<asrwt>0</asrwt>
<pdfrwt beam="1">  1        2 0.63032156E-01 0.95280401E+02</pdfrwt>
<pdfrwt beam="2">  1       -2 0.15276408E-02 0.95280401E+02</pdfrwt>
<totfact> 0.78147087E+04</totfact>
</mgrwt>
</event>
<event>
 6    1  0.2975432E-002  0.9578523E+02  0.7546771E-02  0.1348080E+00
          2   -1    0    0  501    0  0.00000000000E+00  0.00000000000E+00  0.78634166152E+02  0.78634166152E+02  0.00000000000E+00 0. -1.
         -2   -1    0    0    0  501 -0.00000000000E+00 -0.00000000000E+00 -0.70394848796E+02  0.70394848796E+02  0.00000000000E+00 0.  1.
         23    2    1    2    0    0  0.28195055832E+02 -0.18079852150E+02  0.39125635687E+02  0.10346799118E+03  0.89738328506E+02 0.  0.
         13    1    3    3    0    0  0.18454178950E+02 -0.54004946182E+02  0.32451698263E+02  0.65652141267E+02  0.00000000000E+00 0. -1.
        -13    1    3    3    0    0  0.97408768821E+01  0.35925094032E+02  0.66739374232E+01  0.37815849909E+02  0.00000000000E+00 0.  1.
         22    1    1    2    0    0 -0.28195055832E+02  0.18079852150E+02 -0.30886318330E+02  0.45561023772E+02  0.00000000000E+00 0.  1.
<mgrwt>
<rscale>  0 0.73657229E+02</rscale>
<asrwt>0</asrwt>
<pdfrwt beam="1">  1        2 0.12097564E-01 0.95785228E+02</pdfrwt>
<pdfrwt beam="2">  1       -2 0.10829977E-01 0.95785228E+02</pdfrwt>
<totfact> 0.26122920E+04</totfact>
</mgrwt>
</event>
<event>
 6    1  0.2975432E-002  0.9311647E+02  0.7546771E-02  0.1389946E+00
         -2   -1    0    0    0  501 -0.00000000000E+00  0.00000000000E+00  0.39054977813E+01  0.39054977813E+01  0.00000000000E+00 0. -1.
          2   -1    0    0  501    0  0.00000000000E+00 -0.00000000000E+00 -0.89347423023E+03  0.89347423023E+03  0.00000000000E+00 0.  1.
         23    2    1    2    0    0 -0.92153228630E+01 -0.15703145585E+02 -0.82669765662E+03  0.83192529247E+03  0.91319033209E+02 0.  0.
         13    1    3    3    0    0 -0.12326429355E+02  0.17542259054E+02 -0.71553261694E+03  0.71585375435E+03  0.00000000000E+00 0.  1.
        -13    1    3    3    0    0  0.31111064923E+01 -0.33245404639E+02 -0.11116503968E+03  0.11607153811E+03  0.00000000000E+00 0. -1.
         22    1    1    2    0    0  0.92153228630E+01  0.15703145585E+02 -0.62871075827E+02  0.65454435544E+02  0.00000000000E+00 0. -1.
<mgrwt>
<rscale>  0 0.61920166E+02</rscale>
<asrwt>0</asrwt>
<pdfrwt beam="1">  1        2 0.13745769E+00 0.93116469E+02</pdfrwt>
<pdfrwt beam="2">  1       -2 0.60084532E-03 0.93116469E+02</pdfrwt>
<totfact> 0.12026916E+05</totfact>
</mgrwt>
</event>
<event>
 6    1  0.2975432E-002  0.9615681E+02  0.7546771E-02  0.1360268E+00
          2   -1    0    0  501    0  0.00000000000E+00  0.00000000000E+00  0.15032220834E+04  0.15032220834E+04  0.00000000000E+00 0. -1.
         -2   -1    0    0    0  501 -0.00000000000E+00 -0.00000000000E+00 -0.32677621258E+01  0.32677621258E+01  0.00000000000E+00 0.  1.
         23    2    1    2    0    0 -0.26845170399E+02  0.20894261112E+01  0.13886369763E+04  0.13919622062E+04  0.92309819069E+02 0.  0.
         11    1    3    3    0    0 -0.38639366935E+02 -0.23669138299E+02  0.12287156779E+04  0.12295509123E+04  0.00000000000E+00 0. -1.
        -11    1    3    3    0    0  0.11794196536E+02  0.25758564411E+02  0.15992129837E+03  0.16241129389E+03  0.00000000000E+00 0.  1.
         22    1    1    2    0    0  0.26845170399E+02 -0.20894261112E+01  0.11131734502E+03  0.11452763936E+03  0.00000000000E+00 0.  1.
<mgrwt>
<rscale>  0 0.69948666E+02</rscale>
<asrwt>0</asrwt>
<pdfrwt beam="1">  1        2 0.23126438E+00 0.96156807E+02</pdfrwt>
<pdfrwt beam="2">  1       -2 0.50273384E-03 0.96156807E+02</pdfrwt>
<totfact> 0.71474902E+04</totfact>
</mgrwt>
</event>
<event>
 6    1  0.2975432E-002  0.1059709E+03  0.7546771E-02  0.1327552E+00
          4   -1    0    0  501    0  0.00000000000E+00  0.00000000000E+00  0.12182742636E+03  0.12182742636E+03  0.00000000000E+00 0. -1.
         -4   -1    0    0    0  501 -0.00000000000E+00 -0.00000000000E+00 -0.41123762759E+02  0.41123762759E+02  0.00000000000E+00 0.  1.
         23    2    1    2    0    0 -0.29371085738E+01  0.35219167597E+02  0.56250698407E+02  0.11997487146E+03  0.99904015619E+02 0.  0.
         13    1    3    3    0    0  0.16709357342E+02  0.29610707350E+02  0.81020872102E+02  0.87865683454E+02  0.00000000000E+00 0. -1.
        -13    1    3    3    0    0 -0.19646465916E+02  0.56084602469E+01 -0.24770173695E+02  0.32109188003E+02  0.00000000000E+00 0.  1.
         22    1    1    2    0    0  0.29371085738E+01 -0.35219167597E+02  0.24452965194E+02  0.42976317662E+02  0.00000000000E+00 0. -1.
<mgrwt>
<rscale>  0 0.80530601E+02</rscale>
<asrwt>0</asrwt>
<pdfrwt beam="1">  1        4 0.18742681E-01 0.10597089E+03</pdfrwt>
<pdfrwt beam="2">  1       -4 0.63267328E-02 0.10597089E+03</pdfrwt>
<totfact> 0.63101441E+03</totfact>
</mgrwt>
</event>
<event>
 6    1  0.2975432E-002  0.9290409E+02  0.7546771E-02  0.1373066E+00
         -2   -1    0    0    0  501 -0.00000000000E+00  0.00000000000E+00  0.97714549552E+01  0.97714549552E+01  0.00000000000E+00 0.  1.
          2   -1    0    0  501    0  0.00000000000E+00 -0.00000000000E+00 -0.47540805417E+03  0.47540805417E+03  0.00000000000E+00 0. -1.
         23    2    1    2    0    0 -0.23874294287E+02  0.34926316843E+01 -0.44106007220E+03  0.45073845682E+03  0.89716156642E+02 0.  0.
         11    1    3    3    0    0 -0.46699218174E+02  0.17561300599E+02 -0.14259256704E+03  0.15106904525E+03  0.00000000000E+00 0. -1.
        -11    1    3    3    0    0  0.22824923887E+02 -0.14068668915E+02 -0.29846750516E+03  0.29966941157E+03  0.00000000000E+00 0.  1.
         22    1    1    2    0    0  0.23874294287E+02 -0.34926316843E+01 -0.24576527010E+02  0.34441052302E+02  0.00000000000E+00 0.  1.
<mgrwt>
<rscale>  0 0.66322106E+02</rscale>
<asrwt>0</asrwt>
<pdfrwt beam="1">  1        2 0.73139696E-01 0.92904086E+02</pdfrwt>
<pdfrwt beam="2">  1       -2 0.15033009E-02 0.92904086E+02</pdfrwt>
<totfact> 0.68020315E+04</totfact>
</mgrwt>
</event>
<event>
 6    1  0.2975432E-002  0.9403941E+02  0.7546771E-02  0.1378873E+00
         -2   -1    0    0    0  501 -0.00000000000E+00  0.00000000000E+00  0.59351931406E+02  0.59351931406E+02  0.00000000000E+00 0.  1.
          2   -1    0    0  501    0  0.00000000000E+00 -0.00000000000E+00 -0.96097256103E+03  0.96097256103E+03  0.00000000000E+00 0. -1.
         23    2    1    2    0    0 -0.21016019894E+02 -0.23814743725E+01 -0.95670678200E+03  0.96131747000E+03  0.91630054608E+02 0.  0.
         13    1    3    3    0    0  0.18583374744E+02 -0.15514784810E+02 -0.75265748534E+03  0.75304670546E+03  0.00000000000E+00 0. -1.
        -13    1    3    3    0    0 -0.39599394638E+02  0.13133310438E+02 -0.20404929666E+03  0.20827076455E+03  0.00000000000E+00 0.  1.
         22    1    1    2    0    0  0.21016019894E+02  0.23814743725E+01  0.55086152375E+02  0.59007022428E+02  0.00000000000E+00 0.  1.
<mgrwt>
<rscale>  0 0.64760874E+02</rscale>
<asrwt>0</asrwt>
<pdfrwt beam="1">  1        2 0.14784191E+00 0.94039414E+02</pdfrwt>
<pdfrwt beam="2">  1       -2 0.91310675E-02 0.94039414E+02</pdfrwt>
<totfact> 0.20952085E+03</totfact>
</mgrwt>
</event>
<event>
 6    1  0.2975432E-002  0.9195849E+02  0.7546771E-02  0.1377376E+00
         -2   -1    0    0    0  501 -0.00000000000E+00  0.00000000000E+00  0.52138747168E+01  0.52138747168E+01  0.00000000000E+00 0.  1.
          2   -1    0    0  501    0  0.00000000000E+00 -0.00000000000E+00 -0.63584959861E+03  0.63584959861E+03  0.00000000000E+00 0. -1.
         23    2    1    2    0    0 -0.36103176284E+01  0.22896914128E+02 -0.49907627673E+03  0.50747757883E+03  0.88989100193E+02 0.  0.
         11    1    3    3    0    0  0.38509259450E+02  0.30477355244E+02 -0.25816762447E+03  0.26279717383E+03  0.00000000000E+00 0.  1.
        -11    1    3    3    0    0 -0.42119577079E+02 -0.75804411158E+01 -0.24090865225E+03  0.24468040500E+03  0.00000000000E+00 0. -1.
         22    1    1    2    0    0  0.36103176284E+01 -0.22896914128E+02 -0.13155944717E+03  0.13358589450E+03  0.00000000000E+00 0. -1.
<mgrwt>
<rscale>  0 0.65158529E+02</rscale>
<asrwt>0</asrwt>
<pdfrwt beam="1">  1        2 0.97823033E-01 0.91958485E+02</pdfrwt>
<pdfrwt beam="2">  1       -2 0.80213442E-03 0.91958485E+02</pdfrwt>
<totfact> 0.12022366E+05</totfact>
</mgrwt>
</event>
<event>
 6    1  0.2975432E-002  0.9660706E+02  0.7546771E-02  0.1364392E+00
         -4   -1    0    0    0  501 -0.00000000000E+00  0.00000000000E+00  0.45043759657E+02  0.45043759657E+02  0.00000000000E+00 0.  1.
          4   -1    0    0  501    0  0.00000000000E+00 -0.00000000000E+00 -0.14320797799E+03  0.14320797799E+03  0.00000000000E+00 0. -1.
         23    2    1    2    0    0  0.21562178842E+01 -0.24685501808E+02 -0.12080750120E+03  0.15468476677E+03  0.93375057959E+02 0.  0.
         13    1    3    3    0    0 -0.34890507401E+02 -0.20347147817E+02 -0.16010306938E+02  0.43447483923E+02  0.00000000000E+00 0.  1.
        -13    1    3    3    0    0  0.37046725285E+02 -0.43383539911E+01 -0.10479719426E+03  0.11123728284E+03  0.00000000000E+00 0. -1.
         22    1    1    2    0    0 -0.21562178842E+01  0.24685501808E+02  0.22643282866E+02  0.33566970880E+02  0.00000000000E+00 0.  1.
<mgrwt>
<rscale>  0 0.68751118E+02</rscale>
<asrwt>0</asrwt>
<pdfrwt beam="1">  1        4 0.22031997E-01 0.96607064E+02</pdfrwt>
<pdfrwt beam="2">  1       -4 0.69298092E-02 0.96607064E+02</pdfrwt>
<totfact> 0.39724358E+03</totfact>
</mgrwt>
</event>
<event>
 6    1  0.2975432E-002  0.8650123E+02  0.7546771E-02  0.1434282E+00
         -2   -1    0    0    0  501 -0.00000000000E+00  0.00000000000E+00  0.88135914667E+01  0.88135914667E+01  0.00000000000E+00 0.  1.
          2   -1    0    0  501    0  0.00000000000E+00 -0.00000000000E+00 -0.28017499513E+03  0.28017499513E+03  0.00000000000E+00 0. -1.
         23    2    1    2    0    0  0.16941876991E+00 -0.11391289340E+02 -0.25301157529E+03  0.26738982791E+03  0.85747726866E+02 0.  0.
         11    1    3    3    0    0  0.36350986041E+02  0.68680049578E+01 -0.18113985682E+03  0.18487891012E+03  0.00000000000E+00 0. -1.
        -11    1    3    3    0    0 -0.36181567271E+02 -0.18259294298E+02 -0.71871718467E+02  0.82510917786E+02  0.00000000000E+00 0.  1.
         22    1    1    2    0    0 -0.16941876991E+00  0.11391289340E+02 -0.18349828376E+02  0.21598758690E+02  0.00000000000E+00 0.  1.
<mgrwt>
<rscale>  0 0.52110104E+02</rscale>
<asrwt>0</asrwt>
<pdfrwt beam="1">  1        2 0.43103850E-01 0.86501230E+02</pdfrwt>
<pdfrwt beam="2">  1       -2 0.13559370E-02 0.86501230E+02</pdfrwt>
<totfact> 0.13591728E+05</totfact>
</mgrwt>
</event>
<event>
 6    1  0.2975432E-002  0.9646584E+02  0.7546771E-02  0.1344484E+00
         -1   -1    0    0    0  501 -0.00000000000E+00  0.00000000000E+00  0.14346858757E+03  0.14346858757E+03  0.00000000000E+00 0.  1.
          1   -1    0    0  501    0  0.00000000000E+00 -0.00000000000E+00 -0.30084334740E+02  0.30084334740E+02  0.00000000000E+00 0. -1.
         23    2    1    2    0    0 -0.65058413526E+01  0.34264777621E+02  0.81095545517E+02  0.12602438796E+03  0.89940301876E+02 0.  0.
         13    1    3    3    0    0  0.28321806148E+02  0.44907351825E+02  0.23910785402E+02  0.58228177113E+02  0.00000000000E+00 0. -1.
        -13    1    3    3    0    0 -0.34827647501E+02 -0.10642574204E+02  0.57184760115E+02  0.67796210849E+02  0.00000000000E+00 0.  1.
         22    1    1    2    0    0  0.65058413526E+01 -0.34264777621E+02  0.32288707310E+02  0.47528534344E+02  0.00000000000E+00 0. -1.
<mgrwt>
<rscale>  0 0.74802268E+02</rscale>
<asrwt>0</asrwt>
<pdfrwt beam="1">  1        1 0.46283593E-02 0.96465843E+02</pdfrwt>
<pdfrwt beam="2">  1       -1 0.22072090E-01 0.96465843E+02</pdfrwt>
<totfact> 0.28030935E+04</totfact>
</mgrwt>
</event>
<event>
 6    1  0.2975432E-002  0.9438804E+02  0.7546771E-02  0.1387037E+00
          2   -1    0    0  501    0  0.00000000000E+00  0.00000000000E+00  0.10559995379E+03  0.10559995379E+03  0.00000000000E+00 0. -1.
         -2   -1    0    0    0  501 -0.00000000000E+00 -0.00000000000E+00 -0.85359632655E+02  0.85359632655E+02  0.00000000000E+00 0.  1.
         23    2    1    2    0    0  0.63667725705E+01 -0.17177933793E+02  0.82932247449E+02  0.12564576840E+03  0.92593111235E+02 0.  0.
         13    1    3    3    0    0  0.17742881048E+02 -0.52968168343E+02  0.40601530466E+02  0.69057374420E+02  0.00000000000E+00 0. -1.
        -13    1    3    3    0    0 -0.11376108477E+02  0.35790234550E+02  0.42330716983E+02  0.56588393983E+02  0.00000000000E+00 0.  1.
         22    1    1    2    0    0 -0.63667725705E+01  0.17177933793E+02 -0.62691926314E+02  0.65313818043E+02  0.00000000000E+00 0.  1.
<mgrwt>
<rscale>  0 0.62649591E+02</rscale>
<asrwt>0</asrwt>
<pdfrwt beam="1">  1        2 0.16246147E-01 0.94388037E+02</pdfrwt>
<pdfrwt beam="2">  1       -2 0.13132251E-01 0.94388037E+02</pdfrwt>
<totfact> 0.13627632E+04</totfact>
</mgrwt>
</event>
<event>
 6    1  0.2975432E-002  0.9385165E+02  0.7546771E-02  0.1405623E+00
          2   -1    0    0  501    0  0.00000000000E+00  0.00000000000E+00  0.71469967550E+03  0.71469967550E+03  0.00000000000E+00 0. -1.
         -2   -1    0    0    0  501 -0.00000000000E+00 -0.00000000000E+00 -0.79712254159E+01  0.79712254159E+01  0.00000000000E+00 0.  1.
         23    2    1    2    0    0 -0.99012570345E+01 -0.97018788679E+01  0.70166359171E+03  0.70791237339E+03  0.92822255548E+02 0.  0.
         13    1    3    3    0    0 -0.26961351434E+02 -0.36262199838E+01  0.67575299898E+03  0.67630036195E+03  0.00000000000E+00 0. -1.
        -13    1    3    3    0    0  0.17060094400E+02 -0.60756588841E+01  0.25910592731E+02  0.31612011443E+02  0.00000000000E+00 0.  1.
         22    1    1    2    0    0  0.99012570345E+01  0.97018788679E+01  0.50648583787E+01  0.14758527529E+02  0.00000000000E+00 0.  1.
<mgrwt>
<rscale>  0 0.58182140E+02</rscale>
<asrwt>0</asrwt>
<pdfrwt beam="1">  1        2 0.10995375E+00 0.93851651E+02</pdfrwt>
<pdfrwt beam="2">  1       -2 0.12263429E-02 0.93851651E+02</pdfrwt>
<totfact> 0.57731414E+04</totfact>
</mgrwt>
</event>
<event>
 6    1  0.2975432E-002  0.7846046E+02  0.7546771E-02  0.1418915E+00
         -1   -1    0    0    0  501 -0.00000000000E+00  0.00000000000E+00  0.50802120879E+02  0.50802120879E+02  0.00000000000E+00 0.  1.
          1   -1    0    0  501    0  0.00000000000E+00 -0.00000000000E+00 -0.49577442881E+02  0.49577442881E+02  0.00000000000E+00 0. -1.
         23    2    1    2    0    0  0.14328785723E+02 -0.12919891526E+02 -0.82356973530E+01  0.78891511285E+02  0.76051338875E+02 0.  0.
         11    1    3    3    0    0  0.14404272337E+02 -0.22041811321E+02 -0.38858202836E+02  0.46939156740E+02  0.00000000000E+00 0. -1.
        -11    1    3    3    0    0 -0.75486613466E-01  0.91219197949E+01  0.30622505483E+02  0.31952354546E+02  0.00000000000E+00 0.  1.
         22    1    1    2    0    0 -0.14328785723E+02  0.12919891526E+02  0.94603753509E+01  0.21488052474E+02  0.00000000000E+00 0.  1.
<mgrwt>
<rscale>  0 0.55251069E+02</rscale>
<asrwt>0</asrwt>
<pdfrwt beam="1">  1        1 0.76272989E-02 0.78460460E+02</pdfrwt>
<pdfrwt beam="2">  1       -1 0.78157109E-02 0.78460460E+02</pdfrwt>
<totfact> 0.68778539E+04</totfact>
</mgrwt>
</event>
<event>
 6    1  0.2975432E-002  0.9962907E+02  0.7546771E-02  0.1337542E+00
          2   -1    0    0  501    0  0.00000000000E+00  0.00000000000E+00  0.14232980617E+04  0.14232980617E+04  0.00000000000E+00 0. -1.
         -2   -1    0    0    0  501 -0.00000000000E+00 -0.00000000000E+00 -0.45258231714E+01  0.45258231714E+01  0.00000000000E+00 0.  1.
         23    2    1    2    0    0 -0.27871628425E+02 -0.22306913089E+02  0.12997596487E+04  0.13035724359E+04  0.93013574887E+02 0.  0.
         13    1    3    3    0    0 -0.85690998889E+01 -0.25430586977E+02  0.96717922982E+02  0.10037181304E+03  0.00000000000E+00 0.  1.
        -13    1    3    3    0    0 -0.19302528536E+02  0.31236738889E+01  0.12030417257E+04  0.12032006228E+04  0.00000000000E+00 0. -1.
         22    1    1    2    0    0  0.27871628425E+02  0.22306913089E+02  0.11901258982E+03  0.12425144900E+03  0.00000000000E+00 0.  1.
<mgrwt>
<rscale>  0 0.77082161E+02</rscale>
<asrwt>0</asrwt>
<pdfrwt beam="1">  1        2 0.21896858E+00 0.99629068E+02</pdfrwt>
<pdfrwt beam="2">  1       -2 0.69628162E-03 0.99629068E+02</pdfrwt>
<totfact> 0.49870403E+04</totfact>
</mgrwt>
</event>
<event>
 6    1  0.2975432E-002  0.9094843E+02  0.7546771E-02  0.1382685E+00
         -1   -1    0    0    0  501 -0.00000000000E+00  0.00000000000E+00  0.13904336064E+03  0.13904336064E+03  0.00000000000E+00 0.  1.
          1   -1    0    0  501    0  0.00000000000E+00 -0.00000000000E+00 -0.23130907278E+02  0.23130907278E+02  0.00000000000E+00 0. -1.
         23    2    1    2    0    0  0.20090547830E+02  0.88991185177E+01  0.86999046438E+02  0.12585885077E+03  0.88254131997E+02 0.  0.
         13    1    3    3    0    0  0.22970791101E+02 -0.23110587557E+02  0.87860598604E+02  0.93708277585E+02  0.00000000000E+00 0.  1.
        -13    1    3    3    0    0 -0.28802432713E+01  0.32009706074E+02 -0.86155216526E+00  0.32150573189E+02  0.00000000000E+00 0. -1.
         22    1    1    2    0    0 -0.20090547830E+02 -0.88991185177E+01  0.28913406928E+02  0.36315417149E+02  0.00000000000E+00 0. -1.
<mgrwt>
<rscale>  0 0.63763191E+02</rscale>
<asrwt>0</asrwt>
<pdfrwt beam="1">  1        1 0.35586012E-02 0.90948426E+02</pdfrwt>
<pdfrwt beam="2">  1       -1 0.21391286E-01 0.90948426E+02</pdfrwt>
<totfact> 0.41817387E+04</totfact>
</mgrwt>
</event>
<event>
 6    1  0.2975432E-002  0.9328224E+02  0.7546771E-02  0.1388923E+00
         -2   -1    0    0    0  501 -0.00000000000E+00  0.00000000000E+00  0.76967796175E+02  0.76967796175E+02  0.00000000000E+00 0. -1.
          2   -1    0    0  501    0  0.00000000000E+00 -0.00000000000E+00 -0.42286159476E+02  0.42286159476E+02  0.00000000000E+00 0.  1.
         23    2    1    2    0    0 -0.55455201174E+01  0.17555845695E+02  0.19287843543E+02  0.95255426964E+02  0.91447334276E+02 0.  0.
         11    1    3    3    0    0  0.18101660393E+02  0.49096723521E+02  0.19474959058E+02  0.55833971735E+02  0.00000000000E+00 0. -1.
        -11    1    3    3    0    0 -0.23647180510E+02 -0.31540877826E+02 -0.18711551508E+00  0.39421455228E+02  0.00000000000E+00 0.  1.
         22    1    1    2    0    0  0.55455201174E+01 -0.17555845695E+02  0.15393793156E+02  0.23998528687E+02  0.00000000000E+00 0. -1.
<mgrwt>
<rscale>  0 0.62175294E+02</rscale>
<asrwt>0</asrwt>
<pdfrwt beam="1">  1        2 0.65055630E-02 0.93282235E+02</pdfrwt>
<pdfrwt beam="2">  1       -2 0.11841199E-01 0.93282235E+02</pdfrwt>
<totfact> 0.48459353E+04</totfact>
</mgrwt>
</event>
<event>
 6    1  0.2975432E-002  0.1154144E+03  0.7546771E-02  0.1357268E+00
         -2   -1    0    0    0  501 -0.00000000000E+00  0.00000000000E+00  0.15441894924E+02  0.15441894924E+02  0.00000000000E+00 0.  1.
          2   -1    0    0  501    0  0.00000000000E+00 -0.00000000000E+00 -0.42853260773E+03  0.42853260773E+03  0.00000000000E+00 0. -1.
         23    2    1    2    0    0  0.52934745887E+01 -0.15499483678E+02 -0.41166076339E+03  0.42753371122E+03  0.11424637961E+03 0.  0.
         11    1    3    3    0    0 -0.53087907202E+02 -0.88386753838E+01 -0.24428526828E+03  0.25014343960E+03  0.00000000000E+00 0.  1.
        -11    1    3    3    0    0  0.58381381791E+02 -0.66608082947E+01 -0.16737549510E+03  0.17739027163E+03  0.00000000000E+00 0. -1.
         22    1    1    2    0    0 -0.52934745887E+01  0.15499483678E+02 -0.14299494209E+01  0.16440791431E+02  0.00000000000E+00 0.  1.
<mgrwt>
<rscale>  0 0.70837549E+02</rscale>
<asrwt>0</asrwt>
<pdfrwt beam="1">  1        2 0.65928094E-01 0.11541443E+03</pdfrwt>
<pdfrwt beam="2">  1       -2 0.23756761E-02 0.11541443E+03</pdfrwt>
<totfact> 0.40396655E+04</totfact>
</mgrwt>
</event>
<event>
 6    1  0.2975432E-002  0.9047899E+02  0.7546771E-02  0.1419508E+00
         -2   -1    0    0    0  501 -0.00000000000E+00  0.00000000000E+00  0.62321849844E+02  0.62321849844E+02  0.00000000000E+00 0.  1.
          2   -1    0    0  501    0  0.00000000000E+00 -0.00000000000E+00 -0.42949404042E+02  0.42949404042E+02  0.00000000000E+00 0. -1.
         23    2    1    2    0    0  0.10809059360E+02  0.62116832389E+01  0.20439310550E+02  0.92758901059E+02  0.89616000452E+02 0.  0.
         13    1    3    3    0    0  0.31772066038E+02 -0.17721657166E+02 -0.19833146771E+02  0.41435190646E+02  0.00000000000E+00 0. -1.
        -13    1    3    3    0    0 -0.20963006678E+02  0.23933340404E+02  0.40272457321E+02  0.51323710413E+02  0.00000000000E+00 0.  1.
         22    1    1    2    0    0 -0.10809059360E+02 -0.62116832389E+01 -0.10668647477E+01  0.12512352828E+02  0.00000000000E+00 0. -1.
<mgrwt>
<rscale>  0 0.55125108E+02</rscale>
<asrwt>0</asrwt>
<pdfrwt beam="1">  1        2 0.66076006E-02 0.90478994E+02</pdfrwt>
<pdfrwt beam="2">  1       -2 0.95879769E-02 0.90478994E+02</pdfrwt>
<totfact> 0.65815690E+04</totfact>
</mgrwt>
</event>
<event>
 6    1  0.2975432E-002  0.9031310E+02  0.7546771E-02  0.1428641E+00
          2   -1    0    0  501    0  0.00000000000E+00  0.00000000000E+00  0.10393570031E+04  0.10393570031E+04  0.00000000000E+00 0. -1.
         -2   -1    0    0    0  501 -0.00000000000E+00 -0.00000000000E+00 -0.27843089656E+01  0.27843089656E+01  0.00000000000E+00 0.  1.
         23    2    1    2    0    0  0.10408532326E+02 -0.32420021470E+01  0.99738206729E+03  0.10014626524E+04  0.89652706547E+02 0.  0.
         13    1    3    3    0    0 -0.32745798122E+01  0.32869999341E+02  0.77846910322E+03  0.77916962492E+03  0.00000000000E+00 0. -1.
        -13    1    3    3    0    0  0.13683112139E+02 -0.36112001488E+02  0.21891296407E+03  0.22229302744E+03  0.00000000000E+00 0.  1.
         22    1    1    2    0    0 -0.10408532326E+02  0.32420021470E+01  0.39190626803E+02  0.40678659667E+02  0.00000000000E+00 0. -1.
<mgrwt>
<rscale>  0 0.53233755E+02</rscale>
<asrwt>0</asrwt>
<pdfrwt beam="1">  1        2 0.15990077E+00 0.90313099E+02</pdfrwt>
<pdfrwt beam="2">  1       -2 0.42835606E-03 0.90313099E+02</pdfrwt>
<totfact> 0.15746834E+05</totfact>
</mgrwt>
</event>
<event>
 6    1  0.2975432E-002  0.1106179E+03  0.7546771E-02  0.1307019E+00
         -2   -1    0    0    0  501 -0.00000000000E+00  0.00000000000E+00  0.38769983266E+01  0.38769983266E+01  0.00000000000E+00 0.  1.
          2   -1    0    0  501    0  0.00000000000E+00 -0.00000000000E+00 -0.19267851421E+04  0.19267851421E+04  0.00000000000E+00 0. -1.
         23    2    1    2    0    0  0.11533352670E+02  0.43408850555E+02 -0.16799023658E+04  0.16835403998E+04  0.10108893521E+03 0.  0.
         13    1    3    3    0    0 -0.79040116906E+00  0.13798250789E+02 -0.15378588882E+04  0.15379209917E+04  0.00000000000E+00 0. -1.
        -13    1    3    3    0    0  0.12323753839E+02  0.29610599766E+02 -0.14204347753E+03  0.14561940817E+03  0.00000000000E+00 0.  1.
         22    1    1    2    0    0 -0.11533352670E+02 -0.43408850555E+02 -0.24300577796E+03  0.24712174055E+03  0.00000000000E+00 0. -1.
<mgrwt>
<rscale>  0 0.88301202E+02</rscale>
<asrwt>0</asrwt>
<pdfrwt beam="1">  1        2 0.29642824E+00 0.11061790E+03</pdfrwt>
<pdfrwt beam="2">  1       -2 0.59646177E-03 0.11061790E+03</pdfrwt>
<totfact> 0.34696976E+04</totfact>
</mgrwt>
</event>
<event>
 6    1  0.2975432E-002  0.9301082E+02  0.7546771E-02  0.1424955E+00
         -2   -1    0    0    0  501 -0.00000000000E+00  0.00000000000E+00  0.20124486083E+02  0.20124486083E+02  0.00000000000E+00 0.  1.
          2   -1    0    0  501    0  0.00000000000E+00 -0.00000000000E+00 -0.13343852700E+03  0.13343852700E+03  0.00000000000E+00 0. -1.
         23    2    1    2    0    0  0.60818480056E+01  0.86288702170E+01 -0.99945532611E+02  0.13652883301E+03  0.92409774798E+02 0.  0.
         13    1    3    3    0    0  0.89352228719E+01  0.18283633437E+02 -0.11589479353E+03  0.11766789123E+03  0.00000000000E+00 0. -1.
        -13    1    3    3    0    0 -0.28533748663E+01 -0.96547632198E+01  0.15949260919E+02  0.18860941780E+02  0.00000000000E+00 0.  1.
         22    1    1    2    0    0 -0.60818480056E+01 -0.86288702170E+01 -0.13368508308E+02  0.17034180073E+02  0.00000000000E+00 0. -1.
<mgrwt>
<rscale>  0 0.53986268E+02</rscale>
<asrwt>0</asrwt>
<pdfrwt beam="1">  1        2 0.20529004E-01 0.93010821E+02</pdfrwt>
<pdfrwt beam="2">  1       -2 0.30960748E-02 0.93010821E+02</pdfrwt>
<totfact> 0.92997565E+04</totfact>
</mgrwt>
</event>
<event>
 6    1  0.2975432E-002  0.1142851E+03  0.7546771E-02  0.1365975E+00
         -2   -1    0    0    0  501 -0.00000000000E+00  0.00000000000E+00  0.13142423208E+03  0.13142423208E+03  0.00000000000E+00 0.  1.
          2   -1    0    0  501    0  0.00000000000E+00 -0.00000000000E+00 -0.49822360098E+02  0.49822360098E+02  0.00000000000E+00 0. -1.
         23    2    1    2    0    0 -0.11746071497E+02  0.86335152812E+01  0.17632640889E+02  0.11563736791E+03  0.11335159042E+03 0.  0.
         11    1    3    3    0    0 -0.27310938253E+02  0.17422669754E+02 -0.42195073628E+02  0.53196437926E+02  0.00000000000E+00 0. -1.
        -11    1    3    3    0    0  0.15564866756E+02 -0.87891544725E+01  0.59827714517E+02  0.62440929988E+02  0.00000000000E+00 0.  1.
         22    1    1    2    0    0  0.11746071497E+02 -0.86335152812E+01  0.63969231092E+02  0.65609224262E+02  0.00000000000E+00 0.  1.
<mgrwt>
<rscale>  0 0.68298969E+02</rscale>
<asrwt>0</asrwt>
<pdfrwt beam="1">  1        2 0.76649785E-02 0.11428513E+03</pdfrwt>
<pdfrwt beam="2">  1       -2 0.20219113E-01 0.11428513E+03</pdfrwt>
<totfact> 0.16890326E+04</totfact>
</mgrwt>
</event>
<event>
 6    1  0.2975432E-002  0.9043127E+02  0.7546771E-02  0.1399485E+00
         -1   -1    0    0    0  501 -0.00000000000E+00  0.00000000000E+00  0.34126603666E+01  0.34126603666E+01  0.00000000000E+00 0.  1.
          1   -1    0    0  501    0  0.00000000000E+00 -0.00000000000E+00 -0.87706767945E+03  0.87706767945E+03  0.00000000000E+00 0. -1.
         23    2    1    2    0    0 -0.14185438390E+02  0.94965695545E+01 -0.78544405454E+03  0.79063277023E+03  0.88805422400E+02 0.  0.
         13    1    3    3    0    0 -0.13368021708E+02  0.54323536222E+00 -0.78001586820E+03  0.78013060044E+03  0.00000000000E+00 0. -1.
        -13    1    3    3    0    0 -0.81741668172E+00  0.89533341923E+01 -0.54281863447E+01  0.10502169785E+02  0.00000000000E+00 0.  1.
         22    1    1    2    0    0  0.14185438390E+02 -0.94965695545E+01 -0.88210964541E+02  0.89847569588E+02  0.00000000000E+00 0. -1.
<mgrwt>
<rscale>  0 0.59607692E+02</rscale>
<asrwt>0</asrwt>
<pdfrwt beam="1">  1        1 0.13493359E+00 0.90431270E+02</pdfrwt>
<pdfrwt beam="2">  1       -1 0.52502429E-03 0.90431270E+02</pdfrwt>
<totfact> 0.83872887E+04</totfact>
</mgrwt>
</event>
<event>
 6    1  0.2975432E-002  0.1140270E+03  0.7546771E-02  0.1291738E+00
         -2   -1    0    0    0  501 -0.00000000000E+00  0.00000000000E+00  0.38746134079E+02  0.38746134079E+02  0.00000000000E+00 0.  1.
          2   -1    0    0  501    0  0.00000000000E+00 -0.00000000000E+00 -0.33110846650E+03  0.33110846650E+03  0.00000000000E+00 0. -1.
         23    2    1    2    0    0 -0.52285124612E+02 -0.14891146574E+02 -0.29413223329E+03  0.31546146635E+03  0.10023315615E+03 0.  0.
         11    1    3    3    0    0 -0.25588770089E+02 -0.15338440143E+01 -0.67169176654E+01  0.26500090850E+02  0.00000000000E+00 0.  1.
        -11    1    3    3    0    0 -0.26696354523E+02 -0.13357302560E+02 -0.28741531563E+03  0.28896137550E+03  0.00000000000E+00 0. -1.
         22    1    1    2    0    0  0.52285124612E+02  0.14891146574E+02  0.17699008687E+01  0.54393134227E+02  0.00000000000E+00 0.  1.
<mgrwt>
<rscale>  0 0.94751131E+02</rscale>
<asrwt>0</asrwt>
<pdfrwt beam="1">  1        2 0.50939763E-01 0.11402704E+03</pdfrwt>
<pdfrwt beam="2">  1       -2 0.59609438E-02 0.11402704E+03</pdfrwt>
<totfact> 0.13622369E+04</totfact>
</mgrwt>
</event>
<event>
 6    1  0.2975432E-002  0.9473095E+02  0.7546771E-02  0.1365111E+00
          2   -1    0    0  501    0  0.00000000000E+00  0.00000000000E+00  0.31945427666E+04  0.31945427666E+04  0.00000000000E+00 0. -1.
         -2   -1    0    0    0  501 -0.00000000000E+00 -0.00000000000E+00 -0.18323120539E+01  0.18323120539E+01  0.00000000000E+00 0.  1.
         23    2    1    2    0    0 -0.10428790334E+02 -0.23781469696E+02  0.30397731828E+04  0.30412489137E+04  0.91102327912E+02 0.  0.
         13    1    3    3    0    0 -0.13888232560E+02 -0.15389433049E+02  0.30111406508E+04  0.30112120046E+04  0.00000000000E+00 0. -1.
        -13    1    3    3    0    0  0.34594422266E+01 -0.83920366465E+01  0.28632532005E+02  0.30036909106E+02  0.00000000000E+00 0.  1.
         22    1    1    2    0    0  0.10428790334E+02  0.23781469696E+02  0.15293727172E+03  0.15512616494E+03  0.00000000000E+00 0.  1.
<mgrwt>
<rscale>  0 0.68545192E+02</rscale>
<asrwt>0</asrwt>
<pdfrwt beam="1">  1        2 0.49146366E+00 0.94730946E+02</pdfrwt>
<pdfrwt beam="2">  1       -2 0.28189672E-03 0.94730946E+02</pdfrwt>
<totfact> 0.20482526E+04</totfact>
</mgrwt>
</event>
<event>
 6    1  0.2975432E-002  0.9374259E+02  0.7546771E-02  0.1384579E+00
         -2   -1    0    0    0  501 -0.00000000000E+00  0.00000000000E+00  0.74266122145E+01  0.74266122145E+01  0.00000000000E+00 0.  1.
          2   -1    0    0  501    0  0.00000000000E+00 -0.00000000000E+00 -0.52109084161E+03  0.52109084161E+03  0.00000000000E+00 0. -1.
         23    2    1    2    0    0 -0.12577003176E+02  0.14848756220E+02 -0.48431057313E+03  0.49329950803E+03  0.91700636863E+02 0.  0.
         13    1    3    3    0    0 -0.18916167306E+02 -0.13873164685E+02 -0.30214411748E+02  0.38251755008E+02  0.00000000000E+00 0.  1.
        -13    1    3    3    0    0  0.63391641308E+01  0.28721920906E+02 -0.45409616139E+03  0.45504775302E+03  0.00000000000E+00 0. -1.
         22    1    1    2    0    0  0.12577003176E+02 -0.14848756220E+02 -0.29353656258E+02  0.35217945793E+02  0.00000000000E+00 0.  1.
<mgrwt>
<rscale>  0 0.63275391E+02</rscale>
<asrwt>0</asrwt>
<pdfrwt beam="1">  1        2 0.80167838E-01 0.93742591E+02</pdfrwt>
<pdfrwt beam="2">  1       -2 0.11425555E-02 0.93742591E+02</pdfrwt>
<totfact> 0.91144098E+04</totfact>
</mgrwt>
</event>
<event>
 6    1  0.2975432E-002  0.9631784E+02  0.7546771E-02  0.1353563E+00
         -2   -1    0    0    0  501 -0.00000000000E+00  0.00000000000E+00  0.91015559214E+01  0.91015559214E+01  0.00000000000E+00 0.  1.
          2   -1    0    0  501    0  0.00000000000E+00 -0.00000000000E+00 -0.19822531094E+04  0.19822531094E+04  0.00000000000E+00 0. -1.
         23    2    1    2    0    0  0.14600378832E+02  0.26210904827E+02 -0.19526314767E+04  0.19550055781E+04  0.91525645569E+02 0.  0.
         13    1    3    3    0    0 -0.13741612874E+02  0.22846727248E+02 -0.16451228653E+03  0.16665862501E+03  0.00000000000E+00 0.  1.
        -13    1    3    3    0    0  0.28341991705E+02  0.33641775790E+01 -0.17881191902E+04  0.17883469531E+04  0.00000000000E+00 0. -1.
         22    1    1    2    0    0 -0.14600378832E+02 -0.26210904827E+02 -0.20520076750E+02  0.36349087247E+02  0.00000000000E+00 0.  1.
<mgrwt>
<rscale>  0 0.71956723E+02</rscale>
<asrwt>0</asrwt>
<pdfrwt beam="1">  1        2 0.30496228E+00 0.96317840E+02</pdfrwt>
<pdfrwt beam="2">  1       -2 0.14002382E-02 0.96317840E+02</pdfrwt>
<totfact> 0.96218367E+03</totfact>
</mgrwt>
</event>
<event>
 6    1  0.2975432E-002  0.9389786E+02  0.7546771E-02  0.1393842E+00
          2   -1    0    0  501    0  0.00000000000E+00  0.00000000000E+00  0.13004173854E+04  0.13004173854E+04  0.00000000000E+00 0. -1.
         -2   -1    0    0    0  501 -0.00000000000E+00 -0.00000000000E+00 -0.56108818516E+01  0.56108818516E+01  0.00000000000E+00 0.  1.
         23    2    1    2    0    0 -0.65240662186E+01  0.15353320069E+02  0.12808243417E+04  0.12842615788E+04  0.92404115507E+02 0.  0.
         11    1    3    3    0    0 -0.43716215386E+02  0.52678485663E+01  0.36812132107E+03  0.37074541769E+03  0.00000000000E+00 0. -1.
        -11    1    3    3    0    0  0.37192149167E+02  0.10085471503E+02  0.91270302062E+03  0.91351616108E+03  0.00000000000E+00 0.  1.
         22    1    1    2    0    0  0.65240662186E+01 -0.15353320069E+02  0.13982161856E+02  0.21766688479E+02  0.00000000000E+00 0.  1.
<mgrwt>
<rscale>  0 0.60961208E+02</rscale>
<asrwt>0</asrwt>
<pdfrwt beam="1">  1        2 0.20006397E+00 0.93897862E+02</pdfrwt>
<pdfrwt beam="2">  1       -2 0.86321363E-03 0.93897862E+02</pdfrwt>
<totfact> 0.42456717E+04</totfact>
</mgrwt>
</event>
<event>
 6    1  0.2975432E-002  0.9389548E+02  0.7546771E-02  0.1395437E+00
         -2   -1    0    0    0  501 -0.00000000000E+00  0.00000000000E+00  0.58615932429E+01  0.58615932429E+01  0.00000000000E+00 0.  1.
          2   -1    0    0  501    0  0.00000000000E+00 -0.00000000000E+00 -0.58866193178E+03  0.58866193178E+03  0.00000000000E+00 0. -1.
         23    2    1    2    0    0 -0.15519255074E+02 -0.48642900661E+01 -0.54949288824E+03  0.55745743754E+03  0.92476223148E+02 0.  0.
         11    1    3    3    0    0  0.53837518635E+00 -0.45041777944E+02 -0.18497632579E+03  0.19038196530E+03  0.00000000000E+00 0.  1.
        -11    1    3    3    0    0 -0.16057630261E+02  0.40177487878E+02 -0.36451656245E+03  0.36707547224E+03  0.00000000000E+00 0. -1.
         22    1    1    2    0    0  0.15519255074E+02  0.48642900661E+01 -0.33307450299E+02  0.37066087483E+02  0.00000000000E+00 0.  1.
<mgrwt>
<rscale>  0 0.60574310E+02</rscale>
<asrwt>0</asrwt>
<pdfrwt beam="1">  1        2 0.90563363E-01 0.93895476E+02</pdfrwt>
<pdfrwt beam="2">  1       -2 0.90178369E-03 0.93895476E+02</pdfrwt>
<totfact> 0.11146467E+05</totfact>
</mgrwt>
</event>
<event>
 6    1  0.2975432E-002  0.9738882E+02  0.7546771E-02  0.1389733E+00
          2   -1    0    0  501    0  0.00000000000E+00  0.00000000000E+00  0.25877870465E+02  0.25877870465E+02  0.00000000000E+00 0.  1.
         -2   -1    0    0    0  501 -0.00000000000E+00 -0.00000000000E+00 -0.21320860613E+03  0.21320860613E+03  0.00000000000E+00 0. -1.
         23    2    1    2    0    0  0.12377891923E+02  0.10089955401E+02 -0.19746358096E+03  0.22017367769E+03  0.96070615355E+02 0.  0.
         11    1    3    3    0    0  0.42096326296E+02  0.37218814618E+02 -0.99534460391E+02  0.11429982351E+03  0.00000000000E+00 0. -1.
        -11    1    3    3    0    0 -0.29718434373E+02 -0.27128859218E+02 -0.97929120567E+02  0.10587385418E+03  0.00000000000E+00 0.  1.
         22    1    1    2    0    0 -0.12377891923E+02 -0.10089955401E+02  0.10132845296E+02  0.18912798900E+02  0.00000000000E+00 0.  1.
<mgrwt>
<rscale>  0 0.61973138E+02</rscale>
<asrwt>0</asrwt>
<pdfrwt beam="1">  1        2 0.39812109E-02 0.97388821E+02</pdfrwt>
<pdfrwt beam="2">  1       -2 0.32801324E-01 0.97388821E+02</pdfrwt>
<totfact> 0.16540639E+04</totfact>
</mgrwt>
</event>
<event>
 6    1  0.2975432E-002  0.8571805E+02  0.7546771E-02  0.1393281E+00
         -1   -1    0    0    0  501 -0.00000000000E+00  0.00000000000E+00  0.19771382134E+02  0.19771382134E+02  0.00000000000E+00 0.  1.
          1   -1    0    0  501    0  0.00000000000E+00 -0.00000000000E+00 -0.30224790205E+03  0.30224790205E+03  0.00000000000E+00 0. -1.
         23    2    1    2    0    0 -0.13894684684E+02  0.17218236409E+02 -0.28692135042E+03  0.29945190849E+03  0.82813369962E+02 0.  0.
         11    1    3    3    0    0 -0.37188557723E+01  0.45085915381E+02 -0.94655211290E+02  0.10491033637E+03  0.00000000000E+00 0.  1.
        -11    1    3    3    0    0 -0.10175828912E+02 -0.27867678972E+02 -0.19226613913E+03  0.19454157211E+03  0.00000000000E+00 0. -1.
         22    1    1    2    0    0  0.13894684684E+02 -0.17218236409E+02  0.44448305030E+01  0.22567375694E+02  0.00000000000E+00 0.  1.
<mgrwt>
<rscale>  0 0.61097947E+02</rscale>
<asrwt>0</asrwt>
<pdfrwt beam="1">  1        1 0.46499678E-01 0.85718050E+02</pdfrwt>
<pdfrwt beam="2">  1       -1 0.30417510E-02 0.85718050E+02</pdfrwt>
<totfact> 0.28283978E+04</totfact>
</mgrwt>
</event>
<event>
 6    1  0.2975432E-002  0.9517117E+02  0.7546771E-02  0.1414119E+00
         -3   -1    0    0    0  501 -0.00000000000E+00  0.00000000000E+00  0.97130906389E+01  0.97130906389E+01  0.00000000000E+00 0.  1.
          3   -1    0    0  501    0  0.00000000000E+00 -0.00000000000E+00 -0.31315051116E+03  0.31315051116E+03  0.00000000000E+00 0. -1.
         23    2    1    2    0    0 -0.68115017333E+01  0.94420689791E+01 -0.28928334950E+03  0.30453638300E+03  0.94456355268E+02 0.  0.
         11    1    3    3    0    0  0.21662850343E+02  0.13786766749E+02 -0.17139772078E+02  0.30872735695E+02  0.00000000000E+00 0.  1.
        -11    1    3    3    0    0 -0.28474352076E+02 -0.43446977701E+01 -0.27214357742E+03  0.27366364730E+03  0.00000000000E+00 0. -1.
         22    1    1    2    0    0  0.68115017333E+01 -0.94420689791E+01 -0.14154071028E+02  0.18327218805E+02  0.00000000000E+00 0. -1.
<mgrwt>
<rscale>  0 0.56284809E+02</rscale>
<asrwt>0</asrwt>
<pdfrwt beam="1">  1        3 0.48177003E-01 0.95171174E+02</pdfrwt>
<pdfrwt beam="2">  1       -3 0.14943216E-02 0.95171174E+02</pdfrwt>
<totfact> 0.13347520E+04</totfact>
</mgrwt>
</event>
<event>
 6    1  0.2975432E-002  0.9266420E+02  0.7546771E-02  0.1391145E+00
         -2   -1    0    0    0  501 -0.00000000000E+00  0.00000000000E+00  0.14136760285E+03  0.14136760285E+03  0.00000000000E+00 0.  1.
          2   -1    0    0  501    0  0.00000000000E+00 -0.00000000000E+00 -0.45319668802E+02  0.45319668802E+02  0.00000000000E+00 0. -1.
         23    2    1    2    0    0 -0.29979249622E+00  0.18120405652E+02  0.38703152349E+01  0.92744989443E+02  0.90874720083E+02 0.  0.
         13    1    3    3    0    0  0.17979387126E+02  0.50890061042E+02 -0.49498788286E+01  0.54199243304E+02  0.00000000000E+00 0. -1.
        -13    1    3    3    0    0 -0.18279179622E+02 -0.32769655391E+02  0.88201940635E+01  0.38545746139E+02  0.00000000000E+00 0.  1.
         22    1    1    2    0    0  0.29979249622E+00 -0.18120405652E+02  0.92177618814E+02  0.93942282210E+02  0.00000000000E+00 0.  1.
<mgrwt>
<rscale>  0 0.61622713E+02</rscale>
<asrwt>0</asrwt>
<pdfrwt beam="1">  1        2 0.69722568E-02 0.92664199E+02</pdfrwt>
<pdfrwt beam="2">  1       -2 0.21748862E-01 0.92664199E+02</pdfrwt>
<totfact> 0.16435778E+04</totfact>
</mgrwt>
</event>
<event>
 6    1  0.2975432E-002  0.9555080E+02  0.7546771E-02  0.1368886E+00
         -2   -1    0    0    0  501 -0.00000000000E+00  0.00000000000E+00  0.43561810685E+02  0.43561810685E+02  0.00000000000E+00 0.  1.
          2   -1    0    0  501    0  0.00000000000E+00 -0.00000000000E+00 -0.13493886165E+03  0.13493886165E+03  0.00000000000E+00 0. -1.
         23    2    1    2    0    0 -0.82788099590E+01  0.22276787182E+02 -0.11186856493E+03  0.14712080481E+03  0.92548157443E+02 0.  0.
         11    1    3    3    0    0  0.26917840289E+02  0.11431732083E+02  0.10599797889E+00  0.29244928788E+02  0.00000000000E+00 0.  1.
        -11    1    3    3    0    0 -0.35196650248E+02  0.10845055100E+02 -0.11197456291E+03  0.11787587602E+03  0.00000000000E+00 0. -1.
         22    1    1    2    0    0  0.82788099590E+01 -0.22276787182E+02  0.20491513965E+02  0.31379867528E+02  0.00000000000E+00 0.  1.
<mgrwt>
<rscale>  0 0.67477969E+02</rscale>
<asrwt>0</asrwt>
<pdfrwt beam="1">  1        2 0.20759825E-01 0.95550800E+02</pdfrwt>
<pdfrwt beam="2">  1       -2 0.67018170E-02 0.95550800E+02</pdfrwt>
<totfact> 0.29355160E+04</totfact>
</mgrwt>
</event>
<event>
 6    1  0.2975432E-002  0.9037992E+02  0.7546771E-02  0.1431655E+00
          2   -1    0    0  501    0  0.00000000000E+00  0.00000000000E+00  0.64901680910E+03  0.64901680910E+03  0.00000000000E+00 0. -1.
         -2   -1    0    0    0  501 -0.00000000000E+00 -0.00000000000E+00 -0.54317936223E+01  0.54317936223E+01  0.00000000000E+00 0.  1.
         23    2    1    2    0    0 -0.86450056248E+01 -0.57666194780E+01  0.63367859643E+03  0.64009147345E+03  0.89780514565E+02 0.  0.
         13    1    3    3    0    0  0.22856741971E+02  0.10560537681E+02  0.52830313230E+03  0.52890278427E+03  0.00000000000E+00 0. -1.
        -13    1    3    3    0    0 -0.31501747596E+02 -0.16327157159E+02  0.10537546412E+03  0.11118868918E+03  0.00000000000E+00 0.  1.
         22    1    1    2    0    0  0.86450056248E+01  0.57666194780E+01  0.99064190530E+01  0.14357129271E+02  0.00000000000E+00 0. -1.
<mgrwt>
<rscale>  0 0.52629220E+02</rscale>
<asrwt>0</asrwt>
<pdfrwt beam="1">  1        2 0.99848678E-01 0.90379925E+02</pdfrwt>
<pdfrwt beam="2">  1       -2 0.83566107E-03 0.90379925E+02</pdfrwt>
<totfact> 0.11058193E+05</totfact>
</mgrwt>
</event>
<event>
 6    1  0.2975432E-002  0.9477303E+02  0.7546771E-02  0.1359021E+00
          2   -1    0    0  501    0  0.00000000000E+00  0.00000000000E+00  0.56030877111E+03  0.56030877111E+03  0.00000000000E+00 0. -1.
         -2   -1    0    0    0  501 -0.00000000000E+00 -0.00000000000E+00 -0.95191388695E+01  0.95191388695E+01  0.00000000000E+00 0.  1.
         23    2    1    2    0    0  0.24381542253E+02  0.15176574230E+02  0.51639467711E+03  0.52501941808E+03  0.90316879947E+02 0.  0.
         13    1    3    3    0    0  0.18008568430E+02  0.14005829274E+02  0.51787139117E+03  0.51837365827E+03  0.00000000000E+00 0. -1.
        -13    1    3    3    0    0  0.63729738238E+01  0.11707449558E+01 -0.14767140580E+01  0.66457598151E+01  0.00000000000E+00 0.  1.
         22    1    1    2    0    0 -0.24381542253E+02 -0.15176574230E+02  0.34394955128E+02  0.44808491899E+02  0.00000000000E+00 0.  1.
<mgrwt>
<rscale>  0 0.70316356E+02</rscale>
<asrwt>0</asrwt>
<pdfrwt beam="1">  1        2 0.86201323E-01 0.94773028E+02</pdfrwt>
<pdfrwt beam="2">  1       -2 0.14644833E-02 0.94773028E+02</pdfrwt>
<totfact> 0.59200051E+04</totfact>
</mgrwt>
</event>
<event>
 6    1  0.2975432E-002  0.9258736E+02  0.7546771E-02  0.1398373E+00
         -2   -1    0    0    0  501 -0.00000000000E+00  0.00000000000E+00  0.92216788970E+01  0.92216788970E+01  0.00000000000E+00 0.  1.
          2   -1    0    0  501    0  0.00000000000E+00 -0.00000000000E+00 -0.38310848646E+03  0.38310848646E+03  0.00000000000E+00 0. -1.
         23    2    1    2    0    0 -0.53231160907E+01 -0.15288784655E+02 -0.35750142471E+03  0.36929620625E+03  0.91161048562E+02 0.  0.
         13    1    3    3    0    0  0.23494668842E+00  0.38505326042E+02 -0.14945647038E+03  0.15433713705E+03  0.00000000000E+00 0. -1.
        -13    1    3    3    0    0 -0.55580627791E+01 -0.53794110697E+02 -0.20804495434E+03  0.21495906920E+03  0.00000000000E+00 0.  1.
         22    1    1    2    0    0  0.53231160907E+01  0.15288784655E+02 -0.16385382847E+02  0.23033959108E+02  0.00000000000E+00 0. -1.
<mgrwt>
<rscale>  0 0.59871278E+02</rscale>
<asrwt>0</asrwt>
<pdfrwt beam="1">  1        2 0.58939784E-01 0.92587360E+02</pdfrwt>
<pdfrwt beam="2">  1       -2 0.14187194E-02 0.92587360E+02</pdfrwt>
<totfact> 0.92839525E+04</totfact>
</mgrwt>
</event>
<event>
 6    1  0.2975432E-002  0.9173317E+02  0.7546771E-02  0.1397635E+00
          1   -1    0    0  501    0  0.00000000000E+00  0.00000000000E+00  0.15709804977E+03  0.15709804977E+03  0.00000000000E+00 0. -1.
         -1   -1    0    0    0  501 -0.00000000000E+00 -0.00000000000E+00 -0.36273880438E+02  0.36273880438E+02  0.00000000000E+00 0.  1.
         23    2    1    2    0    0 -0.12814325493E+02 -0.10928480644E+02  0.14029775780E+03  0.16762587663E+03  0.90173915538E+02 0.  0.
         13    1    3    3    0    0  0.27662181237E+02  0.12682553880E+02  0.15151591818E+02  0.33994325678E+02  0.00000000000E+00 0.  1.
        -13    1    3    3    0    0 -0.40476506729E+02 -0.23611034524E+02  0.12514616599E+03  0.13363155095E+03  0.00000000000E+00 0. -1.
         22    1    1    2    0    0  0.12814325493E+02  0.10928480644E+02 -0.19473588471E+02  0.25746053580E+02  0.00000000000E+00 0. -1.
<mgrwt>
<rscale>  0 0.60046881E+02</rscale>
<asrwt>0</asrwt>
<pdfrwt beam="1">  1        1 0.24168931E-01 0.91733166E+02</pdfrwt>
<pdfrwt beam="2">  1       -1 0.55805970E-02 0.91733166E+02</pdfrwt>
<totfact> 0.26317347E+04</totfact>
</mgrwt>
</event>
<event>
 6    1  0.2975432E-002  0.9290856E+02  0.7546771E-02  0.1415116E+00
         -2   -1    0    0    0  501 -0.00000000000E+00  0.00000000000E+00  0.16521217834E+01  0.16521217834E+01  0.00000000000E+00 0.  1.
          2   -1    0    0  501    0  0.00000000000E+00 -0.00000000000E+00 -0.23235739242E+04  0.23235739242E+04  0.00000000000E+00 0. -1.
         23    2    1    2    0    0 -0.13023434273E+01 -0.12253051985E+02 -0.22684917393E+04  0.22703935280E+04  0.92087824547E+02 0.  0.
         13    1    3    3    0    0  0.16164296893E+02  0.37094289527E+02 -0.93761124969E+03  0.93848395104E+03  0.00000000000E+00 0.  1.
        -13    1    3    3    0    0 -0.17466640320E+02 -0.49347341511E+02 -0.13308804896E+04  0.13319095770E+04  0.00000000000E+00 0. -1.
         22    1    1    2    0    0  0.13023434273E+01  0.12253051985E+02 -0.53430063114E+02  0.54832517959E+02  0.00000000000E+00 0.  1.
<mgrwt>
<rscale>  0 0.56067696E+02</rscale>
<asrwt>0</asrwt>
<pdfrwt beam="1">  1        2 0.35747289E+00 0.92908562E+02</pdfrwt>
<pdfrwt beam="2">  1       -2 0.25417260E-03 0.92908562E+02</pdfrwt>
<totfact> 0.71016508E+04</totfact>
</mgrwt>
</event>
<event>
 6    1  0.2975432E-002  0.9022654E+02  0.7546771E-02  0.1404437E+00
          2   -1    0    0  501    0  0.00000000000E+00  0.00000000000E+00  0.18195715501E+03  0.18195715501E+03  0.00000000000E+00 0. -1.
         -2   -1    0    0    0  501 -0.00000000000E+00 -0.00000000000E+00 -0.98758160930E+02  0.98758160930E+02  0.00000000000E+00 0.  1.
         23    2    1    2    0    0 -0.15876408440E+02  0.76119969270E+00  0.17000593923E+03  0.19246518565E+03  0.88815474689E+02 0.  0.
         13    1    3    3    0    0  0.50382309982E+01  0.34569464304E+02  0.27331936329E+02  0.44356131226E+02  0.00000000000E+00 0.  1.
        -13    1    3    3    0    0 -0.20914639439E+02 -0.33808264611E+02  0.14267400290E+03  0.14810905442E+03  0.00000000000E+00 0. -1.
         22    1    1    2    0    0  0.15876408440E+02 -0.76119969270E+00 -0.86806945150E+02  0.88250130290E+02  0.00000000000E+00 0.  1.
<mgrwt>
<rscale>  0 0.58453893E+02</rscale>
<asrwt>0</asrwt>
<pdfrwt beam="1">  1        2 0.27993408E-01 0.90226539E+02</pdfrwt>
<pdfrwt beam="2">  1       -2 0.15193563E-01 0.90226539E+02</pdfrwt>
<totfact> 0.58695136E+03</totfact>
</mgrwt>
</event>
<event>
 6    1  0.2975432E-002  0.9361448E+02  0.7546771E-02  0.1388390E+00
         -2   -1    0    0    0  501 -0.00000000000E+00  0.00000000000E+00  0.85617437243E+01  0.85617437243E+01  0.00000000000E+00 0.  1.
          2   -1    0    0  501    0  0.00000000000E+00 -0.00000000000E+00 -0.19813979771E+04  0.19813979771E+04  0.00000000000E+00 0. -1.
         23    2    1    2    0    0 -0.25519528435E+01 -0.18194672990E+02 -0.19689578623E+04  0.19711820652E+04  0.91793856785E+02 0.  0.
         13    1    3    3    0    0  0.60447643819E+01 -0.10264266119E+01 -0.18868192502E+04  0.18868292121E+04  0.00000000000E+00 0. -1.
        -13    1    3    3    0    0 -0.85967172254E+01 -0.17168246378E+02 -0.82138612069E+02  0.84352853084E+02  0.00000000000E+00 0.  1.
         22    1    1    2    0    0  0.25519528435E+01  0.18194672990E+02 -0.38783711009E+01  0.18777655629E+02  0.00000000000E+00 0.  1.
<mgrwt>
<rscale>  0 0.62309019E+02</rscale>
<asrwt>0</asrwt>
<pdfrwt beam="1">  1        2 0.30483075E+00 0.93614479E+02</pdfrwt>
<pdfrwt beam="2">  1       -2 0.13171901E-02 0.93614479E+02</pdfrwt>
<totfact> 0.10496249E+04</totfact>
</mgrwt>
</event>
<event>
 6    1  0.2975432E-002  0.9558697E+02  0.7546771E-02  0.1368766E+00
          2   -1    0    0  501    0  0.00000000000E+00  0.00000000000E+00  0.94335446669E+02  0.94335446669E+02  0.00000000000E+00 0. -1.
         -2   -1    0    0    0  501 -0.00000000000E+00 -0.00000000000E+00 -0.56869092764E+02  0.56869092764E+02  0.00000000000E+00 0.  1.
         23    2    1    2    0    0 -0.22364928490E+02  0.80967591189E+01  0.64411059368E+02  0.11526341136E+03  0.92580353722E+02 0.  0.
         11    1    3    3    0    0 -0.27924043684E+02  0.47050877016E+02  0.27179533061E+02  0.61092260238E+02  0.00000000000E+00 0. -1.
        -11    1    3    3    0    0  0.55591151937E+01 -0.38954117897E+02  0.37231526307E+02  0.54171151123E+02  0.00000000000E+00 0.  1.
         22    1    1    2    0    0  0.22364928490E+02 -0.80967591189E+01 -0.26944705463E+02  0.35941128072E+02  0.00000000000E+00 0.  1.
<mgrwt>
<rscale>  0 0.67511361E+02</rscale>
<asrwt>0</asrwt>
<pdfrwt beam="1">  1        2 0.14513146E-01 0.95586973E+02</pdfrwt>
<pdfrwt beam="2">  1       -2 0.87490912E-02 0.95586973E+02</pdfrwt>
<totfact> 0.29374609E+04</totfact>
</mgrwt>
</event>
<event>
 6    1  0.2975432E-002  0.1021306E+03  0.7546771E-02  0.1334460E+00
          2   -1    0    0  501    0  0.00000000000E+00  0.00000000000E+00  0.13698841437E+03  0.13698841437E+03  0.00000000000E+00 0. -1.
         -2   -1    0    0    0  501 -0.00000000000E+00 -0.00000000000E+00 -0.57658626808E+02  0.57658626808E+02  0.00000000000E+00 0.  1.
         23    2    1    2    0    0 -0.34417431828E+02  0.61839896391E+01  0.10857500232E+03  0.14906103534E+03  0.95957593697E+02 0.  0.
         13    1    3    3    0    0 -0.26752914431E+02 -0.36164641673E+02  0.17387312288E+02  0.48227775882E+02  0.00000000000E+00 0.  1.
        -13    1    3    3    0    0 -0.76645173963E+01  0.42348631312E+02  0.91187690027E+02  0.10083325946E+03  0.00000000000E+00 0. -1.
         22    1    1    2    0    0  0.34417431828E+02 -0.61839896391E+01 -0.29245214758E+02  0.45586005832E+02  0.00000000000E+00 0.  1.
<mgrwt>
<rscale>  0 0.78124352E+02</rscale>
<asrwt>0</asrwt>
<pdfrwt beam="1">  1        2 0.21075141E-01 0.10213061E+03</pdfrwt>
<pdfrwt beam="2">  1       -2 0.88705580E-02 0.10213061E+03</pdfrwt>
<totfact> 0.18948384E+04</totfact>
</mgrwt>
</event>
<event>
 6    1  0.2975432E-002  0.1021908E+03  0.7546771E-02  0.1346111E+00
          1   -1    0    0  501    0  0.00000000000E+00  0.00000000000E+00  0.16630193656E+04  0.16630193656E+04  0.00000000000E+00 0. -1.
         -1   -1    0    0    0  501 -0.00000000000E+00 -0.00000000000E+00 -0.38683842157E+01  0.38683842157E+01  0.00000000000E+00 0.  1.
         23    2    1    2    0    0 -0.64877448317E+01 -0.27781223479E+02  0.15691358154E+04  0.15724599080E+04  0.98127813263E+02 0.  0.
         11    1    3    3    0    0 -0.19311516673E+02  0.33097815957E+02  0.46702197288E+03  0.46859142464E+03  0.00000000000E+00 0.  1.
        -11    1    3    3    0    0  0.12823771841E+02 -0.60879039437E+02  0.11021138426E+04  0.11038684833E+04  0.00000000000E+00 0. -1.
         22    1    1    2    0    0  0.64877448317E+01  0.27781223479E+02  0.90015165894E+02  0.94427841773E+02  0.00000000000E+00 0.  1.
<mgrwt>
<rscale>  0 0.74281267E+02</rscale>
<asrwt>0</asrwt>
<pdfrwt beam="1">  1        1 0.25584856E+00 0.10219078E+03</pdfrwt>
<pdfrwt beam="2">  1       -1 0.59513736E-03 0.10219078E+03</pdfrwt>
<totfact> 0.21001634E+04</totfact>
</mgrwt>
</event>
<event>
 6    1  0.2975432E-002  0.8689964E+02  0.7546771E-02  0.1420625E+00
          2   -1    0    0  501    0  0.00000000000E+00  0.00000000000E+00  0.31987573339E+03  0.31987573339E+03  0.00000000000E+00 0. -1.
         -2   -1    0    0    0  501 -0.00000000000E+00 -0.00000000000E+00 -0.95315334870E+01  0.95315334870E+01  0.00000000000E+00 0.  1.
         23    2    1    2    0    0 -0.26894397729E+01  0.13567934514E+02  0.29943859996E+03  0.31179323714E+03  0.85791757476E+02 0.  0.
         13    1    3    3    0    0 -0.16852467178E+02 -0.16337428396E+01  0.28716120461E+03  0.28765992456E+03  0.00000000000E+00 0. -1.
        -13    1    3    3    0    0  0.14163027405E+02  0.15201677353E+02  0.12277395345E+02  0.24133312580E+02  0.00000000000E+00 0.  1.
         22    1    1    2    0    0  0.26894397729E+01 -0.13567934514E+02  0.10905599945E+02  0.17614029732E+02  0.00000000000E+00 0.  1.
<mgrwt>
<rscale>  0 0.54888844E+02</rscale>
<asrwt>0</asrwt>
<pdfrwt beam="1">  1        2 0.49211643E-01 0.86899641E+02</pdfrwt>
<pdfrwt beam="2">  1       -2 0.14663900E-02 0.86899641E+02</pdfrwt>
<totfact> 0.10596709E+05</totfact>
</mgrwt>
</event>
<event>
 6    1  0.2975432E-002  0.1047177E+03  0.7546771E-02  0.1333289E+00
          2   -1    0    0  501    0  0.00000000000E+00  0.00000000000E+00  0.66132120106E+03  0.66132120106E+03  0.00000000000E+00 0.  1.
         -2   -1    0    0    0  501 -0.00000000000E+00 -0.00000000000E+00 -0.80831944945E+01  0.80831944945E+01  0.00000000000E+00 0. -1.
         23    2    1    2    0    0 -0.27871520596E+02 -0.17876647678E+02  0.57484627857E+03  0.58430645662E+03  0.99344829115E+02 0.  0.
         11    1    3    3    0    0  0.34583187355E+02  0.21008147605E+01  0.12525453297E+03  0.12995810209E+03  0.00000000000E+00 0. -1.
        -11    1    3    3    0    0 -0.62454707951E+02 -0.19977462438E+02  0.44959174560E+03  0.45434835453E+03  0.00000000000E+00 0.  1.
         22    1    1    2    0    0  0.27871520596E+02  0.17876647678E+02  0.78391728000E+02  0.85097938937E+02  0.00000000000E+00 0. -1.
<mgrwt>
<rscale>  0 0.78525540E+02</rscale>
<asrwt>0</asrwt>
<pdfrwt beam="1">  1        2 0.10174168E+00 0.10471767E+03</pdfrwt>
<pdfrwt beam="2">  1       -2 0.12435689E-02 0.10471767E+03</pdfrwt>
<totfact> 0.62778492E+04</totfact>
</mgrwt>
</event>
<event>
 6    1  0.2975432E-002  0.9230173E+02  0.7546771E-02  0.1421477E+00
          2   -1    0    0  501    0  0.00000000000E+00  0.00000000000E+00  0.25720309393E+04  0.25720309393E+04  0.00000000000E+00 0. -1.
         -2   -1    0    0    0  501 -0.00000000000E+00 -0.00000000000E+00 -0.15257134040E+01  0.15257134040E+01  0.00000000000E+00 0.  1.
         23    2    1    2    0    0 -0.96466660241E+01 -0.60610471076E+01  0.25236089568E+04  0.25252963738E+04  0.91595931237E+02 0.  0.
         13    1    3    3    0    0 -0.97195412989E+01  0.26404640421E+02  0.21742728279E+04  0.21744548753E+04  0.00000000000E+00 0. -1.
        -13    1    3    3    0    0  0.72875274826E-01 -0.32465687529E+02  0.34933612885E+03  0.35084149854E+03  0.00000000000E+00 0.  1.
         22    1    1    2    0    0  0.96466660241E+01  0.60610471076E+01  0.46896269138E+02  0.48260278869E+02  0.00000000000E+00 0.  1.
<mgrwt>
<rscale>  0 0.54709708E+02</rscale>
<asrwt>0</asrwt>
<pdfrwt beam="1">  1        2 0.39569360E+00 0.92301728E+02</pdfrwt>
<pdfrwt beam="2">  1       -2 0.23472720E-03 0.92301728E+02</pdfrwt>
<totfact> 0.58806514E+04</totfact>
</mgrwt>
</event>
<event>
 6    1  0.2975432E-002  0.9517899E+02  0.7546771E-02  0.1358813E+00
         -1   -1    0    0    0  501 -0.00000000000E+00  0.00000000000E+00  0.17647923616E+03  0.17647923616E+03  0.00000000000E+00 0.  1.
          1   -1    0    0  501    0  0.00000000000E+00 -0.00000000000E+00 -0.49153425954E+02  0.49153425954E+02  0.00000000000E+00 0. -1.
         23    2    1    2    0    0 -0.27297426608E+02 -0.80250554978E+01  0.12776382397E-01  0.95178993723E+02  0.90826701293E+02 0.  0.
         11    1    3    3    0    0 -0.23466782962E+02  0.14034121729E+02  0.40527808273E+02  0.48889157476E+02  0.00000000000E+00 0.  1.
        -11    1    3    3    0    0 -0.38306436464E+01 -0.22059177227E+02 -0.40515031891E+02  0.46289836247E+02  0.00000000000E+00 0. -1.
         22    1    1    2    0    0  0.27297426608E+02  0.80250554978E+01  0.12731303382E+03  0.13045366839E+03  0.00000000000E+00 0.  1.
<mgrwt>
<rscale>  0 0.70377909E+02</rscale>
<asrwt>0</asrwt>
<pdfrwt beam="1">  1        1 0.75620656E-02 0.95178993E+02</pdfrwt>
<pdfrwt beam="2">  1       -1 0.27150651E-01 0.95178993E+02</pdfrwt>
<totfact> 0.10335676E+04</totfact>
</mgrwt>
</event>
<event>
 6    1  0.2975432E-002  0.8759577E+02  0.7546771E-02  0.1383335E+00
         -4   -1    0    0    0  501 -0.00000000000E+00  0.00000000000E+00  0.10039497028E+02  0.10039497028E+02  0.00000000000E+00 0.  1.
          4   -1    0    0  501    0  0.00000000000E+00 -0.00000000000E+00 -0.31243715076E+03  0.31243715076E+03  0.00000000000E+00 0. -1.
         23    2    1    2    0    0 -0.20786378232E+02  0.12655921279E+02 -0.23147305613E+03  0.24749302019E+03  0.84147331883E+02 0.  0.
         11    1    3    3    0    0  0.15232492274E+01  0.37958397725E+02 -0.19129916316E+03  0.19503468941E+03  0.00000000000E+00 0. -1.
        -11    1    3    3    0    0 -0.22309627459E+02 -0.25302476447E+02 -0.40173892966E+02  0.52458330775E+02  0.00000000000E+00 0.  1.
         22    1    1    2    0    0  0.20786378232E+02 -0.12655921279E+02 -0.70924597604E+02  0.74983627604E+02  0.00000000000E+00 0.  1.
<mgrwt>
<rscale>  0 0.63595314E+02</rscale>
<asrwt>0</asrwt>
<pdfrwt beam="1">  1        4 0.48067259E-01 0.87595772E+02</pdfrwt>
<pdfrwt beam="2">  1       -4 0.15445379E-02 0.87595772E+02</pdfrwt>
<totfact> 0.91794584E+03</totfact>
</mgrwt>
</event>
<event>
 6    1  0.2975432E-002  0.9283627E+02  0.7546771E-02  0.1384426E+00
          2   -1    0    0  501    0  0.00000000000E+00  0.00000000000E+00  0.10012933054E+03  0.10012933054E+03  0.00000000000E+00 0. -1.
         -2   -1    0    0    0  501 -0.00000000000E+00 -0.00000000000E+00 -0.33578356434E+02  0.33578356434E+02  0.00000000000E+00 0.  1.
         23    2    1    2    0    0  0.19945109576E+02 -0.23620317134E+01  0.65459326647E+02  0.11359355553E+03  0.90637662271E+02 0.  0.
         13    1    3    3    0    0  0.41068428043E+01  0.10761030192E+02  0.84669505416E+02  0.85449348014E+02  0.00000000000E+00 0. -1.
        -13    1    3    3    0    0  0.15838266771E+02 -0.13123061905E+02 -0.19210178769E+02  0.28144207511E+02  0.00000000000E+00 0.  1.
         22    1    1    2    0    0 -0.19945109576E+02  0.23620317134E+01  0.10916474593E+01  0.20114131450E+02  0.00000000000E+00 0. -1.
<mgrwt>
<rscale>  0 0.63314537E+02</rscale>
<asrwt>0</asrwt>
<pdfrwt beam="1">  1        2 0.15404512E-01 0.92836267E+02</pdfrwt>
<pdfrwt beam="2">  1       -2 0.51659010E-02 0.92836267E+02</pdfrwt>
<totfact> 0.60609206E+04</totfact>
</mgrwt>
</event>
<event>
 6    1  0.2975432E-002  0.8842188E+02  0.7546771E-02  0.1431073E+00
         -2   -1    0    0    0  501 -0.00000000000E+00  0.00000000000E+00  0.72117562432E+01  0.72117562432E+01  0.00000000000E+00 0.  1.
          2   -1    0    0  501    0  0.00000000000E+00 -0.00000000000E+00 -0.37731613786E+03  0.37731613786E+03  0.00000000000E+00 0. -1.
         23    2    1    2    0    0  0.99436384790E+01  0.51446522808E+01 -0.35425355985E+03  0.36512191709E+03  0.87710240437E+02 0.  0.
         11    1    3    3    0    0 -0.13491868360E+02  0.42295231464E+02 -0.16929852647E+03  0.17502259335E+03  0.00000000000E+00 0. -1.
        -11    1    3    3    0    0  0.23435506839E+02 -0.37150579183E+02 -0.18495503338E+03  0.19009932374E+03  0.00000000000E+00 0.  1.
         22    1    1    2    0    0 -0.99436384790E+01 -0.51446522808E+01 -0.15850821768E+02  0.19405977018E+02  0.00000000000E+00 0.  1.
<mgrwt>
<rscale>  0 0.52745147E+02</rscale>
<asrwt>0</asrwt>
<pdfrwt beam="1">  1        2 0.58048639E-01 0.88421885E+02</pdfrwt>
<pdfrwt beam="2">  1       -2 0.11095009E-02 0.88421885E+02</pdfrwt>
<totfact> 0.13285726E+05</totfact>
</mgrwt>
</event>
<event>
 6    1  0.2975432E-002  0.9232698E+02  0.7546771E-02  0.1408685E+00
         -2   -1    0    0    0  501 -0.00000000000E+00  0.00000000000E+00  0.81668461364E+01  0.81668461364E+01  0.00000000000E+00 0.  1.
          2   -1    0    0  501    0  0.00000000000E+00 -0.00000000000E+00 -0.66037514280E+03  0.66037514280E+03  0.00000000000E+00 0. -1.
         23    2    1    2    0    0  0.11302426299E+02 -0.80535874438E+01 -0.64725427961E+03  0.65380606698E+03  0.91277958075E+02 0.  0.
         11    1    3    3    0    0  0.29170380041E+02  0.15052726272E+02 -0.57407707312E+03  0.57501476636E+03  0.00000000000E+00 0. -1.
        -11    1    3    3    0    0 -0.17867953742E+02 -0.23106313716E+02 -0.73177206491E+02  0.78791300625E+02  0.00000000000E+00 0.  1.
         22    1    1    2    0    0 -0.11302426299E+02  0.80535874438E+01 -0.49540170492E+01  0.14735921956E+02  0.00000000000E+00 0.  1.
<mgrwt>
<rscale>  0 0.57488363E+02</rscale>
<asrwt>0</asrwt>
<pdfrwt beam="1">  1        2 0.10159621E+00 0.92326977E+02</pdfrwt>
<pdfrwt beam="2">  1       -2 0.12564374E-02 0.92326977E+02</pdfrwt>
<totfact> 0.61016616E+04</totfact>
</mgrwt>
</event>
<event>
 6    1  0.2975432E-002  0.9193931E+02  0.7546771E-02  0.1414485E+00
         -2   -1    0    0    0  501 -0.00000000000E+00  0.00000000000E+00  0.31517028054E+02  0.31517028054E+02  0.00000000000E+00 0.  1.
          2   -1    0    0  501    0  0.00000000000E+00 -0.00000000000E+00 -0.11255707325E+03  0.11255707325E+03  0.00000000000E+00 0. -1.
         23    2    1    2    0    0  0.89322809557E+01  0.92251332908E+01 -0.89809340626E+02  0.12852452673E+03  0.91038165514E+02 0.  0.
         11    1    3    3    0    0  0.20703627098E+02  0.10142456952E+02 -0.10600438228E+03  0.10848243485E+03  0.00000000000E+00 0. -1.
        -11    1    3    3    0    0 -0.11771346142E+02 -0.91732366145E+00  0.16195041656E+02  0.20042091880E+02  0.00000000000E+00 0.  1.
         22    1    1    2    0    0 -0.89322809557E+01 -0.92251332908E+01  0.87692954252E+01  0.15549574578E+02  0.00000000000E+00 0. -1.
<mgrwt>
<rscale>  0 0.56204979E+02</rscale>
<asrwt>0</asrwt>
<pdfrwt beam="1">  1        2 0.17316473E-01 0.91939308E+02</pdfrwt>
<pdfrwt beam="2">  1       -2 0.48487735E-02 0.91939308E+02</pdfrwt>
<totfact> 0.58164293E+04</totfact>
</mgrwt>
</event>
<event>
 6    1  0.2975432E-002  0.9502426E+02  0.7546771E-02  0.1409158E+00
         -2   -1    0    0    0  501 -0.00000000000E+00  0.00000000000E+00  0.23543623910E+03  0.23543623910E+03  0.00000000000E+00 0.  1.
          2   -1    0    0  501    0  0.00000000000E+00 -0.00000000000E+00 -0.12392630966E+02  0.12392630966E+02  0.00000000000E+00 0. -1.
         23    2    1    2    0    0  0.12282739928E+02  0.29663311397E+01  0.20291629788E+03  0.22406390765E+03  0.94180390453E+02 0.  0.
         13    1    3    3    0    0  0.29043141516E+00  0.61548187786E+01 -0.94794277160E+01  0.11306002584E+02  0.00000000000E+00 0. -1.
        -13    1    3    3    0    0  0.11992308513E+02 -0.31884876390E+01  0.21239572560E+03  0.21275790507E+03  0.00000000000E+00 0.  1.
         22    1    1    2    0    0 -0.12282739928E+02 -0.29663311397E+01  0.20127310252E+02  0.23764962414E+02  0.00000000000E+00 0.  1.
<mgrwt>
<rscale>  0 0.57382180E+02</rscale>
<asrwt>0</asrwt>
<pdfrwt beam="1">  1        2 0.19065588E-02 0.95024264E+02</pdfrwt>
<pdfrwt beam="2">  1       -2 0.36220957E-01 0.95024264E+02</pdfrwt>
<totfact> 0.36731466E+04</totfact>
</mgrwt>
</event>
<event>
 6    1  0.2975432E-002  0.9212639E+02  0.7546771E-02  0.1373336E+00
         -2   -1    0    0    0  501 -0.00000000000E+00  0.00000000000E+00  0.24209802709E+02  0.24209802709E+02  0.00000000000E+00 0.  1.
          2   -1    0    0  501    0  0.00000000000E+00 -0.00000000000E+00 -0.15220004330E+03  0.15220004330E+03  0.00000000000E+00 0. -1.
         23    2    1    2    0    0  0.17579859213E+02 -0.17257779674E+02 -0.11829291938E+03  0.14993494378E+03  0.88771561792E+02 0.  0.
         13    1    3    3    0    0  0.17196707834E+01 -0.81262956715E+01 -0.12864232085E+03  0.12891020388E+03  0.00000000000E+00 0. -1.
        -13    1    3    3    0    0  0.15860188430E+02 -0.91314840022E+01  0.10349401478E+02  0.21024739904E+02  0.00000000000E+00 0.  1.
         22    1    1    2    0    0 -0.17579859213E+02  0.17257779674E+02 -0.96973212134E+01  0.26474902227E+02  0.00000000000E+00 0. -1.
<mgrwt>
<rscale>  0 0.66248512E+02</rscale>
<asrwt>0</asrwt>
<pdfrwt beam="1">  1        2 0.23415391E-01 0.92126395E+02</pdfrwt>
<pdfrwt beam="2">  1       -2 0.37245851E-02 0.92126395E+02</pdfrwt>
<totfact> 0.61291778E+04</totfact>
</mgrwt>
</event>
<event>
 6    1  0.2975432E-002  0.1016526E+03  0.7546771E-02  0.1336127E+00
         -1   -1    0    0    0  501 -0.00000000000E+00  0.00000000000E+00  0.91780834208E+01  0.91780834208E+01  0.00000000000E+00 0.  1.
          1   -1    0    0  501    0  0.00000000000E+00 -0.00000000000E+00 -0.71897417697E+03  0.71897417697E+03  0.00000000000E+00 0. -1.
         23    2    1    2    0    0  0.13858714023E+02  0.31536927722E+02 -0.65889585517E+03  0.66669108540E+03  0.95637929839E+02 0.  0.
         13    1    3    3    0    0  0.43271980665E+02  0.15523856540E+02 -0.15475332762E+03  0.16143743940E+03  0.00000000000E+00 0. -1.
        -13    1    3    3    0    0 -0.29413266641E+02  0.16013071181E+02 -0.50414252755E+03  0.50525364599E+03  0.00000000000E+00 0.  1.
         22    1    1    2    0    0 -0.13858714023E+02 -0.31536927722E+02 -0.50900238380E+02  0.61461174994E+02  0.00000000000E+00 0.  1.
<mgrwt>
<rscale>  0 0.77558409E+02</rscale>
<asrwt>0</asrwt>
<pdfrwt beam="1">  1        1 0.11061143E+00 0.10165262E+03</pdfrwt>
<pdfrwt beam="2">  1       -1 0.14120126E-02 0.10165262E+03</pdfrwt>
<totfact> 0.28288898E+04</totfact>
</mgrwt>
</event>
<event>
 6    1  0.2975432E-002  0.1004940E+03  0.7546771E-02  0.1327476E+00
         -2   -1    0    0    0  501 -0.00000000000E+00  0.00000000000E+00  0.37160827445E+02  0.37160827445E+02  0.00000000000E+00 0.  1.
          2   -1    0    0  501    0  0.00000000000E+00 -0.00000000000E+00 -0.19671483688E+03  0.19671483688E+03  0.00000000000E+00 0. -1.
         23    2    1    2    0    0  0.32762925992E+02 -0.25466190533E+02 -0.16379193184E+03  0.19216360172E+03  0.91526590196E+02 0.  0.
         11    1    3    3    0    0  0.54909195092E+02 -0.22904593554E+02 -0.15843177463E+03  0.16923435622E+03  0.00000000000E+00 0. -1.
        -11    1    3    3    0    0 -0.22146269100E+02 -0.25615969795E+01 -0.53601572022E+01  0.22929245504E+02  0.00000000000E+00 0.  1.
         22    1    1    2    0    0 -0.32762925992E+02  0.25466190533E+02  0.42379224051E+01  0.41712062598E+02  0.00000000000E+00 0.  1.
<mgrwt>
<rscale>  0 0.80557759E+02</rscale>
<asrwt>0</asrwt>
<pdfrwt beam="1">  1        2 0.30263821E-01 0.10049404E+03</pdfrwt>
<pdfrwt beam="2">  1       -2 0.57170505E-02 0.10049404E+03</pdfrwt>
<totfact> 0.24854519E+04</totfact>
</mgrwt>
</event>
<event>
 6    1  0.2975432E-002  0.9549746E+02  0.7546771E-02  0.1376860E+00
         -2   -1    0    0    0  501 -0.00000000000E+00  0.00000000000E+00  0.31577937334E+02  0.31577937334E+02  0.00000000000E+00 0.  1.
          2   -1    0    0  501    0  0.00000000000E+00 -0.00000000000E+00 -0.10774235305E+03  0.10774235305E+03  0.00000000000E+00 0. -1.
         23    2    1    2    0    0  0.45523408020E+00 -0.20867876336E+02 -0.66141837742E+02  0.11616586165E+03  0.93188460723E+02 0.  0.
         13    1    3    3    0    0  0.44915390252E+00  0.17011326171E+02 -0.75296975756E+02  0.77195994167E+02  0.00000000000E+00 0. -1.
        -13    1    3    3    0    0  0.60801776774E-02 -0.37879202507E+02  0.91551380141E+01  0.38969867482E+02  0.00000000000E+00 0.  1.
         22    1    1    2    0    0 -0.45523408020E+00  0.20867876336E+02 -0.10022577975E+02  0.23154428736E+02  0.00000000000E+00 0. -1.
<mgrwt>
<rscale>  0 0.65296403E+02</rscale>
<asrwt>0</asrwt>
<pdfrwt beam="1">  1        2 0.16575747E-01 0.95497459E+02</pdfrwt>
<pdfrwt beam="2">  1       -2 0.48581442E-02 0.95497459E+02</pdfrwt>
<totfact> 0.61285169E+04</totfact>
</mgrwt>
</event>
<event>
 6    1  0.2975432E-002  0.9311605E+02  0.7546771E-02  0.1388119E+00
         -3   -1    0    0    0  501 -0.00000000000E+00  0.00000000000E+00  0.19075298927E+02  0.19075298927E+02  0.00000000000E+00 0.  1.
          3   -1    0    0  501    0  0.00000000000E+00 -0.00000000000E+00 -0.16408458621E+03  0.16408458621E+03  0.00000000000E+00 0. -1.
         23    2    1    2    0    0 -0.22188884071E+01  0.18619290366E+02 -0.11923357832E+03  0.15128530887E+03  0.91208536018E+02 0.  0.
         13    1    3    3    0    0 -0.26689203406E+02  0.33002900826E+02 -0.17922405398E+02  0.46072960146E+02  0.00000000000E+00 0.  1.
        -13    1    3    3    0    0  0.24470314998E+02 -0.14383610460E+02 -0.10131117292E+03  0.10521234873E+03  0.00000000000E+00 0. -1.
         22    1    1    2    0    0  0.22188884071E+01 -0.18619290366E+02 -0.25775708968E+02  0.31874576269E+02  0.00000000000E+00 0.  1.
<mgrwt>
<rscale>  0 0.62377036E+02</rscale>
<asrwt>0</asrwt>
<pdfrwt beam="1">  1        3 0.25243783E-01 0.93116048E+02</pdfrwt>
<pdfrwt beam="2">  1       -3 0.29346614E-02 0.93116048E+02</pdfrwt>
<totfact> 0.16054418E+04</totfact>
</mgrwt>
</event>
<event>
 6    1  0.2975432E-002  0.9010114E+02  0.7546771E-02  0.1409213E+00
         -2   -1    0    0    0  501 -0.00000000000E+00  0.00000000000E+00  0.71565194557E+01  0.71565194557E+01  0.00000000000E+00 0.  1.
          2   -1    0    0  501    0  0.00000000000E+00 -0.00000000000E+00 -0.41988535976E+03  0.41988535976E+03  0.00000000000E+00 0. -1.
         23    2    1    2    0    0 -0.31612391408E+01 -0.14468281187E+02 -0.38704630042E+03  0.39739533729E+03  0.88875704415E+02 0.  0.
         13    1    3    3    0    0  0.58728295619E+01 -0.23265220848E+02 -0.38356397168E+03  0.38431377935E+03  0.00000000000E+00 0. -1.
        -13    1    3    3    0    0 -0.90340687027E+01  0.87969396603E+01 -0.34823287470E+01  0.13081557943E+02  0.00000000000E+00 0.  1.
         22    1    1    2    0    0  0.31612391408E+01  0.14468281187E+02 -0.25682539885E+02  0.29646541929E+02  0.00000000000E+00 0.  1.
<mgrwt>
<rscale>  0 0.57369839E+02</rscale>
<asrwt>0</asrwt>
<pdfrwt beam="1">  1        2 0.64597763E-01 0.90101140E+02</pdfrwt>
<pdfrwt beam="2">  1       -2 0.11010027E-02 0.90101140E+02</pdfrwt>
<totfact> 0.12038079E+05</totfact>
</mgrwt>
</event>
<event>
 6    1  0.2975432E-002  0.9428219E+02  0.7546771E-02  0.1381386E+00
         -1   -1    0    0    0  501 -0.00000000000E+00  0.00000000000E+00  0.20245061416E+03  0.20245061416E+03  0.00000000000E+00 0.  1.
          1   -1    0    0  501    0  0.00000000000E+00 -0.00000000000E+00 -0.16666363198E+02  0.16666363198E+02  0.00000000000E+00 0. -1.
         23    2    1    2    0    0 -0.19990910454E+02  0.24877423623E+01  0.16585321539E+03  0.19077846043E+03  0.92104867110E+02 0.  0.
         11    1    3    3    0    0  0.15494610988E+02  0.27993471509E+02  0.18234086012E+02  0.36826611431E+02  0.00000000000E+00 0. -1.
        -11    1    3    3    0    0 -0.35485521443E+02 -0.25505729147E+02  0.14761912938E+03  0.15395184900E+03  0.00000000000E+00 0.  1.
         22    1    1    2    0    0  0.19990910454E+02 -0.24877423623E+01  0.19931035577E+02  0.28338516934E+02  0.00000000000E+00 0. -1.
<mgrwt>
<rscale>  0 0.64100978E+02</rscale>
<asrwt>0</asrwt>
<pdfrwt beam="1">  1        1 0.25640560E-02 0.94282193E+02</pdfrwt>
<pdfrwt beam="2">  1       -1 0.31146247E-01 0.94282193E+02</pdfrwt>
<totfact> 0.35641859E+04</totfact>
</mgrwt>
</event>
<event>
 6    1  0.2975432E-002  0.9549362E+02  0.7546771E-02  0.1411776E+00
         -2   -1    0    0    0  501 -0.00000000000E+00  0.00000000000E+00  0.24682058005E+02  0.24682058005E+02  0.00000000000E+00 0.  1.
          2   -1    0    0  501    0  0.00000000000E+00 -0.00000000000E+00 -0.14221902931E+03  0.14221902931E+03  0.00000000000E+00 0. -1.
         23    2    1    2    0    0  0.67762303054E+01 -0.98459176178E+01 -0.12129247567E+03  0.15437259163E+03  0.94742667272E+02 0.  0.
         11    1    3    3    0    0  0.14684180365E+02  0.28801296044E+02 -0.10801637860E+03  0.11275051154E+03  0.00000000000E+00 0. -1.
        -11    1    3    3    0    0 -0.79079500601E+01 -0.38647213662E+02 -0.13276097078E+02  0.41622080097E+02  0.00000000000E+00 0.  1.
         22    1    1    2    0    0 -0.67762303054E+01  0.98459176178E+01  0.37555043717E+01  0.12528495679E+02  0.00000000000E+00 0.  1.
<mgrwt>
<rscale>  0 0.56799483E+02</rscale>
<asrwt>0</asrwt>
<pdfrwt beam="1">  1        2 0.21879851E-01 0.95493625E+02</pdfrwt>
<pdfrwt beam="2">  1       -2 0.37972397E-02 0.95493625E+02</pdfrwt>
<totfact> 0.64523090E+04</totfact>
</mgrwt>
</event>
<event>
 6    1  0.2975432E-002  0.9485478E+02  0.7546771E-02  0.1404932E+00
         -1   -1    0    0    0  501 -0.00000000000E+00  0.00000000000E+00  0.10996407132E+02  0.10996407132E+02  0.00000000000E+00 0.  1.
          1   -1    0    0  501    0  0.00000000000E+00 -0.00000000000E+00 -0.26773668278E+03  0.26773668278E+03  0.00000000000E+00 0. -1.
         23    2    1    2    0    0 -0.13566161278E+02 -0.45091856860E+00 -0.22064775318E+03  0.24017256298E+03  0.93878564990E+02 0.  0.
         13    1    3    3    0    0  0.14010108971E+02 -0.94614205944E+01 -0.20772790547E+03  0.20841469321E+03  0.00000000000E+00 0. -1.
        -13    1    3    3    0    0 -0.27576270249E+02  0.90105020258E+01 -0.12919847710E+02  0.31757869772E+02  0.00000000000E+00 0.  1.
         22    1    1    2    0    0  0.13566161278E+02  0.45091856860E+00 -0.36092522467E+02  0.38560526934E+02  0.00000000000E+00 0. -1.
<mgrwt>
<rscale>  0 0.58340292E+02</rscale>
<asrwt>0</asrwt>
<pdfrwt beam="1">  1        1 0.41190254E-01 0.94854779E+02</pdfrwt>
<pdfrwt beam="2">  1       -1 0.16917551E-02 0.94854779E+02</pdfrwt>
<totfact> 0.76920805E+04</totfact>
</mgrwt>
</event>
<event>
 6    1  0.2975432E-002  0.9371415E+02  0.7546771E-02  0.1380069E+00
          2   -1    0    0  501    0  0.00000000000E+00  0.00000000000E+00  0.47068620816E+02  0.47068620816E+02  0.00000000000E+00 0. -1.
         -2   -1    0    0    0  501 -0.00000000000E+00 -0.00000000000E+00 -0.10698259079E+03  0.10698259079E+03  0.00000000000E+00 0.  1.
         23    2    1    2    0    0 -0.20780758126E+02  0.27244348060E+01 -0.33996952123E+01  0.93775796178E+02  0.91340459644E+02 0.  0.
         13    1    3    3    0    0 -0.11218109425E+02 -0.43237962042E+02 -0.11522303082E+02  0.46131668179E+02  0.00000000000E+00 0.  1.
        -13    1    3    3    0    0 -0.95626487002E+01  0.45962396848E+02  0.81226078693E+01  0.47644127999E+02  0.00000000000E+00 0. -1.
         22    1    1    2    0    0  0.20780758126E+02 -0.27244348060E+01 -0.56514274757E+02  0.60275415424E+02  0.00000000000E+00 0.  1.
<mgrwt>
<rscale>  0 0.64445766E+02</rscale>
<asrwt>0</asrwt>
<pdfrwt beam="1">  1        2 0.72413263E-02 0.93714151E+02</pdfrwt>
<pdfrwt beam="2">  1       -2 0.16458860E-01 0.93714151E+02</pdfrwt>
<totfact> 0.24961556E+04</totfact>
</mgrwt>
</event>
<event>
 6    1  0.2975432E-002  0.1148695E+03  0.7546771E-02  0.1275452E+00
         -2   -1    0    0    0  501 -0.00000000000E+00  0.00000000000E+00  0.63949063810E+02  0.63949063810E+02  0.00000000000E+00 0.  1.
          2   -1    0    0  501    0  0.00000000000E+00 -0.00000000000E+00 -0.29389149994E+03  0.29389149994E+03  0.00000000000E+00 0. -1.
         23    2    1    2    0    0 -0.24583828676E+02  0.68066820736E+02 -0.25626470925E+03  0.28083200072E+03  0.89205127115E+02 0.  0.
         13    1    3    3    0    0  0.25831965162E+02  0.94909621655E+01 -0.12929060425E+03  0.13218709897E+03  0.00000000000E+00 0. -1.
        -13    1    3    3    0    0 -0.50415793838E+02  0.58575858571E+02 -0.12697410501E+03  0.14864490176E+03  0.00000000000E+00 0.  1.
         22    1    1    2    0    0  0.24583828676E+02 -0.68066820736E+02  0.26322273122E+02  0.77008563029E+02  0.00000000000E+00 0.  1.
<mgrwt>
<rscale>  0 0.10233960E+03</rscale>
<asrwt>0</asrwt>
<pdfrwt beam="1">  1        2 0.45214076E-01 0.11486954E+03</pdfrwt>
<pdfrwt beam="2">  1       -2 0.98383176E-02 0.11486954E+03</pdfrwt>
<totfact> 0.71658060E+03</totfact>
</mgrwt>
</event>
<event>
 6    1  0.2975432E-002  0.9661713E+02  0.7546771E-02  0.1384417E+00
         -2   -1    0    0    0  501 -0.00000000000E+00  0.00000000000E+00  0.18172030650E+02  0.18172030650E+02  0.00000000000E+00 0.  1.
          2   -1    0    0  501    0  0.00000000000E+00 -0.00000000000E+00 -0.32698019770E+03  0.32698019770E+03  0.00000000000E+00 0. -1.
         23    2    1    2    0    0 -0.13925530972E+02 -0.11119637216E+02 -0.31237745157E+03  0.32697789104E+03  0.94959476825E+02 0.  0.
         11    1    3    3    0    0 -0.11481734287E+02 -0.53146440375E+02 -0.16706630162E+03  0.17569155780E+03  0.00000000000E+00 0.  1.
        -11    1    3    3    0    0 -0.24437966853E+01  0.42026803159E+02 -0.14531114995E+03  0.15128633324E+03  0.00000000000E+00 0. -1.
         22    1    1    2    0    0  0.13925530972E+02  0.11119637216E+02  0.35692845147E+01  0.18174337309E+02  0.00000000000E+00 0.  1.
<mgrwt>
<rscale>  0 0.63316946E+02</rscale>
<asrwt>0</asrwt>
<pdfrwt beam="1">  1        2 0.50304645E-01 0.96617126E+02</pdfrwt>
<pdfrwt beam="2">  1       -2 0.27956971E-02 0.96617126E+02</pdfrwt>
<totfact> 0.41558376E+04</totfact>
</mgrwt>
</event>
<event>
 6    1  0.2975432E-002  0.9216716E+02  0.7546771E-02  0.1418080E+00
          1   -1    0    0  501    0  0.00000000000E+00  0.00000000000E+00  0.26386526842E+03  0.26386526842E+03  0.00000000000E+00 0. -1.
         -1   -1    0    0    0  501 -0.00000000000E+00 -0.00000000000E+00 -0.11453054722E+02  0.11453054722E+02  0.00000000000E+00 0.  1.
         23    2    1    2    0    0  0.11549581958E+02 -0.34595218962E+01  0.24339939678E+03  0.26026534988E+03  0.91375187339E+02 0.  0.
         13    1    3    3    0    0  0.33106033888E+02  0.24478050958E+01  0.23345217568E+03  0.23580059279E+03  0.00000000000E+00 0. -1.
        -13    1    3    3    0    0 -0.21556451931E+02 -0.59073269920E+01  0.99472210996E+01  0.24464757093E+02  0.00000000000E+00 0.  1.
         22    1    1    2    0    0 -0.11549581958E+02  0.34595218962E+01  0.90128169153E+01  0.15052973258E+02  0.00000000000E+00 0.  1.
<mgrwt>
<rscale>  0 0.55429148E+02</rscale>
<asrwt>0</asrwt>
<pdfrwt beam="1">  1        1 0.40594652E-01 0.92167163E+02</pdfrwt>
<pdfrwt beam="2">  1       -1 0.17620086E-02 0.92167163E+02</pdfrwt>
<totfact> 0.73590009E+04</totfact>
</mgrwt>
</event>
<event>
 6    1  0.2975432E-002  0.9425927E+02  0.7546771E-02  0.1379915E+00
          2   -1    0    0  501    0  0.00000000000E+00  0.00000000000E+00  0.87236404081E+02  0.87236404081E+02  0.00000000000E+00 0. -1.
         -2   -1    0    0    0  501 -0.00000000000E+00 -0.00000000000E+00 -0.37851856707E+02  0.37851856707E+02  0.00000000000E+00 0.  1.
         23    2    1    2    0    0  0.19537759332E+02  0.66818326546E+01  0.39629821917E+02  0.10225132588E+03  0.91969777272E+02 0.  0.
         13    1    3    3    0    0  0.10498727110E+02 -0.42732968989E+02  0.17433459924E+02  0.47331336707E+02  0.00000000000E+00 0.  1.
        -13    1    3    3    0    0  0.90390322215E+01  0.49414801643E+02  0.22196361993E+02  0.54919989172E+02  0.00000000000E+00 0. -1.
         22    1    1    2    0    0 -0.19537759332E+02 -0.66818326546E+01  0.97547254564E+01  0.22836934909E+02  0.00000000000E+00 0.  1.
<mgrwt>
<rscale>  0 0.64486160E+02</rscale>
<asrwt>0</asrwt>
<pdfrwt beam="1">  1        2 0.13420985E-01 0.94259275E+02</pdfrwt>
<pdfrwt beam="2">  1       -2 0.58233626E-02 0.94259275E+02</pdfrwt>
<totfact> 0.59617245E+04</totfact>
</mgrwt>
</event>
<event>
 6    1  0.2975432E-002  0.9353244E+02  0.7546771E-02  0.1407065E+00
         -1   -1    0    0    0  501 -0.00000000000E+00  0.00000000000E+00  0.98549814839E+02  0.98549814839E+02  0.00000000000E+00 0.  1.
          1   -1    0    0  501    0  0.00000000000E+00 -0.00000000000E+00 -0.30345436527E+02  0.30345436527E+02  0.00000000000E+00 0. -1.
         23    2    1    2    0    0  0.10084641918E+02  0.92601289167E+01  0.49821407775E+02  0.10597400367E+03  0.92524952261E+02 0.  0.
         13    1    3    3    0    0  0.16930903073E+02 -0.17232102908E+02  0.68638500044E+02  0.72765682418E+02  0.00000000000E+00 0.  1.
        -13    1    3    3    0    0 -0.68462611549E+01  0.26492231824E+02 -0.18817092269E+02  0.33208321251E+02  0.00000000000E+00 0. -1.
         22    1    1    2    0    0 -0.10084641918E+02 -0.92601289167E+01  0.18382970538E+02  0.22921247697E+02  0.00000000000E+00 0.  1.
<mgrwt>
<rscale>  0 0.57853863E+02</rscale>
<asrwt>0</asrwt>
<pdfrwt beam="1">  1        1 0.46685287E-02 0.93532437E+02</pdfrwt>
<pdfrwt beam="2">  1       -1 0.15161510E-01 0.93532437E+02</pdfrwt>
<totfact> 0.49907530E+04</totfact>
</mgrwt>
</event>
<event>
 6    1  0.2975432E-002  0.9266196E+02  0.7546771E-02  0.1380229E+00
         -2   -1    0    0    0  501 -0.00000000000E+00  0.00000000000E+00  0.22142473780E+01  0.22142473780E+01  0.00000000000E+00 0. -1.
          2   -1    0    0  501    0  0.00000000000E+00 -0.00000000000E+00 -0.23534506452E+04  0.23534506452E+04  0.00000000000E+00 0.  1.
         23    2    1    2    0    0  0.14133892752E+02 -0.16365492540E+02 -0.22600818337E+04  0.22619805778E+04  0.90103513662E+02 0.  0.
         11    1    3    3    0    0 -0.12105812497E+02 -0.28981331715E+02 -0.29216038138E+03  0.29384376245E+03  0.00000000000E+00 0. -1.
        -11    1    3    3    0    0  0.26239705249E+02  0.12615839176E+02 -0.19679214523E+04  0.19681368154E+04  0.00000000000E+00 0.  1.
         22    1    1    2    0    0 -0.14133892752E+02  0.16365492540E+02 -0.91154564174E+02  0.93684314803E+02  0.00000000000E+00 0. -1.
<mgrwt>
<rscale>  0 0.64403579E+02</rscale>
<asrwt>0</asrwt>
<pdfrwt beam="1">  1        2 0.36207348E+00 0.92661963E+02</pdfrwt>
<pdfrwt beam="2">  1       -2 0.34064954E-03 0.92661963E+02</pdfrwt>
<totfact> 0.45571195E+04</totfact>
</mgrwt>
</event>
<event>
 6    1  0.2975432E-002  0.8819567E+02  0.7546771E-02  0.1404249E+00
         -3   -1    0    0    0  501 -0.00000000000E+00  0.00000000000E+00  0.16307579741E+03  0.16307579741E+03  0.00000000000E+00 0.  1.
          3   -1    0    0  501    0  0.00000000000E+00 -0.00000000000E+00 -0.17321652801E+02  0.17321652801E+02  0.00000000000E+00 0. -1.
         23    2    1    2    0    0  0.13240934103E+00  0.17068013007E+02  0.11184872920E+03  0.14243810624E+03  0.86528268713E+02 0.  0.
         13    1    3    3    0    0 -0.33797813045E+01  0.51208661591E+02  0.49692874301E+02  0.71436207205E+02  0.00000000000E+00 0.  1.
        -13    1    3    3    0    0  0.35121906455E+01 -0.34140648584E+02  0.62155854894E+02  0.71001899035E+02  0.00000000000E+00 0. -1.
         22    1    1    2    0    0 -0.13240934103E+00 -0.17068013007E+02  0.33905415411E+02  0.37959343967E+02  0.00000000000E+00 0.  1.
<mgrwt>
<rscale>  0 0.58497115E+02</rscale>
<asrwt>0</asrwt>
<pdfrwt beam="1">  1        3 0.26648698E-02 0.88195668E+02</pdfrwt>
<pdfrwt beam="2">  1       -3 0.25088583E-01 0.88195668E+02</pdfrwt>
<totfact> 0.18549218E+04</totfact>
</mgrwt>
</event>
<event>
 6    1  0.2975432E-002  0.9386022E+02  0.7546771E-02  0.1422979E+00
         -2   -1    0    0    0  501 -0.00000000000E+00  0.00000000000E+00  0.31282683207E+01  0.31282683207E+01  0.00000000000E+00 0.  1.
          2   -1    0    0  501    0  0.00000000000E+00 -0.00000000000E+00 -0.20263311339E+04  0.20263311339E+04  0.00000000000E+00 0. -1.
         23    2    1    2    0    0  0.33814386371E+01 -0.10033358241E+02 -0.20114576694E+04  0.20136463684E+04  0.93261132235E+02 0.  0.
         11    1    3    3    0    0 -0.33104208035E+02 -0.28321363462E+02 -0.14730437620E+04  0.14736878615E+04  0.00000000000E+00 0. -1.
        -11    1    3    3    0    0  0.36485646673E+02  0.18288005220E+02 -0.53841390738E+03  0.53995850693E+03  0.00000000000E+00 0.  1.
         22    1    1    2    0    0 -0.33814386371E+01  0.10033358241E+02 -0.11745196128E+02  0.15813033768E+02  0.00000000000E+00 0.  1.
<mgrwt>
<rscale>  0 0.54395509E+02</rscale>
<asrwt>0</asrwt>
<pdfrwt beam="1">  1        2 0.31174299E+00 0.93860222E+02</pdfrwt>
<pdfrwt beam="2">  1       -2 0.48127245E-03 0.93860222E+02</pdfrwt>
<totfact> 0.41291097E+04</totfact>
</mgrwt>
</event>
<event>
 6    1  0.2975432E-002  0.9235568E+02  0.7546771E-02  0.1402108E+00
          2   -1    0    0  501    0  0.00000000000E+00  0.00000000000E+00  0.56484561132E+02  0.56484561132E+02  0.00000000000E+00 0.  1.
         -2   -1    0    0    0  501 -0.00000000000E+00 -0.00000000000E+00 -0.89033247276E+02  0.89033247276E+02  0.00000000000E+00 0. -1.
         23    2    1    2    0    0 -0.99722745536E+01  0.11701863299E+02  0.16763238489E+02  0.93864679020E+02  0.91066964034E+02 0.  0.
         11    1    3    3    0    0  0.89117473665E+01  0.17176296772E+02 -0.34169730515E+02  0.39268497493E+02  0.00000000000E+00 0. -1.
        -11    1    3    3    0    0 -0.18884021920E+02 -0.54744334725E+01  0.50932969004E+02  0.54596181527E+02  0.00000000000E+00 0.  1.
         22    1    1    2    0    0  0.99722745536E+01 -0.11701863299E+02 -0.49311924634E+02  0.51653129388E+02  0.00000000000E+00 0.  1.
<mgrwt>
<rscale>  0 0.58992802E+02</rscale>
<asrwt>0</asrwt>
<pdfrwt beam="1">  1        2 0.86899325E-02 0.92355681E+02</pdfrwt>
<pdfrwt beam="2">  1       -2 0.13697423E-01 0.92355681E+02</pdfrwt>
<totfact> 0.26748316E+04</totfact>
</mgrwt>
</event>
<event>
 6    1  0.2975432E-002  0.9800367E+02  0.7546771E-02  0.1342651E+00
          2   -1    0    0  501    0  0.00000000000E+00  0.00000000000E+00  0.68612056912E+02  0.68612056912E+02  0.00000000000E+00 0. -1.
         -2   -1    0    0    0  501 -0.00000000000E+00 -0.00000000000E+00 -0.75174048139E+02  0.75174048139E+02  0.00000000000E+00 0.  1.
         23    2    1    2    0    0 -0.34085175377E+02  0.40760330104E+01  0.20438086120E+02  0.10011211505E+03  0.91794918109E+02 0.  0.
         13    1    3    3    0    0 -0.28803769092E+02 -0.13667525493E+02  0.53465725788E+02  0.62249836956E+02  0.00000000000E+00 0. -1.
        -13    1    3    3    0    0 -0.52814062854E+01  0.17743558503E+02 -0.33027639668E+02  0.37862278098E+02  0.00000000000E+00 0.  1.
         22    1    1    2    0    0  0.34085175377E+02 -0.40760330104E+01 -0.27000077347E+02  0.43673989998E+02  0.00000000000E+00 0.  1.
<mgrwt>
<rscale>  0 0.75395247E+02</rscale>
<asrwt>0</asrwt>
<pdfrwt beam="1">  1        2 0.10555701E-01 0.98003675E+02</pdfrwt>
<pdfrwt beam="2">  1       -2 0.11565238E-01 0.98003675E+02</pdfrwt>
<totfact> 0.27814319E+04</totfact>
</mgrwt>
</event>
<event>
 6    1  0.2975432E-002  0.9391822E+02  0.7546771E-02  0.1397117E+00
         -2   -1    0    0    0  501 -0.00000000000E+00  0.00000000000E+00  0.74837503650E+01  0.74837503650E+01  0.00000000000E+00 0.  1.
          2   -1    0    0  501    0  0.00000000000E+00 -0.00000000000E+00 -0.40243422460E+03  0.40243422460E+03  0.00000000000E+00 0. -1.
         23    2    1    2    0    0  0.64991465709E+01 -0.14426747170E+02 -0.33543163158E+03  0.34833175434E+03  0.92575707809E+02 0.  0.
         13    1    3    3    0    0  0.39091811178E+02 -0.12931407803E+02 -0.72442809610E+02  0.83326776447E+02  0.00000000000E+00 0. -1.
        -13    1    3    3    0    0 -0.32592664607E+02 -0.14953393668E+01 -0.26298882197E+03  0.26500497789E+03  0.00000000000E+00 0.  1.
         22    1    1    2    0    0 -0.64991465709E+01  0.14426747170E+02 -0.59518842656E+02  0.61586220627E+02  0.00000000000E+00 0.  1.
<mgrwt>
<rscale>  0 0.60170713E+02</rscale>
<asrwt>0</asrwt>
<pdfrwt beam="1">  1        2 0.61912953E-01 0.93918218E+02</pdfrwt>
<pdfrwt beam="2">  1       -2 0.11513463E-02 0.93918218E+02</pdfrwt>
<totfact> 0.11890017E+05</totfact>
</mgrwt>
</event>
<event>
 6    1  0.2975432E-002  0.9309574E+02  0.7546771E-02  0.1421704E+00
          4   -1    0    0  501    0  0.00000000000E+00  0.00000000000E+00  0.31222441917E+02  0.31222441917E+02  0.00000000000E+00 0. -1.
         -4   -1    0    0    0  501 -0.00000000000E+00 -0.00000000000E+00 -0.10661140507E+03  0.10661140507E+03  0.00000000000E+00 0.  1.
         23    2    1    2    0    0 -0.38649290909E+01 -0.10368036782E+02 -0.41028498388E+02  0.10173571127E+03  0.92435833980E+02 0.  0.
         13    1    3    3    0    0 -0.14109486958E+02 -0.25001408308E+02  0.22035959040E+02  0.36190213185E+02  0.00000000000E+00 0. -1.
        -13    1    3    3    0    0  0.10244557867E+02  0.14633371526E+02 -0.63064457429E+02  0.65545498082E+02  0.00000000000E+00 0.  1.
         22    1    1    2    0    0  0.38649290909E+01  0.10368036782E+02 -0.34360464766E+02  0.36098135721E+02  0.00000000000E+00 0.  1.
<mgrwt>
<rscale>  0 0.54661942E+02</rscale>
<asrwt>0</asrwt>
<pdfrwt beam="1">  1        4 0.48034526E-02 0.93095742E+02</pdfrwt>
<pdfrwt beam="2">  1       -4 0.16401755E-01 0.93095742E+02</pdfrwt>
<totfact> 0.11970501E+04</totfact>
</mgrwt>
</event>
<event>
 6    1  0.2975432E-002  0.9234649E+02  0.7546771E-02  0.1400260E+00
         -2   -1    0    0    0  501 -0.00000000000E+00  0.00000000000E+00  0.15216734174E+03  0.15216734174E+03  0.00000000000E+00 0.  1.
          2   -1    0    0  501    0  0.00000000000E+00 -0.00000000000E+00 -0.27821457823E+02  0.27821457823E+02  0.00000000000E+00 0. -1.
         23    2    1    2    0    0  0.16024645191E+01 -0.15753673009E+02  0.52103578143E+02  0.10603140068E+03  0.90978728115E+02 0.  0.
         13    1    3    3    0    0  0.10834107497E+02 -0.43855342032E+02  0.60293766821E+02  0.75339280773E+02  0.00000000000E+00 0. -1.
        -13    1    3    3    0    0 -0.92316429775E+01  0.28101669023E+02 -0.81901886778E+01  0.30692119909E+02  0.00000000000E+00 0.  1.
         22    1    1    2    0    0 -0.16024645191E+01  0.15753673009E+02  0.72242305770E+02  0.73957398878E+02  0.00000000000E+00 0.  1.
<mgrwt>
<rscale>  0 0.59425054E+02</rscale>
<asrwt>0</asrwt>
<pdfrwt beam="1">  1        2 0.42802244E-02 0.92346495E+02</pdfrwt>
<pdfrwt beam="2">  1       -2 0.23410360E-01 0.92346495E+02</pdfrwt>
<totfact> 0.27078853E+04</totfact>
</mgrwt>
</event>
<event>
 6    1  0.2975432E-002  0.1248251E+03  0.7546771E-02  0.1253978E+00
         -2   -1    0    0    0  501 -0.00000000000E+00  0.00000000000E+00  0.20608083899E+03  0.20608083899E+03  0.00000000000E+00 0.  1.
          2   -1    0    0  501    0  0.00000000000E+00 -0.00000000000E+00 -0.67491837123E+02  0.67491837123E+02  0.00000000000E+00 0. -1.
         23    2    1    2    0    0  0.66692112261E+02  0.53883617144E+02  0.18757537351E+02  0.12622661433E+03  0.90719517878E+02 0.  0.
         13    1    3    3    0    0  0.70716777498E+02  0.72306962653E+02  0.28393835557E+02  0.10504936633E+03  0.00000000000E+00 0. -1.
        -13    1    3    3    0    0 -0.40246652371E+01 -0.18423345509E+02 -0.96362982055E+01  0.21177248006E+02  0.00000000000E+00 0.  1.
         22    1    1    2    0    0 -0.66692112261E+02 -0.53883617144E+02  0.11983146452E+03  0.14734606178E+03  0.00000000000E+00 0.  1.
<mgrwt>
<rscale>  0 0.11363756E+03</rscale>
<asrwt>0</asrwt>
<pdfrwt beam="1">  1        2 0.10383360E-01 0.12482513E+03</pdfrwt>
<pdfrwt beam="2">  1       -2 0.31704744E-01 0.12482513E+03</pdfrwt>
<totfact> 0.53310388E+03</totfact>
</mgrwt>
</event>
<event>
 6    1  0.2975432E-002  0.9557276E+02  0.7546771E-02  0.1375585E+00
         -2   -1    0    0    0  501 -0.00000000000E+00  0.00000000000E+00  0.13702167582E+03  0.13702167582E+03  0.00000000000E+00 0.  1.
          2   -1    0    0  501    0  0.00000000000E+00 -0.00000000000E+00 -0.38242422912E+02  0.38242422912E+02  0.00000000000E+00 0. -1.
         23    2    1    2    0    0  0.19982102565E+02  0.72698488474E+01  0.25434516611E+02  0.98899280474E+02  0.93177346591E+02 0.  0.
         13    1    3    3    0    0  0.11063594600E+02  0.23745702671E+02  0.56694992245E+02  0.62454652881E+02  0.00000000000E+00 0.  1.
        -13    1    3    3    0    0  0.89185079650E+01 -0.16475853824E+02 -0.31260475634E+02  0.36444627593E+02  0.00000000000E+00 0. -1.
         22    1    1    2    0    0 -0.19982102565E+02 -0.72698488474E+01  0.73344736298E+02  0.76364818259E+02  0.00000000000E+00 0.  1.
<mgrwt>
<rscale>  0 0.65638574E+02</rscale>
<asrwt>0</asrwt>
<pdfrwt beam="1">  1        2 0.58834498E-02 0.95572763E+02</pdfrwt>
<pdfrwt beam="2">  1       -2 0.21080258E-01 0.95572763E+02</pdfrwt>
<totfact> 0.21561557E+04</totfact>
</mgrwt>
</event>
<event>
 6    1  0.2975432E-002  0.1002588E+03  0.7546771E-02  0.1326476E+00
          2   -1    0    0  501    0  0.00000000000E+00  0.00000000000E+00  0.16026330041E+02  0.16026330041E+02  0.00000000000E+00 0. -1.
         -2   -1    0    0    0  501 -0.00000000000E+00 -0.00000000000E+00 -0.34011857776E+03  0.34011857776E+03  0.00000000000E+00 0.  1.
         23    2    1    2    0    0 -0.32585479884E+02  0.27337008850E+02 -0.18157269298E+03  0.20741377778E+03  0.90789354155E+02 0.  0.
         11    1    3    3    0    0 -0.88035956940E+01 -0.95340843128E+01 -0.15618392265E+03  0.15672210997E+03  0.00000000000E+00 0.  1.
        -11    1    3    3    0    0 -0.23781884190E+02  0.36871093163E+02 -0.25388770329E+02  0.50691667811E+02  0.00000000000E+00 0. -1.
         22    1    1    2    0    0  0.32585479884E+02 -0.27337008850E+02 -0.14251955475E+03  0.14873113002E+03  0.00000000000E+00 0.  1.
<mgrwt>
<rscale>  0 0.80914351E+02</rscale>
<asrwt>0</asrwt>
<pdfrwt beam="1">  1        2 0.24655894E-02 0.10025883E+03</pdfrwt>
<pdfrwt beam="2">  1       -2 0.52325931E-01 0.10025883E+03</pdfrwt>
<totfact> 0.12946375E+04</totfact>
</mgrwt>
</event>
<event>
 6    1  0.2975432E-002  0.9189109E+02  0.7546771E-02  0.1392821E+00
         -2   -1    0    0    0  501 -0.00000000000E+00  0.00000000000E+00  0.21889529122E+02  0.21889529122E+02  0.00000000000E+00 0.  1.
          2   -1    0    0  501    0  0.00000000000E+00 -0.00000000000E+00 -0.34321019178E+03  0.34321019178E+03  0.00000000000E+00 0. -1.
         23    2    1    2    0    0  0.83683557819E+01  0.16040149234E+02 -0.33173344482E+03  0.34422529160E+03  0.90092492464E+02 0.  0.
         13    1    3    3    0    0  0.22407842092E+01  0.47745534710E+02 -0.27343088797E+03  0.27757721033E+03  0.00000000000E+00 0. -1.
        -13    1    3    3    0    0  0.61275715727E+01 -0.31705385476E+02 -0.58302556851E+02  0.66648081269E+02  0.00000000000E+00 0.  1.
         22    1    1    2    0    0 -0.83683557819E+01 -0.16040149234E+02  0.10412782169E+02  0.20874429296E+02  0.00000000000E+00 0.  1.
<mgrwt>
<rscale>  0 0.61210500E+02</rscale>
<asrwt>0</asrwt>
<pdfrwt beam="1">  1        2 0.52801565E-01 0.91891093E+02</pdfrwt>
<pdfrwt beam="2">  1       -2 0.33676200E-02 0.91891093E+02</pdfrwt>
<totfact> 0.29944817E+04</totfact>
</mgrwt>
</event>
<event>
 6    1  0.2975432E-002  0.9259414E+02  0.7546771E-02  0.1402936E+00
         -2   -1    0    0    0  501 -0.00000000000E+00  0.00000000000E+00  0.13438889158E+02  0.13438889158E+02  0.00000000000E+00 0.  1.
          2   -1    0    0  501    0  0.00000000000E+00 -0.00000000000E+00 -0.30697398643E+03  0.30697398643E+03  0.00000000000E+00 0. -1.
         23    2    1    2    0    0  0.48219614671E+01 -0.14265240610E+02 -0.29069963662E+03  0.30509007431E+03  0.91361514363E+02 0.  0.
         13    1    3    3    0    0  0.42813155819E+02  0.14177815739E+02 -0.14588224182E+03  0.15269448337E+03  0.00000000000E+00 0. -1.
        -13    1    3    3    0    0 -0.37991194352E+02 -0.28443056349E+02 -0.14481739480E+03  0.15239559094E+03  0.00000000000E+00 0.  1.
         22    1    1    2    0    0 -0.48219614671E+01  0.14265240610E+02 -0.28354606522E+01  0.15322801283E+02  0.00000000000E+00 0. -1.
<mgrwt>
<rscale>  0 0.58800451E+02</rscale>
<asrwt>0</asrwt>
<pdfrwt beam="1">  1        2 0.47226766E-01 0.92594140E+02</pdfrwt>
<pdfrwt beam="2">  1       -2 0.20675215E-02 0.92594140E+02</pdfrwt>
<totfact> 0.68293319E+04</totfact>
</mgrwt>
</event>
<event>
 6    1  0.2975432E-002  0.9368270E+02  0.7546771E-02  0.1381774E+00
         -2   -1    0    0    0  501 -0.00000000000E+00  0.00000000000E+00  0.26333191158E+02  0.26333191158E+02  0.00000000000E+00 0.  1.
          2   -1    0    0  501    0  0.00000000000E+00 -0.00000000000E+00 -0.29000406334E+03  0.29000406334E+03  0.00000000000E+00 0. -1.
         23    2    1    2    0    0  0.78241779295E+01 -0.18845121855E+02 -0.27669897436E+03  0.29212800370E+03  0.91433537378E+02 0.  0.
         13    1    3    3    0    0  0.34425448267E+02  0.93434872077E+01 -0.46072547292E+02  0.58267416757E+02  0.00000000000E+00 0.  1.
        -13    1    3    3    0    0 -0.26601270337E+02 -0.28188609063E+02 -0.23062642707E+03  0.23386058694E+03  0.00000000000E+00 0. -1.
         22    1    1    2    0    0 -0.78241779295E+01  0.18845121855E+02  0.13028102174E+02  0.24209250800E+02  0.00000000000E+00 0.  1.
<mgrwt>
<rscale>  0 0.63999665E+02</rscale>
<asrwt>0</asrwt>
<pdfrwt beam="1">  1        2 0.44616009E-01 0.93682699E+02</pdfrwt>
<pdfrwt beam="2">  1       -2 0.40512602E-02 0.93682699E+02</pdfrwt>
<totfact> 0.27295017E+04</totfact>
</mgrwt>
</event>
<event>
 6    1  0.2975432E-002  0.9758844E+02  0.7546771E-02  0.1369529E+00
          2   -1    0    0  501    0  0.00000000000E+00  0.00000000000E+00  0.23732694969E+03  0.23732694969E+03  0.00000000000E+00 0. -1.
         -2   -1    0    0    0  501 -0.00000000000E+00 -0.00000000000E+00 -0.19804194675E+02  0.19804194675E+02  0.00000000000E+00 0.  1.
         23    2    1    2    0    0  0.17474764682E+02 -0.13481725134E+02  0.21343206647E+03  0.23468436183E+03  0.95059867325E+02 0.  0.
         11    1    3    3    0    0  0.28018916153E+02  0.30955088265E+02  0.15498080804E+03  0.16050647343E+03  0.00000000000E+00 0. -1.
        -11    1    3    3    0    0 -0.10544151471E+02 -0.44436813399E+02  0.58451258429E+02  0.74177888398E+02  0.00000000000E+00 0.  1.
         22    1    1    2    0    0 -0.17474764682E+02  0.13481725134E+02  0.40906885388E+01  0.22446782531E+02  0.00000000000E+00 0.  1.
<mgrwt>
<rscale>  0 0.67298245E+02</rscale>
<asrwt>0</asrwt>
<pdfrwt beam="1">  1        2 0.36511837E-01 0.97588435E+02</pdfrwt>
<pdfrwt beam="2">  1       -2 0.30467993E-02 0.97588435E+02</pdfrwt>
<totfact> 0.51396727E+04</totfact>
</mgrwt>
</event>
<event>
 6    1  0.2975432E-002  0.9490025E+02  0.7546771E-02  0.1385943E+00
          4   -1    0    0  501    0  0.00000000000E+00  0.00000000000E+00  0.19582333012E+03  0.19582333012E+03  0.00000000000E+00 0. -1.
         -4   -1    0    0    0  501 -0.00000000000E+00 -0.00000000000E+00 -0.42666315600E+02  0.42666315600E+02  0.00000000000E+00 0.  1.
         23    2    1    2    0    0  0.13100570253E+02  0.12843659286E+02  0.18145029651E+03  0.20476881639E+03  0.93110007727E+02 0.  0.
         11    1    3    3    0    0  0.48543189252E+02 -0.76488841948E+01  0.66081407600E+02  0.82351072140E+02  0.00000000000E+00 0. -1.
        -11    1    3    3    0    0 -0.35442619000E+02  0.20492543481E+02  0.11536888891E+03  0.12241774425E+03  0.00000000000E+00 0.  1.
         22    1    1    2    0    0 -0.13100570253E+02 -0.12843659286E+02 -0.28293281989E+02  0.33720829327E+02  0.00000000000E+00 0.  1.
<mgrwt>
<rscale>  0 0.62927039E+02</rscale>
<asrwt>0</asrwt>
<pdfrwt beam="1">  1        4 0.30126666E-01 0.94900253E+02</pdfrwt>
<pdfrwt beam="2">  1       -4 0.65640487E-02 0.94900253E+02</pdfrwt>
<totfact> 0.24282064E+03</totfact>
</mgrwt>
</event>
<event>
 6    1  0.2975432E-002  0.9775375E+02  0.7546771E-02  0.1362517E+00
          2   -1    0    0  501    0  0.00000000000E+00  0.00000000000E+00  0.79681736723E+03  0.79681736723E+03  0.00000000000E+00 0. -1.
         -2   -1    0    0    0  501 -0.00000000000E+00 -0.00000000000E+00 -0.52540708035E+01  0.52540708035E+01  0.00000000000E+00 0.  1.
         23    2    1    2    0    0 -0.24660323260E+02 -0.96747500157E+00  0.71441641840E+03  0.72107323842E+03  0.94587148901E+02 0.  0.
         11    1    3    3    0    0  0.35167441595E+02 -0.11512204025E+02  0.27007263792E+03  0.27259587221E+03  0.00000000000E+00 0.  1.
        -11    1    3    3    0    0 -0.59827764855E+02  0.10544729024E+02  0.44434378048E+03  0.44847736622E+03  0.00000000000E+00 0. -1.
         22    1    1    2    0    0  0.24660323260E+02  0.96747500157E+00  0.77146878027E+02  0.80998199613E+02  0.00000000000E+00 0.  1.
<mgrwt>
<rscale>  0 0.69292027E+02</rscale>
<asrwt>0</asrwt>
<pdfrwt beam="1">  1        2 0.12258719E+00 0.97753753E+02</pdfrwt>
<pdfrwt beam="2">  1       -2 0.80831922E-03 0.97753753E+02</pdfrwt>
<totfact> 0.91960287E+04</totfact>
</mgrwt>
</event>
<event>
 6    1  0.2975432E-002  0.9063242E+02  0.7546771E-02  0.1424818E+00
         -2   -1    0    0    0  501 -0.00000000000E+00  0.00000000000E+00  0.73838835438E+02  0.73838835438E+02  0.00000000000E+00 0.  1.
          2   -1    0    0  501    0  0.00000000000E+00 -0.00000000000E+00 -0.14529701438E+03  0.14529701438E+03  0.00000000000E+00 0. -1.
         23    2    1    2    0    0 -0.10232056386E+02 -0.51026268378E+01 -0.13056209664E+03  0.15893614164E+03  0.89908310317E+02 0.  0.
         11    1    3    3    0    0 -0.62345979008E+01 -0.38078940993E+02 -0.11675026497E+03  0.12296137738E+03  0.00000000000E+00 0. -1.
        -11    1    3    3    0    0 -0.39974584853E+01  0.32976314155E+02 -0.13811831671E+02  0.35974764262E+02  0.00000000000E+00 0.  1.
         22    1    1    2    0    0  0.10232056386E+02  0.51026268378E+01  0.59103917690E+02  0.60199708179E+02  0.00000000000E+00 0.  1.
<mgrwt>
<rscale>  0 0.54014497E+02</rscale>
<asrwt>0</asrwt>
<pdfrwt beam="1">  1        2 0.22353386E-01 0.90632423E+02</pdfrwt>
<pdfrwt beam="2">  1       -2 0.11359821E-01 0.90632423E+02</pdfrwt>
<totfact> 0.11930445E+04</totfact>
</mgrwt>
</event>
<event>
 6    1  0.2975432E-002  0.9553878E+02  0.7546771E-02  0.1369314E+00
          2   -1    0    0  501    0  0.00000000000E+00  0.00000000000E+00  0.24953527050E+02  0.24953527050E+02  0.00000000000E+00 0. -1.
         -2   -1    0    0    0  501 -0.00000000000E+00 -0.00000000000E+00 -0.14906658578E+03  0.14906658578E+03  0.00000000000E+00 0.  1.
         23    2    1    2    0    0 -0.21412946112E+02  0.99366273410E+01 -0.82741322599E+02  0.12638744154E+03  0.92576498575E+02 0.  0.
         13    1    3    3    0    0 -0.32134749547E+02  0.31040957930E+02 -0.48059538414E+01  0.44936403839E+02  0.00000000000E+00 0. -1.
        -13    1    3    3    0    0  0.10721803435E+02 -0.21104330589E+02 -0.77935368758E+02  0.81451037697E+02  0.00000000000E+00 0.  1.
         22    1    1    2    0    0  0.21412946112E+02 -0.99366273410E+01 -0.41371736129E+02  0.47632671292E+02  0.00000000000E+00 0.  1.
<mgrwt>
<rscale>  0 0.67358300E+02</rscale>
<asrwt>0</asrwt>
<pdfrwt beam="1">  1        2 0.38390041E-02 0.95538782E+02</pdfrwt>
<pdfrwt beam="2">  1       -2 0.22933321E-01 0.95538782E+02</pdfrwt>
<totfact> 0.32484757E+04</totfact>
</mgrwt>
</event>
<event>
 6    1  0.2975432E-002  0.9320808E+02  0.7546771E-02  0.1389610E+00
          2   -1    0    0  501    0  0.00000000000E+00  0.00000000000E+00  0.58936151843E+03  0.58936151843E+03  0.00000000000E+00 0. -1.
         -2   -1    0    0    0  501 -0.00000000000E+00 -0.00000000000E+00 -0.60805846015E+01  0.60805846015E+01  0.00000000000E+00 0.  1.
         23    2    1    2    0    0  0.14406241337E+02 -0.11207247296E+02  0.54638710553E+03  0.55428026697E+03  0.91403517883E+02 0.  0.
         11    1    3    3    0    0 -0.27725772087E+02 -0.25789093028E+02  0.38469574867E+03  0.38655480181E+03  0.00000000000E+00 0. -1.
        -11    1    3    3    0    0  0.42132013424E+02  0.14581845732E+02  0.16169135686E+03  0.16772546516E+03  0.00000000000E+00 0.  1.
         22    1    1    2    0    0 -0.14406241337E+02  0.11207247296E+02  0.36893828295E+02  0.41161836058E+02  0.00000000000E+00 0.  1.
<mgrwt>
<rscale>  0 0.62003879E+02</rscale>
<asrwt>0</asrwt>
<pdfrwt beam="1">  1        2 0.90670957E-01 0.93208075E+02</pdfrwt>
<pdfrwt beam="2">  1       -2 0.93547503E-03 0.93208075E+02</pdfrwt>
<totfact> 0.10557880E+05</totfact>
</mgrwt>
</event>
<event>
 6    1  0.2975432E-002  0.9830452E+02  0.7546771E-02  0.1345335E+00
         -2   -1    0    0    0  501 -0.00000000000E+00  0.00000000000E+00  0.75923282739E+02  0.75923282739E+02  0.00000000000E+00 0. -1.
          2   -1    0    0  501    0  0.00000000000E+00 -0.00000000000E+00 -0.66600231644E+02  0.66600231644E+02  0.00000000000E+00 0.  1.
         23    2    1    2    0    0 -0.30520663676E+02  0.11104035351E+02 -0.18172197611E+02  0.99970027878E+02  0.92784520237E+02 0.  0.
         13    1    3    3    0    0 -0.31033828237E+02 -0.18911433263E+02  0.27319987347E+02  0.45465619008E+02  0.00000000000E+00 0. -1.
        -13    1    3    3    0    0  0.51316456087E+00  0.30015468614E+02 -0.45492184958E+02  0.54504408870E+02  0.00000000000E+00 0.  1.
         22    1    1    2    0    0  0.30520663676E+02 -0.11104035351E+02  0.27495248706E+02  0.42553486504E+02  0.00000000000E+00 0.  1.
<mgrwt>
<rscale>  0 0.74529277E+02</rscale>
<asrwt>0</asrwt>
<pdfrwt beam="1">  1        2 0.10246189E-01 0.98304515E+02</pdfrwt>
<pdfrwt beam="2">  1       -2 0.11680505E-01 0.98304515E+02</pdfrwt>
<totfact> 0.28396344E+04</totfact>
</mgrwt>
</event>
<event>
 6    1  0.2975432E-002  0.9862259E+02  0.7546771E-02  0.1363594E+00
          2   -1    0    0  501    0  0.00000000000E+00  0.00000000000E+00  0.98605152485E+03  0.98605152485E+03  0.00000000000E+00 0. -1.
         -2   -1    0    0    0  501 -0.00000000000E+00 -0.00000000000E+00 -0.42296988568E+01  0.42296988568E+01  0.00000000000E+00 0.  1.
         23    2    1    2    0    0 -0.23431183566E+01 -0.23487016227E+02  0.89103146788E+03  0.89647280585E+03  0.95756382228E+02 0.  0.
         13    1    3    3    0    0  0.12063114780E+02 -0.55786888847E+02  0.38510133609E+03  0.38930802042E+03  0.00000000000E+00 0.  1.
        -13    1    3    3    0    0 -0.14406233136E+02  0.32299872620E+02  0.50593013180E+03  0.50716478544E+03  0.00000000000E+00 0. -1.
         22    1    1    2    0    0  0.23431183566E+01  0.23487016227E+02  0.90790358110E+02  0.93808417855E+02  0.00000000000E+00 0. -1.
<mgrwt>
<rscale>  0 0.68980586E+02</rscale>
<asrwt>0</asrwt>
<pdfrwt beam="1">  1        2 0.15170005E+00 0.98622588E+02</pdfrwt>
<pdfrwt beam="2">  1       -2 0.65072369E-03 0.98622588E+02</pdfrwt>
<totfact> 0.95170360E+04</totfact>
</mgrwt>
</event>
<event>
 6    1  0.2975432E-002  0.9663337E+02  0.7546771E-02  0.1408680E+00
         -2   -1    0    0    0  501 -0.00000000000E+00  0.00000000000E+00  0.87155175542E+01  0.87155175542E+01  0.00000000000E+00 0.  1.
          2   -1    0    0  501    0  0.00000000000E+00 -0.00000000000E+00 -0.15282587867E+04  0.15282587867E+04  0.00000000000E+00 0. -1.
         23    2    1    2    0    0  0.10320767590E+02 -0.63257208553E+01 -0.15216260131E+04  0.15246913563E+04  0.95872182234E+02 0.  0.
         11    1    3    3    0    0  0.40421082462E+02 -0.21506768994E+02 -0.12690211452E+04  0.12698468695E+04  0.00000000000E+00 0. -1.
        -11    1    3    3    0    0 -0.30100314872E+02  0.15181048139E+02 -0.25260486790E+03  0.25484448682E+03  0.00000000000E+00 0.  1.
         22    1    1    2    0    0 -0.10320767590E+02  0.63257208553E+01  0.20827439342E+01  0.12282947948E+02  0.00000000000E+00 0.  1.
<mgrwt>
<rscale>  0 0.57489333E+02</rscale>
<asrwt>0</asrwt>
<pdfrwt beam="1">  1        2 0.23511667E+00 0.96633371E+02</pdfrwt>
<pdfrwt beam="2">  1       -2 0.13408493E-02 0.96633371E+02</pdfrwt>
<totfact> 0.17347868E+04</totfact>
</mgrwt>
</event>
<event>
 6    1  0.2975432E-002  0.9189514E+02  0.7546771E-02  0.1420163E+00
         -2   -1    0    0    0  501 -0.00000000000E+00  0.00000000000E+00  0.12028167616E+02  0.12028167616E+02  0.00000000000E+00 0.  1.
          2   -1    0    0  501    0  0.00000000000E+00 -0.00000000000E+00 -0.28194786707E+03  0.28194786707E+03  0.00000000000E+00 0. -1.
         23    2    1    2    0    0  0.42341202121E-01 -0.11779930734E+02 -0.26621154625E+03  0.28162617796E+03  0.91136974905E+02 0.  0.
         11    1    3    3    0    0 -0.28291257237E+02  0.19817536047E+02 -0.20013543456E+03  0.20309436757E+03  0.00000000000E+00 0. -1.
        -11    1    3    3    0    0  0.28333598439E+02 -0.31597466781E+02 -0.66076111691E+02  0.78531810394E+02  0.00000000000E+00 0.  1.
         22    1    1    2    0    0 -0.42341202121E-01  0.11779930734E+02 -0.37081531996E+01  0.12349856721E+02  0.00000000000E+00 0.  1.
<mgrwt>
<rscale>  0 0.54986464E+02</rscale>
<asrwt>0</asrwt>
<pdfrwt beam="1">  1        2 0.43376595E-01 0.91895140E+02</pdfrwt>
<pdfrwt beam="2">  1       -2 0.18504873E-02 0.91895140E+02</pdfrwt>
<totfact> 0.87436576E+04</totfact>
</mgrwt>
</event>
<event>
 6    1  0.2975432E-002  0.9307447E+02  0.7546771E-02  0.1378940E+00
         -1   -1    0    0    0  501 -0.00000000000E+00  0.00000000000E+00  0.24793459527E+02  0.24793459527E+02  0.00000000000E+00 0.  1.
          1   -1    0    0  501    0  0.00000000000E+00 -0.00000000000E+00 -0.13361269467E+03  0.13361269467E+03  0.00000000000E+00 0. -1.
         23    2    1    2    0    0  0.20241046418E+02 -0.80727046642E+01 -0.92098404871E+02  0.13093881567E+03  0.90487506037E+02 0.  0.
         11    1    3    3    0    0 -0.30247097127E+02  0.17859473041E+02 -0.25334350764E+02  0.43309086697E+02  0.00000000000E+00 0.  1.
        -11    1    3    3    0    0  0.50488143545E+02 -0.25932177706E+02 -0.66764054108E+02  0.87629728974E+02  0.00000000000E+00 0. -1.
         22    1    1    2    0    0 -0.20241046418E+02  0.80727046642E+01 -0.16720830269E+02  0.27467338523E+02  0.00000000000E+00 0.  1.
<mgrwt>
<rscale>  0 0.64743267E+02</rscale>
<asrwt>0</asrwt>
<pdfrwt beam="1">  1        1 0.20555799E-01 0.93074472E+02</pdfrwt>
<pdfrwt beam="2">  1       -1 0.38143784E-02 0.93074472E+02</pdfrwt>
<totfact> 0.56246474E+04</totfact>
</mgrwt>
</event>
<event>
 6    1  0.2975432E-002  0.9505928E+02  0.7546771E-02  0.1392033E+00
          2   -1    0    0  501    0  0.00000000000E+00  0.00000000000E+00  0.11380735430E+04  0.11380735430E+04  0.00000000000E+00 0. -1.
         -2   -1    0    0    0  501 -0.00000000000E+00 -0.00000000000E+00 -0.31139042867E+01  0.31139042867E+01  0.00000000000E+00 0.  1.
         23    2    1    2    0    0  0.12608406624E+02  0.10720790632E+02  0.10676295545E+04  0.10718531304E+04  0.93607478664E+02 0.  0.
         13    1    3    3    0    0  0.21646017070E+02  0.20368326765E+02  0.10465461495E+04  0.10469681283E+04  0.00000000000E+00 0. -1.
        -13    1    3    3    0    0 -0.90376104455E+01 -0.96475361329E+01  0.21083405060E+02  0.24885002008E+02  0.00000000000E+00 0.  1.
         22    1    1    2    0    0 -0.12608406624E+02 -0.10720790632E+02  0.67330084226E+02  0.69334316982E+02  0.00000000000E+00 0. -1.
<mgrwt>
<rscale>  0 0.61403955E+02</rscale>
<asrwt>0</asrwt>
<pdfrwt beam="1">  1        2 0.17508790E+00 0.95059283E+02</pdfrwt>
<pdfrwt beam="2">  1       -2 0.47906311E-03 0.95059283E+02</pdfrwt>
<totfact> 0.11923259E+05</totfact>
</mgrwt>
</event>
<event>
 6    1  0.2975432E-002  0.9444710E+02  0.7546771E-02  0.1368536E+00
         -2   -1    0    0    0  501 -0.00000000000E+00  0.00000000000E+00  0.10816986717E+02  0.10816986717E+02  0.00000000000E+00 0.  1.
          2   -1    0    0  501    0  0.00000000000E+00 -0.00000000000E+00 -0.33919054782E+03  0.33919054782E+03  0.00000000000E+00 0. -1.
         23    2    1    2    0    0 -0.11510683204E+02 -0.21912092274E+02 -0.28268258690E+03  0.29804311653E+03  0.91146139554E+02 0.  0.
         11    1    3    3    0    0 -0.22744021059E+02  0.57184955409E+01 -0.25872590497E+03  0.25978661549E+03  0.00000000000E+00 0. -1.
        -11    1    3    3    0    0  0.11233337855E+02 -0.27630587815E+02 -0.23956681932E+02  0.38256501036E+02  0.00000000000E+00 0.  1.
         22    1    1    2    0    0  0.11510683204E+02  0.21912092274E+02 -0.45690974196E+02  0.51964418005E+02  0.00000000000E+00 0. -1.
<mgrwt>
<rscale>  0 0.67575885E+02</rscale>
<asrwt>0</asrwt>
<pdfrwt beam="1">  1        2 0.52183151E-01 0.94447098E+02</pdfrwt>
<pdfrwt beam="2">  1       -2 0.16641521E-02 0.94447098E+02</pdfrwt>
<totfact> 0.84228277E+04</totfact>
</mgrwt>
</event>
<event>
 6    1  0.2975432E-002  0.9340905E+02  0.7546771E-02  0.1403137E+00
         -4   -1    0    0    0  501 -0.00000000000E+00  0.00000000000E+00  0.71584448314E+01  0.71584448314E+01  0.00000000000E+00 0.  1.
          4   -1    0    0  501    0  0.00000000000E+00 -0.00000000000E+00 -0.59990418366E+03  0.59990418366E+03  0.00000000000E+00 0. -1.
         23    2    1    2    0    0 -0.14453247791E+02  0.22079509702E+01 -0.58056836348E+03  0.58803475710E+03  0.92257679715E+02 0.  0.
         11    1    3    3    0    0 -0.44195529311E+02  0.11565973711E+02 -0.49241687475E+03  0.49453149050E+03  0.00000000000E+00 0. -1.
        -11    1    3    3    0    0  0.29742281520E+02 -0.93580227411E+01 -0.88151488737E+02  0.93503266607E+02  0.00000000000E+00 0.  1.
         22    1    1    2    0    0  0.14453247791E+02 -0.22079509702E+01 -0.12177375344E+02  0.19027871385E+02  0.00000000000E+00 0.  1.
<mgrwt>
<rscale>  0 0.58753728E+02</rscale>
<asrwt>0</asrwt>
<pdfrwt beam="1">  1        4 0.92292971E-01 0.93409051E+02</pdfrwt>
<pdfrwt beam="2">  1       -4 0.11012990E-02 0.93409051E+02</pdfrwt>
<totfact> 0.38977987E+03</totfact>
</mgrwt>
</event>
<event>
 6    1  0.2975432E-002  0.9127512E+02  0.7546771E-02  0.1430097E+00
          2   -1    0    0  501    0  0.00000000000E+00  0.00000000000E+00  0.25250618201E+04  0.25250618201E+04  0.00000000000E+00 0. -1.
         -2   -1    0    0    0  501 -0.00000000000E+00 -0.00000000000E+00 -0.24098421903E+01  0.24098421903E+01  0.00000000000E+00 0.  1.
         23    2    1    2    0    0  0.10154371553E+02 -0.18959245361E+01  0.25073416267E+04  0.25090024271E+04  0.90688703109E+02 0.  0.
         13    1    3    3    0    0  0.22342753786E+02  0.91494039331E+01  0.24202907608E+04  0.24204111793E+04  0.00000000000E+00 0. -1.
        -13    1    3    3    0    0 -0.12188382233E+02 -0.11045328469E+02  0.87050865895E+02  0.88591247849E+02  0.00000000000E+00 0.  1.
         22    1    1    2    0    0 -0.10154371553E+02  0.18959245361E+01  0.15310351281E+02  0.18469235172E+02  0.00000000000E+00 0.  1.
<mgrwt>
<rscale>  0 0.52940470E+02</rscale>
<asrwt>0</asrwt>
<pdfrwt beam="1">  1        2 0.38846893E+00 0.91275115E+02</pdfrwt>
<pdfrwt beam="2">  1       -2 0.37074697E-03 0.91275115E+02</pdfrwt>
<totfact> 0.32919285E+04</totfact>
</mgrwt>
</event>
<event>
 6    1  0.2975432E-002  0.9276222E+02  0.7546771E-02  0.1392069E+00
         -1   -1    0    0    0  501 -0.00000000000E+00  0.00000000000E+00  0.94585066553E+02  0.94585066553E+02  0.00000000000E+00 0.  1.
          1   -1    0    0  501    0  0.00000000000E+00 -0.00000000000E+00 -0.54962832400E+02  0.54962832400E+02  0.00000000000E+00 0. -1.
         23    2    1    2    0    0  0.15840298268E+02 -0.81194571008E+01 -0.13301436737E+02  0.93711033235E+02  0.91038392439E+02 0.  0.
         13    1    3    3    0    0  0.49193665674E+01  0.18321799355E+02 -0.46301474242E+02  0.50037136369E+02  0.00000000000E+00 0. -1.
        -13    1    3    3    0    0  0.10920931700E+02 -0.26441256456E+02  0.33000037505E+02  0.43673896866E+02  0.00000000000E+00 0.  1.
         22    1    1    2    0    0 -0.15840298268E+02  0.81194571008E+01  0.52923670890E+02  0.55836865718E+02  0.00000000000E+00 0.  1.
<mgrwt>
<rscale>  0 0.61395065E+02</rscale>
<asrwt>0</asrwt>
<pdfrwt beam="1">  1        1 0.84558204E-02 0.92762220E+02</pdfrwt>
<pdfrwt beam="2">  1       -1 0.14551549E-01 0.92762220E+02</pdfrwt>
<totfact> 0.23975416E+04</totfact>
</mgrwt>
</event>
<event>
 6    1  0.2975432E-002  0.8604872E+02  0.7546771E-02  0.1438102E+00
          2   -1    0    0  501    0  0.00000000000E+00  0.00000000000E+00  0.45387072506E+03  0.45387072506E+03  0.00000000000E+00 0. -1.
         -2   -1    0    0    0  501 -0.00000000000E+00 -0.00000000000E+00 -0.94444094104E+01  0.94444094104E+01  0.00000000000E+00 0.  1.
         23    2    1    2    0    0 -0.10738505447E+02 -0.20236262278E+01  0.44412430988E+03  0.45238344797E+03  0.85352040454E+02 0.  0.
         13    1    3    3    0    0 -0.19252721502E+02  0.16134283534E+02  0.36742849558E+02  0.44508643925E+02  0.00000000000E+00 0.  1.
        -13    1    3    3    0    0  0.85142160543E+01 -0.18157909762E+02  0.40738146032E+03  0.40787480404E+03  0.00000000000E+00 0. -1.
         22    1    1    2    0    0  0.10738505447E+02  0.20236262278E+01  0.30200577528E+00  0.10931686505E+02  0.00000000000E+00 0.  1.
<mgrwt>
<rscale>  0 0.51367524E+02</rscale>
<asrwt>0</asrwt>
<pdfrwt beam="1">  1        2 0.69826248E-01 0.86048715E+02</pdfrwt>
<pdfrwt beam="2">  1       -2 0.14529864E-02 0.86048715E+02</pdfrwt>
<totfact> 0.74246261E+04</totfact>
</mgrwt>
</event>
<event>
 6    1  0.2975432E-002  0.1028975E+03  0.7546771E-02  0.1318942E+00
         -4   -1    0    0    0  501 -0.00000000000E+00  0.00000000000E+00  0.36353629809E+02  0.36353629809E+02  0.00000000000E+00 0.  1.
          4   -1    0    0  501    0  0.00000000000E+00 -0.00000000000E+00 -0.15411775130E+03  0.15411775130E+03  0.00000000000E+00 0. -1.
         23    2    1    2    0    0  0.36631079475E+02  0.26119433158E+02 -0.95019541456E+02  0.14005931219E+03  0.92541001183E+02 0.  0.
         13    1    3    3    0    0  0.33625477145E+02  0.29143091063E+02  0.44528572918E+00  0.44499334258E+02  0.00000000000E+00 0.  1.
        -13    1    3    3    0    0  0.30056023297E+01 -0.30236579055E+01 -0.95464827185E+02  0.95559977930E+02  0.00000000000E+00 0. -1.
         22    1    1    2    0    0 -0.36631079475E+02 -0.26119433158E+02 -0.22744580035E+02  0.50412068922E+02  0.00000000000E+00 0.  1.
<mgrwt>
<rscale>  0 0.83672278E+02</rscale>
<asrwt>0</asrwt>
<pdfrwt beam="1">  1        4 0.23710423E-01 0.10289751E+03</pdfrwt>
<pdfrwt beam="2">  1       -4 0.55928662E-02 0.10289751E+03</pdfrwt>
<totfact> 0.50033799E+03</totfact>
</mgrwt>
</event>
<event>
 6    1  0.2975432E-002  0.9086716E+02  0.7546771E-02  0.1422932E+00
          2   -1    0    0  501    0  0.00000000000E+00  0.00000000000E+00  0.22799570852E+04  0.22799570852E+04  0.00000000000E+00 0. -1.
         -2   -1    0    0    0  501 -0.00000000000E+00 -0.00000000000E+00 -0.15599243603E+01  0.15599243603E+01  0.00000000000E+00 0.  1.
         23    2    1    2    0    0  0.10750215014E+02 -0.45602888324E+01  0.22251427748E+04  0.22269973526E+04  0.90113689929E+02 0.  0.
         11    1    3    3    0    0 -0.10590489320E+02 -0.13793228742E+02  0.20743028024E+04  0.20743756959E+04  0.00000000000E+00 0. -1.
        -11    1    3    3    0    0  0.21340704334E+02  0.92329399097E+01  0.15083997232E+03  0.15262165668E+03  0.00000000000E+00 0.  1.
         22    1    1    2    0    0 -0.10750215014E+02  0.45602888324E+01  0.53254386050E+02  0.54519656920E+02  0.00000000000E+00 0.  1.
<mgrwt>
<rscale>  0 0.54405452E+02</rscale>
<asrwt>0</asrwt>
<pdfrwt beam="1">  1        2 0.35075996E+00 0.90867158E+02</pdfrwt>
<pdfrwt beam="2">  1       -2 0.23999019E-03 0.90867158E+02</pdfrwt>
<totfact> 0.80825361E+04</totfact>
</mgrwt>
</event>
<event>
 6    1  0.2975432E-002  0.9228081E+02  0.7546771E-02  0.1422457E+00
          2   -1    0    0  501    0  0.00000000000E+00  0.00000000000E+00  0.49539386600E+03  0.49539386600E+03  0.00000000000E+00 0. -1.
         -2   -1    0    0    0  501 -0.00000000000E+00 -0.00000000000E+00 -0.57844582128E+01  0.57844582128E+01  0.00000000000E+00 0.  1.
         23    2    1    2    0    0 -0.94145026145E+01 -0.61228952359E+01  0.46580278761E+03  0.47485575082E+03  0.91594893089E+02 0.  0.
         11    1    3    3    0    0  0.27204711173E+02  0.88455947242E+01  0.37138542159E+03  0.37248553291E+03  0.00000000000E+00 0. -1.
        -11    1    3    3    0    0 -0.36619213787E+02 -0.14968489960E+02  0.94417366018E+02  0.10237021791E+03  0.00000000000E+00 0.  1.
         22    1    1    2    0    0  0.94145026145E+01  0.61228952359E+01  0.23806620178E+02  0.26322573389E+02  0.00000000000E+00 0.  1.
<mgrwt>
<rscale>  0 0.54504542E+02</rscale>
<asrwt>0</asrwt>
<pdfrwt beam="1">  1        2 0.76214408E-01 0.92280806E+02</pdfrwt>
<pdfrwt beam="2">  1       -2 0.88991704E-03 0.92280806E+02</pdfrwt>
<totfact> 0.13686860E+05</totfact>
</mgrwt>
</event>
<event>
 6    1  0.2975432E-002  0.9216617E+02  0.7546771E-02  0.1395988E+00
          1   -1    0    0  501    0  0.00000000000E+00  0.00000000000E+00  0.49718014105E+03  0.49718014105E+03  0.00000000000E+00 0. -1.
         -1   -1    0    0    0  501 -0.00000000000E+00 -0.00000000000E+00 -0.19092960858E+02  0.19092960858E+02  0.00000000000E+00 0.  1.
         23    2    1    2    0    0 -0.14106897560E+02  0.95693711783E+01  0.48795069561E+03  0.49657877887E+03  0.90576072156E+02 0.  0.
         11    1    3    3    0    0  0.24783920874E+02 -0.17391247217E+02  0.33764282614E+03  0.33899760510E+03  0.00000000000E+00 0. -1.
        -11    1    3    3    0    0 -0.38890818434E+02  0.26960618395E+02  0.15030786947E+03  0.15758117377E+03  0.00000000000E+00 0.  1.
         22    1    1    2    0    0  0.14106897560E+02 -0.95693711783E+01 -0.98635154227E+01  0.19694323040E+02  0.00000000000E+00 0.  1.
<mgrwt>
<rscale>  0 0.60441659E+02</rscale>
<asrwt>0</asrwt>
<pdfrwt beam="1">  1        1 0.76489243E-01 0.92166167E+02</pdfrwt>
<pdfrwt beam="2">  1       -1 0.29373790E-02 0.92166167E+02</pdfrwt>
<totfact> 0.16149548E+04</totfact>
</mgrwt>
</event>
<event>
 6    1  0.2975432E-002  0.9194387E+02  0.7546771E-02  0.1395613E+00
         -4   -1    0    0    0  501 -0.00000000000E+00  0.00000000000E+00  0.13329904667E+02  0.13329904667E+02  0.00000000000E+00 0.  1.
          4   -1    0    0  501    0  0.00000000000E+00 -0.00000000000E+00 -0.22921933535E+03  0.22921933535E+03  0.00000000000E+00 0. -1.
         23    2    1    2    0    0  0.33966960084E+01  0.16935846047E+02 -0.16611355244E+03  0.18986149496E+03  0.90306780125E+02 0.  0.
         13    1    3    3    0    0  0.15238666721E+02  0.52122173919E+02 -0.10833682369E+03  0.12118500462E+03  0.00000000000E+00 0. -1.
        -13    1    3    3    0    0 -0.11841970713E+02 -0.35186327872E+02 -0.57776728752E+02  0.68676490335E+02  0.00000000000E+00 0.  1.
         22    1    1    2    0    0 -0.33966960084E+01 -0.16935846047E+02 -0.49775878241E+02  0.52687745063E+02  0.00000000000E+00 0. -1.
<mgrwt>
<rscale>  0 0.60531959E+02</rscale>
<asrwt>0</asrwt>
<pdfrwt beam="1">  1        4 0.35264517E-01 0.91943869E+02</pdfrwt>
<pdfrwt beam="2">  1       -4 0.20507543E-02 0.91943869E+02</pdfrwt>
<totfact> 0.11105153E+04</totfact>
</mgrwt>
</event>
<event>
 6    1  0.2975432E-002  0.9959034E+02  0.7546771E-02  0.1370158E+00
          3   -1    0    0  501    0  0.00000000000E+00  0.00000000000E+00  0.23921237489E+02  0.23921237489E+02  0.00000000000E+00 0. -1.
         -3   -1    0    0    0  501 -0.00000000000E+00 -0.00000000000E+00 -0.15418603220E+03  0.15418603220E+03  0.00000000000E+00 0.  1.
         23    2    1    2    0    0  0.11953213928E+02  0.16717800060E+02 -0.97107910441E+02  0.13909774346E+03  0.97446763947E+02 0.  0.
         13    1    3    3    0    0 -0.89121709584E+01 -0.30113517715E+02 -0.25161292438E+01  0.31505263794E+02  0.00000000000E+00 0. -1.
        -13    1    3    3    0    0  0.20865384886E+02  0.46831317775E+02 -0.94591781197E+02  0.10759247967E+03  0.00000000000E+00 0.  1.
         22    1    1    2    0    0 -0.11953213928E+02 -0.16717800060E+02 -0.33156884274E+02  0.39009526232E+02  0.00000000000E+00 0. -1.
<mgrwt>
<rscale>  0 0.67123377E+02</rscale>
<asrwt>0</asrwt>
<pdfrwt beam="1">  1        3 0.36801906E-02 0.99590341E+02</pdfrwt>
<pdfrwt beam="2">  1       -3 0.23720927E-01 0.99590341E+02</pdfrwt>
<totfact> 0.12871997E+04</totfact>
</mgrwt>
</event>
<event>
 6    1  0.2975432E-002  0.9136904E+02  0.7546771E-02  0.1421414E+00
         -2   -1    0    0    0  501 -0.00000000000E+00  0.00000000000E+00  0.11770344316E+02  0.11770344316E+02  0.00000000000E+00 0.  1.
          2   -1    0    0  501    0  0.00000000000E+00 -0.00000000000E+00 -0.23174570157E+03  0.23174570157E+03  0.00000000000E+00 0. -1.
         23    2    1    2    0    0  0.43745298466E+01  0.10912328945E+02 -0.20528692113E+03  0.22470207262E+03  0.90609524978E+02 0.  0.
         11    1    3    3    0    0  0.44446482333E+02  0.12135156308E+01 -0.67090090420E+02  0.80486288550E+02  0.00000000000E+00 0.  1.
        -11    1    3    3    0    0 -0.40071952486E+02  0.96988133146E+01 -0.13819683071E+03  0.14421578407E+03  0.00000000000E+00 0. -1.
         22    1    1    2    0    0 -0.43745298466E+01 -0.10912328945E+02 -0.14688436126E+02  0.18813973270E+02  0.00000000000E+00 0. -1.
<mgrwt>
<rscale>  0 0.54722870E+02</rscale>
<asrwt>0</asrwt>
<pdfrwt beam="1">  1        2 0.35653182E-01 0.91369040E+02</pdfrwt>
<pdfrwt beam="2">  1       -2 0.18108223E-02 0.91369040E+02</pdfrwt>
<totfact> 0.11072748E+05</totfact>
</mgrwt>
</event>
<event>
 6    1  0.2975432E-002  0.9716960E+02  0.7546771E-02  0.1345490E+00
          2   -1    0    0  501    0  0.00000000000E+00  0.00000000000E+00  0.43889536006E+02  0.43889536006E+02  0.00000000000E+00 0.  1.
         -2   -1    0    0    0  501 -0.00000000000E+00 -0.00000000000E+00 -0.10449495724E+03  0.10449495724E+03  0.00000000000E+00 0. -1.
         23    2    1    2    0    0 -0.29333849420E+02 -0.16261260226E+02 -0.26875941776E+02  0.10081789687E+03  0.91197745464E+02 0.  0.
         13    1    3    3    0    0 -0.16593100628E+02 -0.29382116133E+02  0.27448297224E+02  0.43497686805E+02  0.00000000000E+00 0.  1.
        -13    1    3    3    0    0 -0.12740748793E+02  0.13120855906E+02 -0.54324238999E+02  0.57320210069E+02  0.00000000000E+00 0. -1.
         22    1    1    2    0    0  0.29333849420E+02  0.16261260226E+02 -0.33729479462E+02  0.47566596375E+02  0.00000000000E+00 0. -1.
<mgrwt>
<rscale>  0 0.74479581E+02</rscale>
<asrwt>0</asrwt>
<pdfrwt beam="1">  1        2 0.67522364E-02 0.97169605E+02</pdfrwt>
<pdfrwt beam="2">  1       -2 0.16076147E-01 0.97169605E+02</pdfrwt>
<totfact> 0.28450370E+04</totfact>
</mgrwt>
</event>
<event>
 6    1  0.2975432E-002  0.1190724E+03  0.7546771E-02  0.1367903E+00
         -2   -1    0    0    0  501 -0.00000000000E+00  0.00000000000E+00  0.54424511522E+01  0.54424511522E+01  0.00000000000E+00 0.  1.
          2   -1    0    0  501    0  0.00000000000E+00 -0.00000000000E+00 -0.11875593763E+04  0.11875593763E+04  0.00000000000E+00 0. -1.
         23    2    1    2    0    0 -0.90185485315E+01  0.86297910399E+01 -0.11684153879E+04  0.11744670053E+04  0.11841630039E+03 0.  0.
         13    1    3    3    0    0 -0.54550838597E+02 -0.27350433876E+02 -0.60869077692E+03  0.61174202253E+03  0.00000000000E+00 0. -1.
        -13    1    3    3    0    0  0.45532290065E+02  0.35980224915E+02 -0.55972461100E+03  0.56272498273E+03  0.00000000000E+00 0.  1.
         22    1    1    2    0    0  0.90185485315E+01 -0.86297910399E+01 -0.13701537188E+02  0.18534822155E+02  0.00000000000E+00 0.  1.
<mgrwt>
<rscale>  0 0.67753507E+02</rscale>
<asrwt>0</asrwt>
<pdfrwt beam="1">  1        2 0.18270174E+00 0.11907236E+03</pdfrwt>
<pdfrwt beam="2">  1       -2 0.83729881E-03 0.11907236E+03</pdfrwt>
<totfact> 0.52199825E+04</totfact>
</mgrwt>
</event>
<event>
 6    1  0.2975432E-002  0.1008213E+03  0.7546771E-02  0.1380579E+00
         -2   -1    0    0    0  501 -0.00000000000E+00  0.00000000000E+00  0.89923178521E+01  0.89923178521E+01  0.00000000000E+00 0.  1.
          2   -1    0    0  501    0  0.00000000000E+00 -0.00000000000E+00 -0.40047653912E+03  0.40047653912E+03  0.00000000000E+00 0. -1.
         23    2    1    2    0    0  0.25257978576E+01  0.16499662647E+02 -0.35977214327E+03  0.37363208238E+03  0.99429972283E+02 0.  0.
         11    1    3    3    0    0 -0.69295225833E+01 -0.10099586978E+02 -0.33737327997E+03  0.33759554200E+03  0.00000000000E+00 0. -1.
        -11    1    3    3    0    0  0.94553204409E+01  0.26599249625E+02 -0.22398863292E+02  0.36036540373E+02  0.00000000000E+00 0.  1.
         22    1    1    2    0    0 -0.25257978576E+01 -0.16499662647E+02 -0.31712078004E+02  0.35836774598E+02  0.00000000000E+00 0. -1.
<mgrwt>
<rscale>  0 0.64311779E+02</rscale>
<asrwt>0</asrwt>
<pdfrwt beam="1">  1        2 0.61611788E-01 0.10082132E+03</pdfrwt>
<pdfrwt beam="2">  1       -2 0.13834332E-02 0.10082132E+03</pdfrwt>
<totfact> 0.92961650E+04</totfact>
</mgrwt>
</event>
<event>
 6    1  0.2975432E-002  0.8224305E+02  0.7546771E-02  0.1449138E+00
         -1   -1    0    0    0  501 -0.00000000000E+00  0.00000000000E+00  0.65415863280E+01  0.65415863280E+01  0.00000000000E+00 0.  1.
          1   -1    0    0  501    0  0.00000000000E+00 -0.00000000000E+00 -0.36542097838E+03  0.36542097838E+03  0.00000000000E+00 0. -1.
         23    2    1    2    0    0 -0.73084256526E+01  0.77076679860E+01 -0.34391308427E+03  0.35361013708E+03  0.81554265868E+02 0.  0.
         13    1    3    3    0    0 -0.20886899572E+02  0.36649068695E+02 -0.26709568418E+03  0.27040621538E+03  0.00000000000E+00 0. -1.
        -13    1    3    3    0    0  0.13578473920E+02 -0.28941400709E+02 -0.76817400088E+02  0.83203921694E+02  0.00000000000E+00 0.  1.
         22    1    1    2    0    0  0.73084256526E+01 -0.77076679860E+01 -0.14966307787E+02  0.18352427634E+02  0.00000000000E+00 0.  1.
<mgrwt>
<rscale>  0 0.49302991E+02</rscale>
<asrwt>0</asrwt>
<pdfrwt beam="1">  1        1 0.56218615E-01 0.82243051E+02</pdfrwt>
<pdfrwt beam="2">  1       -1 0.10063978E-02 0.82243051E+02</pdfrwt>
<totfact> 0.10732425E+05</totfact>
</mgrwt>
</event>
<event>
 6    1  0.2975432E-002  0.9174556E+02  0.7546771E-02  0.1406507E+00
          2   -1    0    0  501    0  0.00000000000E+00  0.00000000000E+00  0.11434113445E+04  0.11434113445E+04  0.00000000000E+00 0.  1.
         -2   -1    0    0    0  501 -0.00000000000E+00 -0.00000000000E+00 -0.27649668458E+01  0.27649668458E+01  0.00000000000E+00 0. -1.
         23    2    1    2    0    0  0.14533206022E+02  0.17188641808E+01  0.10755158918E+04  0.10794219200E+04  0.90570852772E+02 0.  0.
         11    1    3    3    0    0  0.13339929316E+02  0.27967424903E+02  0.13386086724E+03  0.13740037245E+03  0.00000000000E+00 0. -1.
        -11    1    3    3    0    0  0.11932767058E+01 -0.26248560722E+02  0.94165502457E+03  0.94202154760E+03  0.00000000000E+00 0.  1.
         22    1    1    2    0    0 -0.14533206022E+02 -0.17188641808E+01  0.65130485853E+02  0.66754391307E+02  0.00000000000E+00 0. -1.
<mgrwt>
<rscale>  0 0.57980674E+02</rscale>
<asrwt>0</asrwt>
<pdfrwt beam="1">  1        2 0.17590906E+00 0.91745561E+02</pdfrwt>
<pdfrwt beam="2">  1       -2 0.42538043E-03 0.91745561E+02</pdfrwt>
<totfact> 0.13921910E+05</totfact>
</mgrwt>
</event>
<event>
 6    1  0.2975432E-002  0.9192809E+02  0.7546771E-02  0.1425153E+00
         -4   -1    0    0    0  501 -0.00000000000E+00  0.00000000000E+00  0.40446267378E+01  0.40446267378E+01  0.00000000000E+00 0.  1.
          4   -1    0    0  501    0  0.00000000000E+00 -0.00000000000E+00 -0.85424856707E+03  0.85424856707E+03  0.00000000000E+00 0. -1.
         23    2    1    2    0    0  0.91929153655E+01 -0.58589631419E+01 -0.83208500773E+03  0.83714767748E+03  0.91279442843E+02 0.  0.
         11    1    3    3    0    0  0.23426971472E+00 -0.17672781928E+02 -0.81195252769E+03  0.81214486966E+03  0.00000000000E+00 0. -1.
        -11    1    3    3    0    0  0.89586456508E+01  0.11813818786E+02 -0.20132480040E+02  0.25002807817E+02  0.00000000000E+00 0.  1.
         22    1    1    2    0    0 -0.91929153655E+01  0.58589631419E+01 -0.18118932611E+02  0.21145516333E+02  0.00000000000E+00 0.  1.
<mgrwt>
<rscale>  0 0.53945498E+02</rscale>
<asrwt>0</asrwt>
<pdfrwt beam="1">  1        4 0.13142300E+00 0.91928091E+02</pdfrwt>
<pdfrwt beam="2">  1       -4 0.62224958E-03 0.91928091E+02</pdfrwt>
<totfact> 0.39699414E+03</totfact>
</mgrwt>
</event>
<event>
 6    1  0.2975432E-002  0.9537072E+02  0.7546771E-02  0.1372277E+00
         -2   -1    0    0    0  501 -0.00000000000E+00  0.00000000000E+00  0.34675713210E+01  0.34675713210E+01  0.00000000000E+00 0.  1.
          2   -1    0    0  501    0  0.00000000000E+00 -0.00000000000E+00 -0.12110970661E+04  0.12110970661E+04  0.00000000000E+00 0. -1.
         23    2    1    2    0    0 -0.22213457324E+02 -0.41431592937E+01 -0.11205454738E+04  0.11245966977E+04  0.92655114936E+02 0.  0.
         13    1    3    3    0    0  0.29615734936E+01  0.13951565163E+02 -0.10008370866E+04  0.10009387049E+04  0.00000000000E+00 0. -1.
        -13    1    3    3    0    0 -0.25175030818E+02 -0.18094724457E+02 -0.11970838718E+03  0.12365799283E+03  0.00000000000E+00 0.  1.
         22    1    1    2    0    0  0.22213457324E+02  0.41431592937E+01 -0.87084020956E+02  0.89967939629E+02  0.00000000000E+00 0. -1.
<mgrwt>
<rscale>  0 0.66538309E+02</rscale>
<asrwt>0</asrwt>
<pdfrwt beam="1">  1        2 0.18632225E+00 0.95370718E+02</pdfrwt>
<pdfrwt beam="2">  1       -2 0.53347359E-03 0.95370718E+02</pdfrwt>
<totfact> 0.93530209E+04</totfact>
</mgrwt>
</event>
<event>
 6    1  0.2975432E-002  0.1076550E+03  0.7546771E-02  0.1297430E+00
          4   -1    0    0  501    0  0.00000000000E+00  0.00000000000E+00  0.49361361493E+02  0.49361361493E+02  0.00000000000E+00 0. -1.
         -4   -1    0    0    0  501 -0.00000000000E+00 -0.00000000000E+00 -0.14297032329E+03  0.14297032329E+03  0.00000000000E+00 0.  1.
         23    2    1    2    0    0 -0.25410965951E+02  0.52261811448E+02 -0.45442358170E+02  0.11685297367E+03  0.90623371226E+02 0.  0.
         11    1    3    3    0    0  0.45702779256E+01  0.21182189087E+02  0.25708434270E+02  0.33622851864E+02  0.00000000000E+00 0. -1.
        -11    1    3    3    0    0 -0.29981243876E+02  0.31079622361E+02 -0.71150792440E+02  0.83230121803E+02  0.00000000000E+00 0.  1.
         22    1    1    2    0    0  0.25410965951E+02 -0.52261811448E+02 -0.48166603624E+02  0.75478711111E+02  0.00000000000E+00 0. -1.
<mgrwt>
<rscale>  0 0.92276776E+02</rscale>
<asrwt>0</asrwt>
<pdfrwt beam="1">  1        4 0.75940557E-02 0.10765505E+03</pdfrwt>
<pdfrwt beam="2">  1       -4 0.21995434E-01 0.10765505E+03</pdfrwt>
<totfact> 0.35307289E+03</totfact>
</mgrwt>
</event>
<event>
 6    1  0.2975432E-002  0.9494642E+02  0.7546771E-02  0.1412785E+00
          2   -1    0    0  501    0  0.00000000000E+00  0.00000000000E+00  0.14133911612E+03  0.14133911612E+03  0.00000000000E+00 0. -1.
         -2   -1    0    0    0  501 -0.00000000000E+00 -0.00000000000E+00 -0.20352100951E+02  0.20352100951E+02  0.00000000000E+00 0.  1.
         23    2    1    2    0    0 -0.27104780124E+01 -0.11659928868E+02  0.11126893281E+03  0.14627234043E+03  0.94188754811E+02 0.  0.
         13    1    3    3    0    0 -0.48309196127E+02 -0.51589522584E+01  0.62942357641E+02  0.79511845685E+02  0.00000000000E+00 0. -1.
        -13    1    3    3    0    0  0.45598718114E+02 -0.65009766101E+01  0.48326575168E+02  0.66760494740E+02  0.00000000000E+00 0.  1.
         22    1    1    2    0    0  0.27104780124E+01  0.11659928868E+02  0.97180823598E+01  0.15418876646E+02  0.00000000000E+00 0. -1.
<mgrwt>
<rscale>  0 0.56577004E+02</rscale>
<asrwt>0</asrwt>
<pdfrwt beam="1">  1        2 0.21744479E-01 0.94946417E+02</pdfrwt>
<pdfrwt beam="2">  1       -2 0.31310925E-02 0.94946417E+02</pdfrwt>
<totfact> 0.86086526E+04</totfact>
</mgrwt>
</event>
<event>
 6    1  0.2975432E-002  0.9267072E+02  0.7546771E-02  0.1390812E+00
         -2   -1    0    0    0  501 -0.00000000000E+00  0.00000000000E+00  0.23979854310E+03  0.23979854310E+03  0.00000000000E+00 0.  1.
          2   -1    0    0  501    0  0.00000000000E+00 -0.00000000000E+00 -0.13739105961E+02  0.13739105961E+02  0.00000000000E+00 0. -1.
         23    2    1    2    0    0  0.18127316757E+02 -0.17989732687E+01  0.15887053108E+03  0.18392310306E+03  0.90862678123E+02 0.  0.
         13    1    3    3    0    0  0.49556384980E+02 -0.13590419258E+02  0.12948977692E+03  0.13931309025E+03  0.00000000000E+00 0.  1.
        -13    1    3    3    0    0 -0.31429068223E+02  0.11791445990E+02  0.29380754160E+02  0.44610012810E+02  0.00000000000E+00 0. -1.
         22    1    1    2    0    0 -0.18127316757E+02  0.17989732687E+01  0.67188906056E+02  0.69614545999E+02  0.00000000000E+00 0.  1.
<mgrwt>
<rscale>  0 0.61705280E+02</rscale>
<asrwt>0</asrwt>
<pdfrwt beam="1">  1        2 0.21137088E-02 0.92670719E+02</pdfrwt>
<pdfrwt beam="2">  1       -2 0.36892080E-01 0.92670719E+02</pdfrwt>
<totfact> 0.30784287E+04</totfact>
</mgrwt>
</event>
<event>
 6    1  0.2975432E-002  0.9164757E+02  0.7546771E-02  0.1403596E+00
          2   -1    0    0  501    0  0.00000000000E+00  0.00000000000E+00  0.67704520584E+03  0.67704520584E+03  0.00000000000E+00 0. -1.
         -2   -1    0    0    0  501 -0.00000000000E+00 -0.00000000000E+00 -0.65484630194E+02  0.65484630194E+02  0.00000000000E+00 0.  1.
         23    2    1    2    0    0  0.12808989499E+02  0.84930762911E+01  0.67299277161E+03  0.67920434940E+03  0.90349737375E+02 0.  0.
         13    1    3    3    0    0 -0.24225585958E+01  0.45816063069E+02  0.47093880521E+03  0.47316840414E+03  0.00000000000E+00 0. -1.
        -13    1    3    3    0    0  0.15231548095E+02 -0.37322986778E+02  0.20205396641E+03  0.20603594526E+03  0.00000000000E+00 0.  1.
         22    1    1    2    0    0 -0.12808989499E+02 -0.84930762911E+01 -0.61432195964E+02  0.63325486637E+02  0.00000000000E+00 0.  1.
<mgrwt>
<rscale>  0 0.58647743E+02</rscale>
<asrwt>0</asrwt>
<pdfrwt beam="1">  1        2 0.10416080E+00 0.91647573E+02</pdfrwt>
<pdfrwt beam="2">  1       -2 0.10074559E-01 0.91647573E+02</pdfrwt>
<totfact> 0.27664021E+03</totfact>
</mgrwt>
</event>
<event>
 6    1  0.2975432E-002  0.9280529E+02  0.7546771E-02  0.1399485E+00
         -4   -1    0    0    0  501 -0.00000000000E+00  0.00000000000E+00  0.18930576556E+02  0.18930576556E+02  0.00000000000E+00 0.  1.
          4   -1    0    0  501    0  0.00000000000E+00 -0.00000000000E+00 -0.22851120764E+03  0.22851120764E+03  0.00000000000E+00 0. -1.
         23    2    1    2    0    0 -0.36968325053E+01 -0.15355429881E+02 -0.21203735468E+03  0.23145768934E+03  0.91451442739E+02 0.  0.
         13    1    3    3    0    0 -0.41648887481E+02 -0.15390952982E+02 -0.16578279896E+03  0.17162589459E+03  0.00000000000E+00 0. -1.
        -13    1    3    3    0    0  0.37952054975E+02  0.35523100520E-01 -0.46254555719E+02  0.59831794754E+02  0.00000000000E+00 0.  1.
         22    1    1    2    0    0  0.36968325053E+01  0.15355429881E+02  0.24567235974E+01  0.15984094852E+02  0.00000000000E+00 0. -1.
<mgrwt>
<rscale>  0 0.59607891E+02</rscale>
<asrwt>0</asrwt>
<pdfrwt beam="1">  1        4 0.35155568E-01 0.92805292E+02</pdfrwt>
<pdfrwt beam="2">  1       -4 0.29123966E-02 0.92805292E+02</pdfrwt>
<totfact> 0.65264404E+03</totfact>
</mgrwt>
</event>
<event>
 6    1  0.2975432E-002  0.9569218E+02  0.7546771E-02  0.1369007E+00
         -2   -1    0    0    0  501 -0.00000000000E+00  0.00000000000E+00  0.48026933982E+01  0.48026933982E+01  0.00000000000E+00 0. -1.
          2   -1    0    0  501    0  0.00000000000E+00 -0.00000000000E+00 -0.37480294391E+04  0.37480294391E+04  0.00000000000E+00 0.  1.
         23    2    1    2    0    0 -0.23528754086E+02 -0.19872970463E+01 -0.37141180194E+04  0.37153505428E+04  0.92733178520E+02 0.  0.
         13    1    3    3    0    0 -0.29457746791E+02 -0.32656276640E+02 -0.91325320659E+03  0.91431155008E+03  0.00000000000E+00 0.  1.
        -13    1    3    3    0    0  0.59289927054E+01  0.30668979594E+02 -0.28008648128E+04  0.28010389927E+04  0.00000000000E+00 0. -1.
         22    1    1    2    0    0  0.23528754086E+02  0.19872970463E+01 -0.29108726341E+02  0.37481589715E+02  0.00000000000E+00 0. -1.
<mgrwt>
<rscale>  0 0.67443948E+02</rscale>
<asrwt>0</asrwt>
<pdfrwt beam="1">  1        2 0.57661936E+00 0.95692184E+02</pdfrwt>
<pdfrwt beam="2">  1       -2 0.73887661E-03 0.95692184E+02</pdfrwt>
<totfact> 0.23602038E+03</totfact>
</mgrwt>
</event>
<event>
 6    1  0.2975432E-002  0.1090161E+03  0.7546771E-02  0.1295952E+00
         -2   -1    0    0    0  501 -0.00000000000E+00  0.00000000000E+00  0.98864962014E+01  0.98864962014E+01  0.00000000000E+00 0.  1.
          2   -1    0    0  501    0  0.00000000000E+00 -0.00000000000E+00 -0.70460120257E+03  0.70460120257E+03  0.00000000000E+00 0. -1.
         23    2    1    2    0    0  0.67424635094E+01  0.57120608395E+02 -0.47755545863E+03  0.48984050071E+03  0.92608181889E+02 0.  0.
         11    1    3    3    0    0 -0.33572457542E+02  0.51845695777E+02 -0.36449820159E+03  0.36969450231E+03  0.00000000000E+00 0. -1.
        -11    1    3    3    0    0  0.40314921052E+02  0.52749126179E+01 -0.11305725704E+03  0.12014599840E+03  0.00000000000E+00 0.  1.
         22    1    1    2    0    0 -0.67424635094E+01 -0.57120608395E+02 -0.21715924774E+03  0.22464719806E+03  0.00000000000E+00 0.  1.
<mgrwt>
<rscale>  0 0.92911018E+02</rscale>
<asrwt>0</asrwt>
<pdfrwt beam="1">  1        2 0.10840018E+00 0.10901605E+03</pdfrwt>
<pdfrwt beam="2">  1       -2 0.15209995E-02 0.10901605E+03</pdfrwt>
<totfact> 0.43916672E+04</totfact>
</mgrwt>
</event>
<event>
 6    1  0.2975432E-002  0.9244281E+02  0.7546771E-02  0.1390168E+00
         -1   -1    0    0    0  501 -0.00000000000E+00  0.00000000000E+00  0.41306317296E+01  0.41306317296E+01  0.00000000000E+00 0.  1.
          1   -1    0    0  501    0  0.00000000000E+00 -0.00000000000E+00 -0.15235150494E+04  0.15235150494E+04  0.00000000000E+00 0. -1.
         23    2    1    2    0    0  0.17054153713E+02 -0.72775951382E+01 -0.14902298012E+04  0.14930942815E+04  0.90564152531E+02 0.  0.
         11    1    3    3    0    0  0.34316200660E+02 -0.41185244394E+02 -0.77370244622E+03  0.77555741326E+03  0.00000000000E+00 0. -1.
        -11    1    3    3    0    0 -0.17262046947E+02  0.33907649255E+02 -0.71652735495E+03  0.71753686828E+03  0.00000000000E+00 0.  1.
         22    1    1    2    0    0 -0.17054153713E+02  0.72775951382E+01 -0.29154616461E+02  0.34551399550E+02  0.00000000000E+00 0.  1.
<mgrwt>
<rscale>  0 0.61864895E+02</rscale>
<asrwt>0</asrwt>
<pdfrwt beam="1">  1        1 0.23438638E+00 0.92442811E+02</pdfrwt>
<pdfrwt beam="2">  1       -1 0.63548330E-03 0.92442811E+02</pdfrwt>
<totfact> 0.23303801E+04</totfact>
</mgrwt>
</event>
<event>
 6    1  0.2975432E-002  0.9561084E+02  0.7546771E-02  0.1403043E+00
          2   -1    0    0  501    0  0.00000000000E+00  0.00000000000E+00  0.10539351429E+02  0.10539351429E+02  0.00000000000E+00 0. -1.
         -2   -1    0    0    0  501 -0.00000000000E+00 -0.00000000000E+00 -0.29153483029E+03  0.29153483029E+03  0.00000000000E+00 0.  1.
         23    2    1    2    0    0 -0.10187775743E+02  0.90910125949E+01 -0.22566650129E+03  0.24508529646E+03  0.94630837728E+02 0.  0.
         13    1    3    3    0    0  0.28493517606E+02  0.28575559220E+02 -0.50495657879E+02  0.64639419822E+02  0.00000000000E+00 0. -1.
        -13    1    3    3    0    0 -0.38681293349E+02 -0.19484546625E+02 -0.17517084341E+03  0.18044587663E+03  0.00000000000E+00 0.  1.
         22    1    1    2    0    0  0.10187775743E+02 -0.90910125949E+01 -0.55328977565E+02  0.56988885259E+02  0.00000000000E+00 0. -1.
<mgrwt>
<rscale>  0 0.58775583E+02</rscale>
<asrwt>0</asrwt>
<pdfrwt beam="1">  1        2 0.16214389E-02 0.95610840E+02</pdfrwt>
<pdfrwt beam="2">  1       -2 0.44851508E-01 0.95610840E+02</pdfrwt>
<totfact> 0.30628699E+04</totfact>
</mgrwt>
</event>
<event>
 6    1  0.2975432E-002  0.1037713E+03  0.7546771E-02  0.1324882E+00
         -2   -1    0    0    0  501 -0.00000000000E+00  0.00000000000E+00  0.54054452240E+01  0.54054452240E+01  0.00000000000E+00 0.  1.
          2   -1    0    0  501    0  0.00000000000E+00 -0.00000000000E+00 -0.13181601860E+04  0.13181601860E+04  0.00000000000E+00 0. -1.
         23    2    1    2    0    0 -0.35275102900E+02 -0.17681130378E+02 -0.11924174630E+04  0.11969243438E+04  0.95976681925E+02 0.  0.
         13    1    3    3    0    0 -0.40538704082E+02 -0.44633854596E+02 -0.10587234858E+04  0.10604390539E+04  0.00000000000E+00 0.  1.
        -13    1    3    3    0    0  0.52636011816E+01  0.26952724218E+02 -0.13369397718E+03  0.13648528995E+03  0.00000000000E+00 0. -1.
         22    1    1    2    0    0  0.35275102900E+02  0.17681130378E+02 -0.12033727777E+03  0.12664128741E+03  0.00000000000E+00 0. -1.
<mgrwt>
<rscale>  0 0.81487764E+02</rscale>
<asrwt>0</asrwt>
<pdfrwt beam="1">  1        2 0.20279411E+00 0.10377128E+03</pdfrwt>
<pdfrwt beam="2">  1       -2 0.83160601E-03 0.10377128E+03</pdfrwt>
<totfact> 0.44217081E+04</totfact>
</mgrwt>
</event>
<event>
 6    1  0.2975432E-002  0.1065747E+03  0.7546771E-02  0.1336809E+00
         -2   -1    0    0    0  501 -0.00000000000E+00  0.00000000000E+00  0.67521631726E+01  0.67521631726E+01  0.00000000000E+00 0.  1.
          2   -1    0    0  501    0  0.00000000000E+00 -0.00000000000E+00 -0.75634445437E+03  0.75634445437E+03  0.00000000000E+00 0. -1.
         23    2    1    2    0    0 -0.34305346579E+00  0.29536489226E+02 -0.66522046883E+03  0.67370351775E+03  0.10239939352E+03 0.  0.
         13    1    3    3    0    0  0.65692672686E+01  0.52727017194E+02 -0.62121605203E+03  0.62348430366E+03  0.00000000000E+00 0. -1.
        -13    1    3    3    0    0 -0.69123207344E+01 -0.23190527968E+02 -0.44004416809E+02  0.50219214092E+02  0.00000000000E+00 0.  1.
         22    1    1    2    0    0  0.34305346579E+00 -0.29536489226E+02 -0.84371822365E+02  0.89393099794E+02  0.00000000000E+00 0. -1.
<mgrwt>
<rscale>  0 0.77328129E+02</rscale>
<asrwt>0</asrwt>
<pdfrwt beam="1">  1        2 0.11636063E+00 0.10657466E+03</pdfrwt>
<pdfrwt beam="2">  1       -2 0.10387948E-02 0.10657466E+03</pdfrwt>
<totfact> 0.69392926E+04</totfact>
</mgrwt>
</event>
<event>
 6    1  0.2975432E-002  0.9281061E+02  0.7546771E-02  0.1415805E+00
         -2   -1    0    0    0  501 -0.00000000000E+00  0.00000000000E+00  0.35427429175E+01  0.35427429175E+01  0.00000000000E+00 0.  1.
          2   -1    0    0  501    0  0.00000000000E+00 -0.00000000000E+00 -0.86416058920E+03  0.86416058920E+03  0.00000000000E+00 0. -1.
         23    2    1    2    0    0 -0.41018990447E+01  0.11521497889E+02 -0.82129875766E+03  0.82652613917E+03  0.92001298352E+02 0.  0.
         11    1    3    3    0    0  0.13612992070E+02  0.20660967387E+02 -0.78263788809E+03  0.78302889665E+03  0.00000000000E+00 0. -1.
        -11    1    3    3    0    0 -0.17714891114E+02 -0.91394694974E+01 -0.38660869579E+02  0.43497242516E+02  0.00000000000E+00 0.  1.
         22    1    1    2    0    0  0.41018990447E+01 -0.11521497889E+02 -0.39319088617E+02  0.41177192948E+02  0.00000000000E+00 0.  1.
<mgrwt>
<rscale>  0 0.55918300E+02</rscale>
<asrwt>0</asrwt>
<pdfrwt beam="1">  1        2 0.13294773E+00 0.92810610E+02</pdfrwt>
<pdfrwt beam="2">  1       -2 0.54503761E-03 0.92810610E+02</pdfrwt>
<totfact> 0.14382329E+05</totfact>
</mgrwt>
</event>
<event>
 6    1  0.2975432E-002  0.9913752E+02  0.7546771E-02  0.1336499E+00
          2   -1    0    0  501    0  0.00000000000E+00  0.00000000000E+00  0.20213870952E+04  0.20213870952E+04  0.00000000000E+00 0.  1.
         -2   -1    0    0    0  501 -0.00000000000E+00 -0.00000000000E+00 -0.30951390148E+01  0.30951390148E+01  0.00000000000E+00 0. -1.
         23    2    1    2    0    0 -0.20302047664E+02  0.30808257276E+02  0.18255934361E+04  0.18282832497E+04  0.92015898573E+02 0.  0.
         13    1    3    3    0    0 -0.10210777268E+02 -0.16938802202E+02  0.96738138595E+02  0.98739305504E+02  0.00000000000E+00 0. -1.
        -13    1    3    3    0    0 -0.10091270395E+02  0.47747059478E+02  0.17288552975E+04  0.17295439442E+04  0.00000000000E+00 0.  1.
         22    1    1    2    0    0  0.20302047664E+02 -0.30808257276E+02  0.19269852013E+03  0.19619898449E+03  0.00000000000E+00 0. -1.
<mgrwt>
<rscale>  0 0.77432563E+02</rscale>
<asrwt>0</asrwt>
<pdfrwt beam="1">  1        2 0.31098158E+00 0.99137518E+02</pdfrwt>
<pdfrwt beam="2">  1       -2 0.47617685E-03 0.99137518E+02</pdfrwt>
<totfact> 0.42333960E+04</totfact>
</mgrwt>
</event>
<event>
 6    1  0.2975432E-002  0.9406611E+02  0.7546771E-02  0.1424422E+00
          4   -1    0    0  501    0  0.00000000000E+00  0.00000000000E+00  0.57170583591E+02  0.57170583591E+02  0.00000000000E+00 0. -1.
         -4   -1    0    0    0  501 -0.00000000000E+00 -0.00000000000E+00 -0.56339294159E+02  0.56339294159E+02  0.00000000000E+00 0.  1.
         23    2    1    2    0    0 -0.96241855869E+01 -0.36379901677E+01  0.15761881813E+02  0.95377516913E+02  0.93501732035E+02 0.  0.
         13    1    3    3    0    0  0.25445782224E+02 -0.23710419152E+02  0.36109594336E+02  0.50135562353E+02  0.00000000000E+00 0. -1.
        -13    1    3    3    0    0 -0.35069967811E+02  0.20072428984E+02 -0.20347712522E+02  0.45241954561E+02  0.00000000000E+00 0.  1.
         22    1    1    2    0    0  0.96241855869E+01  0.36379901677E+01 -0.14930592381E+02  0.18132360837E+02  0.00000000000E+00 0.  1.
<mgrwt>
<rscale>  0 0.54096149E+02</rscale>
<asrwt>0</asrwt>
<pdfrwt beam="1">  1        4 0.87954744E-02 0.94066114E+02</pdfrwt>
<pdfrwt beam="2">  1       -4 0.86675837E-02 0.94066114E+02</pdfrwt>
<totfact> 0.13294825E+04</totfact>
</mgrwt>
</event>
<event>
 6    1  0.2975432E-002  0.9042245E+02  0.7546771E-02  0.1394989E+00
         -1   -1    0    0    0  501 -0.00000000000E+00  0.00000000000E+00  0.89013903001E+01  0.89013903001E+01  0.00000000000E+00 0.  1.
          1   -1    0    0  501    0  0.00000000000E+00 -0.00000000000E+00 -0.37329370008E+03  0.37329370008E+03  0.00000000000E+00 0. -1.
         23    2    1    2    0    0  0.13469430179E-01 -0.18341365082E+02 -0.33912312160E+03  0.35097109759E+03  0.88542723507E+02 0.  0.
         13    1    3    3    0    0 -0.11609531394E+02 -0.25420432037E+02 -0.28032117079E+02  0.39582561465E+02  0.00000000000E+00 0.  1.
        -13    1    3    3    0    0  0.11623000825E+02  0.70790669555E+01 -0.31109100452E+03  0.31138853612E+03  0.00000000000E+00 0. -1.
         22    1    1    2    0    0 -0.13469430179E-01  0.18341365082E+02 -0.25269188186E+02  0.31223992795E+02  0.00000000000E+00 0.  1.
<mgrwt>
<rscale>  0 0.60682736E+02</rscale>
<asrwt>0</asrwt>
<pdfrwt beam="1">  1        1 0.57429793E-01 0.90422452E+02</pdfrwt>
<pdfrwt beam="2">  1       -1 0.13694448E-02 0.90422452E+02</pdfrwt>
<totfact> 0.68642598E+04</totfact>
</mgrwt>
</event>
<event>
 6    1  0.2975432E-002  0.9201858E+02  0.7546771E-02  0.1428640E+00
          2   -1    0    0  501    0  0.00000000000E+00  0.00000000000E+00  0.37104332197E+03  0.37104332197E+03  0.00000000000E+00 0. -1.
         -2   -1    0    0    0  501 -0.00000000000E+00 -0.00000000000E+00 -0.13412197576E+02  0.13412197576E+02  0.00000000000E+00 0.  1.
         23    2    1    2    0    0  0.35044987752E+01  0.96927933585E+01  0.36181414185E+03  0.37333214822E+03  0.91439531392E+02 0.  0.
         13    1    3    3    0    0  0.37067467363E+02  0.27199146992E+02  0.27212935719E+03  0.27598582894E+03  0.00000000000E+00 0. -1.
        -13    1    3    3    0    0 -0.33562968588E+02 -0.17506353634E+02  0.89684784658E+02  0.97346319279E+02  0.00000000000E+00 0.  1.
         22    1    1    2    0    0 -0.35044987752E+01 -0.96927933585E+01 -0.41830174478E+01  0.11123371329E+02  0.00000000000E+00 0.  1.
<mgrwt>
<rscale>  0 0.53233920E+02</rscale>
<asrwt>0</asrwt>
<pdfrwt beam="1">  1        2 0.57083580E-01 0.92018583E+02</pdfrwt>
<pdfrwt beam="2">  1       -2 0.20634153E-02 0.92018583E+02</pdfrwt>
<totfact> 0.56112517E+04</totfact>
</mgrwt>
</event>
<event>
 6    1  0.2975432E-002  0.9414498E+02  0.7546771E-02  0.1396066E+00
          2   -1    0    0  501    0  0.00000000000E+00  0.00000000000E+00  0.44924908251E+02  0.44924908251E+02  0.00000000000E+00 0. -1.
         -2   -1    0    0    0  501 -0.00000000000E+00 -0.00000000000E+00 -0.67810135569E+02  0.67810135569E+02  0.00000000000E+00 0.  1.
         23    2    1    2    0    0  0.10547466416E+02 -0.11996477028E+02 -0.16749677924E+02  0.95623367244E+02  0.92779912393E+02 0.  0.
         11    1    3    3    0    0  0.42430841992E+02  0.10729481010E+02 -0.31349889694E+02  0.53835988880E+02  0.00000000000E+00 0. -1.
        -11    1    3    3    0    0 -0.31883375576E+02 -0.22725958038E+02  0.14600211770E+02  0.41787378364E+02  0.00000000000E+00 0.  1.
         22    1    1    2    0    0 -0.10547466416E+02  0.11996477028E+02 -0.61355493939E+01  0.17111676576E+02  0.00000000000E+00 0.  1.
<mgrwt>
<rscale>  0 0.60422738E+02</rscale>
<asrwt>0</asrwt>
<pdfrwt beam="1">  1        2 0.69115243E-02 0.94144977E+02</pdfrwt>
<pdfrwt beam="2">  1       -2 0.10432329E-01 0.94144977E+02</pdfrwt>
<totfact> 0.54851847E+04</totfact>
</mgrwt>
</event>
<event>
 6    1  0.2975432E-002  0.9956808E+02  0.7546771E-02  0.1387921E+00
         -2   -1    0    0    0  501 -0.00000000000E+00  0.00000000000E+00  0.32508425721E+01  0.32508425721E+01  0.00000000000E+00 0.  1.
          2   -1    0    0  501    0  0.00000000000E+00 -0.00000000000E+00 -0.12592205495E+04  0.12592205495E+04  0.00000000000E+00 0. -1.
         23    2    1    2    0    0 -0.15071372939E+02 -0.30955396229E+01 -0.12079582636E+04  0.12120548537E+04  0.98372116031E+02 0.  0.
         13    1    3    3    0    0 -0.27261467928E+02 -0.28645200378E+02 -0.10911091017E+04  0.10918254471E+04  0.00000000000E+00 0. -1.
        -13    1    3    3    0    0  0.12190094989E+02  0.25549660755E+02 -0.11684916181E+03  0.12022940654E+03  0.00000000000E+00 0.  1.
         22    1    1    2    0    0  0.15071372939E+02  0.30955396229E+01 -0.48011443383E+02  0.50416538393E+02  0.00000000000E+00 0. -1.
<mgrwt>
<rscale>  0 0.62426853E+02</rscale>
<asrwt>0</asrwt>
<pdfrwt beam="1">  1        2 0.19372633E+00 0.99568077E+02</pdfrwt>
<pdfrwt beam="2">  1       -2 0.50012940E-03 0.99568077E+02</pdfrwt>
<totfact> 0.96957288E+04</totfact>
</mgrwt>
</event>
<event>
 6    1  0.2975432E-002  0.9570474E+02  0.7546771E-02  0.1394206E+00
          2   -1    0    0  501    0  0.00000000000E+00  0.00000000000E+00  0.43681710656E+03  0.43681710656E+03  0.00000000000E+00 0. -1.
         -2   -1    0    0    0  501 -0.00000000000E+00 -0.00000000000E+00 -0.95485359359E+01  0.95485359359E+01  0.00000000000E+00 0.  1.
         23    2    1    2    0    0 -0.12115706469E+02 -0.99272847849E+01  0.41650837096E+03  0.42736240006E+03  0.94414281613E+02 0.  0.
         11    1    3    3    0    0 -0.18303892015E+02  0.26780973493E+01  0.10819351288E+02  0.21430423014E+02  0.00000000000E+00 0.  1.
        -11    1    3    3    0    0  0.61881855455E+01 -0.12605382134E+02  0.40568901968E+03  0.40593197704E+03  0.00000000000E+00 0. -1.
         22    1    1    2    0    0  0.12115706469E+02  0.99272847849E+01  0.10760199657E+02  0.19003242437E+02  0.00000000000E+00 0. -1.
<mgrwt>
<rscale>  0 0.60872542E+02</rscale>
<asrwt>0</asrwt>
<pdfrwt beam="1">  1        2 0.67202616E-01 0.95704743E+02</pdfrwt>
<pdfrwt beam="2">  1       -2 0.14690059E-02 0.95704743E+02</pdfrwt>
<totfact> 0.77260884E+04</totfact>
</mgrwt>
</event>
<event>
 6    1  0.2975432E-002  0.9142677E+02  0.7546771E-02  0.1429577E+00
          2   -1    0    0  501    0  0.00000000000E+00  0.00000000000E+00  0.74152163571E+03  0.74152163571E+03  0.00000000000E+00 0.  1.
         -2   -1    0    0    0  501 -0.00000000000E+00 -0.00000000000E+00 -0.67787432215E+01  0.67787432215E+01  0.00000000000E+00 0. -1.
         23    2    1    2    0    0 -0.88715253252E+01  0.53501007773E+01  0.73185759119E+03  0.73754619353E+03  0.90837912121E+02 0.  0.
         13    1    3    3    0    0 -0.37129692207E+02  0.34599969441E+02  0.40984791744E+03  0.41297831342E+03  0.00000000000E+00 0.  1.
        -13    1    3    3    0    0  0.28258166882E+02 -0.29249868664E+02  0.32200967375E+03  0.32456788011E+03  0.00000000000E+00 0. -1.
         22    1    1    2    0    0  0.88715253252E+01 -0.53501007773E+01  0.28853012988E+01  0.10754185395E+02  0.00000000000E+00 0. -1.
<mgrwt>
<rscale>  0 0.53044935E+02</rscale>
<asrwt>0</asrwt>
<pdfrwt beam="1">  1        2 0.11408019E+00 0.91426768E+02</pdfrwt>
<pdfrwt beam="2">  1       -2 0.10428842E-02 0.91426768E+02</pdfrwt>
<totfact> 0.69339320E+04</totfact>
</mgrwt>
</event>
<event>
 6    1  0.2975432E-002  0.9641033E+02  0.7546771E-02  0.1354988E+00
         -2   -1    0    0    0  501 -0.00000000000E+00  0.00000000000E+00  0.86600215922E+01  0.86600215922E+01  0.00000000000E+00 0.  1.
          2   -1    0    0  501    0  0.00000000000E+00 -0.00000000000E+00 -0.82852402186E+03  0.82852402186E+03  0.00000000000E+00 0. -1.
         23    2    1    2    0    0  0.29183999445E+02 -0.10402200671E+01 -0.78833670718E+03  0.79421012007E+03  0.91881244278E+02 0.  0.
         13    1    3    3    0    0  0.28489700826E+02  0.94600931735E+01 -0.74844100588E+02  0.80639914489E+02  0.00000000000E+00 0.  1.
        -13    1    3    3    0    0  0.69429861956E+00 -0.10500313241E+02 -0.71349260660E+03  0.71357020558E+03  0.00000000000E+00 0. -1.
         22    1    1    2    0    0 -0.29183999445E+02  0.10402200671E+01 -0.31527293081E+02  0.42973923377E+02  0.00000000000E+00 0. -1.
<mgrwt>
<rscale>  0 0.71523341E+02</rscale>
<asrwt>0</asrwt>
<pdfrwt beam="1">  1        2 0.12746529E+00 0.96410326E+02</pdfrwt>
<pdfrwt beam="2">  1       -2 0.13323104E-02 0.96410326E+02</pdfrwt>
<totfact> 0.43054677E+04</totfact>
</mgrwt>
</event>
<event>
 6    1  0.2975432E-002  0.9252371E+02  0.7546771E-02  0.1387469E+00
          2   -1    0    0  501    0  0.00000000000E+00  0.00000000000E+00  0.68744902210E+03  0.68744902210E+03  0.00000000000E+00 0. -1.
         -2   -1    0    0    0  501 -0.00000000000E+00 -0.00000000000E+00 -0.49433043609E+01  0.49433043609E+01  0.00000000000E+00 0.  1.
         23    2    1    2    0    0 -0.15547322544E+02 -0.11460275098E+02  0.62293236762E+03  0.62976612438E+03  0.90485245398E+02 0.  0.
         13    1    3    3    0    0  0.28552503713E+02  0.21228973186E+02  0.18342678432E+03  0.18684565817E+03  0.00000000000E+00 0.  1.
        -13    1    3    3    0    0 -0.44099826257E+02 -0.32689248285E+02  0.43950558331E+03  0.44292046621E+03  0.00000000000E+00 0. -1.
         22    1    1    2    0    0  0.15547322544E+02  0.11460275098E+02  0.59573350114E+02  0.62626202083E+02  0.00000000000E+00 0. -1.
<mgrwt>
<rscale>  0 0.62540550E+02</rscale>
<asrwt>0</asrwt>
<pdfrwt beam="1">  1        2 0.10576131E+00 0.92523709E+02</pdfrwt>
<pdfrwt beam="2">  1       -2 0.76050891E-03 0.92523709E+02</pdfrwt>
<totfact> 0.11860510E+05</totfact>
</mgrwt>
</event>
<event>
 6    1  0.2975432E-002  0.1083543E+03  0.7546771E-02  0.1379754E+00
          2   -1    0    0  501    0  0.00000000000E+00  0.00000000000E+00  0.15522682036E+03  0.15522682036E+03  0.00000000000E+00 0. -1.
         -2   -1    0    0    0  501 -0.00000000000E+00 -0.00000000000E+00 -0.41322659370E+02  0.41322659370E+02  0.00000000000E+00 0.  1.
         23    2    1    2    0    0  0.52645826971E+01  0.12571304591E+02  0.13396305562E+03  0.17229844297E+03  0.10749371911E+03 0.  0.
         13    1    3    3    0    0  0.16096851192E+02  0.37399623571E+02  0.13891669322E+03  0.14476079620E+03  0.00000000000E+00 0. -1.
        -13    1    3    3    0    0 -0.10832268495E+02 -0.24828318980E+02 -0.49536375962E+01  0.27537646769E+02  0.00000000000E+00 0.  1.
         22    1    1    2    0    0 -0.52645826971E+01 -0.12571304591E+02 -0.20058894633E+02  0.24251036761E+02  0.00000000000E+00 0. -1.
<mgrwt>
<rscale>  0 0.64528524E+02</rscale>
<asrwt>0</asrwt>
<pdfrwt beam="1">  1        2 0.23881049E-01 0.10835429E+03</pdfrwt>
<pdfrwt beam="2">  1       -2 0.63573323E-02 0.10835429E+03</pdfrwt>
<totfact> 0.27627605E+04</totfact>
</mgrwt>
</event>
<event>
 6    1  0.2975432E-002  0.9480527E+02  0.7546771E-02  0.1388755E+00
         -2   -1    0    0    0  501 -0.00000000000E+00  0.00000000000E+00  0.52961990698E+01  0.52961990698E+01  0.00000000000E+00 0.  1.
          2   -1    0    0  501    0  0.00000000000E+00 -0.00000000000E+00 -0.12213714161E+04  0.12213714161E+04  0.00000000000E+00 0. -1.
         23    2    1    2    0    0  0.19871016876E+01 -0.17472778610E+02 -0.11969030234E+04  0.12006518589E+04  0.93160035886E+02 0.  0.
         11    1    3    3    0    0 -0.24771296883E+02 -0.16673355301E+02 -0.12889967804E+03  0.13231305652E+03  0.00000000000E+00 0.  1.
        -11    1    3    3    0    0  0.26758398571E+02 -0.79942330961E+00 -0.10680033454E+04  0.10683388024E+04  0.00000000000E+00 0. -1.
         22    1    1    2    0    0 -0.19871016876E+01  0.17472778610E+02 -0.19172193608E+02  0.26015756249E+02  0.00000000000E+00 0.  1.
<mgrwt>
<rscale>  0 0.62217487E+02</rscale>
<asrwt>0</asrwt>
<pdfrwt beam="1">  1        2 0.18790342E+00 0.94805268E+02</pdfrwt>
<pdfrwt beam="2">  1       -2 0.81479932E-03 0.94805268E+02</pdfrwt>
<totfact> 0.50824295E+04</totfact>
</mgrwt>
</event>
<event>
 6    1  0.2975432E-002  0.9130721E+02  0.7546771E-02  0.1431816E+00
          2   -1    0    0  501    0  0.00000000000E+00  0.00000000000E+00  0.24864908165E+03  0.24864908165E+03  0.00000000000E+00 0. -1.
         -2   -1    0    0    0  501 -0.00000000000E+00 -0.00000000000E+00 -0.12415571122E+02  0.12415571122E+02  0.00000000000E+00 0.  1.
         23    2    1    2    0    0  0.83159514403E+01  0.56502181259E+01  0.23339208965E+03  0.25061698864E+03  0.90752010838E+02 0.  0.
         13    1    3    3    0    0 -0.31958277127E+02  0.30262315920E+02  0.10691606293E+03  0.11562086211E+03  0.00000000000E+00 0. -1.
        -13    1    3    3    0    0  0.40274228568E+02 -0.24612097794E+02  0.12647602672E+03  0.13499612654E+03  0.00000000000E+00 0.  1.
         22    1    1    2    0    0 -0.83159514403E+01 -0.56502181259E+01  0.28414208799E+01  0.10447664133E+02  0.00000000000E+00 0. -1.
<mgrwt>
<rscale>  0 0.52597122E+02</rscale>
<asrwt>0</asrwt>
<pdfrwt beam="1">  1        2 0.38253701E-01 0.91307215E+02</pdfrwt>
<pdfrwt beam="2">  1       -2 0.19100880E-02 0.91307215E+02</pdfrwt>
<totfact> 0.95224889E+04</totfact>
</mgrwt>
</event>
<event>
 6    1  0.2975432E-002  0.9482653E+02  0.7546771E-02  0.1371717E+00
          1   -1    0    0  501    0  0.00000000000E+00  0.00000000000E+00  0.18447863429E+03  0.18447863429E+03  0.00000000000E+00 0. -1.
         -1   -1    0    0    0  501 -0.00000000000E+00 -0.00000000000E+00 -0.35905401004E+02  0.35905401004E+02  0.00000000000E+00 0.  1.
         23    2    1    2    0    0  0.15406686597E+02  0.17347494390E+02  0.16613017493E+03  0.19128854159E+03  0.91944383019E+02 0.  0.
         13    1    3    3    0    0  0.18025890141E+02  0.13296355939E+02  0.17751563473E+03  0.17892324156E+03  0.00000000000E+00 0. -1.
        -13    1    3    3    0    0 -0.26192035437E+01  0.40511384509E+01 -0.11385459802E+02  0.12365300031E+02  0.00000000000E+00 0.  1.
         22    1    1    2    0    0 -0.15406686597E+02 -0.17347494390E+02 -0.17556941647E+02  0.29095493698E+02  0.00000000000E+00 0.  1.
<mgrwt>
<rscale>  0 0.66692286E+02</rscale>
<asrwt>0</asrwt>
<pdfrwt beam="1">  1        1 0.28381328E-01 0.94826532E+02</pdfrwt>
<pdfrwt beam="2">  1       -1 0.55239080E-02 0.94826532E+02</pdfrwt>
<totfact> 0.21980836E+04</totfact>
</mgrwt>
</event>
<event>
 6    1  0.2975432E-002  0.9122202E+02  0.7546771E-02  0.1392302E+00
         -1   -1    0    0    0  501 -0.00000000000E+00  0.00000000000E+00  0.68618179170E+02  0.68618179170E+02  0.00000000000E+00 0.  1.
          1   -1    0    0  501    0  0.00000000000E+00 -0.00000000000E+00 -0.43992396496E+02  0.43992396496E+02  0.00000000000E+00 0. -1.
         23    2    1    2    0    0 -0.11126761695E+02 -0.14963786192E+02  0.19728577915E+02  0.93330992230E+02  0.89295787141E+02 0.  0.
         13    1    3    3    0    0 -0.19593359179E+02  0.23219349154E+02 -0.20947042005E+02  0.36902797561E+02  0.00000000000E+00 0. -1.
        -13    1    3    3    0    0  0.84665974835E+01 -0.38183135346E+02  0.40675619920E+02  0.56428194669E+02  0.00000000000E+00 0.  1.
         22    1    1    2    0    0  0.11126761695E+02  0.14963786192E+02  0.48972047592E+01  0.19279583436E+02  0.00000000000E+00 0. -1.
<mgrwt>
<rscale>  0 0.61337834E+02</rscale>
<asrwt>0</asrwt>
<pdfrwt beam="1">  1        1 0.67680610E-02 0.91222022E+02</pdfrwt>
<pdfrwt beam="2">  1       -1 0.10556643E-01 0.91222022E+02</pdfrwt>
<totfact> 0.52556343E+04</totfact>
</mgrwt>
</event>
<event>
 6    1  0.2975432E-002  0.9687475E+02  0.7546771E-02  0.1378094E+00
         -2   -1    0    0    0  501 -0.00000000000E+00  0.00000000000E+00  0.69163410802E+01  0.69163410802E+01  0.00000000000E+00 0.  1.
          2   -1    0    0  501    0  0.00000000000E+00 -0.00000000000E+00 -0.53669150875E+03  0.53669150875E+03  0.00000000000E+00 0. -1.
         23    2    1    2    0    0  0.19423429035E+02 -0.25899216108E+01 -0.48722481550E+03  0.49676225495E+03  0.94872228917E+02 0.  0.
         13    1    3    3    0    0  0.39337689664E+02 -0.38247181010E+02 -0.24042096514E+03  0.24660198938E+03  0.00000000000E+00 0.  1.
        -13    1    3    3    0    0 -0.19914260628E+02  0.35657259399E+02 -0.24680385035E+03  0.25016026558E+03  0.00000000000E+00 0. -1.
         22    1    1    2    0    0 -0.19423429035E+02  0.25899216108E+01 -0.42550352174E+02  0.46845594879E+02  0.00000000000E+00 0.  1.
<mgrwt>
<rscale>  0 0.64967497E+02</rscale>
<asrwt>0</asrwt>
<pdfrwt beam="1">  1        2 0.82567931E-01 0.96874750E+02</pdfrwt>
<pdfrwt beam="2">  1       -2 0.10640524E-02 0.96874750E+02</pdfrwt>
<totfact> 0.98084111E+04</totfact>
</mgrwt>
</event>
<event>
 6    1  0.2975432E-002  0.9540446E+02  0.7546771E-02  0.1361194E+00
          2   -1    0    0  501    0  0.00000000000E+00  0.00000000000E+00  0.65339315355E+03  0.65339315355E+03  0.00000000000E+00 0. -1.
         -2   -1    0    0    0  501 -0.00000000000E+00 -0.00000000000E+00 -0.57462043139E+01  0.57462043139E+01  0.00000000000E+00 0.  1.
         23    2    1    2    0    0 -0.23802085708E+02  0.13046094578E+02  0.50532023573E+03  0.51424755946E+03  0.91461860372E+02 0.  0.
         13    1    3    3    0    0 -0.28512188047E+02  0.48202326457E+02  0.37612891168E+03  0.38027538357E+03  0.00000000000E+00 0. -1.
        -13    1    3    3    0    0  0.47101023393E+01 -0.35156231879E+02  0.12919132404E+03  0.13397217589E+03  0.00000000000E+00 0.  1.
         22    1    1    2    0    0  0.23802085708E+02 -0.13046094578E+02  0.14232671351E+03  0.14489179841E+03  0.00000000000E+00 0. -1.
<mgrwt>
<rscale>  0 0.69677217E+02</rscale>
<asrwt>0</asrwt>
<pdfrwt beam="1">  1        2 0.10052196E+00 0.95404464E+02</pdfrwt>
<pdfrwt beam="2">  1       -2 0.88403195E-03 0.95404464E+02</pdfrwt>
<totfact> 0.10211925E+05</totfact>
</mgrwt>
</event>
<event>
 6    1  0.2975432E-002  0.9119925E+02  0.7546771E-02  0.1421309E+00
         -2   -1    0    0    0  501 -0.00000000000E+00  0.00000000000E+00  0.44122375293E+01  0.44122375293E+01  0.00000000000E+00 0.  1.
          2   -1    0    0  501    0  0.00000000000E+00 -0.00000000000E+00 -0.61233216530E+03  0.61233216530E+03  0.00000000000E+00 0. -1.
         23    2    1    2    0    0  0.36646339019E+00 -0.11835724199E+02 -0.56033739004E+03  0.56771057206E+03  0.90427232029E+02 0.  0.
         11    1    3    3    0    0 -0.29861694543E+02  0.22554772773E+02 -0.37242115058E+03  0.37429660962E+03  0.00000000000E+00 0. -1.
        -11    1    3    3    0    0  0.30228157934E+02 -0.34390496971E+02 -0.18791623946E+03  0.19341396244E+03  0.00000000000E+00 0.  1.
         22    1    1    2    0    0 -0.36646339019E+00  0.11835724199E+02 -0.47582537730E+02  0.49033830766E+02  0.00000000000E+00 0. -1.
<mgrwt>
<rscale>  0 0.54744964E+02</rscale>
<asrwt>0</asrwt>
<pdfrwt beam="1">  1        2 0.94205021E-01 0.91199249E+02</pdfrwt>
<pdfrwt beam="2">  1       -2 0.67880525E-03 0.91199249E+02</pdfrwt>
<totfact> 0.15852964E+05</totfact>
</mgrwt>
</event>
<event>
 6    1  0.2975432E-002  0.9511791E+02  0.7546771E-02  0.1364992E+00
         -2   -1    0    0    0  501 -0.00000000000E+00  0.00000000000E+00  0.49200169070E+02  0.49200169070E+02  0.00000000000E+00 0. -1.
          2   -1    0    0  501    0  0.00000000000E+00 -0.00000000000E+00 -0.13590541028E+03  0.13590541028E+03  0.00000000000E+00 0.  1.
         23    2    1    2    0    0 -0.20269254830E+02 -0.15805145903E+02 -0.11342560016E+03  0.14802967193E+03  0.91579319013E+02 0.  0.
         11    1    3    3    0    0  0.32271086834E+02 -0.45041812481E+01 -0.75564369360E+02  0.82290246147E+02  0.00000000000E+00 0.  1.
        -11    1    3    3    0    0 -0.52540341664E+02 -0.11300964655E+02 -0.37861230801E+02  0.65739425781E+02  0.00000000000E+00 0. -1.
         22    1    1    2    0    0  0.20269254830E+02  0.15805145903E+02  0.26720358954E+02  0.37075907420E+02  0.00000000000E+00 0.  1.
<mgrwt>
<rscale>  0 0.68579257E+02</rscale>
<asrwt>0</asrwt>
<pdfrwt beam="1">  1        2 0.20908525E-01 0.95117911E+02</pdfrwt>
<pdfrwt beam="2">  1       -2 0.75692567E-02 0.95117911E+02</pdfrwt>
<totfact> 0.24196279E+04</totfact>
</mgrwt>
</event>
<event>
 6    1  0.2975432E-002  0.9404218E+02  0.7546771E-02  0.1371687E+00
         -2   -1    0    0    0  501 -0.00000000000E+00  0.00000000000E+00  0.47738785480E+02  0.47738785480E+02  0.00000000000E+00 0.  1.
          2   -1    0    0  501    0  0.00000000000E+00 -0.00000000000E+00 -0.89542924492E+02  0.89542924492E+02  0.00000000000E+00 0. -1.
         23    2    1    2    0    0 -0.23541827532E+02  0.34856907093E+01 -0.56115035835E+02  0.10951177207E+03  0.90981115028E+02 0.  0.
         11    1    3    3    0    0 -0.22987063814E+02  0.70794891341E+01  0.21229744343E+02  0.32081557226E+02  0.00000000000E+00 0.  1.
        -11    1    3    3    0    0 -0.55476371774E+00 -0.35937984248E+01 -0.77344780177E+02  0.77430214843E+02  0.00000000000E+00 0. -1.
         22    1    1    2    0    0  0.23541827532E+02 -0.34856907093E+01  0.14310896822E+02  0.27769937903E+02  0.00000000000E+00 0.  1.
<mgrwt>
<rscale>  0 0.66700534E+02</rscale>
<asrwt>0</asrwt>
<pdfrwt beam="1">  1        2 0.13775834E-01 0.94042177E+02</pdfrwt>
<pdfrwt beam="2">  1       -2 0.73444286E-02 0.94042177E+02</pdfrwt>
<totfact> 0.40720105E+04</totfact>
</mgrwt>
</event>
<event>
 6    1  0.2975432E-002  0.9205341E+02  0.7546771E-02  0.1405524E+00
          2   -1    0    0  501    0  0.00000000000E+00  0.00000000000E+00  0.11274591695E+04  0.11274591695E+04  0.00000000000E+00 0. -1.
         -2   -1    0    0    0  501 -0.00000000000E+00 -0.00000000000E+00 -0.45396610238E+01  0.45396610238E+01  0.00000000000E+00 0.  1.
         23    2    1    2    0    0 -0.13060068703E+02  0.67765051230E+01  0.11049329862E+04  0.11087609003E+04  0.90869927182E+02 0.  0.
         11    1    3    3    0    0 -0.26556820815E+02  0.46879240335E+01  0.10799656364E+04  0.10803022804E+04  0.00000000000E+00 0. -1.
        -11    1    3    3    0    0  0.13496752112E+02  0.20885810895E+01  0.24967349852E+02  0.28458619910E+02  0.00000000000E+00 0.  1.
         22    1    1    2    0    0  0.13060068703E+02 -0.67765051230E+01  0.17986522235E+02  0.23237930164E+02  0.00000000000E+00 0.  1.
<mgrwt>
<rscale>  0 0.58204792E+02</rscale>
<asrwt>0</asrwt>
<pdfrwt beam="1">  1        2 0.17345503E+00 0.92053409E+02</pdfrwt>
<pdfrwt beam="2">  1       -2 0.69841029E-03 0.92053409E+02</pdfrwt>
<totfact> 0.70885262E+04</totfact>
</mgrwt>
</event>
<event>
 6    1  0.2975432E-002  0.9289256E+02  0.7546771E-02  0.1407797E+00
         -2   -1    0    0    0  501 -0.00000000000E+00  0.00000000000E+00  0.10840933205E+02  0.10840933205E+02  0.00000000000E+00 0.  1.
          2   -1    0    0  501    0  0.00000000000E+00 -0.00000000000E+00 -0.27337612207E+03  0.27337612207E+03  0.00000000000E+00 0. -1.
         23    2    1    2    0    0 -0.10156831843E+02  0.93671843422E+01 -0.24410746840E+03  0.26118476800E+03  0.91859248477E+02 0.  0.
         11    1    3    3    0    0 -0.17481145371E+02 -0.37727398934E+02 -0.78203075220E+02  0.88570130674E+02  0.00000000000E+00 0.  1.
        -11    1    3    3    0    0  0.73243135274E+01  0.47094583276E+02 -0.16590439318E+03  0.17261463733E+03  0.00000000000E+00 0. -1.
         22    1    1    2    0    0  0.10156831843E+02 -0.93671843422E+01 -0.18427720465E+02  0.23032287275E+02  0.00000000000E+00 0. -1.
<mgrwt>
<rscale>  0 0.57688328E+02</rscale>
<asrwt>0</asrwt>
<pdfrwt beam="1">  1        2 0.42057866E-01 0.92892556E+02</pdfrwt>
<pdfrwt beam="2">  1       -2 0.16678358E-02 0.92892556E+02</pdfrwt>
<totfact> 0.10496787E+05</totfact>
</mgrwt>
</event>
<event>
 6    1  0.2975432E-002  0.1070408E+03  0.7546771E-02  0.1303885E+00
         -4   -1    0    0    0  501 -0.00000000000E+00  0.00000000000E+00  0.54353892518E+02  0.54353892518E+02  0.00000000000E+00 0.  1.
          4   -1    0    0  501    0  0.00000000000E+00 -0.00000000000E+00 -0.21612770907E+03  0.21612770907E+03  0.00000000000E+00 0. -1.
         23    2    1    2    0    0 -0.46907102189E+02 -0.23560868779E+02 -0.18448317375E+03  0.21328802084E+03  0.93286374484E+02 0.  0.
         13    1    3    3    0    0 -0.62764379989E+02 -0.45028464510E+02 -0.15702334122E+03  0.17499502764E+03  0.00000000000E+00 0. -1.
        -13    1    3    3    0    0  0.15857277800E+02  0.21467595730E+02 -0.27459832532E+02  0.38292993202E+02  0.00000000000E+00 0.  1.
         22    1    1    2    0    0  0.46907102189E+02  0.23560868779E+02  0.22709357202E+02  0.57193580741E+02  0.00000000000E+00 0.  1.
<mgrwt>
<rscale>  0 0.89574623E+02</rscale>
<asrwt>0</asrwt>
<pdfrwt beam="1">  1        4 0.33250417E-01 0.10704083E+03</pdfrwt>
<pdfrwt beam="2">  1       -4 0.83621373E-02 0.10704083E+03</pdfrwt>
<totfact> 0.13970141E+03</totfact>
</mgrwt>
</event>
<event>
 6    1  0.2975432E-002  0.9004218E+02  0.7546771E-02  0.1407310E+00
         -2   -1    0    0    0  501 -0.00000000000E+00  0.00000000000E+00  0.14770564954E+02  0.14770564954E+02  0.00000000000E+00 0.  1.
          2   -1    0    0  501    0  0.00000000000E+00 -0.00000000000E+00 -0.22236840298E+03  0.22236840298E+03  0.00000000000E+00 0. -1.
         23    2    1    2    0    0 -0.59371871653E+01  0.14087178094E+02 -0.20145824268E+03  0.22066494568E+03  0.88734975817E+02 0.  0.
         11    1    3    3    0    0 -0.37187588294E+02 -0.13881426174E+02 -0.51908290916E+02  0.65345859713E+02  0.00000000000E+00 0.  1.
        -11    1    3    3    0    0  0.31250401129E+02  0.27968604268E+02 -0.14954995176E+03  0.15531908597E+03  0.00000000000E+00 0. -1.
         22    1    1    2    0    0  0.59371871653E+01 -0.14087178094E+02 -0.61395953499E+01  0.16474022252E+02  0.00000000000E+00 0.  1.
<mgrwt>
<rscale>  0 0.57798500E+02</rscale>
<asrwt>0</asrwt>
<pdfrwt beam="1">  1        2 0.34210520E-01 0.90042183E+02</pdfrwt>
<pdfrwt beam="2">  1       -2 0.22723949E-02 0.90042183E+02</pdfrwt>
<totfact> 0.83285766E+04</totfact>
</mgrwt>
</event>
<event>
 6    1  0.2975432E-002  0.1179537E+03  0.7546771E-02  0.1276827E+00
         -2   -1    0    0    0  501 -0.00000000000E+00  0.00000000000E+00  0.51473012446E+03  0.51473012446E+03  0.00000000000E+00 0.  1.
          2   -1    0    0  501    0  0.00000000000E+00 -0.00000000000E+00 -0.29814590947E+02  0.29814590947E+02  0.00000000000E+00 0. -1.
         23    2    1    2    0    0 -0.65102756433E+02  0.11620415382E+00  0.10141429317E+03  0.15555681876E+03  0.98359964433E+02 0.  0.
         11    1    3    3    0    0 -0.51373082051E+02 -0.45795120831E+02  0.48655001461E+02  0.84283425526E+02  0.00000000000E+00 0. -1.
        -11    1    3    3    0    0 -0.13729674382E+02  0.45911324985E+02  0.52759291712E+02  0.71273393230E+02  0.00000000000E+00 0.  1.
         22    1    1    2    0    0  0.65102756433E+02 -0.11620415382E+00  0.38350124034E+03  0.38898789665E+03  0.00000000000E+00 0.  1.
<mgrwt>
<rscale>  0 0.10166783E+03</rscale>
<asrwt>0</asrwt>
<pdfrwt beam="1">  1        2 0.45868605E-02 0.11795366E+03</pdfrwt>
<pdfrwt beam="2">  1       -2 0.79189243E-01 0.11795366E+03</pdfrwt>
<totfact> 0.24378673E+03</totfact>
</mgrwt>
</event>
<event>
 6    1  0.2975432E-002  0.9505606E+02  0.7546771E-02  0.1414472E+00
          2   -1    0    0  501    0  0.00000000000E+00  0.00000000000E+00  0.79715594960E+03  0.79715594960E+03  0.00000000000E+00 0. -1.
         -2   -1    0    0    0  501 -0.00000000000E+00 -0.00000000000E+00 -0.36408952985E+01  0.36408952985E+01  0.00000000000E+00 0.  1.
         23    2    1    2    0    0  0.36774499628E+01  0.11023892386E+02  0.73655501490E+03  0.74266341278E+03  0.94343017029E+02 0.  0.
         11    1    3    3    0    0 -0.98983249127E+00  0.27893713179E+02  0.63294153549E+02  0.69175059644E+02  0.00000000000E+00 0.  1.
        -11    1    3    3    0    0  0.46672824540E+01 -0.16869820793E+02  0.67326086135E+03  0.67348835313E+03  0.00000000000E+00 0. -1.
         22    1    1    2    0    0 -0.36774499628E+01 -0.11023892386E+02  0.56960039406E+02  0.58133432126E+02  0.00000000000E+00 0.  1.
<mgrwt>
<rscale>  0 0.56207804E+02</rscale>
<asrwt>0</asrwt>
<pdfrwt beam="1">  1        2 0.12263924E+00 0.95056061E+02</pdfrwt>
<pdfrwt beam="2">  1       -2 0.56013837E-03 0.95056061E+02</pdfrwt>
<totfact> 0.15352015E+05</totfact>
</mgrwt>
</event>
<event>
 6    1  0.2975432E-002  0.9647264E+02  0.7546771E-02  0.1372831E+00
          2   -1    0    0  501    0  0.00000000000E+00  0.00000000000E+00  0.19322979140E+03  0.19322979140E+03  0.00000000000E+00 0. -1.
         -2   -1    0    0    0  501 -0.00000000000E+00 -0.00000000000E+00 -0.21376927475E+02  0.21376927475E+02  0.00000000000E+00 0.  1.
         23    2    1    2    0    0  0.14639580941E+02 -0.15926095958E+02  0.16632643477E+03  0.19227962139E+03  0.94016020108E+02 0.  0.
         13    1    3    3    0    0  0.14710321980E+02  0.11950558267E+02 -0.42639343648E+01  0.19426542459E+02  0.00000000000E+00 0.  1.
        -13    1    3    3    0    0 -0.70741038690E-01 -0.27876654225E+02  0.17059036914E+03  0.17285307893E+03  0.00000000000E+00 0. -1.
         22    1    1    2    0    0 -0.14639580941E+02  0.15926095958E+02  0.55264291495E+01  0.22327097477E+02  0.00000000000E+00 0. -1.
<mgrwt>
<rscale>  0 0.66386376E+02</rscale>
<asrwt>0</asrwt>
<pdfrwt beam="1">  1        2 0.29727659E-01 0.96472638E+02</pdfrwt>
<pdfrwt beam="2">  1       -2 0.32887582E-02 0.96472638E+02</pdfrwt>
<totfact> 0.57124984E+04</totfact>
</mgrwt>
</event>
<event>
 6    1  0.2975432E-002  0.9202325E+02  0.7546771E-02  0.1395423E+00
          1   -1    0    0  501    0  0.00000000000E+00  0.00000000000E+00  0.11841454723E+03  0.11841454723E+03  0.00000000000E+00 0. -1.
         -1   -1    0    0    0  501 -0.00000000000E+00 -0.00000000000E+00 -0.25224681164E+02  0.25224681164E+02  0.00000000000E+00 0.  1.
         23    2    1    2    0    0 -0.17048044792E+02 -0.28253695389E+01  0.78100470683E+02  0.12069781612E+03  0.90386175658E+02 0.  0.
         11    1    3    3    0    0  0.15916502525E+02  0.31973930579E+00 -0.15006377946E+02  0.21877583617E+02  0.00000000000E+00 0.  1.
        -11    1    3    3    0    0 -0.32964547317E+02 -0.31451088447E+01  0.93106848630E+02  0.98820232499E+02  0.00000000000E+00 0. -1.
         22    1    1    2    0    0  0.17048044792E+02  0.28253695389E+01  0.15089395383E+02  0.22941412277E+02  0.00000000000E+00 0. -1.
<mgrwt>
<rscale>  0 0.60577701E+02</rscale>
<asrwt>0</asrwt>
<pdfrwt beam="1">  1        1 0.18217622E-01 0.92023254E+02</pdfrwt>
<pdfrwt beam="2">  1       -1 0.38807203E-02 0.92023254E+02</pdfrwt>
<totfact> 0.63760344E+04</totfact>
</mgrwt>
</event>
<event>
 6    1  0.2975432E-002  0.9070638E+02  0.7546771E-02  0.1422140E+00
          2   -1    0    0  501    0  0.00000000000E+00  0.00000000000E+00  0.35168050846E+03  0.35168050846E+03  0.00000000000E+00 0. -1.
         -2   -1    0    0    0  501 -0.00000000000E+00 -0.00000000000E+00 -0.92482386265E+01  0.92482386265E+01  0.00000000000E+00 0.  1.
         23    2    1    2    0    0  0.68966136095E+01  0.96768010942E+01  0.33464807093E+03  0.34672320200E+03  0.89924655498E+02 0.  0.
         13    1    3    3    0    0  0.25221219693E+02 -0.31737850687E+02  0.10301612731E+03  0.11070557156E+03  0.00000000000E+00 0. -1.
        -13    1    3    3    0    0 -0.18324606084E+02  0.41414651781E+02  0.23163194363E+03  0.23601763044E+03  0.00000000000E+00 0.  1.
         22    1    1    2    0    0 -0.68966136095E+01 -0.96768010942E+01  0.77841988993E+01  0.14205545086E+02  0.00000000000E+00 0.  1.
<mgrwt>
<rscale>  0 0.54570654E+02</rscale>
<asrwt>0</asrwt>
<pdfrwt beam="1">  1        2 0.54104683E-01 0.90706380E+02</pdfrwt>
<pdfrwt beam="2">  1       -2 0.14228062E-02 0.90706380E+02</pdfrwt>
<totfact> 0.10084415E+05</totfact>
</mgrwt>
</event>
<event>
 6    1  0.2975432E-002  0.9313426E+02  0.7546771E-02  0.1389588E+00
         -1   -1    0    0    0  501 -0.00000000000E+00  0.00000000000E+00  0.18438981822E+02  0.18438981822E+02  0.00000000000E+00 0.  1.
          1   -1    0    0  501    0  0.00000000000E+00 -0.00000000000E+00 -0.16836663305E+03  0.16836663305E+03  0.00000000000E+00 0. -1.
         23    2    1    2    0    0 -0.14397270472E+02  0.11299598668E+02 -0.12533754182E+03  0.15615213533E+03  0.91318276661E+02 0.  0.
         13    1    3    3    0    0 -0.51770595337E+02 -0.30703683199E+01 -0.57962904409E+02  0.77777374542E+02  0.00000000000E+00 0. -1.
        -13    1    3    3    0    0  0.37373324865E+02  0.14369966988E+02 -0.67374637409E+02  0.78374760789E+02  0.00000000000E+00 0.  1.
         22    1    1    2    0    0  0.14397270472E+02 -0.11299598668E+02 -0.24590109408E+02  0.30653479538E+02  0.00000000000E+00 0.  1.
<mgrwt>
<rscale>  0 0.62009266E+02</rscale>
<asrwt>0</asrwt>
<pdfrwt beam="1">  1        1 0.25902559E-01 0.93134258E+02</pdfrwt>
<pdfrwt beam="2">  1       -1 0.28367664E-02 0.93134258E+02</pdfrwt>
<totfact> 0.64692333E+04</totfact>
</mgrwt>
</event>
<event>
 6    1  0.2975432E-002  0.9195291E+02  0.7546771E-02  0.1394883E+00
          1   -1    0    0  501    0  0.00000000000E+00  0.00000000000E+00  0.19825684882E+02  0.19825684882E+02  0.00000000000E+00 0. -1.
         -1   -1    0    0    0  501 -0.00000000000E+00 -0.00000000000E+00 -0.16775207467E+03  0.16775207467E+03  0.00000000000E+00 0.  1.
         23    2    1    2    0    0  0.17240515819E+02  0.28230416858E+01 -0.96635432374E+02  0.13339319291E+03  0.90278082464E+02 0.  0.
         13    1    3    3    0    0  0.51692488412E+02 -0.33675594418E+01 -0.35019204639E+02  0.62528381623E+02  0.00000000000E+00 0. -1.
        -13    1    3    3    0    0 -0.34451972593E+02  0.61906011276E+01 -0.61616227735E+02  0.70864811283E+02  0.00000000000E+00 0.  1.
         22    1    1    2    0    0 -0.17240515819E+02 -0.28230416858E+01 -0.51290957410E+02  0.54184566642E+02  0.00000000000E+00 0. -1.
<mgrwt>
<rscale>  0 0.60708296E+02</rscale>
<asrwt>0</asrwt>
<pdfrwt beam="1">  1        1 0.30501052E-02 0.91952907E+02</pdfrwt>
<pdfrwt beam="2">  1       -1 0.25808013E-01 0.91952907E+02</pdfrwt>
<totfact> 0.38185150E+04</totfact>
</mgrwt>
</event>
<event>
 6    1  0.2975432E-002  0.8877771E+02  0.7546771E-02  0.1413884E+00
          4   -1    0    0  501    0  0.00000000000E+00  0.00000000000E+00  0.12802322423E+02  0.12802322423E+02  0.00000000000E+00 0. -1.
         -4   -1    0    0    0  501 -0.00000000000E+00 -0.00000000000E+00 -0.21039608917E+03  0.21039608917E+03  0.00000000000E+00 0.  1.
         23    2    1    2    0    0 -0.39734142992E+01 -0.13836573138E+02 -0.16063516541E+03  0.18353511634E+03  0.87602761297E+02 0.  0.
         11    1    3    3    0    0 -0.36563567813E+02 -0.14429362484E+02 -0.13890656228E+03  0.14436112370E+03  0.00000000000E+00 0.  1.
        -11    1    3    3    0    0  0.32590153514E+02  0.59278934575E+00 -0.21728603136E+02  0.39173992642E+02  0.00000000000E+00 0. -1.
         22    1    1    2    0    0  0.39734142992E+01  0.13836573138E+02 -0.36958601334E+02  0.39663295249E+02  0.00000000000E+00 0. -1.
<mgrwt>
<rscale>  0 0.56336109E+02</rscale>
<asrwt>0</asrwt>
<pdfrwt beam="1">  1        4 0.19695882E-02 0.88777714E+02</pdfrwt>
<pdfrwt beam="2">  1       -4 0.32368627E-01 0.88777714E+02</pdfrwt>
<totfact> 0.13755378E+04</totfact>
</mgrwt>
</event>
<event>
 6    1  0.2975432E-002  0.9290852E+02  0.7546771E-02  0.1399899E+00
         -1   -1    0    0    0  501 -0.00000000000E+00  0.00000000000E+00  0.51787711719E+01  0.51787711719E+01  0.00000000000E+00 0.  1.
          1   -1    0    0  501    0  0.00000000000E+00 -0.00000000000E+00 -0.79809523808E+03  0.79809523808E+03  0.00000000000E+00 0. -1.
         23    2    1    2    0    0  0.15447313380E+02 -0.24379203316E+01 -0.76966715949E+03  0.77525449388E+03  0.91582918378E+02 0.  0.
         11    1    3    3    0    0  0.18883473077E+02 -0.44820026847E+02 -0.33492744187E+03  0.33844026309E+03  0.00000000000E+00 0.  1.
        -11    1    3    3    0    0 -0.34361596967E+01  0.42382106515E+02 -0.43473971762E+03  0.43681423080E+03  0.00000000000E+00 0. -1.
         22    1    1    2    0    0 -0.15447313380E+02  0.24379203316E+01 -0.23249307418E+02  0.28019515371E+02  0.00000000000E+00 0.  1.
<mgrwt>
<rscale>  0 0.59510076E+02</rscale>
<asrwt>0</asrwt>
<pdfrwt beam="1">  1        1 0.12278395E+00 0.92908524E+02</pdfrwt>
<pdfrwt beam="2">  1       -1 0.79673361E-03 0.92908524E+02</pdfrwt>
<totfact> 0.54067318E+04</totfact>
</mgrwt>
</event>
<event>
 6    1  0.2975432E-002  0.9354075E+02  0.7546771E-02  0.1413484E+00
         -2   -1    0    0    0  501 -0.00000000000E+00  0.00000000000E+00  0.93746670831E+01  0.93746670831E+01  0.00000000000E+00 0.  1.
          2   -1    0    0  501    0  0.00000000000E+00 -0.00000000000E+00 -0.30691257242E+03  0.30691257242E+03  0.00000000000E+00 0. -1.
         23    2    1    2    0    0  0.36924197543E+01 -0.11820056714E+02 -0.27627821651E+03  0.29168394555E+03  0.92717438862E+02 0.  0.
         13    1    3    3    0    0 -0.14126591746E+02 -0.33265556283E+02 -0.40573016994E+02  0.54335324947E+02  0.00000000000E+00 0.  1.
        -13    1    3    3    0    0  0.17819011500E+02  0.21445499570E+02 -0.23570519952E+03  0.23734862061E+03  0.00000000000E+00 0. -1.
         22    1    1    2    0    0 -0.36924197543E+01  0.11820056714E+02 -0.21259688826E+02  0.24603293953E+02  0.00000000000E+00 0. -1.
<mgrwt>
<rscale>  0 0.56423534E+02</rscale>
<asrwt>0</asrwt>
<pdfrwt beam="1">  1        2 0.47217316E-01 0.93540746E+02</pdfrwt>
<pdfrwt beam="2">  1       -2 0.14422566E-02 0.93540746E+02</pdfrwt>
<totfact> 0.11457827E+05</totfact>
</mgrwt>
</event>
<event>
 6    1  0.2975432E-002  0.9442746E+02  0.7546771E-02  0.1339974E+00
          4   -1    0    0  501    0  0.00000000000E+00  0.00000000000E+00  0.14085767691E+03  0.14085767691E+03  0.00000000000E+00 0. -1.
         -4   -1    0    0    0  501 -0.00000000000E+00 -0.00000000000E+00 -0.48151367770E+02  0.48151367770E+02  0.00000000000E+00 0.  1.
         23    2    1    2    0    0 -0.10495698811E+02  0.38802164481E+02  0.11024149165E+03  0.14515416710E+03  0.85444590721E+02 0.  0.
         13    1    3    3    0    0  0.64183478203E+01  0.30848918377E+02 -0.18033469857E+01  0.31561099697E+02  0.00000000000E+00 0.  1.
        -13    1    3    3    0    0 -0.16914046631E+02  0.79532461040E+01  0.11204483864E+03  0.11359306740E+03  0.00000000000E+00 0. -1.
         22    1    1    2    0    0  0.10495698811E+02 -0.38802164481E+02 -0.17535182509E+02  0.43854877580E+02  0.00000000000E+00 0. -1.
<mgrwt>
<rscale>  0 0.76273049E+02</rscale>
<asrwt>0</asrwt>
<pdfrwt beam="1">  1        4 0.21670412E-01 0.94427463E+02</pdfrwt>
<pdfrwt beam="2">  1       -4 0.74079028E-02 0.94427463E+02</pdfrwt>
<totfact> 0.36481805E+03</totfact>
</mgrwt>
</event>
<event>
 6    1  0.2975432E-002  0.9182378E+02  0.7546771E-02  0.1417803E+00
         -3   -1    0    0    0  501 -0.00000000000E+00  0.00000000000E+00  0.12843542807E+02  0.12843542807E+02  0.00000000000E+00 0.  1.
          3   -1    0    0  501    0  0.00000000000E+00 -0.00000000000E+00 -0.21092046423E+03  0.21092046423E+03  0.00000000000E+00 0. -1.
         23    2    1    2    0    0 -0.11303707853E+02 -0.47072532702E+01 -0.17308941379E+03  0.19593762419E+03  0.91003710710E+02 0.  0.
         11    1    3    3    0    0 -0.37158024464E+02 -0.95703053364E+01 -0.16349138970E+03  0.16793374894E+03  0.00000000000E+00 0. -1.
        -11    1    3    3    0    0  0.25854316611E+02  0.48630520662E+01 -0.95980240905E+01  0.28003875254E+02  0.00000000000E+00 0.  1.
         22    1    1    2    0    0  0.11303707853E+02  0.47072532702E+01 -0.24987507631E+02  0.27826382844E+02  0.00000000000E+00 0.  1.
<mgrwt>
<rscale>  0 0.55488527E+02</rscale>
<asrwt>0</asrwt>
<pdfrwt beam="1">  1        3 0.32449301E-01 0.91823785E+02</pdfrwt>
<pdfrwt beam="2">  1       -3 0.19759297E-02 0.91823785E+02</pdfrwt>
<totfact> 0.18471681E+04</totfact>
</mgrwt>
</event>
<event>
 6    1  0.2975432E-002  0.1116114E+03  0.7546771E-02  0.1287659E+00
          1   -1    0    0  501    0  0.00000000000E+00  0.00000000000E+00  0.50214374746E+03  0.50214374746E+03  0.00000000000E+00 0. -1.
         -1   -1    0    0    0  501 -0.00000000000E+00 -0.00000000000E+00 -0.16022573864E+02  0.16022573864E+02  0.00000000000E+00 0.  1.
         23    2    1    2    0    0 -0.57710857844E+02 -0.24188798480E+02  0.36718695710E+03  0.38377514253E+03  0.92420005797E+02 0.  0.
         13    1    3    3    0    0  0.20643931034E+02  0.23170488864E+01  0.29340140001E+02  0.35949748530E+02  0.00000000000E+00 0.  1.
        -13    1    3    3    0    0 -0.78354788879E+02 -0.26505847366E+02  0.33784681710E+03  0.34782539400E+03  0.00000000000E+00 0. -1.
         22    1    1    2    0    0  0.57710857844E+02  0.24188798480E+02  0.11893421650E+03  0.13439117880E+03  0.00000000000E+00 0.  1.
<mgrwt>
<rscale>  0 0.96578776E+02</rscale>
<asrwt>0</asrwt>
<pdfrwt beam="1">  1        1 0.77252872E-01 0.11161137E+03</pdfrwt>
<pdfrwt beam="2">  1       -1 0.24650118E-02 0.11161137E+03</pdfrwt>
<totfact> 0.20902058E+04</totfact>
</mgrwt>
</event>
<event>
 6    1  0.2975432E-002  0.9190240E+02  0.7546771E-02  0.1418953E+00
          2   -1    0    0  501    0  0.00000000000E+00  0.00000000000E+00  0.98319485776E+03  0.98319485776E+03  0.00000000000E+00 0. -1.
         -2   -1    0    0    0  501 -0.00000000000E+00 -0.00000000000E+00 -0.32308473773E+01  0.32308473773E+01  0.00000000000E+00 0.  1.
         23    2    1    2    0    0 -0.66717725302E+01  0.99726809209E+01  0.94503840576E+03  0.94949651923E+03  0.91115776659E+02 0.  0.
         11    1    3    3    0    0 -0.38817159778E+02  0.33332718701E+02  0.59996310093E+03  0.60214081783E+03  0.00000000000E+00 0.  1.
        -11    1    3    3    0    0  0.32145387248E+02 -0.23360037780E+02  0.34507530484E+03  0.34735570140E+03  0.00000000000E+00 0. -1.
         22    1    1    2    0    0  0.66717725302E+01 -0.99726809209E+01  0.34925604616E+02  0.36929185900E+02  0.00000000000E+00 0.  1.
<mgrwt>
<rscale>  0 0.55243093E+02</rscale>
<asrwt>0</asrwt>
<pdfrwt beam="1">  1        2 0.15126051E+00 0.91902403E+02</pdfrwt>
<pdfrwt beam="2">  1       -2 0.49705423E-03 0.91902403E+02</pdfrwt>
<totfact> 0.13822283E+05</totfact>
</mgrwt>
</event>
<event>
 6    1  0.2975432E-002  0.9317995E+02  0.7546771E-02  0.1365120E+00
          4   -1    0    0  501    0  0.00000000000E+00  0.00000000000E+00  0.32432653155E+02  0.32432653155E+02  0.00000000000E+00 0. -1.
         -4   -1    0    0    0  501 -0.00000000000E+00 -0.00000000000E+00 -0.12384604948E+03  0.12384604948E+03  0.00000000000E+00 0.  1.
         23    2    1    2    0    0  0.10976949316E+02 -0.24976300936E+02 -0.47520016847E+02  0.10459758629E+03  0.89096543320E+02 0.  0.
         13    1    3    3    0    0  0.71591037558E+01 -0.58751321397E+02 -0.30647226971E+02  0.66650004152E+02  0.00000000000E+00 0. -1.
        -13    1    3    3    0    0  0.38178455597E+01  0.33775020460E+02 -0.16872789876E+02  0.37947582136E+02  0.00000000000E+00 0.  1.
         22    1    1    2    0    0 -0.10976949316E+02  0.24976300936E+02 -0.43893379476E+02  0.51681116344E+02  0.00000000000E+00 0. -1.
<mgrwt>
<rscale>  0 0.68542670E+02</rscale>
<asrwt>0</asrwt>
<pdfrwt beam="1">  1        4 0.49896390E-02 0.93179950E+02</pdfrwt>
<pdfrwt beam="2">  1       -4 0.19053238E-01 0.93179950E+02</pdfrwt>
<totfact> 0.86568981E+03</totfact>
</mgrwt>
</event>
<event>
 6    1  0.2975432E-002  0.9037326E+02  0.7546771E-02  0.1379817E+00
          2   -1    0    0  501    0  0.00000000000E+00  0.00000000000E+00  0.34181511485E+03  0.34181511485E+03  0.00000000000E+00 0. -1.
         -2   -1    0    0    0  501 -0.00000000000E+00 -0.00000000000E+00 -0.18383958216E+02  0.18383958216E+02  0.00000000000E+00 0.  1.
         23    2    1    2    0    0 -0.20971760076E+02 -0.10528156549E+02  0.32435999999E+03  0.33671461968E+03  0.87273528125E+02 0.  0.
         13    1    3    3    0    0  0.24195048717E+02 -0.16297536801E+02  0.44733220244E+02  0.53404785194E+02  0.00000000000E+00 0.  1.
        -13    1    3    3    0    0 -0.45166808793E+02  0.57693802518E+01  0.27962677974E+03  0.28330983448E+03  0.00000000000E+00 0. -1.
         22    1    1    2    0    0  0.20971760076E+02  0.10528156549E+02 -0.92884335290E+00  0.23484453389E+02  0.00000000000E+00 0.  1.
<mgrwt>
<rscale>  0 0.64511936E+02</rscale>
<asrwt>0</asrwt>
<pdfrwt beam="1">  1        2 0.52586936E-01 0.90373257E+02</pdfrwt>
<pdfrwt beam="2">  1       -2 0.28283015E-02 0.90373257E+02</pdfrwt>
<totfact> 0.38694867E+04</totfact>
</mgrwt>
</event>
<event>
 6    1  0.2975432E-002  0.9157496E+02  0.7546771E-02  0.1425027E+00
          2   -1    0    0  501    0  0.00000000000E+00  0.00000000000E+00  0.22820659289E+03  0.22820659289E+03  0.00000000000E+00 0. -1.
         -2   -1    0    0    0  501 -0.00000000000E+00 -0.00000000000E+00 -0.28129230355E+02  0.28129230355E+02  0.00000000000E+00 0.  1.
         23    2    1    2    0    0 -0.10692151549E+02  0.27855634028E+01  0.21733740579E+03  0.23584215199E+03  0.90905947182E+02 0.  0.
         11    1    3    3    0    0 -0.13907694682E+02  0.22179193696E+00 -0.39947934045E+01  0.14471749631E+02  0.00000000000E+00 0.  1.
        -11    1    3    3    0    0  0.32155431337E+01  0.25637714658E+01  0.22133219919E+03  0.22137040236E+03  0.00000000000E+00 0. -1.
         22    1    1    2    0    0  0.10692151549E+02 -0.27855634028E+01 -0.17260043255E+02  0.20493671252E+02  0.00000000000E+00 0.  1.
<mgrwt>
<rscale>  0 0.53971409E+02</rscale>
<asrwt>0</asrwt>
<pdfrwt beam="1">  1        2 0.35108705E-01 0.91574957E+02</pdfrwt>
<pdfrwt beam="2">  1       -2 0.43275740E-02 0.91574957E+02</pdfrwt>
<totfact> 0.31772828E+04</totfact>
</mgrwt>
</event>
<event>
 6    1  0.2975432E-002  0.9129545E+02  0.7546771E-02  0.1430208E+00
         -1   -1    0    0    0  501 -0.00000000000E+00  0.00000000000E+00  0.15702964760E+02  0.15702964760E+02  0.00000000000E+00 0.  1.
          1   -1    0    0  501    0  0.00000000000E+00 -0.00000000000E+00 -0.16436990103E+03  0.16436990103E+03  0.00000000000E+00 0. -1.
         23    2    1    2    0    0 -0.21976807904E+01  0.10068647877E+02 -0.13425179314E+03  0.16235271278E+03  0.90711917175E+02 0.  0.
         11    1    3    3    0    0 -0.15237013596E+02 -0.46161748332E+01 -0.14076491256E+03  0.14166240243E+03  0.00000000000E+00 0. -1.
        -11    1    3    3    0    0  0.13039332806E+02  0.14684822711E+02  0.65131194243E+01  0.20690310358E+02  0.00000000000E+00 0.  1.
         22    1    1    2    0    0  0.21976807904E+01 -0.10068647877E+02 -0.14415143138E+02  0.17720153007E+02  0.00000000000E+00 0. -1.
<mgrwt>
<rscale>  0 0.52918343E+02</rscale>
<asrwt>0</asrwt>
<pdfrwt beam="1">  1        1 0.25287677E-01 0.91295451E+02</pdfrwt>
<pdfrwt beam="2">  1       -1 0.24158407E-02 0.91295451E+02</pdfrwt>
<totfact> 0.83692276E+04</totfact>
</mgrwt>
</event>
<event>
 6    1  0.2975432E-002  0.9712025E+02  0.7546771E-02  0.1345984E+00
         -2   -1    0    0    0  501 -0.00000000000E+00  0.00000000000E+00  0.36992420986E+02  0.36992420986E+02  0.00000000000E+00 0.  1.
          2   -1    0    0  501    0  0.00000000000E+00 -0.00000000000E+00 -0.13535198472E+03  0.13535198472E+03  0.00000000000E+00 0. -1.
         23    2    1    2    0    0 -0.44078211079E+01  0.33013885169E+02 -0.99468445623E+02  0.13901911321E+03  0.91230459066E+02 0.  0.
         13    1    3    3    0    0  0.33355939485E+02  0.34503491669E+02 -0.21936934820E+02  0.52766833765E+02  0.00000000000E+00 0.  1.
        -13    1    3    3    0    0 -0.37763760593E+02 -0.14896065000E+01 -0.77531510803E+02  0.86252279442E+02  0.00000000000E+00 0. -1.
         22    1    1    2    0    0  0.44078211079E+01 -0.33013885169E+02  0.11088818925E+01  0.33325292496E+02  0.00000000000E+00 0.  1.
<mgrwt>
<rscale>  0 0.74321708E+02</rscale>
<asrwt>0</asrwt>
<pdfrwt beam="1">  1        2 0.20823383E-01 0.97120246E+02</pdfrwt>
<pdfrwt beam="2">  1       -2 0.56911415E-02 0.97120246E+02</pdfrwt>
<totfact> 0.37491293E+04</totfact>
</mgrwt>
</event>
<event>
 6    1  0.2975432E-002  0.1027879E+03  0.7546771E-02  0.1316380E+00
          2   -1    0    0  501    0  0.00000000000E+00  0.00000000000E+00  0.68421719356E+03  0.68421719356E+03  0.00000000000E+00 0. -1.
         -2   -1    0    0    0  501 -0.00000000000E+00 -0.00000000000E+00 -0.10309037801E+02  0.10309037801E+02  0.00000000000E+00 0.  1.
         23    2    1    2    0    0 -0.45279195642E+02  0.13522785737E+02  0.58379025165E+03  0.59277011148E+03  0.91281300666E+02 0.  0.
         11    1    3    3    0    0 -0.27443541124E+02 -0.35231006590E+02  0.37378686552E+03  0.37644520532E+03  0.00000000000E+00 0. -1.
        -11    1    3    3    0    0 -0.17835654518E+02  0.48753792328E+02  0.21000338613E+03  0.21632490615E+03  0.00000000000E+00 0.  1.
         22    1    1    2    0    0  0.45279195642E+02 -0.13522785737E+02  0.90117904111E+02  0.10175611988E+03  0.00000000000E+00 0.  1.
<mgrwt>
<rscale>  0 0.84638749E+02</rscale>
<asrwt>0</asrwt>
<pdfrwt beam="1">  1        2 0.10526415E+00 0.10278787E+03</pdfrwt>
<pdfrwt beam="2">  1       -2 0.15860064E-02 0.10278787E+03</pdfrwt>
<totfact> 0.42530151E+04</totfact>
</mgrwt>
</event>
<event>
 6    1  0.2975432E-002  0.9159124E+02  0.7546771E-02  0.1407363E+00
         -2   -1    0    0    0  501 -0.00000000000E+00  0.00000000000E+00  0.35805585584E+01  0.35805585584E+01  0.00000000000E+00 0.  1.
          2   -1    0    0  501    0  0.00000000000E+00 -0.00000000000E+00 -0.88268130243E+03  0.88268130243E+03  0.00000000000E+00 0. -1.
         23    2    1    2    0    0  0.35519875938E+01 -0.14071005734E+02 -0.83064929983E+03  0.83568368143E+03  0.90434209640E+02 0.  0.
         13    1    3    3    0    0 -0.18244197405E+02 -0.33178960331E+01 -0.77167203919E+03  0.77189480840E+03  0.00000000000E+00 0. -1.
        -13    1    3    3    0    0  0.21796184998E+02 -0.10753109701E+02 -0.58977260645E+02  0.63788873026E+02  0.00000000000E+00 0.  1.
         22    1    1    2    0    0 -0.35519875938E+01  0.14071005734E+02 -0.48451444033E+02  0.50578179556E+02  0.00000000000E+00 0. -1.
<mgrwt>
<rscale>  0 0.57786354E+02</rscale>
<asrwt>0</asrwt>
<pdfrwt beam="1">  1        2 0.13579741E+00 0.91591245E+02</pdfrwt>
<pdfrwt beam="2">  1       -2 0.55085400E-03 0.91591245E+02</pdfrwt>
<totfact> 0.13768247E+05</totfact>
</mgrwt>
</event>
<event>
 6    1  0.2975432E-002  0.9236373E+02  0.7546771E-02  0.1379833E+00
          2   -1    0    0  501    0  0.00000000000E+00  0.00000000000E+00  0.50302301635E+03  0.50302301635E+03  0.00000000000E+00 0.  1.
         -2   -1    0    0    0  501 -0.00000000000E+00 -0.00000000000E+00 -0.85749749361E+02  0.85749749361E+02  0.00000000000E+00 0. -1.
         23    2    1    2    0    0 -0.16577034737E+02 -0.14426899803E+02  0.49728915832E+03  0.50579399502E+03  0.89711342068E+02 0.  0.
         13    1    3    3    0    0 -0.42475029714E+02 -0.89136044601E+01  0.12053213222E+03  0.12810767108E+03  0.00000000000E+00 0. -1.
        -13    1    3    3    0    0  0.25897994977E+02 -0.55132953431E+01  0.37675702611E+03  0.37768632394E+03  0.00000000000E+00 0.  1.
         22    1    1    2    0    0  0.16577034737E+02  0.14426899803E+02 -0.80015891336E+02  0.82978770688E+02  0.00000000000E+00 0. -1.
<mgrwt>
<rscale>  0 0.64507768E+02</rscale>
<asrwt>0</asrwt>
<pdfrwt beam="1">  1        2 0.77388155E-01 0.92363729E+02</pdfrwt>
<pdfrwt beam="2">  1       -2 0.13192269E-01 0.92363729E+02</pdfrwt>
<totfact> 0.25199303E+03</totfact>
</mgrwt>
</event>
<event>
 6    1  0.2975432E-002  0.1158933E+03  0.7546771E-02  0.1274621E+00
          2   -1    0    0  501    0  0.00000000000E+00  0.00000000000E+00  0.13913265381E+04  0.13913265381E+04  0.00000000000E+00 0. -1.
         -2   -1    0    0    0  501 -0.00000000000E+00 -0.00000000000E+00 -0.94958230833E+01  0.94958230833E+01  0.00000000000E+00 0.  1.
         23    2    1    2    0    0  0.12031048995E+02  0.70582882858E+02  0.11971641302E+04  0.12027606611E+04  0.91129379253E+02 0.  0.
         11    1    3    3    0    0  0.31366812037E+02  0.78724004373E+02  0.11047319018E+04  0.11079774008E+04  0.00000000000E+00 0. -1.
        -11    1    3    3    0    0 -0.19335763042E+02 -0.81411215144E+01  0.92432228349E+02  0.94783260281E+02  0.00000000000E+00 0.  1.
         22    1    1    2    0    0 -0.12031048995E+02 -0.70582882858E+02  0.18466658486E+03  0.19806170012E+03  0.00000000000E+00 0.  1.
<mgrwt>
<rscale>  0 0.10274799E+03</rscale>
<asrwt>0</asrwt>
<pdfrwt beam="1">  1        2 0.21405008E+00 0.11589328E+03</pdfrwt>
<pdfrwt beam="2">  1       -2 0.14608970E-02 0.11589328E+03</pdfrwt>
<totfact> 0.18280886E+04</totfact>
</mgrwt>
</event>
<event>
 6    1  0.2975432E-002  0.9112985E+02  0.7546771E-02  0.1380346E+00
          1   -1    0    0  501    0  0.00000000000E+00  0.00000000000E+00  0.41248845949E+02  0.41248845949E+02  0.00000000000E+00 0. -1.
         -1   -1    0    0    0  501 -0.00000000000E+00 -0.00000000000E+00 -0.80295073750E+02  0.80295073750E+02  0.00000000000E+00 0.  1.
         23    2    1    2    0    0 -0.93507084655E+01 -0.20673309582E+02 -0.23730641848E+02  0.94168955754E+02  0.88259998796E+02 0.  0.
         11    1    3    3    0    0 -0.17859952587E+02  0.20632668913E+02  0.19680456438E+02  0.33645286423E+02  0.00000000000E+00 0. -1.
        -11    1    3    3    0    0  0.85092441213E+01 -0.41305978496E+02 -0.43411098285E+02  0.60523669332E+02  0.00000000000E+00 0.  1.
         22    1    1    2    0    0  0.93507084655E+01  0.20673309582E+02 -0.15315585953E+02  0.27374963945E+02  0.00000000000E+00 0.  1.
<mgrwt>
<rscale>  0 0.64372824E+02</rscale>
<asrwt>0</asrwt>
<pdfrwt beam="1">  1        1 0.63459763E-02 0.91129846E+02</pdfrwt>
<pdfrwt beam="2">  1       -1 0.12353088E-01 0.91129846E+02</pdfrwt>
<totfact> 0.45090896E+04</totfact>
</mgrwt>
</event>
<event>
 6    1  0.2975432E-002  0.9247605E+02  0.7546771E-02  0.1393582E+00
         -2   -1    0    0    0  501 -0.00000000000E+00  0.00000000000E+00  0.12591940814E+02  0.12591940814E+02  0.00000000000E+00 0.  1.
          2   -1    0    0  501    0  0.00000000000E+00 -0.00000000000E+00 -0.28459635265E+03  0.28459635265E+03  0.00000000000E+00 0. -1.
         23    2    1    2    0    0  0.12257903593E+02 -0.12539871247E+02 -0.25994945886E+03  0.27590857395E+03  0.90798212791E+02 0.  0.
         11    1    3    3    0    0  0.21900926868E+02  0.25906746522E+02 -0.20702774655E+03  0.20978869835E+03  0.00000000000E+00 0. -1.
        -11    1    3    3    0    0 -0.96430232755E+01 -0.38446617768E+02 -0.52921712307E+02  0.66119875599E+02  0.00000000000E+00 0.  1.
         22    1    1    2    0    0 -0.12257903593E+02  0.12539871247E+02 -0.12054952980E+02  0.21279719517E+02  0.00000000000E+00 0.  1.
<mgrwt>
<rscale>  0 0.61024384E+02</rscale>
<asrwt>0</asrwt>
<pdfrwt beam="1">  1        2 0.43784049E-01 0.92476051E+02</pdfrwt>
<pdfrwt beam="2">  1       -2 0.19372219E-02 0.92476051E+02</pdfrwt>
<totfact> 0.81151323E+04</totfact>
</mgrwt>
</event>
<event>
 6    1  0.2975432E-002  0.8809110E+02  0.7546771E-02  0.1389669E+00
         -2   -1    0    0    0  501 -0.00000000000E+00  0.00000000000E+00  0.47503352446E+02  0.47503352446E+02  0.00000000000E+00 0. -1.
          2   -1    0    0  501    0  0.00000000000E+00 -0.00000000000E+00 -0.63332734929E+02  0.63332734929E+02  0.00000000000E+00 0.  1.
         23    2    1    2    0    0  0.18255858540E+01 -0.21523274706E+02 -0.12171201421E+02  0.88927951751E+02  0.85401746709E+02 0.  0.
         11    1    3    3    0    0  0.13558574813E+02 -0.52581959450E+02 -0.25531368081E+01  0.54361897669E+02  0.00000000000E+00 0. -1.
        -11    1    3    3    0    0 -0.11732988959E+02  0.31058684744E+02 -0.96180646128E+01  0.34566054083E+02  0.00000000000E+00 0.  1.
         22    1    1    2    0    0 -0.18255858540E+01  0.21523274706E+02 -0.36581810624E+01  0.21908135623E+02  0.00000000000E+00 0.  1.
<mgrwt>
<rscale>  0 0.61989093E+02</rscale>
<asrwt>0</asrwt>
<pdfrwt beam="1">  1        2 0.97434976E-02 0.88091103E+02</pdfrwt>
<pdfrwt beam="2">  1       -2 0.73082081E-02 0.88091103E+02</pdfrwt>
<totfact> 0.61437237E+04</totfact>
</mgrwt>
</event>
<event>
 6    1  0.2975432E-002  0.9458382E+02  0.7546771E-02  0.1412581E+00
          2   -1    0    0  501    0  0.00000000000E+00  0.00000000000E+00  0.87537251956E+03  0.87537251956E+03  0.00000000000E+00 0. -1.
         -2   -1    0    0    0  501 -0.00000000000E+00 -0.00000000000E+00 -0.48010094556E+01  0.48010094556E+01  0.00000000000E+00 0.  1.
         23    2    1    2    0    0  0.59232087487E+01 -0.10605459378E+02  0.85596946536E+03  0.86117932250E+03  0.93800531434E+02 0.  0.
         11    1    3    3    0    0  0.34304066572E+02  0.24548034992E+01  0.74775133636E+03  0.74854181985E+03  0.00000000000E+00 0. -1.
        -11    1    3    3    0    0 -0.28380857824E+02 -0.13060262877E+02  0.10821812901E+03  0.11263750265E+03  0.00000000000E+00 0.  1.
         22    1    1    2    0    0 -0.59232087487E+01  0.10605459378E+02  0.14602044738E+02  0.18994206512E+02  0.00000000000E+00 0.  1.
<mgrwt>
<rscale>  0 0.56621816E+02</rscale>
<asrwt>0</asrwt>
<pdfrwt beam="1">  1        2 0.13467257E+00 0.94583825E+02</pdfrwt>
<pdfrwt beam="2">  1       -2 0.73861754E-03 0.94583825E+02</pdfrwt>
<totfact> 0.92504060E+04</totfact>
</mgrwt>
</event>
<event>
 6    1  0.2975432E-002  0.9583624E+02  0.7546771E-02  0.1359611E+00
         -2   -1    0    0    0  501 -0.00000000000E+00  0.00000000000E+00  0.78918774468E+01  0.78918774468E+01  0.00000000000E+00 0. -1.
          2   -1    0    0  501    0  0.00000000000E+00 -0.00000000000E+00 -0.77665198966E+03  0.77665198966E+03  0.00000000000E+00 0.  1.
         23    2    1    2    0    0  0.27487725334E+02  0.79144360159E+00 -0.73395882754E+03  0.74018926371E+03  0.91806231650E+02 0.  0.
         11    1    3    3    0    0  0.29539815752E+02  0.40492209291E+02 -0.53194048261E+03  0.53429663743E+03  0.00000000000E+00 0.  1.
        -11    1    3    3    0    0 -0.20520904172E+01 -0.39700765689E+02 -0.20201834493E+03  0.20589262629E+03  0.00000000000E+00 0. -1.
         22    1    1    2    0    0 -0.27487725334E+02 -0.79144360159E+00 -0.34801284673E+02  0.44354603391E+02  0.00000000000E+00 0. -1.
<mgrwt>
<rscale>  0 0.70141819E+02</rscale>
<asrwt>0</asrwt>
<pdfrwt beam="1">  1        2 0.11948488E+00 0.95836244E+02</pdfrwt>
<pdfrwt beam="2">  1       -2 0.12141354E-02 0.95836244E+02</pdfrwt>
<totfact> 0.53161154E+04</totfact>
</mgrwt>
</event>
<event>
 6    1  0.2975432E-002  0.9105121E+02  0.7546771E-02  0.1422568E+00
         -2   -1    0    0    0  501 -0.00000000000E+00  0.00000000000E+00  0.27654013896E+01  0.27654013896E+01  0.00000000000E+00 0.  1.
          2   -1    0    0  501    0  0.00000000000E+00 -0.00000000000E+00 -0.12229597835E+04  0.12229597835E+04  0.00000000000E+00 0. -1.
         23    2    1    2    0    0  0.28920531934E+01  0.11307628274E+02 -0.11879353411E+04  0.11914196145E+04  0.90300038201E+02 0.  0.
         11    1    3    3    0    0  0.65040022566E+01  0.40202678491E+02 -0.10310906277E+04  0.10318945876E+04  0.00000000000E+00 0. -1.
        -11    1    3    3    0    0 -0.36119490632E+01 -0.28895050218E+02 -0.15684471339E+03  0.15952502695E+03  0.00000000000E+00 0.  1.
         22    1    1    2    0    0 -0.28920531934E+01 -0.11307628274E+02 -0.32259041068E+02  0.34305570385E+02  0.00000000000E+00 0. -1.
<mgrwt>
<rscale>  0 0.54481239E+02</rscale>
<asrwt>0</asrwt>
<pdfrwt beam="1">  1        2 0.18814774E+00 0.91051213E+02</pdfrwt>
<pdfrwt beam="2">  1       -2 0.42544619E-03 0.91051213E+02</pdfrwt>
<totfact> 0.12581421E+05</totfact>
</mgrwt>
</event>
<event>
 6    1  0.5669769E-002  0.1283959E+03  0.7546771E-02  0.1339578E+00
          2   -1    0    0  501    0  0.00000000000E+00  0.00000000000E+00  0.19276113163E+02  0.19276113163E+02  0.00000000000E+00 0. -1.
         -2   -1    0    0    0  501 -0.00000000000E+00 -0.00000000000E+00 -0.27662836313E+03  0.27662836313E+03  0.00000000000E+00 0.  1.
         23    2    1    2    0    0  0.12268368907E+02 -0.10424871998E+02 -0.21282120088E+03  0.24855254745E+03  0.12738255167E+03 0.  0.
         11    1    3    3    0    0 -0.30517275154E+02  0.10451661271E+01 -0.20016902742E+03  0.20248465619E+03  0.00000000000E+00 0.  1.
        -11    1    3    3    0    0  0.42785644061E+02 -0.11470038125E+02 -0.12652173462E+02  0.46067891265E+02  0.00000000000E+00 0. -1.
         22    1    1    2    0    0 -0.12268368907E+02  0.10424871998E+02 -0.44531049084E+02  0.47351928835E+02  0.00000000000E+00 0. -1.
<mgrwt>
<rscale>  0 0.76403949E+02</rscale>
<asrwt>0</asrwt>
<pdfrwt beam="1">  1        2 0.29655560E-02 0.12839589E+03</pdfrwt>
<pdfrwt beam="2">  1       -2 0.42558208E-01 0.12839589E+03</pdfrwt>
<totfact> 0.15538290E+04</totfact>
</mgrwt>
</event>
<event>
 6    1  0.2975432E-002  0.9526806E+02  0.7546771E-02  0.1364012E+00
         -2   -1    0    0    0  501 -0.00000000000E+00  0.00000000000E+00  0.58614159477E+01  0.58614159477E+01  0.00000000000E+00 0.  1.
          2   -1    0    0  501    0  0.00000000000E+00 -0.00000000000E+00 -0.12866257117E+04  0.12866257117E+04  0.00000000000E+00 0. -1.
         23    2    1    2    0    0  0.93024457149E+01 -0.24282951077E+02 -0.12429443286E+04  0.12465899913E+04  0.91650451236E+02 0.  0.
         13    1    3    3    0    0 -0.13203621153E+02 -0.46984897182E+01 -0.28307286095E+02  0.31586608923E+02  0.00000000000E+00 0.  1.
        -13    1    3    3    0    0  0.22506066868E+02 -0.19584461359E+02 -0.12146370425E+04  0.12150033823E+04  0.00000000000E+00 0. -1.
         22    1    1    2    0    0 -0.93024457149E+01  0.24282951077E+02 -0.37819967163E+02  0.45897136354E+02  0.00000000000E+00 0.  1.
<mgrwt>
<rscale>  0 0.68860417E+02</rscale>
<asrwt>0</asrwt>
<pdfrwt beam="1">  1        2 0.19794235E+00 0.95268056E+02</pdfrwt>
<pdfrwt beam="2">  1       -2 0.90175660E-03 0.95268056E+02</pdfrwt>
<totfact> 0.40648298E+04</totfact>
</mgrwt>
</event>
<event>
 6    1  0.2975432E-002  0.1038497E+03  0.7546771E-02  0.1312252E+00
          2   -1    0    0  501    0  0.00000000000E+00  0.00000000000E+00  0.39956052720E+03  0.39956052720E+03  0.00000000000E+00 0. -1.
         -2   -1    0    0    0  501 -0.00000000000E+00 -0.00000000000E+00 -0.18692651764E+02  0.18692651764E+02  0.00000000000E+00 0.  1.
         23    2    1    2    0    0 -0.83607339884E+01 -0.48647039548E+02  0.33552053662E+03  0.35122469646E+03  0.91369144555E+02 0.  0.
         11    1    3    3    0    0  0.11112382843E+02  0.74522767446E+01  0.33567584284E+01  0.13794539074E+02  0.00000000000E+00 0.  1.
        -11    1    3    3    0    0 -0.19473116831E+02 -0.56099316292E+02  0.33216377819E+03  0.33743015738E+03  0.00000000000E+00 0. -1.
         22    1    1    2    0    0  0.83607339884E+01  0.48647039548E+02  0.45347338813E+02  0.67028482505E+02  0.00000000000E+00 0.  1.
<mgrwt>
<rscale>  0 0.86227991E+02</rscale>
<asrwt>0</asrwt>
<pdfrwt beam="1">  1        2 0.61470844E-01 0.10384968E+03</pdfrwt>
<pdfrwt beam="2">  1       -2 0.28757929E-02 0.10384968E+03</pdfrwt>
<totfact> 0.32573185E+04</totfact>
</mgrwt>
</event>
<event>
 6    1  0.2975432E-002  0.9240311E+02  0.7546771E-02  0.1416915E+00
         -1   -1    0    0    0  501 -0.00000000000E+00  0.00000000000E+00  0.23743013071E+02  0.23743013071E+02  0.00000000000E+00 0.  1.
          1   -1    0    0  501    0  0.00000000000E+00 -0.00000000000E+00 -0.12002647026E+03  0.12002647026E+03  0.00000000000E+00 0. -1.
         23    2    1    2    0    0  0.13361468578E+01 -0.12108162915E+02 -0.93115925098E+02  0.13118273804E+03  0.91596628512E+02 0.  0.
         13    1    3    3    0    0 -0.19879249257E+02 -0.25757674282E+02 -0.99895427307E+02  0.10506064312E+03  0.00000000000E+00 0. -1.
        -13    1    3    3    0    0  0.21215396114E+02  0.13649511366E+02  0.67795022092E+01  0.26122094921E+02  0.00000000000E+00 0.  1.
         22    1    1    2    0    0 -0.13361468578E+01  0.12108162915E+02 -0.31675320948E+01  0.12586745297E+02  0.00000000000E+00 0.  1.
<mgrwt>
<rscale>  0 0.55679021E+02</rscale>
<asrwt>0</asrwt>
<pdfrwt beam="1">  1        1 0.18465611E-01 0.92403113E+02</pdfrwt>
<pdfrwt beam="2">  1       -1 0.36527713E-02 0.92403113E+02</pdfrwt>
<totfact> 0.68472099E+04</totfact>
</mgrwt>
</event>
<event>
 6    1  0.2975432E-002  0.9446161E+02  0.7546771E-02  0.1376368E+00
         -2   -1    0    0    0  501 -0.00000000000E+00  0.00000000000E+00  0.55312000830E+02  0.55312000830E+02  0.00000000000E+00 0.  1.
          2   -1    0    0  501    0  0.00000000000E+00 -0.00000000000E+00 -0.75628627593E+02  0.75628627593E+02  0.00000000000E+00 0. -1.
         23    2    1    2    0    0 -0.67992626080E+01  0.20651171545E+02 -0.39075636179E+02  0.10222475664E+03  0.91925484326E+02 0.  0.
         13    1    3    3    0    0 -0.49388742651E+02  0.14017112464E+02 -0.22267690774E+02  0.55960498522E+02  0.00000000000E+00 0.  1.
        -13    1    3    3    0    0  0.42589480043E+02  0.66340590810E+01 -0.16807945405E+02  0.46264258115E+02  0.00000000000E+00 0. -1.
         22    1    1    2    0    0  0.67992626080E+01 -0.20651171545E+02  0.18759009415E+02  0.28715871786E+02  0.00000000000E+00 0. -1.
<mgrwt>
<rscale>  0 0.65428174E+02</rscale>
<asrwt>0</asrwt>
<pdfrwt beam="1">  1        2 0.11635173E-01 0.94461609E+02</pdfrwt>
<pdfrwt beam="2">  1       -2 0.85095387E-02 0.94461609E+02</pdfrwt>
<totfact> 0.39715432E+04</totfact>
</mgrwt>
</event>
<event>
 6    1  0.2975432E-002  0.9207094E+02  0.7546771E-02  0.1415559E+00
          2   -1    0    0  501    0  0.00000000000E+00  0.00000000000E+00  0.44947086511E+03  0.44947086511E+03  0.00000000000E+00 0. -1.
         -2   -1    0    0    0  501 -0.00000000000E+00 -0.00000000000E+00 -0.87623832789E+01  0.87623832789E+01  0.00000000000E+00 0.  1.
         23    2    1    2    0    0 -0.88960576827E+01  0.88874010922E+01  0.43461405817E+03  0.44425942499E+03  0.91208176152E+02 0.  0.
         13    1    3    3    0    0 -0.32527243368E+02  0.38030660084E+02  0.17740658380E+03  0.18432972805E+03  0.00000000000E+00 0.  1.
        -13    1    3    3    0    0  0.23631185686E+02 -0.29143258992E+02  0.25720747436E+03  0.25992969694E+03  0.00000000000E+00 0. -1.
         22    1    1    2    0    0  0.88960576827E+01 -0.88874010922E+01  0.60944236593E+01  0.13973823393E+02  0.00000000000E+00 0.  1.
<mgrwt>
<rscale>  0 0.55971538E+02</rscale>
<asrwt>0</asrwt>
<pdfrwt beam="1">  1        2 0.69149346E-01 0.92070935E+02</pdfrwt>
<pdfrwt beam="2">  1       -2 0.13480593E-02 0.92070935E+02</pdfrwt>
<totfact> 0.84266354E+04</totfact>
</mgrwt>
</event>
<event>
 6    1  0.2975432E-002  0.8727273E+02  0.7546771E-02  0.1435185E+00
          2   -1    0    0  501    0  0.00000000000E+00  0.00000000000E+00  0.17715327652E+03  0.17715327652E+03  0.00000000000E+00 0. -1.
         -2   -1    0    0    0  501 -0.00000000000E+00 -0.00000000000E+00 -0.14084624082E+02  0.14084624082E+02  0.00000000000E+00 0.  1.
         23    2    1    2    0    0  0.10869553410E+02 -0.12665961525E+01  0.15406660857E+03  0.17706792350E+03  0.86583937314E+02 0.  0.
         13    1    3    3    0    0  0.13292570206E+02 -0.25938622129E+02  0.14892411039E+03  0.15174944875E+03  0.00000000000E+00 0. -1.
        -13    1    3    3    0    0 -0.24230167953E+01  0.24672025977E+02  0.51424981758E+01  0.25318474750E+02  0.00000000000E+00 0.  1.
         22    1    1    2    0    0 -0.10869553410E+02  0.12665961525E+01  0.90020438720E+01  0.14169977100E+02  0.00000000000E+00 0.  1.
<mgrwt>
<rscale>  0 0.51933074E+02</rscale>
<asrwt>0</asrwt>
<pdfrwt beam="1">  1        2 0.27254349E-01 0.87272731E+02</pdfrwt>
<pdfrwt beam="2">  1       -2 0.21668654E-02 0.87272731E+02</pdfrwt>
<totfact> 0.11311958E+05</totfact>
</mgrwt>
</event>
<event>
 6    1  0.2975432E-002  0.9166100E+02  0.7546771E-02  0.1392415E+00
          2   -1    0    0  501    0  0.00000000000E+00  0.00000000000E+00  0.33603459518E+04  0.33603459518E+04  0.00000000000E+00 0. -1.
         -2   -1    0    0    0  501 -0.00000000000E+00 -0.00000000000E+00 -0.35400503248E+01  0.35400503248E+01  0.00000000000E+00 0.  1.
         23    2    1    2    0    0  0.10280692928E+02 -0.15196436051E+02  0.33307914553E+04  0.33320524392E+04  0.89805984836E+02 0.  0.
         11    1    3    3    0    0  0.30517034096E+02  0.25608313700E+02  0.96408302872E+03  0.96490577849E+03  0.00000000000E+00 0.  1.
        -11    1    3    3    0    0 -0.20236341168E+02 -0.40804749750E+02  0.23667084265E+04  0.23671466607E+04  0.00000000000E+00 0. -1.
         22    1    1    2    0    0 -0.10280692928E+02  0.15196436051E+02  0.26014446206E+02  0.31833562904E+02  0.00000000000E+00 0.  1.
<mgrwt>
<rscale>  0 0.61310045E+02</rscale>
<asrwt>0</asrwt>
<pdfrwt beam="1">  1        2 0.51697375E+00 0.91661002E+02</pdfrwt>
<pdfrwt beam="2">  1       -2 0.54462582E-03 0.91661002E+02</pdfrwt>
<totfact> 0.64709444E+03</totfact>
</mgrwt>
</event>
<event>
 6    1  0.2975432E-002  0.9480660E+02  0.7546771E-02  0.1357202E+00
          2   -1    0    0  501    0  0.00000000000E+00  0.00000000000E+00  0.24125847950E+03  0.24125847950E+03  0.00000000000E+00 0.  1.
         -2   -1    0    0    0  501 -0.00000000000E+00 -0.00000000000E+00 -0.19640176041E+02  0.19640176041E+02  0.00000000000E+00 0. -1.
         23    2    1    2    0    0  0.26066431773E+02 -0.13985965831E+02  0.20747491758E+03  0.22810991556E+03  0.90073448061E+02 0.  0.
         13    1    3    3    0    0 -0.23049919298E+02 -0.18735544058E+02  0.24217078967E+02  0.38324747938E+02  0.00000000000E+00 0. -1.
        -13    1    3    3    0    0  0.49116351070E+02  0.47495782275E+01  0.18325783861E+03  0.18978516762E+03  0.00000000000E+00 0.  1.
         22    1    1    2    0    0 -0.26066431773E+02  0.13985965831E+02  0.14143385881E+02  0.32788739984E+02  0.00000000000E+00 0. -1.
<mgrwt>
<rscale>  0 0.70857210E+02</rscale>
<asrwt>0</asrwt>
<pdfrwt beam="1">  1        2 0.37116687E-01 0.94806604E+02</pdfrwt>
<pdfrwt beam="2">  1       -2 0.30215657E-02 0.94806604E+02</pdfrwt>
<totfact> 0.50936859E+04</totfact>
</mgrwt>
</event>
<event>
 6    1  0.2975432E-002  0.9953370E+02  0.7546771E-02  0.1366046E+00
          2   -1    0    0  501    0  0.00000000000E+00  0.00000000000E+00  0.25342925874E+03  0.25342925874E+03  0.00000000000E+00 0. -1.
         -2   -1    0    0    0  501 -0.00000000000E+00 -0.00000000000E+00 -0.22786699540E+02  0.22786699540E+02  0.00000000000E+00 0.  1.
         23    2    1    2    0    0  0.20518044148E+02 -0.80510305259E+01  0.23365337415E+03  0.25397018936E+03  0.97062601459E+02 0.  0.
         13    1    3    3    0    0  0.31664574644E+02  0.20807654221E+02  0.21397874800E+03  0.21730740521E+03  0.00000000000E+00 0. -1.
        -13    1    3    3    0    0 -0.11146530496E+02 -0.28858684747E+02  0.19674626146E+02  0.36662784147E+02  0.00000000000E+00 0.  1.
         22    1    1    2    0    0 -0.20518044148E+02  0.80510305259E+01 -0.30108149530E+01  0.22245768920E+02  0.00000000000E+00 0.  1.
<mgrwt>
<rscale>  0 0.68278793E+02</rscale>
<asrwt>0</asrwt>
<pdfrwt beam="1">  1        2 0.38989115E-01 0.99533702E+02</pdfrwt>
<pdfrwt beam="2">  1       -2 0.35056463E-02 0.99533702E+02</pdfrwt>
<totfact> 0.39160987E+04</totfact>
</mgrwt>
</event>
<event>
 6    1  0.2975432E-002  0.9162632E+02  0.7546771E-02  0.1423987E+00
          4   -1    0    0  501    0  0.00000000000E+00  0.00000000000E+00  0.34483579658E+02  0.34483579658E+02  0.00000000000E+00 0. -1.
         -4   -1    0    0    0  501 -0.00000000000E+00 -0.00000000000E+00 -0.77706225372E+02  0.77706225372E+02  0.00000000000E+00 0.  1.
         23    2    1    2    0    0  0.10569963632E+02  0.37252285363E+01 -0.34196245567E+02  0.97799622320E+02  0.90938338759E+02 0.  0.
         13    1    3    3    0    0 -0.33749049367E+02 -0.21270829055E+02 -0.84638977602E+01  0.40780927737E+02  0.00000000000E+00 0. -1.
        -13    1    3    3    0    0  0.44319012999E+02  0.24996057591E+02 -0.25732347807E+02  0.57018694583E+02  0.00000000000E+00 0.  1.
         22    1    1    2    0    0 -0.10569963632E+02 -0.37252285363E+01 -0.90264001466E+01  0.14390182710E+02  0.00000000000E+00 0. -1.
<mgrwt>
<rscale>  0 0.54186304E+02</rscale>
<asrwt>0</asrwt>
<pdfrwt beam="1">  1        4 0.53051662E-02 0.91626322E+02</pdfrwt>
<pdfrwt beam="2">  1       -4 0.11954804E-01 0.91626322E+02</pdfrwt>
<totfact> 0.17518154E+04</totfact>
</mgrwt>
</event>
<event>
 6    1  0.2975432E-002  0.9467107E+02  0.7546771E-02  0.1401039E+00
          2   -1    0    0  501    0  0.00000000000E+00  0.00000000000E+00  0.56141821002E+02  0.56141821002E+02  0.00000000000E+00 0. -1.
         -2   -1    0    0    0  501 -0.00000000000E+00 -0.00000000000E+00 -0.76149198704E+02  0.76149198704E+02  0.00000000000E+00 0.  1.
         23    2    1    2    0    0  0.35644836388E+01  0.14072598542E+02  0.13637100659E+02  0.95648223723E+02  0.93551422296E+02 0.  0.
         11    1    3    3    0    0 -0.20891642120E+02 -0.28132256913E+02  0.27939222711E+02  0.44816121599E+02  0.00000000000E+00 0. -1.
        -11    1    3    3    0    0  0.24456125759E+02  0.42204855455E+02 -0.14302122052E+02  0.50832102123E+02  0.00000000000E+00 0.  1.
         22    1    1    2    0    0 -0.35644836388E+01 -0.14072598542E+02 -0.33644478361E+02  0.36642795984E+02  0.00000000000E+00 0.  1.
<mgrwt>
<rscale>  0 0.59242349E+02</rscale>
<asrwt>0</asrwt>
<pdfrwt beam="1">  1        2 0.86372033E-02 0.94671074E+02</pdfrwt>
<pdfrwt beam="2">  1       -2 0.11715261E-01 0.94671074E+02</pdfrwt>
<totfact> 0.34662094E+04</totfact>
</mgrwt>
</event>
<event>
 6    1  0.2975432E-002  0.9323489E+02  0.7546771E-02  0.1418612E+00
         -2   -1    0    0    0  501 -0.00000000000E+00  0.00000000000E+00  0.14416744282E+04  0.14416744282E+04  0.00000000000E+00 0.  1.
          2   -1    0    0  501    0  0.00000000000E+00 -0.00000000000E+00 -0.31141541300E+01  0.31141541300E+01  0.00000000000E+00 0. -1.
         23    2    1    2    0    0  0.11933036314E+01 -0.11490247397E+02  0.14190879404E+04  0.14221474353E+04  0.92516460655E+02 0.  0.
         13    1    3    3    0    0 -0.36075091465E+02  0.22302513398E+02  0.72412499417E+03  0.72536599142E+03  0.00000000000E+00 0.  1.
        -13    1    3    3    0    0  0.37268395097E+02 -0.33792760795E+02  0.69496294622E+03  0.69678144391E+03  0.00000000000E+00 0. -1.
         22    1    1    2    0    0 -0.11933036314E+01  0.11490247397E+02  0.19472333710E+02  0.22641147032E+02  0.00000000000E+00 0. -1.
<mgrwt>
<rscale>  0 0.55315721E+02</rscale>
<asrwt>0</asrwt>
<pdfrwt beam="1">  1        2 0.47910179E-03 0.93234893E+02</pdfrwt>
<pdfrwt beam="2">  1       -2 0.22179553E+00 0.93234893E+02</pdfrwt>
<totfact> 0.39302545E+03</totfact>
</mgrwt>
</event>
<event>
 6    1  0.2975432E-002  0.9886515E+02  0.7546771E-02  0.1342560E+00
         -2   -1    0    0    0  501 -0.00000000000E+00  0.00000000000E+00  0.35866807300E+02  0.35866807300E+02  0.00000000000E+00 0.  1.
          2   -1    0    0  501    0  0.00000000000E+00 -0.00000000000E+00 -0.12211128863E+03  0.12211128863E+03  0.00000000000E+00 0. -1.
         23    2    1    2    0    0 -0.14140593209E+02  0.30359622078E+02 -0.63969967238E+02  0.11775599993E+03  0.93019652661E+02 0.  0.
         13    1    3    3    0    0 -0.11010203989E+02  0.63739317708E+02 -0.48423100541E+02  0.80800506680E+02  0.00000000000E+00 0. -1.
        -13    1    3    3    0    0 -0.31303892201E+01 -0.33379695630E+02 -0.15546866697E+02  0.36955493246E+02  0.00000000000E+00 0.  1.
         22    1    1    2    0    0  0.14140593209E+02 -0.30359622078E+02 -0.22274514094E+02  0.40222096006E+02  0.00000000000E+00 0.  1.
<mgrwt>
<rscale>  0 0.75424986E+02</rscale>
<asrwt>0</asrwt>
<pdfrwt beam="1">  1        2 0.18786352E-01 0.98865155E+02</pdfrwt>
<pdfrwt beam="2">  1       -2 0.55179703E-02 0.98865155E+02</pdfrwt>
<totfact> 0.44168765E+04</totfact>
</mgrwt>
</event>
<event>
 6    1  0.2975432E-002  0.9522431E+02  0.7546771E-02  0.1390142E+00
         -2   -1    0    0    0  501 -0.00000000000E+00  0.00000000000E+00  0.51406685435E+01  0.51406685435E+01  0.00000000000E+00 0.  1.
          2   -1    0    0  501    0  0.00000000000E+00 -0.00000000000E+00 -0.64820213491E+03  0.64820213491E+03  0.00000000000E+00 0. -1.
         23    2    1    2    0    0 -0.66390323613E+01  0.15618787361E+02 -0.58995081830E+03  0.59758651047E+03  0.93699766343E+02 0.  0.
         13    1    3    3    0    0 -0.43299993072E+02 -0.15778399523E+02 -0.32858511805E+03  0.33180118610E+03  0.00000000000E+00 0. -1.
        -13    1    3    3    0    0  0.36660960711E+02  0.31397186884E+02 -0.26136570025E+03  0.26578532437E+03  0.00000000000E+00 0.  1.
         22    1    1    2    0    0  0.66390323613E+01 -0.15618787361E+02 -0.53110648072E+02  0.55756292990E+02  0.00000000000E+00 0.  1.
<mgrwt>
<rscale>  0 0.61871312E+02</rscale>
<asrwt>0</asrwt>
<pdfrwt beam="1">  1        2 0.99723390E-01 0.95224311E+02</pdfrwt>
<pdfrwt beam="2">  1       -2 0.79087221E-03 0.95224311E+02</pdfrwt>
<totfact> 0.12058745E+05</totfact>
</mgrwt>
</event>
<event>
 6    1  0.2975432E-002  0.9631676E+02  0.7546771E-02  0.1416667E+00
         -1   -1    0    0    0  501 -0.00000000000E+00  0.00000000000E+00  0.80422031725E+01  0.80422031725E+01  0.00000000000E+00 0.  1.
          1   -1    0    0  501    0  0.00000000000E+00 -0.00000000000E+00 -0.35846556679E+03  0.35846556679E+03  0.00000000000E+00 0. -1.
         23    2    1    2    0    0  0.71260844239E+01 -0.81120785637E+01 -0.32225246045E+03  0.33633846962E+03  0.95709618027E+02 0.  0.
         13    1    3    3    0    0  0.21566976854E+02  0.32249722379E+02 -0.24443681716E+03  0.24749653870E+03  0.00000000000E+00 0. -1.
        -13    1    3    3    0    0 -0.14440892430E+02 -0.40361800943E+02 -0.77815643295E+02  0.88841930928E+02  0.00000000000E+00 0.  1.
         22    1    1    2    0    0 -0.71260844239E+01  0.81120785637E+01 -0.28170903163E+02  0.30169300338E+02  0.00000000000E+00 0. -1.
<mgrwt>
<rscale>  0 0.55732383E+02</rscale>
<asrwt>0</asrwt>
<pdfrwt beam="1">  1        1 0.55148543E-01 0.96316758E+02</pdfrwt>
<pdfrwt beam="2">  1       -1 0.12372621E-02 0.96316758E+02</pdfrwt>
<totfact> 0.84073899E+04</totfact>
</mgrwt>
</event>
<event>
 6    1  0.2975432E-002  0.9297639E+02  0.7546771E-02  0.1372857E+00
         -1   -1    0    0    0  501 -0.00000000000E+00  0.00000000000E+00  0.77561414135E+01  0.77561414135E+01  0.00000000000E+00 0.  1.
          1   -1    0    0  501    0  0.00000000000E+00 -0.00000000000E+00 -0.72335853388E+03  0.72335853388E+03  0.00000000000E+00 0. -1.
         23    2    1    2    0    0 -0.18738286244E+02 -0.15243055777E+02 -0.68874684858E+03  0.69499412217E+03  0.89783819780E+02 0.  0.
         11    1    3    3    0    0  0.22896182982E+02  0.14342662590E+02 -0.45169172545E+03  0.45249901879E+03  0.00000000000E+00 0. -1.
        -11    1    3    3    0    0 -0.41634469226E+02 -0.29585718367E+02 -0.23705512313E+03  0.24249510338E+03  0.00000000000E+00 0.  1.
         22    1    1    2    0    0  0.18738286244E+02  0.15243055777E+02 -0.26855543882E+02  0.36120553124E+02  0.00000000000E+00 0.  1.
<mgrwt>
<rscale>  0 0.66379228E+02</rscale>
<asrwt>0</asrwt>
<pdfrwt beam="1">  1        1 0.11128594E+00 0.92976386E+02</pdfrwt>
<pdfrwt beam="2">  1       -1 0.11932524E-02 0.92976386E+02</pdfrwt>
<totfact> 0.35275841E+04</totfact>
</mgrwt>
</event>
<event>
 6    1  0.2975432E-002  0.9164963E+02  0.7546771E-02  0.1415264E+00
         -2   -1    0    0    0  501 -0.00000000000E+00  0.00000000000E+00  0.62573432074E+01  0.62573432074E+01  0.00000000000E+00 0.  1.
          2   -1    0    0  501    0  0.00000000000E+00 -0.00000000000E+00 -0.49980959768E+03  0.49980959768E+03  0.00000000000E+00 0. -1.
         23    2    1    2    0    0  0.86540468489E+01 -0.94414024663E+01 -0.47339413424E+03  0.48218426058E+03  0.90750328986E+02 0.  0.
         13    1    3    3    0    0 -0.26602088881E+01 -0.76800819528E+01 -0.47023594333E+03  0.47030617981E+03  0.00000000000E+00 0. -1.
        -13    1    3    3    0    0  0.11314255737E+02 -0.17613205134E+01 -0.31581909057E+01  0.11878080764E+02  0.00000000000E+00 0.  1.
         22    1    1    2    0    0 -0.86540468489E+01  0.94414024663E+01 -0.20158120240E+02  0.23882680314E+02  0.00000000000E+00 0.  1.
<mgrwt>
<rscale>  0 0.56035637E+02</rscale>
<asrwt>0</asrwt>
<pdfrwt beam="1">  1        2 0.76893787E-01 0.91649631E+02</pdfrwt>
<pdfrwt beam="2">  1       -2 0.96266815E-03 0.91649631E+02</pdfrwt>
<totfact> 0.12118147E+05</totfact>
</mgrwt>
</event>
<event>
 6    1  0.2975432E-002  0.9407822E+02  0.7546771E-02  0.1410407E+00
          2   -1    0    0  501    0  0.00000000000E+00  0.00000000000E+00  0.31356516212E+03  0.31356516212E+03  0.00000000000E+00 0. -1.
         -2   -1    0    0    0  501 -0.00000000000E+00 -0.00000000000E+00 -0.94636015549E+01  0.94636015549E+01  0.00000000000E+00 0.  1.
         23    2    1    2    0    0 -0.11372648302E+02  0.58069898420E+01  0.24232732731E+03  0.25994854368E+03  0.93207583057E+02 0.  0.
         13    1    3    3    0    0  0.10631351700E+02  0.27270851547E+02  0.22004481246E+03  0.22198298240E+03  0.00000000000E+00 0. -1.
        -13    1    3    3    0    0 -0.22004000002E+02 -0.21463861705E+02  0.22282514846E+02  0.37965561279E+02  0.00000000000E+00 0.  1.
         22    1    1    2    0    0  0.11372648302E+02 -0.58069898420E+01  0.61774233257E+02  0.63080219997E+02  0.00000000000E+00 0.  1.
<mgrwt>
<rscale>  0 0.57103099E+02</rscale>
<asrwt>0</asrwt>
<pdfrwt beam="1">  1        2 0.48240786E-01 0.94078222E+02</pdfrwt>
<pdfrwt beam="2">  1       -2 0.14559389E-02 0.94078222E+02</pdfrwt>
<totfact> 0.11063306E+05</totfact>
</mgrwt>
</event>
<event>
 6    1  0.2975432E-002  0.8847047E+02  0.7546771E-02  0.1429750E+00
         -2   -1    0    0    0  501 -0.00000000000E+00  0.00000000000E+00  0.15232432045E+02  0.15232432045E+02  0.00000000000E+00 0.  1.
          2   -1    0    0  501    0  0.00000000000E+00 -0.00000000000E+00 -0.16453392661E+03  0.16453392661E+03  0.00000000000E+00 0. -1.
         23    2    1    2    0    0 -0.76913831510E+01  0.84193042550E+01 -0.12790635863E+03  0.15552189742E+03  0.87732445197E+02 0.  0.
         13    1    3    3    0    0 -0.42128329766E+02 -0.15996243612E+02 -0.53262071582E+02  0.69767644706E+02  0.00000000000E+00 0.  1.
        -13    1    3    3    0    0  0.34436946615E+02  0.24415547867E+02 -0.74644287049E+02  0.85754252715E+02  0.00000000000E+00 0. -1.
         22    1    1    2    0    0  0.76913831510E+01 -0.84193042550E+01 -0.21395135936E+02  0.24244461236E+02  0.00000000000E+00 0.  1.
<mgrwt>
<rscale>  0 0.53010174E+02</rscale>
<asrwt>0</asrwt>
<pdfrwt beam="1">  1        2 0.25312911E-01 0.88470470E+02</pdfrwt>
<pdfrwt beam="2">  1       -2 0.23434512E-02 0.88470470E+02</pdfrwt>
<totfact> 0.10971025E+05</totfact>
</mgrwt>
</event>
<event>
 6    1  0.2975432E-002  0.9234264E+02  0.7546771E-02  0.1404960E+00
         -2   -1    0    0    0  501 -0.00000000000E+00  0.00000000000E+00  0.12616729664E+02  0.12616729664E+02  0.00000000000E+00 0.  1.
          2   -1    0    0  501    0  0.00000000000E+00 -0.00000000000E+00 -0.22710015849E+03  0.22710015849E+03  0.00000000000E+00 0. -1.
         23    2    1    2    0    0 -0.54861334365E+01 -0.13643604092E+02 -0.18397753725E+03  0.20585164028E+03  0.91164236414E+02 0.  0.
         11    1    3    3    0    0  0.19269941466E+02  0.76610809677E+01 -0.16838905288E+03  0.16966112088E+03  0.00000000000E+00 0. -1.
        -11    1    3    3    0    0 -0.24756074902E+02 -0.21304685060E+02 -0.15588484368E+02  0.36190519407E+02  0.00000000000E+00 0.  1.
         22    1    1    2    0    0  0.54861334365E+01  0.13643604092E+02 -0.30505891579E+02  0.33865247876E+02  0.00000000000E+00 0. -1.
<mgrwt>
<rscale>  0 0.58333782E+02</rscale>
<asrwt>0</asrwt>
<pdfrwt beam="1">  1        2 0.34938486E-01 0.92342642E+02</pdfrwt>
<pdfrwt beam="2">  1       -2 0.19410354E-02 0.92342642E+02</pdfrwt>
<totfact> 0.10256334E+05</totfact>
</mgrwt>
</event>
<event>
 6    1  0.2975432E-002  0.9139512E+02  0.7546771E-02  0.1431786E+00
         -2   -1    0    0    0  501 -0.00000000000E+00  0.00000000000E+00  0.24792984549E+01  0.24792984549E+01  0.00000000000E+00 0.  1.
          2   -1    0    0  501    0  0.00000000000E+00 -0.00000000000E+00 -0.10913207685E+04  0.10913207685E+04  0.00000000000E+00 0. -1.
         23    2    1    2    0    0  0.65588732407E+01  0.75876416067E+01 -0.10353770176E+04  0.10394030193E+04  0.90843143575E+02 0.  0.
         13    1    3    3    0    0 -0.23599981204E+02 -0.19454467463E+02 -0.14929766022E+03  0.15239825053E+03  0.00000000000E+00 0.  1.
        -13    1    3    3    0    0  0.30158854445E+02  0.27042109069E+02 -0.88607935739E+03  0.88700476873E+03  0.00000000000E+00 0. -1.
         22    1    1    2    0    0 -0.65588732407E+01 -0.75876416067E+01 -0.53464452395E+02  0.54397047652E+02  0.00000000000E+00 0.  1.
<mgrwt>
<rscale>  0 0.52603206E+02</rscale>
<asrwt>0</asrwt>
<pdfrwt beam="1">  1        2 0.16789587E+00 0.91395119E+02</pdfrwt>
<pdfrwt beam="2">  1       -2 0.38142970E-03 0.91395119E+02</pdfrwt>
<totfact> 0.17328043E+05</totfact>
</mgrwt>
</event>
<event>
 6    1  0.2975432E-002  0.9243613E+02  0.7546771E-02  0.1401806E+00
          1   -1    0    0  501    0  0.00000000000E+00  0.00000000000E+00  0.70254176738E+02  0.70254176738E+02  0.00000000000E+00 0. -1.
         -1   -1    0    0    0  501 -0.00000000000E+00 -0.00000000000E+00 -0.41682621034E+02  0.41682621034E+02  0.00000000000E+00 0.  1.
         23    2    1    2    0    0  0.20849628307E+01 -0.15266048864E+02  0.21103404153E+02  0.94814513885E+02  0.91142959456E+02 0.  0.
         13    1    3    3    0    0  0.49246293550E+01  0.77879841861E+01 -0.33888091924E+02  0.35118477277E+02  0.00000000000E+00 0.  1.
        -13    1    3    3    0    0 -0.28396665243E+01 -0.23054033050E+02  0.54991496077E+02  0.59696036608E+02  0.00000000000E+00 0. -1.
         22    1    1    2    0    0 -0.20849628307E+01  0.15266048864E+02  0.74681515513E+01  0.17122283888E+02  0.00000000000E+00 0.  1.
<mgrwt>
<rscale>  0 0.59063102E+02</rscale>
<asrwt>0</asrwt>
<pdfrwt beam="1">  1        1 0.10808335E-01 0.92436131E+02</pdfrwt>
<pdfrwt beam="2">  1       -1 0.64127109E-02 0.92436131E+02</pdfrwt>
<totfact> 0.59797927E+04</totfact>
</mgrwt>
</event>
<event>
 6    1  0.2975432E-002  0.9924296E+02  0.7546771E-02  0.1334722E+00
         -1   -1    0    0    0  501 -0.00000000000E+00  0.00000000000E+00  0.83119863326E+02  0.83119863326E+02  0.00000000000E+00 0.  1.
          1   -1    0    0  501    0  0.00000000000E+00 -0.00000000000E+00 -0.12506980709E+03  0.12506980709E+03  0.00000000000E+00 0. -1.
         23    2    1    2    0    0  0.37423875739E+02 -0.62171713135E+01 -0.98673860572E+02  0.13994890230E+03  0.91705860229E+02 0.  0.
         11    1    3    3    0    0 -0.30728191758E+02 -0.35007159214E+01 -0.27774810742E+02  0.41568219741E+02  0.00000000000E+00 0. -1.
        -11    1    3    3    0    0  0.68152067497E+02 -0.27164553920E+01 -0.70899049831E+02  0.98380682559E+02  0.00000000000E+00 0.  1.
         22    1    1    2    0    0 -0.37423875739E+02  0.62171713135E+01  0.56723916811E+02  0.68240768114E+02  0.00000000000E+00 0.  1.
<mgrwt>
<rscale>  0 0.78035084E+02</rscale>
<asrwt>0</asrwt>
<pdfrwt beam="1">  1        1 0.19241509E-01 0.99242957E+02</pdfrwt>
<pdfrwt beam="2">  1       -1 0.12787671E-01 0.99242957E+02</pdfrwt>
<totfact> 0.10176165E+04</totfact>
</mgrwt>
</event>
<event>
 6    1  0.2975432E-002  0.9914321E+02  0.7546771E-02  0.1338047E+00
         -1   -1    0    0    0  501 -0.00000000000E+00  0.00000000000E+00  0.18179699593E+02  0.18179699593E+02  0.00000000000E+00 0.  1.
          1   -1    0    0  501    0  0.00000000000E+00 -0.00000000000E+00 -0.25126783713E+03  0.25126783713E+03  0.00000000000E+00 0. -1.
         23    2    1    2    0    0 -0.37471168540E+01 -0.35713800093E+02 -0.16598682713E+03  0.19334167453E+03  0.92411362545E+02 0.  0.
         13    1    3    3    0    0  0.27518789921E+02  0.11350156949E+02 -0.17647291107E+02  0.34605443862E+02  0.00000000000E+00 0.  1.
        -13    1    3    3    0    0 -0.31265906775E+02 -0.47063957042E+02 -0.14833953602E+03  0.15873623066E+03  0.00000000000E+00 0. -1.
         22    1    1    2    0    0  0.37471168540E+01  0.35713800093E+02 -0.67101310409E+02  0.76105862195E+02  0.00000000000E+00 0. -1.
<mgrwt>
<rscale>  0 0.76913149E+02</rscale>
<asrwt>0</asrwt>
<pdfrwt beam="1">  1        1 0.38656588E-01 0.99143211E+02</pdfrwt>
<pdfrwt beam="2">  1       -1 0.27968770E-02 0.99143211E+02</pdfrwt>
<totfact> 0.40701793E+04</totfact>
</mgrwt>
</event>
<event>
 6    1  0.2975432E-002  0.9799986E+02  0.7546771E-02  0.1335935E+00
          1   -1    0    0  501    0  0.00000000000E+00  0.00000000000E+00  0.20238963090E+03  0.20238963090E+03  0.00000000000E+00 0. -1.
         -1   -1    0    0    0  501 -0.00000000000E+00 -0.00000000000E+00 -0.12213172425E+03  0.12213172425E+03  0.00000000000E+00 0.  1.
         23    2    1    2    0    0 -0.19757438336E+02  0.33129895832E+02  0.18694530788E+03  0.21107468068E+03  0.90088991111E+02 0.  0.
         11    1    3    3    0    0 -0.79537555706E+01 -0.11667427254E+02  0.15298186671E+03  0.15363216665E+03  0.00000000000E+00 0. -1.
        -11    1    3    3    0    0 -0.11803682765E+02  0.44797323086E+02  0.33963441167E+02  0.57442514033E+02  0.00000000000E+00 0.  1.
         22    1    1    2    0    0  0.19757438336E+02 -0.33129895832E+02 -0.10668740123E+03  0.11344667447E+03  0.00000000000E+00 0.  1.
<mgrwt>
<rscale>  0 0.77623372E+02</rscale>
<asrwt>0</asrwt>
<pdfrwt beam="1">  1        1 0.31136866E-01 0.97999861E+02</pdfrwt>
<pdfrwt beam="2">  1       -1 0.18789496E-01 0.97999861E+02</pdfrwt>
<totfact> 0.30662790E+03</totfact>
</mgrwt>
</event>
<event>
 6    1  0.2975432E-002  0.7627460E+02  0.7546771E-02  0.1438112E+00
          2   -1    0    0  501    0  0.00000000000E+00  0.00000000000E+00  0.35273902082E+03  0.35273902082E+03  0.00000000000E+00 0. -1.
         -2   -1    0    0    0  501 -0.00000000000E+00 -0.00000000000E+00 -0.10829504154E+02  0.10829504154E+02  0.00000000000E+00 0.  1.
         23    2    1    2    0    0  0.13313387249E+02 -0.82973607494E+01  0.33917375160E+03  0.34764442732E+03  0.74643965583E+02 0.  0.
         11    1    3    3    0    0 -0.10396697407E+02  0.16117811561E+02  0.24399288525E+02  0.31035470788E+02  0.00000000000E+00 0.  1.
        -11    1    3    3    0    0  0.23710084656E+02 -0.24415172310E+02  0.31477446307E+03  0.31660895653E+03  0.00000000000E+00 0. -1.
         22    1    1    2    0    0 -0.13313387249E+02  0.82973607494E+01  0.27357650633E+01  0.15924097649E+02  0.00000000000E+00 0.  1.
<mgrwt>
<rscale>  0 0.51365584E+02</rscale>
<asrwt>0</asrwt>
<pdfrwt beam="1">  1        2 0.54267533E-01 0.76274597E+02</pdfrwt>
<pdfrwt beam="2">  1       -2 0.16660778E-02 0.76274597E+02</pdfrwt>
<totfact> 0.78244125E+04</totfact>
</mgrwt>
</event>
<event>
 6    1  0.2975432E-002  0.9703269E+02  0.7546771E-02  0.1345572E+00
          2   -1    0    0  501    0  0.00000000000E+00  0.00000000000E+00  0.14437729055E+04  0.14437729055E+04  0.00000000000E+00 0. -1.
         -2   -1    0    0    0  501 -0.00000000000E+00 -0.00000000000E+00 -0.33511189166E+01  0.33511189166E+01  0.00000000000E+00 0.  1.
         23    2    1    2    0    0  0.31267175360E+02 -0.12394798630E+02  0.12495203819E+04  0.12532823013E+04  0.91016893085E+02 0.  0.
         11    1    3    3    0    0  0.19308658602E+02  0.29382874175E+02  0.94745539065E+03  0.94810753338E+03  0.00000000000E+00 0. -1.
        -11    1    3    3    0    0  0.11958516757E+02 -0.41777672805E+02  0.30206499122E+03  0.30517476795E+03  0.00000000000E+00 0.  1.
         22    1    1    2    0    0 -0.31267175360E+02  0.12394798630E+02  0.19090140469E+03  0.19384172306E+03  0.00000000000E+00 0. -1.
<mgrwt>
<rscale>  0 0.74453341E+02</rscale>
<asrwt>0</asrwt>
<pdfrwt beam="1">  1        2 0.22211841E+00 0.97032686E+02</pdfrwt>
<pdfrwt beam="2">  1       -2 0.51555791E-03 0.97032686E+02</pdfrwt>
<totfact> 0.74094699E+04</totfact>
</mgrwt>
</event>
<event>
 6    1  0.2975432E-002  0.9339097E+02  0.7546771E-02  0.1417897E+00
         -1   -1    0    0    0  501 -0.00000000000E+00  0.00000000000E+00  0.98751218866E+02  0.98751218866E+02  0.00000000000E+00 0.  1.
          1   -1    0    0  501    0  0.00000000000E+00 -0.00000000000E+00 -0.39536462872E+02  0.39536462872E+02  0.00000000000E+00 0. -1.
         23    2    1    2    0    0  0.10480779811E+02  0.50213130374E+01  0.17541236026E+02  0.95024041153E+02  0.92665058710E+02 0.  0.
         11    1    3    3    0    0  0.12919984460E+02  0.33390543996E+02  0.43606484067E+02  0.56421448754E+02  0.00000000000E+00 0. -1.
        -11    1    3    3    0    0 -0.24392046493E+01 -0.28369230959E+02 -0.26065248041E+02  0.38602592399E+02  0.00000000000E+00 0.  1.
         22    1    1    2    0    0 -0.10480779811E+02 -0.50213130374E+01  0.41673519968E+02  0.43263640584E+02  0.00000000000E+00 0.  1.
<mgrwt>
<rscale>  0 0.55468273E+02</rscale>
<asrwt>0</asrwt>
<pdfrwt beam="1">  1        1 0.60825328E-02 0.93390971E+02</pdfrwt>
<pdfrwt beam="2">  1       -1 0.15192495E-01 0.93390971E+02</pdfrwt>
<totfact> 0.34812968E+04</totfact>
</mgrwt>
</event>
<event>
 6    1  0.2975432E-002  0.9057051E+02  0.7546771E-02  0.1421393E+00
          2   -1    0    0  501    0  0.00000000000E+00  0.00000000000E+00  0.14628905945E+03  0.14628905945E+03  0.00000000000E+00 0. -1.
         -2   -1    0    0    0  501 -0.00000000000E+00 -0.00000000000E+00 -0.44977566599E+02  0.44977566599E+02  0.00000000000E+00 0.  1.
         23    2    1    2    0    0 -0.51600646915E+00  0.12062996094E+02  0.13097482751E+03  0.15924014387E+03  0.89762106921E+02 0.  0.
         11    1    3    3    0    0  0.24181977984E+02  0.32888018683E+02  0.23691535350E+02  0.47198291064E+02  0.00000000000E+00 0.  1.
        -11    1    3    3    0    0 -0.24697984453E+02 -0.20825022589E+02  0.10728329216E+03  0.11204185280E+03  0.00000000000E+00 0. -1.
         22    1    1    2    0    0  0.51600646915E+00 -0.12062996094E+02 -0.29663334665E+02  0.32026482181E+02  0.00000000000E+00 0.  1.
<mgrwt>
<rscale>  0 0.54727192E+02</rscale>
<asrwt>0</asrwt>
<pdfrwt beam="1">  1        2 0.22506009E-01 0.90570514E+02</pdfrwt>
<pdfrwt beam="2">  1       -2 0.69196257E-02 0.90570514E+02</pdfrwt>
<totfact> 0.25416400E+04</totfact>
</mgrwt>
</event>
<event>
 6    1  0.2975432E-002  0.9209376E+02  0.7546771E-02  0.1422829E+00
         -2   -1    0    0    0  501 -0.00000000000E+00  0.00000000000E+00  0.70031470329E+01  0.70031470329E+01  0.00000000000E+00 0.  1.
          2   -1    0    0  501    0  0.00000000000E+00 -0.00000000000E+00 -0.44305178524E+03  0.44305178524E+03  0.00000000000E+00 0. -1.
         23    2    1    2    0    0  0.52825176432E+01  0.99153788565E+01 -0.42266105112E+03  0.43257788393E+03  0.91405917795E+02 0.  0.
         13    1    3    3    0    0  0.19440672637E+02  0.35974773738E+02 -0.93092277733E+02  0.10167741279E+03  0.00000000000E+00 0.  1.
        -13    1    3    3    0    0 -0.14158154993E+02 -0.26059394882E+02 -0.32956877338E+03  0.33090047114E+03  0.00000000000E+00 0. -1.
         22    1    1    2    0    0 -0.52825176432E+01 -0.99153788565E+01 -0.13387587091E+02  0.17477048339E+02  0.00000000000E+00 0.  1.
<mgrwt>
<rscale>  0 0.54426897E+02</rscale>
<asrwt>0</asrwt>
<pdfrwt beam="1">  1        2 0.68161817E-01 0.92093765E+02</pdfrwt>
<pdfrwt beam="2">  1       -2 0.10774072E-02 0.92093765E+02</pdfrwt>
<totfact> 0.11765203E+05</totfact>
</mgrwt>
</event>
<event>
 6    1  0.2975432E-002  0.1012630E+03  0.7546771E-02  0.1326235E+00
         -2   -1    0    0    0  501 -0.00000000000E+00  0.00000000000E+00  0.37673054983E+02  0.37673054983E+02  0.00000000000E+00 0.  1.
          2   -1    0    0  501    0  0.00000000000E+00 -0.00000000000E+00 -0.20874203591E+03  0.20874203591E+03  0.00000000000E+00 0. -1.
         23    2    1    2    0    0  0.10818195224E+02 -0.40021409813E+02 -0.17760530044E+03  0.20444521999E+03  0.92387545903E+02 0.  0.
         11    1    3    3    0    0  0.71719797611E+01 -0.66690121937E+02 -0.15640873184E+03  0.17018431495E+03  0.00000000000E+00 0.  1.
        -11    1    3    3    0    0  0.36462154630E+01  0.26668712123E+02 -0.21196568599E+02  0.34260905036E+02  0.00000000000E+00 0. -1.
         22    1    1    2    0    0 -0.10818195224E+02  0.40021409813E+02  0.65363195149E+01  0.41969870909E+02  0.00000000000E+00 0.  1.
<mgrwt>
<rscale>  0 0.81000879E+02</rscale>
<asrwt>0</asrwt>
<pdfrwt beam="1">  1        2 0.32114160E-01 0.10126305E+03</pdfrwt>
<pdfrwt beam="2">  1       -2 0.57958546E-02 0.10126305E+03</pdfrwt>
<totfact> 0.22870670E+04</totfact>
</mgrwt>
</event>
<event>
 6    1  0.2975432E-002  0.8968707E+02  0.7546771E-02  0.1416385E+00
         -2   -1    0    0    0  501 -0.00000000000E+00  0.00000000000E+00  0.15523427813E+02  0.15523427813E+02  0.00000000000E+00 0.  1.
          2   -1    0    0  501    0  0.00000000000E+00 -0.00000000000E+00 -0.30455200435E+03  0.30455200435E+03  0.00000000000E+00 0. -1.
         23    2    1    2    0    0  0.84270241402E+01  0.10459386148E+02 -0.29271513385E+03  0.30614689315E+03  0.88675572186E+02 0.  0.
         11    1    3    3    0    0 -0.22957822459E+02 -0.29439673593E+02 -0.96453533668E+02  0.10342649637E+03  0.00000000000E+00 0.  1.
        -11    1    3    3    0    0  0.31384846599E+02  0.39899059741E+02 -0.19626160018E+03  0.20272039678E+03  0.00000000000E+00 0. -1.
         22    1    1    2    0    0 -0.84270241402E+01 -0.10459386148E+02  0.36865573103E+01  0.13928539021E+02  0.00000000000E+00 0.  1.
<mgrwt>
<rscale>  0 0.55793166E+02</rscale>
<asrwt>0</asrwt>
<pdfrwt beam="1">  1        2 0.46854155E-01 0.89687070E+02</pdfrwt>
<pdfrwt beam="2">  1       -2 0.23882196E-02 0.89687070E+02</pdfrwt>
<totfact> 0.55701866E+04</totfact>
</mgrwt>
</event>
<event>
 6    1  0.2975432E-002  0.9925460E+02  0.7546771E-02  0.1342526E+00
          2   -1    0    0  501    0  0.00000000000E+00  0.00000000000E+00  0.70380663935E+03  0.70380663935E+03  0.00000000000E+00 0. -1.
         -2   -1    0    0    0  501 -0.00000000000E+00 -0.00000000000E+00 -0.14548061786E+02  0.14548061786E+02  0.00000000000E+00 0.  1.
         23    2    1    2    0    0  0.24696065810E+02 -0.22066096140E+02  0.67506595817E+03  0.68232362135E+03  0.93566383417E+02 0.  0.
         11    1    3    3    0    0 -0.13733929810E+02  0.10811971058E+02  0.49449291225E+03  0.49480173788E+03  0.00000000000E+00 0. -1.
        -11    1    3    3    0    0  0.38429995620E+02 -0.32878067197E+02  0.18057304592E+03  0.18752188346E+03  0.00000000000E+00 0.  1.
         22    1    1    2    0    0 -0.24696065810E+02  0.22066096140E+02  0.14192619394E+02  0.36031079787E+02  0.00000000000E+00 0.  1.
<mgrwt>
<rscale>  0 0.75436119E+02</rscale>
<asrwt>0</asrwt>
<pdfrwt beam="1">  1        2 0.10827792E+00 0.99254604E+02</pdfrwt>
<pdfrwt beam="2">  1       -2 0.22381639E-02 0.99254604E+02</pdfrwt>
<totfact> 0.24981553E+04</totfact>
</mgrwt>
</event>
<event>
 6    1  0.2975432E-002  0.9880095E+02  0.7546771E-02  0.1351204E+00
          2   -1    0    0  501    0  0.00000000000E+00  0.00000000000E+00  0.36361717548E+03  0.36361717548E+03  0.00000000000E+00 0.  1.
         -2   -1    0    0    0  501 -0.00000000000E+00 -0.00000000000E+00 -0.12841826605E+02  0.12841826605E+02  0.00000000000E+00 0. -1.
         23    2    1    2    0    0 -0.28665677379E+02 -0.39356498442E+01  0.31671303119E+03  0.33176614040E+03  0.94469134602E+02 0.  0.
         11    1    3    3    0    0  0.12410875149E+02 -0.95944981363E+01  0.38304050347E+01  0.16147947832E+02  0.00000000000E+00 0. -1.
        -11    1    3    3    0    0 -0.41076552528E+02  0.56588482921E+01  0.31288262615E+03  0.31561819257E+03  0.00000000000E+00 0.  1.
         22    1    1    2    0    0  0.28665677379E+02  0.39356498442E+01  0.34062317684E+02  0.44692861682E+02  0.00000000000E+00 0. -1.
<mgrwt>
<rscale>  0 0.72681715E+02</rscale>
<asrwt>0</asrwt>
<pdfrwt beam="1">  1        2 0.55941096E-01 0.98800950E+02</pdfrwt>
<pdfrwt beam="2">  1       -2 0.19756659E-02 0.98800950E+02</pdfrwt>
<totfact> 0.61583567E+04</totfact>
</mgrwt>
</event>
<event>
 6    1  0.2975432E-002  0.8733212E+02  0.7546771E-02  0.1411635E+00
         -2   -1    0    0    0  501 -0.00000000000E+00  0.00000000000E+00  0.10790013898E+02  0.10790013898E+02  0.00000000000E+00 0.  1.
          2   -1    0    0  501    0  0.00000000000E+00 -0.00000000000E+00 -0.60803384678E+03  0.60803384678E+03  0.00000000000E+00 0. -1.
         23    2    1    2    0    0  0.13181669817E+02  0.84554276808E+01 -0.59680115331E+03  0.60315712389E+03  0.85916522449E+02 0.  0.
         11    1    3    3    0    0  0.23153088756E+02  0.37342020344E+02 -0.49292019212E+03  0.49487453744E+03  0.00000000000E+00 0. -1.
        -11    1    3    3    0    0 -0.99714189389E+01 -0.28886592663E+02 -0.10388096119E+03  0.10828258645E+03  0.00000000000E+00 0.  1.
         22    1    1    2    0    0 -0.13181669817E+02 -0.84554276808E+01 -0.44267957166E+00  0.15666736789E+02  0.00000000000E+00 0. -1.
<mgrwt>
<rscale>  0 0.56830540E+02</rscale>
<asrwt>0</asrwt>
<pdfrwt beam="1">  1        2 0.93543679E-01 0.87332122E+02</pdfrwt>
<pdfrwt beam="2">  1       -2 0.16600020E-02 0.87332122E+02</pdfrwt>
<totfact> 0.44746889E+04</totfact>
</mgrwt>
</event>
<event>
 6    1  0.2975432E-002  0.9062306E+02  0.7546771E-02  0.1407489E+00
         -1   -1    0    0    0  501 -0.00000000000E+00  0.00000000000E+00  0.43304524723E+01  0.43304524723E+01  0.00000000000E+00 0.  1.
          1   -1    0    0  501    0  0.00000000000E+00 -0.00000000000E+00 -0.66828811554E+03  0.66828811554E+03  0.00000000000E+00 0. -1.
         23    2    1    2    0    0  0.13687048626E+02 -0.60213340490E+01 -0.60714799859E+03  0.61387395343E+03  0.89380908195E+02 0.  0.
         13    1    3    3    0    0 -0.20886560164E+02 -0.45449008847E+01 -0.37410915257E+02  0.43086901721E+02  0.00000000000E+00 0.  1.
        -13    1    3    3    0    0  0.34573608789E+02 -0.14764331644E+01 -0.56973708333E+03  0.57078705171E+03  0.00000000000E+00 0. -1.
         22    1    1    2    0    0 -0.13687048626E+02  0.60213340490E+01 -0.56809664480E+02  0.58744614580E+02  0.00000000000E+00 0. -1.
<mgrwt>
<rscale>  0 0.57757849E+02</rscale>
<asrwt>0</asrwt>
<pdfrwt beam="1">  1        1 0.10281348E+00 0.90623057E+02</pdfrwt>
<pdfrwt beam="2">  1       -1 0.66622396E-03 0.90623057E+02</pdfrwt>
<totfact> 0.89327644E+04</totfact>
</mgrwt>
</event>
<event>
 6    1  0.2975432E-002  0.9136452E+02  0.7546771E-02  0.1427464E+00
         -2   -1    0    0    0  501 -0.00000000000E+00  0.00000000000E+00  0.22019594974E+02  0.22019594974E+02  0.00000000000E+00 0.  1.
          2   -1    0    0  501    0  0.00000000000E+00 -0.00000000000E+00 -0.14613047152E+03  0.14613047152E+03  0.00000000000E+00 0. -1.
         23    2    1    2    0    0  0.97903399826E+01 -0.43662424575E+01 -0.12754613935E+03  0.15689325252E+03  0.90733456861E+02 0.  0.
         13    1    3    3    0    0  0.42648161196E+02  0.21008938332E+02 -0.85352578036E+02  0.97700070218E+02  0.00000000000E+00 0. -1.
        -13    1    3    3    0    0 -0.32857821213E+02 -0.25375180790E+02 -0.42193561315E+02  0.59193182305E+02  0.00000000000E+00 0.  1.
         22    1    1    2    0    0 -0.97903399826E+01  0.43662424575E+01  0.34352628074E+01  0.11256813969E+02  0.00000000000E+00 0.  1.
<mgrwt>
<rscale>  0 0.53472462E+02</rscale>
<asrwt>0</asrwt>
<pdfrwt beam="1">  1        2 0.22481611E-01 0.91364517E+02</pdfrwt>
<pdfrwt beam="2">  1       -2 0.33876299E-02 0.91364517E+02</pdfrwt>
<totfact> 0.73553257E+04</totfact>
</mgrwt>
</event>
<event>
 6    1  0.2975432E-002  0.1123392E+03  0.7546771E-02  0.1283734E+00
         -3   -1    0    0    0  501 -0.00000000000E+00  0.00000000000E+00  0.13378593605E+03  0.13378593605E+03  0.00000000000E+00 0.  1.
          3   -1    0    0  501    0  0.00000000000E+00 -0.00000000000E+00 -0.60971127657E+02  0.60971127657E+02  0.00000000000E+00 0. -1.
         23    2    1    2    0    0 -0.61106307056E+02  0.25157448743E+02  0.30931824802E+02  0.11651984556E+03  0.90847226893E+02 0.  0.
         13    1    3    3    0    0 -0.10740556598E+02 -0.60946679802E+01  0.52127382449E+02  0.53570220597E+02  0.00000000000E+00 0.  1.
        -13    1    3    3    0    0 -0.50365750458E+02  0.31252116723E+02 -0.21195557647E+02  0.62949624962E+02  0.00000000000E+00 0. -1.
         22    1    1    2    0    0  0.61106307056E+02 -0.25157448743E+02  0.41882983591E+02  0.78237218149E+02  0.00000000000E+00 0.  1.
<mgrwt>
<rscale>  0 0.98382961E+02</rscale>
<asrwt>0</asrwt>
<pdfrwt beam="1">  1        3 0.93801735E-02 0.11233920E+03</pdfrwt>
<pdfrwt beam="2">  1       -3 0.20582452E-01 0.11233920E+03</pdfrwt>
<totfact> 0.38440412E+03</totfact>
</mgrwt>
</event>
<event>
 6    1  0.2975432E-002  0.9549610E+02  0.7546771E-02  0.1392650E+00
         -2   -1    0    0    0  501 -0.00000000000E+00  0.00000000000E+00  0.26314466109E+01  0.26314466109E+01  0.00000000000E+00 0.  1.
          2   -1    0    0  501    0  0.00000000000E+00 -0.00000000000E+00 -0.16782284546E+04  0.16782284546E+04  0.00000000000E+00 0. -1.
         23    2    1    2    0    0  0.12304871433E+02 -0.10481019998E+02 -0.16236586691E+04  0.16264645642E+04  0.94118240766E+02 0.  0.
         11    1    3    3    0    0 -0.20727434694E+02 -0.10896897717E+02 -0.11090746120E+03  0.11335269683E+03  0.00000000000E+00 0.  1.
        -11    1    3    3    0    0  0.33032306127E+02  0.41587771902E+00 -0.15127512079E+04  0.15131118673E+04  0.00000000000E+00 0. -1.
         22    1    1    2    0    0 -0.12304871433E+02  0.10481019998E+02 -0.51938338942E+02  0.54395337054E+02  0.00000000000E+00 0.  1.
<mgrwt>
<rscale>  0 0.61252480E+02</rscale>
<asrwt>0</asrwt>
<pdfrwt beam="1">  1        2 0.25818845E+00 0.95496099E+02</pdfrwt>
<pdfrwt beam="2">  1       -2 0.40483879E-03 0.95496099E+02</pdfrwt>
<totfact> 0.78846333E+04</totfact>
</mgrwt>
</event>
<event>
 6    1  0.2975432E-002  0.9687885E+02  0.7546771E-02  0.1351044E+00
          1   -1    0    0  501    0  0.00000000000E+00  0.00000000000E+00  0.41236257402E+02  0.41236257402E+02  0.00000000000E+00 0. -1.
         -1   -1    0    0    0  501 -0.00000000000E+00 -0.00000000000E+00 -0.10667219329E+03  0.10667219329E+03  0.00000000000E+00 0.  1.
         23    2    1    2    0    0 -0.64365690341E+01 -0.30094139110E+02 -0.30983918463E+02  0.10171290833E+03  0.91860905108E+02 0.  0.
         13    1    3    3    0    0  0.41837598793E+02 -0.19633946855E+02 -0.23189907223E+02  0.51707333511E+02  0.00000000000E+00 0. -1.
        -13    1    3    3    0    0 -0.48274167827E+02 -0.10460192255E+02 -0.77940112402E+01  0.50005574815E+02  0.00000000000E+00 0.  1.
         22    1    1    2    0    0  0.64365690341E+01  0.30094139110E+02 -0.34452017423E+02  0.46195542363E+02  0.00000000000E+00 0. -1.
<mgrwt>
<rscale>  0 0.72731151E+02</rscale>
<asrwt>0</asrwt>
<pdfrwt beam="1">  1        1 0.63440396E-02 0.96878855E+02</pdfrwt>
<pdfrwt beam="2">  1       -1 0.16411107E-01 0.96878855E+02</pdfrwt>
<totfact> 0.29310598E+04</totfact>
</mgrwt>
</event>
<event>
 6    1  0.2975432E-002  0.7650631E+02  0.7546771E-02  0.1459036E+00
         -1   -1    0    0    0  501 -0.00000000000E+00  0.00000000000E+00  0.25141527581E+02  0.25141527581E+02  0.00000000000E+00 0.  1.
          1   -1    0    0  501    0  0.00000000000E+00 -0.00000000000E+00 -0.76899576113E+02  0.76899576113E+02  0.00000000000E+00 0. -1.
         23    2    1    2    0    0 -0.10604226732E+02  0.42218534164E+01 -0.44294489473E+02  0.88403714477E+02  0.75650124023E+02 0.  0.
         13    1    3    3    0    0  0.12081195808E+02  0.19452429039E+02  0.11982326836E+02  0.25844311639E+02  0.00000000000E+00 0.  1.
        -13    1    3    3    0    0 -0.22685422539E+02 -0.15230575623E+02 -0.56276816309E+02  0.62559402838E+02  0.00000000000E+00 0. -1.
         22    1    1    2    0    0  0.10604226732E+02 -0.42218534164E+01 -0.74635590585E+01  0.13637389217E+02  0.00000000000E+00 0. -1.
<mgrwt>
<rscale>  0 0.47547754E+02</rscale>
<asrwt>0</asrwt>
<pdfrwt beam="1">  1        1 0.11830704E-01 0.76506307E+02</pdfrwt>
<pdfrwt beam="2">  1       -1 0.38679274E-02 0.76506307E+02</pdfrwt>
<totfact> 0.10799322E+05</totfact>
</mgrwt>
</event>
<event>
 6    1  0.2975432E-002  0.9515700E+02  0.7546771E-02  0.1410495E+00
         -2   -1    0    0    0  501 -0.00000000000E+00  0.00000000000E+00  0.25257510959E+01  0.25257510959E+01  0.00000000000E+00 0.  1.
          2   -1    0    0  501    0  0.00000000000E+00 -0.00000000000E+00 -0.13225989183E+04  0.13225989183E+04  0.00000000000E+00 0. -1.
         23    2    1    2    0    0  0.11150026447E+02  0.52476458251E+01 -0.12699038788E+04  0.12734640618E+04  0.94355680638E+02 0.  0.
         11    1    3    3    0    0 -0.21039504007E+02 -0.34004056611E+02 -0.75668478575E+03  0.75774058990E+03  0.00000000000E+00 0. -1.
        -11    1    3    3    0    0  0.32189530454E+02  0.39251702436E+02 -0.51321909307E+03  0.51572347194E+03  0.00000000000E+00 0.  1.
         22    1    1    2    0    0 -0.11150026447E+02 -0.52476458251E+01 -0.50169288374E+02  0.51660607550E+02  0.00000000000E+00 0. -1.
<mgrwt>
<rscale>  0 0.57083594E+02</rscale>
<asrwt>0</asrwt>
<pdfrwt beam="1">  1        2 0.20347616E+00 0.95157004E+02</pdfrwt>
<pdfrwt beam="2">  1       -2 0.38857823E-03 0.95157004E+02</pdfrwt>
<totfact> 0.12708816E+05</totfact>
</mgrwt>
</event>
<event>
 6    1  0.2975432E-002  0.1010275E+03  0.7546771E-02  0.1394318E+00
          1   -1    0    0  501    0  0.00000000000E+00  0.00000000000E+00  0.48930567505E+02  0.48930567505E+02  0.00000000000E+00 0. -1.
         -1   -1    0    0    0  501 -0.00000000000E+00 -0.00000000000E+00 -0.70237864851E+02  0.70237864851E+02  0.00000000000E+00 0.  1.
         23    2    1    2    0    0 -0.13057687817E+02  0.24854236963E+01 -0.96474947482E+01  0.10148704274E+03  0.10014921441E+03 0.  0.
         11    1    3    3    0    0 -0.43791420690E+02  0.20837925767E+02 -0.33078997278E+02  0.58703728479E+02  0.00000000000E+00 0.  1.
        -11    1    3    3    0    0  0.30733732873E+02 -0.18352502071E+02  0.23431502530E+02  0.42783314263E+02  0.00000000000E+00 0. -1.
         22    1    1    2    0    0  0.13057687817E+02 -0.24854236963E+01 -0.11659802597E+02  0.17681389615E+02  0.00000000000E+00 0. -1.
<mgrwt>
<rscale>  0 0.60845454E+02</rscale>
<asrwt>0</asrwt>
<pdfrwt beam="1">  1        1 0.75277796E-02 0.10102745E+03</pdfrwt>
<pdfrwt beam="2">  1       -1 0.10805825E-01 0.10102745E+03</pdfrwt>
<totfact> 0.44640864E+04</totfact>
</mgrwt>
</event>
<event>
 6    1  0.2975432E-002  0.9315666E+02  0.7546771E-02  0.1413282E+00
         -2   -1    0    0    0  501 -0.00000000000E+00  0.00000000000E+00  0.40174022157E+01  0.40174022157E+01  0.00000000000E+00 0.  1.
          2   -1    0    0  501    0  0.00000000000E+00 -0.00000000000E+00 -0.70465578580E+03  0.70465578580E+03  0.00000000000E+00 0. -1.
         23    2    1    2    0    0  0.48065669893E+01 -0.11621896738E+02 -0.64000350844E+03  0.64674775177E+03  0.92303802949E+02 0.  0.
         11    1    3    3    0    0 -0.14669611132E+02  0.36142963446E+02 -0.20328945960E+03  0.20699786396E+03  0.00000000000E+00 0.  1.
        -11    1    3    3    0    0  0.19476178122E+02 -0.47764860183E+02 -0.43671404883E+03  0.43974988781E+03  0.00000000000E+00 0. -1.
         22    1    1    2    0    0 -0.48065669893E+01  0.11621896738E+02 -0.60634875152E+02  0.61925436249E+02  0.00000000000E+00 0.  1.
<mgrwt>
<rscale>  0 0.56467881E+02</rscale>
<asrwt>0</asrwt>
<pdfrwt beam="1">  1        2 0.10840857E+00 0.93156662E+02</pdfrwt>
<pdfrwt beam="2">  1       -2 0.61806193E-03 0.93156662E+02</pdfrwt>
<totfact> 0.15446917E+05</totfact>
</mgrwt>
</event>
<event>
 6    1  0.2975432E-002  0.9136202E+02  0.7546771E-02  0.1390704E+00
         -4   -1    0    0    0  501 -0.00000000000E+00  0.00000000000E+00  0.59917021956E+02  0.59917021956E+02  0.00000000000E+00 0.  1.
          4   -1    0    0  501    0  0.00000000000E+00 -0.00000000000E+00 -0.64804667766E+02  0.64804667766E+02  0.00000000000E+00 0. -1.
         23    2    1    2    0    0 -0.18204492604E+02  0.55891795051E+01 -0.27259878690E+02  0.95342117183E+02  0.89355334728E+02 0.  0.
         11    1    3    3    0    0 -0.13510855106E+02  0.24394761192E+02  0.26331390973E+02  0.38353483934E+02  0.00000000000E+00 0.  1.
        -11    1    3    3    0    0 -0.46936374971E+01 -0.18805581687E+02 -0.53591269663E+02  0.56988633249E+02  0.00000000000E+00 0. -1.
         22    1    1    2    0    0  0.18204492604E+02 -0.55891795051E+01  0.22372232880E+02  0.29379572538E+02  0.00000000000E+00 0.  1.
<mgrwt>
<rscale>  0 0.61731822E+02</rscale>
<asrwt>0</asrwt>
<pdfrwt beam="1">  1        4 0.99699489E-02 0.91362018E+02</pdfrwt>
<pdfrwt beam="2">  1       -4 0.92180034E-02 0.91362018E+02</pdfrwt>
<totfact> 0.96641533E+03</totfact>
</mgrwt>
</event>
<event>
 6    1  0.2975432E-002  0.9079398E+02  0.7546771E-02  0.1427625E+00
          1   -1    0    0  501    0  0.00000000000E+00  0.00000000000E+00  0.35198283991E+03  0.35198283991E+03  0.00000000000E+00 0. -1.
         -1   -1    0    0    0  501 -0.00000000000E+00 -0.00000000000E+00 -0.80526574743E+01  0.80526574743E+01  0.00000000000E+00 0.  1.
         23    2    1    2    0    0 -0.67909154488E+01  0.85215365508E+01  0.33048079284E+03  0.34272598560E+03  0.90137748192E+02 0.  0.
         11    1    3    3    0    0 -0.22921448379E+01 -0.38185477725E+02  0.91374486241E+02  0.99058979264E+02  0.00000000000E+00 0.  1.
        -11    1    3    3    0    0 -0.44987706109E+01  0.46707014276E+02  0.23910630660E+03  0.24366700633E+03  0.00000000000E+00 0. -1.
         22    1    1    2    0    0  0.67909154488E+01 -0.85215365508E+01  0.13449389593E+02  0.17309511785E+02  0.00000000000E+00 0. -1.
<mgrwt>
<rscale>  0 0.53439732E+02</rscale>
<asrwt>0</asrwt>
<pdfrwt beam="1">  1        1 0.54151194E-01 0.90793980E+02</pdfrwt>
<pdfrwt beam="2">  1       -1 0.12388707E-02 0.90793980E+02</pdfrwt>
<totfact> 0.85102897E+04</totfact>
</mgrwt>
</event>
<event>
 6    1  0.2975432E-002  0.9212985E+02  0.7546771E-02  0.1429814E+00
         -1   -1    0    0    0  501 -0.00000000000E+00  0.00000000000E+00  0.49007093611E+01  0.49007093611E+01  0.00000000000E+00 0.  1.
          1   -1    0    0  501    0  0.00000000000E+00 -0.00000000000E+00 -0.54895194410E+03  0.54895194410E+03  0.00000000000E+00 0. -1.
         23    2    1    2    0    0  0.93900875012E+01 -0.36878571023E+01 -0.51289554819E+03  0.52110435828E+03  0.91575841936E+02 0.  0.
         13    1    3    3    0    0  0.21640590120E+02  0.27097398472E+02 -0.83261211406E+02  0.90194309518E+02  0.00000000000E+00 0.  1.
        -13    1    3    3    0    0 -0.12250502619E+02 -0.30785255575E+02 -0.42963433679E+03  0.43091004876E+03  0.00000000000E+00 0. -1.
         22    1    1    2    0    0 -0.93900875012E+01  0.36878571023E+01 -0.31155686547E+02  0.32748295185E+02  0.00000000000E+00 0.  1.
<mgrwt>
<rscale>  0 0.52997440E+02</rscale>
<asrwt>0</asrwt>
<pdfrwt beam="1">  1        1 0.84454221E-01 0.92129848E+02</pdfrwt>
<pdfrwt beam="2">  1       -1 0.75395461E-03 0.92129848E+02</pdfrwt>
<totfact> 0.98049390E+04</totfact>
</mgrwt>
</event>
<event>
 6    1  0.2975432E-002  0.1201938E+03  0.7546771E-02  0.1286314E+00
          2   -1    0    0  501    0  0.00000000000E+00  0.00000000000E+00  0.28822102029E+03  0.28822102029E+03  0.00000000000E+00 0. -1.
         -2   -1    0    0    0  501 -0.00000000000E+00 -0.00000000000E+00 -0.25861224137E+02  0.25861224137E+02  0.00000000000E+00 0.  1.
         23    2    1    2    0    0  0.42454044762E+02 -0.28958021357E+02  0.19925564638E+03  0.23270014175E+03  0.10865371802E+03 0.  0.
         11    1    3    3    0    0  0.49613471279E+02 -0.55506057270E+02  0.75898230481E+02  0.10631538137E+03  0.00000000000E+00 0.  1.
        -11    1    3    3    0    0 -0.71594265164E+01  0.26548035913E+02  0.12335741590E+03  0.12638476038E+03  0.00000000000E+00 0. -1.
         22    1    1    2    0    0 -0.42454044762E+02  0.28958021357E+02  0.63104149778E+02  0.81382102681E+02  0.00000000000E+00 0.  1.
<mgrwt>
<rscale>  0 0.97192049E+02</rscale>
<asrwt>0</asrwt>
<pdfrwt beam="1">  1        2 0.44341693E-01 0.12019377E+03</pdfrwt>
<pdfrwt beam="2">  1       -2 0.39786501E-02 0.12019377E+03</pdfrwt>
<totfact> 0.28993412E+04</totfact>
</mgrwt>
</event>
<event>
 6    1  0.2975432E-002  0.9174850E+02  0.7546771E-02  0.1423605E+00
         -2   -1    0    0    0  501 -0.00000000000E+00  0.00000000000E+00  0.10831425245E+02  0.10831425245E+02  0.00000000000E+00 0.  1.
          2   -1    0    0  501    0  0.00000000000E+00 -0.00000000000E+00 -0.74616267057E+03  0.74616267057E+03  0.00000000000E+00 0. -1.
         23    2    1    2    0    0  0.28516579664E+01  0.10859734653E+02 -0.73938585153E+03  0.74505652398E+03  0.91058885854E+02 0.  0.
         11    1    3    3    0    0  0.99844842634E+01  0.49664001583E+02 -0.34451005419E+03  0.34821456089E+03  0.00000000000E+00 0. -1.
        -11    1    3    3    0    0 -0.71328262970E+01 -0.38804266929E+02 -0.39487579734E+03  0.39684196309E+03  0.00000000000E+00 0.  1.
         22    1    1    2    0    0 -0.28516579664E+01 -0.10859734653E+02  0.40546062026E+01  0.11937571837E+02  0.00000000000E+00 0.  1.
<mgrwt>
<rscale>  0 0.54265508E+02</rscale>
<asrwt>0</asrwt>
<pdfrwt beam="1">  1        2 0.11479427E+00 0.91748496E+02</pdfrwt>
<pdfrwt beam="2">  1       -2 0.16663729E-02 0.91748496E+02</pdfrwt>
<totfact> 0.35340050E+04</totfact>
</mgrwt>
</event>
<event>
 6    1  0.2975432E-002  0.9251556E+02  0.7546771E-02  0.1424082E+00
         -2   -1    0    0    0  501 -0.00000000000E+00  0.00000000000E+00  0.68160715520E+02  0.68160715520E+02  0.00000000000E+00 0.  1.
          2   -1    0    0  501    0  0.00000000000E+00 -0.00000000000E+00 -0.40021722629E+02  0.40021722629E+02  0.00000000000E+00 0. -1.
         23    2    1    2    0    0 -0.42270247230E+01  0.10015763435E+02  0.20131697387E+02  0.94680585072E+02  0.91874613984E+02 0.  0.
         11    1    3    3    0    0  0.42022726617E+01  0.30269810456E+02  0.49408805099E+02  0.58096045836E+02  0.00000000000E+00 0.  1.
        -11    1    3    3    0    0 -0.84292973847E+01 -0.20254047021E+02 -0.29277107712E+02  0.36584539236E+02  0.00000000000E+00 0. -1.
         22    1    1    2    0    0  0.42270247230E+01 -0.10015763435E+02  0.80072955048E+01  0.13501853077E+02  0.00000000000E+00 0. -1.
<mgrwt>
<rscale>  0 0.54166474E+02</rscale>
<asrwt>0</asrwt>
<pdfrwt beam="1">  1        2 0.61571881E-02 0.92515555E+02</pdfrwt>
<pdfrwt beam="2">  1       -2 0.10486264E-01 0.92515555E+02</pdfrwt>
<totfact> 0.62814140E+04</totfact>
</mgrwt>
</event>
<event>
 6    1  0.2975432E-002  0.9317186E+02  0.7546771E-02  0.1393876E+00
         -2   -1    0    0    0  501 -0.00000000000E+00  0.00000000000E+00  0.51493549729E+01  0.51493549729E+01  0.00000000000E+00 0. -1.
          2   -1    0    0  501    0  0.00000000000E+00 -0.00000000000E+00 -0.77290701184E+03  0.77290701184E+03  0.00000000000E+00 0.  1.
         23    2    1    2    0    0  0.16389604563E+02 -0.47556303349E+01 -0.73713095428E+03  0.74299598933E+03  0.91595639919E+02 0.  0.
         11    1    3    3    0    0  0.21844698100E+02 -0.29633322128E+02 -0.12433001238E+03  0.12966601943E+03  0.00000000000E+00 0. -1.
        -11    1    3    3    0    0 -0.54550935370E+01  0.24877691793E+02 -0.61280094189E+03  0.61332996990E+03  0.00000000000E+00 0.  1.
         22    1    1    2    0    0 -0.16389604563E+02  0.47556303349E+01 -0.30626702596E+02  0.35060377487E+02  0.00000000000E+00 0. -1.
<mgrwt>
<rscale>  0 0.60952857E+02</rscale>
<asrwt>0</asrwt>
<pdfrwt beam="1">  1        2 0.11890878E+00 0.93171865E+02</pdfrwt>
<pdfrwt beam="2">  1       -2 0.79220842E-03 0.93171865E+02</pdfrwt>
<totfact> 0.97562935E+04</totfact>
</mgrwt>
</event>
<event>
 6    1  0.2975432E-002  0.9350074E+02  0.7546771E-02  0.1418413E+00
         -2   -1    0    0    0  501 -0.00000000000E+00  0.00000000000E+00  0.77060977426E+01  0.77060977426E+01  0.00000000000E+00 0. -1.
          2   -1    0    0  501    0  0.00000000000E+00 -0.00000000000E+00 -0.39656764422E+03  0.39656764422E+03  0.00000000000E+00 0.  1.
         23    2    1    2    0    0  0.26015026727E+01 -0.11190431588E+02 -0.37387986583E+03  0.38539400864E+03  0.92792210058E+02 0.  0.
         13    1    3    3    0    0  0.45147045139E+02 -0.70110507694E+01 -0.12998142495E+03  0.13777728895E+03  0.00000000000E+00 0. -1.
        -13    1    3    3    0    0 -0.42545542466E+02 -0.41793808182E+01 -0.24389844088E+03  0.24761671969E+03  0.00000000000E+00 0.  1.
         22    1    1    2    0    0 -0.26015026727E+01  0.11190431588E+02 -0.14981680645E+02  0.18879733319E+02  0.00000000000E+00 0. -1.
<mgrwt>
<rscale>  0 0.55357998E+02</rscale>
<asrwt>0</asrwt>
<pdfrwt beam="1">  1        2 0.61010402E-01 0.93500737E+02</pdfrwt>
<pdfrwt beam="2">  1       -2 0.11855536E-02 0.93500737E+02</pdfrwt>
<totfact> 0.11575857E+05</totfact>
</mgrwt>
</event>
<event>
 6    1  0.2975432E-002  0.9248135E+02  0.7546771E-02  0.1396420E+00
          1   -1    0    0  501    0  0.00000000000E+00  0.00000000000E+00  0.42612141220E+02  0.42612141220E+02  0.00000000000E+00 0. -1.
         -1   -1    0    0    0  501 -0.00000000000E+00 -0.00000000000E+00 -0.70660720489E+02  0.70660720489E+02  0.00000000000E+00 0.  1.
         23    2    1    2    0    0  0.10469037608E+02  0.13084183882E+02 -0.19720823457E+02  0.94560616169E+02  0.90950550499E+02 0.  0.
         13    1    3    3    0    0 -0.10856094174E+02 -0.34962119517E+02 -0.20561125611E+02  0.41987670431E+02  0.00000000000E+00 0.  1.
        -13    1    3    3    0    0  0.21325131782E+02  0.48046303399E+02  0.84030215462E+00  0.52572945737E+02  0.00000000000E+00 0. -1.
         22    1    1    2    0    0 -0.10469037608E+02 -0.13084183882E+02 -0.83277558129E+01  0.18712245540E+02  0.00000000000E+00 0. -1.
<mgrwt>
<rscale>  0 0.60337816E+02</rscale>
<asrwt>0</asrwt>
<pdfrwt beam="1">  1        1 0.65557141E-02 0.92481345E+02</pdfrwt>
<pdfrwt beam="2">  1       -1 0.10870880E-01 0.92481345E+02</pdfrwt>
<totfact> 0.52559639E+04</totfact>
</mgrwt>
</event>
<event>
 6    1  0.2975432E-002  0.1059701E+03  0.7546771E-02  0.1377731E+00
          2   -1    0    0  501    0  0.00000000000E+00  0.00000000000E+00  0.23527869223E+03  0.23527869223E+03  0.00000000000E+00 0.  1.
         -2   -1    0    0    0  501 -0.00000000000E+00 -0.00000000000E+00 -0.22208227805E+02  0.22208227805E+02  0.00000000000E+00 0. -1.
         23    2    1    2    0    0 -0.84266038734E+01  0.12481404354E+02  0.21737038078E+03  0.24182542623E+03  0.10489452429E+03 0.  0.
         11    1    3    3    0    0  0.10999083382E+02  0.48331738470E+02  0.53392304364E+02  0.72853791556E+02  0.00000000000E+00 0. -1.
        -11    1    3    3    0    0 -0.19425687255E+02 -0.35850334116E+02  0.16397807641E+03  0.16897163468E+03  0.00000000000E+00 0.  1.
         22    1    1    2    0    0  0.84266038734E+01 -0.12481404354E+02 -0.42999163516E+01  0.15661493802E+02  0.00000000000E+00 0. -1.
<mgrwt>
<rscale>  0 0.65064055E+02</rscale>
<asrwt>0</asrwt>
<pdfrwt beam="1">  1        2 0.36196720E-01 0.10597006E+03</pdfrwt>
<pdfrwt beam="2">  1       -2 0.34166506E-02 0.10597006E+03</pdfrwt>
<totfact> 0.44330510E+04</totfact>
</mgrwt>
</event>
<event>
 6    1  0.2975432E-002  0.9864053E+02  0.7546771E-02  0.1336130E+00
         -3   -1    0    0    0  501 -0.00000000000E+00  0.00000000000E+00  0.60697215956E+03  0.60697215956E+03  0.00000000000E+00 0.  1.
          3   -1    0    0  501    0  0.00000000000E+00 -0.00000000000E+00 -0.77193136179E+01  0.77193136179E+01  0.00000000000E+00 0. -1.
         23    2    1    2    0    0 -0.37362220290E+02 -0.50260969584E+01  0.45734522014E+03  0.46786173703E+03  0.91152385810E+02 0.  0.
         11    1    3    3    0    0  0.10657064136E+01 -0.41317170336E+02  0.13413840695E+03  0.14036152078E+03  0.00000000000E+00 0. -1.
        -11    1    3    3    0    0 -0.38427926703E+02  0.36291073378E+02  0.32320681319E+03  0.32750021626E+03  0.00000000000E+00 0.  1.
         22    1    1    2    0    0  0.37362220290E+02  0.50260969584E+01  0.14190762580E+03  0.14682973615E+03  0.00000000000E+00 0. -1.
<mgrwt>
<rscale>  0 0.77557419E+02</rscale>
<asrwt>0</asrwt>
<pdfrwt beam="1">  1        3 0.11875872E-02 0.98640532E+02</pdfrwt>
<pdfrwt beam="2">  1       -3 0.93380294E-01 0.98640532E+02</pdfrwt>
<totfact> 0.47616765E+03</totfact>
</mgrwt>
</event>
<event>
 6    1  0.2975432E-002  0.9532524E+02  0.7546771E-02  0.1389181E+00
          2   -1    0    0  501    0  0.00000000000E+00  0.00000000000E+00  0.73557887053E+03  0.73557887053E+03  0.00000000000E+00 0. -1.
         -2   -1    0    0    0  501 -0.00000000000E+00 -0.00000000000E+00 -0.43079397713E+01  0.43079397713E+01  0.00000000000E+00 0.  1.
         23    2    1    2    0    0  0.93775991827E+01  0.14395906266E+02  0.62919529632E+03  0.63637537794E+03  0.93764168274E+02 0.  0.
         13    1    3    3    0    0 -0.10848913750E+02  0.30143242254E+02  0.74598760361E+02  0.81186754033E+02  0.00000000000E+00 0.  1.
        -13    1    3    3    0    0  0.20226512933E+02 -0.15747335988E+02  0.55459653596E+03  0.55518862391E+03  0.00000000000E+00 0. -1.
         22    1    1    2    0    0 -0.93775991827E+01 -0.14395906266E+02  0.10207563444E+03  0.10351143236E+03  0.00000000000E+00 0.  1.
<mgrwt>
<rscale>  0 0.62110791E+02</rscale>
<asrwt>0</asrwt>
<pdfrwt beam="1">  1        2 0.11316588E+00 0.95325237E+02</pdfrwt>
<pdfrwt beam="2">  1       -2 0.66276055E-03 0.95325237E+02</pdfrwt>
<totfact> 0.13354615E+05</totfact>
</mgrwt>
</event>
<event>
 6    1  0.2975432E-002  0.9389096E+02  0.7546771E-02  0.1369060E+00
         -1   -1    0    0    0  501 -0.00000000000E+00  0.00000000000E+00  0.14426288084E+02  0.14426288084E+02  0.00000000000E+00 0.  1.
          1   -1    0    0  501    0  0.00000000000E+00 -0.00000000000E+00 -0.31818582289E+03  0.31818582289E+03  0.00000000000E+00 0. -1.
         23    2    1    2    0    0  0.10404252400E+02 -0.22705571590E+02 -0.28838290174E+03  0.30328239407E+03  0.90508127188E+02 0.  0.
         13    1    3    3    0    0 -0.54582157830E+01 -0.40300812538E+02 -0.27065585542E+03  0.27369424489E+03  0.00000000000E+00 0. -1.
        -13    1    3    3    0    0  0.15862468183E+02  0.17595240948E+02 -0.17727046321E+02  0.29588149184E+02  0.00000000000E+00 0.  1.
         22    1    1    2    0    0 -0.10404252400E+02  0.22705571590E+02 -0.15376633065E+02  0.29329716904E+02  0.00000000000E+00 0.  1.
<mgrwt>
<rscale>  0 0.67429162E+02</rscale>
<asrwt>0</asrwt>
<pdfrwt beam="1">  1        1 0.48951667E-01 0.93890961E+02</pdfrwt>
<pdfrwt beam="2">  1       -1 0.22194288E-02 0.93890961E+02</pdfrwt>
<totfact> 0.42219149E+04</totfact>
</mgrwt>
</event>
<event>
 6    1  0.2975432E-002  0.9331107E+02  0.7546771E-02  0.1382511E+00
         -2   -1    0    0    0  501 -0.00000000000E+00  0.00000000000E+00  0.21452529054E+02  0.21452529054E+02  0.00000000000E+00 0. -1.
          2   -1    0    0  501    0  0.00000000000E+00 -0.00000000000E+00 -0.69077492227E+03  0.69077492227E+03  0.00000000000E+00 0.  1.
         23    2    1    2    0    0 -0.38441542134E+01 -0.20038263050E+02 -0.68190255883E+03  0.68825725994E+03  0.91052987986E+02 0.  0.
         13    1    3    3    0    0 -0.45495633984E+02  0.28448521295E+01 -0.31119477210E+03  0.31451571038E+03  0.00000000000E+00 0.  1.
        -13    1    3    3    0    0  0.41651479770E+02 -0.22883115180E+02 -0.37070778673E+03  0.37374154956E+03  0.00000000000E+00 0. -1.
         22    1    1    2    0    0  0.38441542134E+01  0.20038263050E+02  0.12580165616E+02  0.23970191377E+02  0.00000000000E+00 0. -1.
<mgrwt>
<rscale>  0 0.63808263E+02</rscale>
<asrwt>0</asrwt>
<pdfrwt beam="1">  1        2 0.10627304E+00 0.93311072E+02</pdfrwt>
<pdfrwt beam="2">  1       -2 0.33003898E-02 0.93311072E+02</pdfrwt>
<totfact> 0.14448720E+04</totfact>
</mgrwt>
</event>
<event>
 6    1  0.2975432E-002  0.9488996E+02  0.7546771E-02  0.1371701E+00
          1   -1    0    0  501    0  0.00000000000E+00  0.00000000000E+00  0.78020818799E+01  0.78020818799E+01  0.00000000000E+00 0. -1.
         -1   -1    0    0    0  501 -0.00000000000E+00 -0.00000000000E+00 -0.44902048242E+03  0.44902048242E+03  0.00000000000E+00 0.  1.
         23    2    1    2    0    0 -0.21678669739E+02  0.81519795207E+01 -0.36740356330E+03  0.37945946141E+03  0.92020025199E+02 0.  0.
         13    1    3    3    0    0  0.28900991644E+02  0.25428532768E+02 -0.20197363504E+03  0.20560940360E+03  0.00000000000E+00 0.  1.
        -13    1    3    3    0    0 -0.50579661382E+02 -0.17276553248E+02 -0.16542992826E+03  0.17385005781E+03  0.00000000000E+00 0. -1.
         22    1    1    2    0    0  0.21678669739E+02 -0.81519795207E+01 -0.73814837248E+02  0.77363102896E+02  0.00000000000E+00 0.  1.
<mgrwt>
<rscale>  0 0.66696534E+02</rscale>
<asrwt>0</asrwt>
<pdfrwt beam="1">  1        1 0.12003203E-02 0.94889960E+02</pdfrwt>
<pdfrwt beam="2">  1       -1 0.69080074E-01 0.94889960E+02</pdfrwt>
<totfact> 0.24429554E+04</totfact>
</mgrwt>
</event>
<event>
 6    1  0.2975432E-002  0.9949753E+02  0.7546771E-02  0.1333917E+00
          2   -1    0    0  501    0  0.00000000000E+00  0.00000000000E+00  0.58302854572E+02  0.58302854572E+02  0.00000000000E+00 0. -1.
         -2   -1    0    0    0  501 -0.00000000000E+00 -0.00000000000E+00 -0.83424841418E+02  0.83424841418E+02  0.00000000000E+00 0.  1.
         23    2    1    2    0    0  0.13045291852E+02  0.35882119027E+02 -0.28220593484E+02  0.10342224640E+03  0.91880645666E+02 0.  0.
         11    1    3    3    0    0 -0.61320980176E+01 -0.13808668364E+02  0.24303816069E+02  0.28617432163E+02  0.00000000000E+00 0. -1.
        -11    1    3    3    0    0  0.19177389870E+02  0.49690787391E+02 -0.52524409554E+02  0.74804814235E+02  0.00000000000E+00 0.  1.
         22    1    1    2    0    0 -0.13045291852E+02 -0.35882119027E+02  0.30986066380E+01  0.38305449592E+02  0.00000000000E+00 0. -1.
<mgrwt>
<rscale>  0 0.78310137E+02</rscale>
<asrwt>0</asrwt>
<pdfrwt beam="1">  1        2 0.89696699E-02 0.99497533E+02</pdfrwt>
<pdfrwt beam="2">  1       -2 0.12834591E-01 0.99497533E+02</pdfrwt>
<totfact> 0.28806002E+04</totfact>
</mgrwt>
</event>
<event>
 6    1  0.2975432E-002  0.7743907E+02  0.7546771E-02  0.1455797E+00
          2   -1    0    0  501    0  0.00000000000E+00  0.00000000000E+00  0.31135504076E+03  0.31135504076E+03  0.00000000000E+00 0. -1.
         -2   -1    0    0    0  501 -0.00000000000E+00 -0.00000000000E+00 -0.64947108073E+01  0.64947108073E+01  0.00000000000E+00 0.  1.
         23    2    1    2    0    0 -0.10226297896E+01 -0.11493000961E+02  0.27868560232E+03  0.28924466095E+03  0.76574630933E+02 0.  0.
         13    1    3    3    0    0  0.25995844024E+02  0.18824666818E+02  0.75474934644E+02  0.82015960318E+02  0.00000000000E+00 0.  1.
        -13    1    3    3    0    0 -0.27018473813E+02 -0.30317667780E+02  0.20321066768E+03  0.20722870063E+03  0.00000000000E+00 0. -1.
         22    1    1    2    0    0  0.10226297896E+01  0.11493000961E+02  0.26174727627E+02  0.28605090616E+02  0.00000000000E+00 0. -1.
<mgrwt>
<rscale>  0 0.48112347E+02</rscale>
<asrwt>0</asrwt>
<pdfrwt beam="1">  1        2 0.47900764E-01 0.77439066E+02</pdfrwt>
<pdfrwt beam="2">  1       -2 0.99918652E-03 0.77439066E+02</pdfrwt>
<totfact> 0.18413814E+05</totfact>
</mgrwt>
</event>
<event>
 6    1  0.2975432E-002  0.1083878E+03  0.7546771E-02  0.1371897E+00
         -2   -1    0    0    0  501 -0.00000000000E+00  0.00000000000E+00  0.10908183837E+02  0.10908183837E+02  0.00000000000E+00 0. -1.
          2   -1    0    0  501    0  0.00000000000E+00 -0.00000000000E+00 -0.36961846964E+03  0.36961846964E+03  0.00000000000E+00 0.  1.
         23    2    1    2    0    0  0.11697419293E+02 -0.10155035906E+02 -0.33589590569E+03  0.35295038991E+03  0.10727517843E+03 0.  0.
         11    1    3    3    0    0  0.52887585061E+02 -0.18963452733E+02 -0.26140874648E+03  0.26737846198E+03  0.00000000000E+00 0.  1.
        -11    1    3    3    0    0 -0.41190165768E+02  0.88084168271E+01 -0.74487159202E+02  0.85571927926E+02  0.00000000000E+00 0. -1.
         22    1    1    2    0    0 -0.11697419293E+02  0.10155035906E+02 -0.22814380119E+02  0.27576263572E+02  0.00000000000E+00 0. -1.
<mgrwt>
<rscale>  0 0.66642523E+02</rscale>
<asrwt>0</asrwt>
<pdfrwt beam="1">  1        2 0.56864375E-01 0.10838781E+03</pdfrwt>
<pdfrwt beam="2">  1       -2 0.16781823E-02 0.10838781E+03</pdfrwt>
<totfact> 0.77488097E+04</totfact>
</mgrwt>
</event>
<event>
 6    1  0.2975432E-002  0.9767297E+02  0.7546771E-02  0.1345316E+00
          1   -1    0    0  501    0  0.00000000000E+00  0.00000000000E+00  0.43575559350E+02  0.43575559350E+02  0.00000000000E+00 0. -1.
         -1   -1    0    0    0  501 -0.00000000000E+00 -0.00000000000E+00 -0.10606505782E+03  0.10606505782E+03  0.00000000000E+00 0.  1.
         23    2    1    2    0    0 -0.21880368692E+02 -0.24866744816E+02 -0.27523019755E+02  0.10147672856E+03  0.91885277883E+02 0.  0.
         13    1    3    3    0    0 -0.28593967228E+02 -0.89035146418E+00  0.28369373010E+02  0.40289316357E+02  0.00000000000E+00 0. -1.
        -13    1    3    3    0    0  0.67135985358E+01 -0.23976393352E+02 -0.55892392765E+02  0.61187412206E+02  0.00000000000E+00 0.  1.
         22    1    1    2    0    0  0.21880368692E+02  0.24866744816E+02 -0.34966478712E+02  0.48163888603E+02  0.00000000000E+00 0.  1.
<mgrwt>
<rscale>  0 0.74535275E+02</rscale>
<asrwt>0</asrwt>
<pdfrwt beam="1">  1        1 0.67039323E-02 0.97672974E+02</pdfrwt>
<pdfrwt beam="2">  1       -1 0.16317701E-01 0.97672974E+02</pdfrwt>
<totfact> 0.27493506E+04</totfact>
</mgrwt>
</event>
<event>
 6    1  0.2975432E-002  0.9683168E+02  0.7546771E-02  0.1378704E+00
         -1   -1    0    0    0  501 -0.00000000000E+00  0.00000000000E+00  0.34614320657E+01  0.34614320657E+01  0.00000000000E+00 0.  1.
          1   -1    0    0  501    0  0.00000000000E+00 -0.00000000000E+00 -0.12970232109E+04  0.12970232109E+04  0.00000000000E+00 0. -1.
         23    2    1    2    0    0  0.39532436480E+01 -0.19020291431E+02 -0.12348831415E+04  0.12386737855E+04  0.94862922665E+02 0.  0.
         11    1    3    3    0    0  0.27148944474E+01  0.20391797707E+02 -0.10197087364E+04  0.10199162236E+04  0.00000000000E+00 0. -1.
        -11    1    3    3    0    0  0.12383492006E+01 -0.39412089139E+02 -0.21517440516E+03  0.21875756196E+03  0.00000000000E+00 0.  1.
         22    1    1    2    0    0 -0.39532436480E+01  0.19020291431E+02 -0.58678637324E+02  0.61810857458E+02  0.00000000000E+00 0.  1.
<mgrwt>
<rscale>  0 0.64805710E+02</rscale>
<asrwt>0</asrwt>
<pdfrwt beam="1">  1        1 0.19954208E+00 0.96831677E+02</pdfrwt>
<pdfrwt beam="2">  1       -1 0.53252788E-03 0.96831677E+02</pdfrwt>
<totfact> 0.42024781E+04</totfact>
</mgrwt>
</event>
<event>
 6    1  0.2975432E-002  0.9297709E+02  0.7546771E-02  0.1387777E+00
         -2   -1    0    0    0  501 -0.00000000000E+00  0.00000000000E+00  0.54676158448E+01  0.54676158448E+01  0.00000000000E+00 0.  1.
          2   -1    0    0  501    0  0.00000000000E+00 -0.00000000000E+00 -0.84014567865E+03  0.84014567865E+03  0.00000000000E+00 0. -1.
         23    2    1    2    0    0 -0.89867245942E+01 -0.16671212703E+02 -0.80536502439E+03  0.81071422899E+03  0.91027732180E+02 0.  0.
         13    1    3    3    0    0 -0.13510542240E+02 -0.16268066736E+01 -0.78439133891E+03  0.78450937140E+03  0.00000000000E+00 0. -1.
        -13    1    3    3    0    0  0.45238176460E+01 -0.15044406030E+02 -0.20973685474E+02  0.26204857588E+02  0.00000000000E+00 0.  1.
         22    1    1    2    0    0  0.89867245942E+01  0.16671212703E+02 -0.29313038418E+02  0.34899065507E+02  0.00000000000E+00 0. -1.
<mgrwt>
<rscale>  0 0.62462871E+02</rscale>
<asrwt>0</asrwt>
<pdfrwt beam="1">  1        2 0.12925327E+00 0.92977086E+02</pdfrwt>
<pdfrwt beam="2">  1       -2 0.84117108E-03 0.92977086E+02</pdfrwt>
<totfact> 0.80902349E+04</totfact>
</mgrwt>
</event>
<event>
 6    1  0.2975432E-002  0.9199872E+02  0.7546771E-02  0.1383934E+00
          2   -1    0    0  501    0  0.00000000000E+00  0.00000000000E+00  0.16828989239E+03  0.16828989239E+03  0.00000000000E+00 0. -1.
         -2   -1    0    0    0  501 -0.00000000000E+00 -0.00000000000E+00 -0.19467111857E+02  0.19467111857E+02  0.00000000000E+00 0.  1.
         23    2    1    2    0    0 -0.20666685434E+02 -0.23790017507E+01  0.13253576859E+03  0.16133658990E+03  0.89615811936E+02 0.  0.
         11    1    3    3    0    0  0.21593190647E+02 -0.23955288459E+02  0.17044257711E+02  0.36477780201E+02  0.00000000000E+00 0. -1.
        -11    1    3    3    0    0 -0.42259876081E+02  0.21576286709E+02  0.11549151088E+03  0.12485880970E+03  0.00000000000E+00 0.  1.
         22    1    1    2    0    0  0.20666685434E+02  0.23790017507E+01  0.16287011939E+02  0.26420414343E+02  0.00000000000E+00 0. -1.
<mgrwt>
<rscale>  0 0.63440806E+02</rscale>
<asrwt>0</asrwt>
<pdfrwt beam="1">  1        2 0.25890752E-01 0.91998724E+02</pdfrwt>
<pdfrwt beam="2">  1       -2 0.29949404E-02 0.91998724E+02</pdfrwt>
<totfact> 0.75501036E+04</totfact>
</mgrwt>
</event>
<event>
 6    1  0.2975432E-002  0.9851456E+02  0.7546771E-02  0.1337773E+00
          2   -1    0    0  501    0  0.00000000000E+00  0.00000000000E+00  0.87125518849E+01  0.87125518849E+01  0.00000000000E+00 0. -1.
         -2   -1    0    0    0  501 -0.00000000000E+00 -0.00000000000E+00 -0.52556996828E+03  0.52556996828E+03  0.00000000000E+00 0.  1.
         23    2    1    2    0    0 -0.35805281600E+02 -0.83963041535E+01 -0.37005940240E+03  0.38294788095E+03  0.91392571385E+02 0.  0.
         13    1    3    3    0    0 -0.34435977882E+02 -0.44746865070E+02 -0.15788181655E+03  0.16767464479E+03  0.00000000000E+00 0. -1.
        -13    1    3    3    0    0 -0.13693037172E+01  0.36350560917E+02 -0.21217758585E+03  0.21527323616E+03  0.00000000000E+00 0.  1.
         22    1    1    2    0    0  0.35805281600E+02  0.83963041535E+01 -0.14679801399E+03  0.15133463921E+03  0.00000000000E+00 0.  1.
<mgrwt>
<rscale>  0 0.77004857E+02</rscale>
<asrwt>0</asrwt>
<pdfrwt beam="1">  1        2 0.13403927E-02 0.98514558E+02</pdfrwt>
<pdfrwt beam="2">  1       -2 0.80856910E-01 0.98514558E+02</pdfrwt>
<totfact> 0.11938985E+04</totfact>
</mgrwt>
</event>
<event>
 6    1  0.2975432E-002  0.9423207E+02  0.7546771E-02  0.1422498E+00
         -2   -1    0    0    0  501 -0.00000000000E+00  0.00000000000E+00  0.49957647443E+01  0.49957647443E+01  0.00000000000E+00 0.  1.
          2   -1    0    0  501    0  0.00000000000E+00 -0.00000000000E+00 -0.57301343434E+03  0.57301343434E+03  0.00000000000E+00 0. -1.
         23    2    1    2    0    0  0.10540377519E+02  0.32104439428E-02 -0.53810998603E+03  0.54629848946E+03  0.93640712053E+02 0.  0.
         13    1    3    3    0    0 -0.26407728704E+02  0.25551787769E+02 -0.11306410551E+03  0.11888546567E+03  0.00000000000E+00 0.  1.
        -13    1    3    3    0    0  0.36948106223E+02 -0.25548577325E+02 -0.42504588052E+03  0.42741302379E+03  0.00000000000E+00 0. -1.
         22    1    1    2    0    0 -0.10540377519E+02 -0.32104439428E-02 -0.29907683571E+02  0.31710709628E+02  0.00000000000E+00 0.  1.
<mgrwt>
<rscale>  0 0.54495807E+02</rscale>
<asrwt>0</asrwt>
<pdfrwt beam="1">  1        2 0.88155894E-01 0.94232067E+02</pdfrwt>
<pdfrwt beam="2">  1       -2 0.76857936E-03 0.94232067E+02</pdfrwt>
<totfact> 0.14402297E+05</totfact>
</mgrwt>
</event>
<event>
 6    1  0.2975432E-002  0.9762026E+02  0.7546771E-02  0.1341476E+00
          2   -1    0    0  501    0  0.00000000000E+00  0.00000000000E+00  0.26757673997E+02  0.26757673997E+02  0.00000000000E+00 0. -1.
         -2   -1    0    0    0  501 -0.00000000000E+00 -0.00000000000E+00 -0.16608522840E+03  0.16608522840E+03  0.00000000000E+00 0.  1.
         23    2    1    2    0    0  0.21258775388E+02 -0.28363710006E+02 -0.10742056294E+03  0.14515127126E+03  0.90957564992E+02 0.  0.
         13    1    3    3    0    0 -0.15851737545E+02  0.26796800920E+02 -0.33664951529E+02  0.45854935221E+02  0.00000000000E+00 0.  1.
        -13    1    3    3    0    0  0.37110512932E+02 -0.55160510926E+02 -0.73755611409E+02  0.99296336035E+02  0.00000000000E+00 0. -1.
         22    1    1    2    0    0 -0.21258775388E+02  0.28363710006E+02 -0.31906991461E+02  0.47691631136E+02  0.00000000000E+00 0.  1.
<mgrwt>
<rscale>  0 0.75778758E+02</rscale>
<asrwt>0</asrwt>
<pdfrwt beam="1">  1        2 0.41165653E-02 0.97620255E+02</pdfrwt>
<pdfrwt beam="2">  1       -2 0.25551573E-01 0.97620255E+02</pdfrwt>
<totfact> 0.24670369E+04</totfact>
</mgrwt>
</event>
<event>
 6    1  0.2975432E-002  0.9275132E+02  0.7546771E-02  0.1379110E+00
         -2   -1    0    0    0  501 -0.00000000000E+00  0.00000000000E+00  0.48590239298E+01  0.48590239298E+01  0.00000000000E+00 0.  1.
          2   -1    0    0  501    0  0.00000000000E+00 -0.00000000000E+00 -0.76231854973E+03  0.76231854973E+03  0.00000000000E+00 0. -1.
         23    2    1    2    0    0 -0.96831405499E+01  0.19708484296E+02 -0.69069085264E+03  0.69689070945E+03  0.90114479636E+02 0.  0.
         13    1    3    3    0    0 -0.16679251192E+02 -0.34282281870E+02 -0.26307196757E+03  0.26582011284E+03  0.00000000000E+00 0.  1.
        -13    1    3    3    0    0  0.69961106425E+01  0.53990766166E+02 -0.42761888507E+03  0.43107059661E+03  0.00000000000E+00 0. -1.
         22    1    1    2    0    0  0.96831405499E+01 -0.19708484296E+02 -0.66768673160E+02  0.70286864205E+02  0.00000000000E+00 0.  1.
<mgrwt>
<rscale>  0 0.64698181E+02</rscale>
<asrwt>0</asrwt>
<pdfrwt beam="1">  1        2 0.11727976E+00 0.92751318E+02</pdfrwt>
<pdfrwt beam="2">  1       -2 0.74754223E-03 0.92751318E+02</pdfrwt>
<totfact> 0.10759253E+05</totfact>
</mgrwt>
</event>
<event>
 6    1  0.2975432E-002  0.9101273E+02  0.7546771E-02  0.1427144E+00
         -1   -1    0    0    0  501 -0.00000000000E+00  0.00000000000E+00  0.30134485466E+01  0.30134485466E+01  0.00000000000E+00 0.  1.
          1   -1    0    0  501    0  0.00000000000E+00 -0.00000000000E+00 -0.10017416071E+04  0.10017416071E+04  0.00000000000E+00 0. -1.
         23    2    1    2    0    0  0.86479201561E+01 -0.66309984328E+01 -0.96561796798E+03  0.96989761193E+03  0.90357959613E+02 0.  0.
         13    1    3    3    0    0 -0.21088102389E+02 -0.29338921248E+02 -0.76294222901E+03  0.76379730634E+03  0.00000000000E+00 0. -1.
        -13    1    3    3    0    0  0.29736022545E+02  0.22707922815E+02 -0.20267573898E+03  0.20610030559E+03  0.00000000000E+00 0.  1.
         22    1    1    2    0    0 -0.86479201561E+01  0.66309984328E+01 -0.33110190608E+02  0.34857443758E+02  0.00000000000E+00 0. -1.
<mgrwt>
<rscale>  0 0.53537596E+02</rscale>
<asrwt>0</asrwt>
<pdfrwt beam="1">  1        1 0.15411429E+00 0.91012733E+02</pdfrwt>
<pdfrwt beam="2">  1       -1 0.46360689E-03 0.91012733E+02</pdfrwt>
<totfact> 0.80750116E+04</totfact>
</mgrwt>
</event>
<event>
 6    1  0.2975432E-002  0.9925589E+02  0.7546771E-02  0.1333747E+00
          2   -1    0    0  501    0  0.00000000000E+00  0.00000000000E+00  0.40554542163E+03  0.40554542163E+03  0.00000000000E+00 0. -1.
         -2   -1    0    0    0  501 -0.00000000000E+00 -0.00000000000E+00 -0.11821801413E+02  0.11821801413E+02  0.00000000000E+00 0.  1.
         23    2    1    2    0    0 -0.30395793616E+02 -0.23748796433E+02  0.30090306628E+03  0.31685073268E+03  0.91453933222E+02 0.  0.
         11    1    3    3    0    0 -0.24743223967E+02 -0.40736108867E+02  0.29371753451E+03  0.29755948611E+03  0.00000000000E+00 0. -1.
        -11    1    3    3    0    0 -0.56525696484E+01  0.16987312434E+02  0.71855317748E+01  0.19291246571E+02  0.00000000000E+00 0.  1.
         22    1    1    2    0    0  0.30395793616E+02  0.23748796433E+02  0.92820553939E+02  0.10051649036E+03  0.00000000000E+00 0.  1.
<mgrwt>
<rscale>  0 0.78368093E+02</rscale>
<asrwt>0</asrwt>
<pdfrwt beam="1">  1        2 0.62391593E-01 0.99255889E+02</pdfrwt>
<pdfrwt beam="2">  1       -2 0.18187390E-02 0.99255889E+02</pdfrwt>
<totfact> 0.61865861E+04</totfact>
</mgrwt>
</event>
<event>
 6    1  0.2975432E-002  0.9106107E+02  0.7546771E-02  0.1431840E+00
          2   -1    0    0  501    0  0.00000000000E+00  0.00000000000E+00  0.36501911702E+02  0.36501911702E+02  0.00000000000E+00 0. -1.
         -2   -1    0    0    0  501 -0.00000000000E+00 -0.00000000000E+00 -0.70185548682E+02  0.70185548682E+02  0.00000000000E+00 0.  1.
         23    2    1    2    0    0 -0.52509567513E+01 -0.86650651893E+01 -0.31173976304E+02  0.96249342821E+02  0.90495653450E+02 0.  0.
         13    1    3    3    0    0 -0.36787440753E+02  0.13908326251E+02 -0.40402468487E+02  0.56383657172E+02  0.00000000000E+00 0. -1.
        -13    1    3    3    0    0  0.31536484002E+02 -0.22573391441E+02  0.92284921829E+01  0.39865685649E+02  0.00000000000E+00 0.  1.
         22    1    1    2    0    0  0.52509567513E+01  0.86650651893E+01 -0.25096606764E+01  0.10438117562E+02  0.00000000000E+00 0. -1.
<mgrwt>
<rscale>  0 0.52592349E+02</rscale>
<asrwt>0</asrwt>
<pdfrwt beam="1">  1        2 0.56156788E-02 0.91061074E+02</pdfrwt>
<pdfrwt beam="2">  1       -2 0.10797777E-01 0.91061074E+02</pdfrwt>
<totfact> 0.67315173E+04</totfact>
</mgrwt>
</event>
<event>
 6    1  0.2975432E-002  0.9317336E+02  0.7546771E-02  0.1425404E+00
          4   -1    0    0  501    0  0.00000000000E+00  0.00000000000E+00  0.65823393183E+03  0.65823393183E+03  0.00000000000E+00 0. -1.
         -4   -1    0    0    0  501 -0.00000000000E+00 -0.00000000000E+00 -0.42097300008E+01  0.42097300008E+01  0.00000000000E+00 0.  1.
         23    2    1    2    0    0  0.43532568779E+01 -0.94780041885E+01  0.61633659779E+03  0.62333945609E+03  0.92587754738E+02 0.  0.
         11    1    3    3    0    0 -0.21310265020E+01 -0.12681326754E+02  0.61596324152E+03  0.61609745351E+03  0.00000000000E+00 0. -1.
        -11    1    3    3    0    0  0.64842833800E+01  0.32033225652E+01  0.37335627565E+00  0.72420025764E+01  0.00000000000E+00 0.  1.
         22    1    1    2    0    0 -0.43532568779E+01  0.94780041885E+01  0.37687604041E+02  0.39104205748E+02  0.00000000000E+00 0.  1.
<mgrwt>
<rscale>  0 0.53893844E+02</rscale>
<asrwt>0</asrwt>
<pdfrwt beam="1">  1        4 0.10126668E+00 0.93173364E+02</pdfrwt>
<pdfrwt beam="2">  1       -4 0.64765129E-03 0.93173364E+02</pdfrwt>
<totfact> 0.69471440E+03</totfact>
</mgrwt>
</event>
<event>
 6    1  0.2975432E-002  0.9248574E+02  0.7546771E-02  0.1401306E+00
         -2   -1    0    0    0  501 -0.00000000000E+00  0.00000000000E+00  0.70880702283E+02  0.70880702283E+02  0.00000000000E+00 0. -1.
          2   -1    0    0  501    0  0.00000000000E+00 -0.00000000000E+00 -0.84437057414E+02  0.84437057414E+02  0.00000000000E+00 0.  1.
         23    2    1    2    0    0  0.67907701877E+01  0.13938862076E+02 -0.57374830200E+02  0.10883695513E+03  0.91176780082E+02 0.  0.
         13    1    3    3    0    0  0.33464354972E+00 -0.39076605529E+02 -0.24053953642E+02  0.45887751871E+02  0.00000000000E+00 0. -1.
        -13    1    3    3    0    0  0.64561266380E+01  0.53015467605E+02 -0.33320876558E+02  0.62949203261E+02  0.00000000000E+00 0.  1.
         22    1    1    2    0    0 -0.67907701877E+01 -0.13938862076E+02  0.43818475069E+02  0.46480804566E+02  0.00000000000E+00 0. -1.
<mgrwt>
<rscale>  0 0.59179915E+02</rscale>
<asrwt>0</asrwt>
<pdfrwt beam="1">  1        2 0.12990317E-01 0.92485738E+02</pdfrwt>
<pdfrwt beam="2">  1       -2 0.10904723E-01 0.92485738E+02</pdfrwt>
<totfact> 0.23658621E+04</totfact>
</mgrwt>
</event>
<event>
 6    1  0.2975432E-002  0.9442327E+02  0.7546771E-02  0.1410483E+00
          2   -1    0    0  501    0  0.00000000000E+00  0.00000000000E+00  0.25031558025E+03  0.25031558025E+03  0.00000000000E+00 0. -1.
         -2   -1    0    0    0  501 -0.00000000000E+00 -0.00000000000E+00 -0.15047748383E+02  0.15047748383E+02  0.00000000000E+00 0.  1.
         23    2    1    2    0    0  0.37883712405E+01  0.12032787415E+02  0.23441726900E+03  0.25271962717E+03  0.93576782495E+02 0.  0.
         13    1    3    3    0    0  0.27575839964E+02  0.24957112482E+02  0.21780401626E+03  0.22095672407E+03  0.00000000000E+00 0. -1.
        -13    1    3    3    0    0 -0.23787468724E+02 -0.12924325067E+02  0.16613252740E+02  0.31762903100E+02  0.00000000000E+00 0.  1.
         22    1    1    2    0    0 -0.37883712405E+01 -0.12032787415E+02  0.85056287400E+00  0.12643701469E+02  0.00000000000E+00 0.  1.
<mgrwt>
<rscale>  0 0.57086262E+02</rscale>
<asrwt>0</asrwt>
<pdfrwt beam="1">  1        2 0.38510086E-01 0.94423270E+02</pdfrwt>
<pdfrwt beam="2">  1       -2 0.23150384E-02 0.94423270E+02</pdfrwt>
<totfact> 0.72046341E+04</totfact>
</mgrwt>
</event>
<event>
 6    1  0.2975432E-002  0.8539994E+02  0.7546771E-02  0.1437599E+00
         -2   -1    0    0    0  501 -0.00000000000E+00  0.00000000000E+00  0.41226707336E+02  0.41226707336E+02  0.00000000000E+00 0.  1.
          2   -1    0    0  501    0  0.00000000000E+00 -0.00000000000E+00 -0.57074325092E+02  0.57074325092E+02  0.00000000000E+00 0. -1.
         23    2    1    2    0    0 -0.85371208801E+01  0.73467194891E+01 -0.11258228176E+02  0.86138827986E+02  0.84653961898E+02 0.  0.
         13    1    3    3    0    0  0.23835970099E+02 -0.28355296142E+02 -0.22572727132E+01  0.37111609639E+02  0.00000000000E+00 0.  1.
        -13    1    3    3    0    0 -0.32373090979E+02  0.35702015632E+02 -0.90009554623E+01  0.49027218348E+02  0.00000000000E+00 0. -1.
         22    1    1    2    0    0  0.85371208801E+01 -0.73467194891E+01 -0.45893895797E+01  0.12162204442E+02  0.00000000000E+00 0. -1.
<mgrwt>
<rscale>  0 0.51464453E+02</rscale>
<asrwt>0</asrwt>
<pdfrwt beam="1">  1        2 0.87806654E-02 0.85399941E+02</pdfrwt>
<pdfrwt beam="2">  1       -2 0.63425703E-02 0.85399941E+02</pdfrwt>
<totfact> 0.85985791E+04</totfact>
</mgrwt>
</event>
<event>
 6    1  0.2975432E-002  0.1083283E+03  0.7546771E-02  0.1295375E+00
          1   -1    0    0  501    0  0.00000000000E+00  0.00000000000E+00  0.30748182937E+03  0.30748182937E+03  0.00000000000E+00 0. -1.
         -1   -1    0    0    0  501 -0.00000000000E+00 -0.00000000000E+00 -0.30637834803E+02  0.30637834803E+02  0.00000000000E+00 0.  1.
         23    2    1    2    0    0 -0.42782201640E+02  0.40990815972E+02  0.25119172505E+03  0.27355494701E+03  0.90688822510E+02 0.  0.
         11    1    3    3    0    0  0.14509424309E+01 -0.62649348635E+01  0.16812065265E+03  0.16824359866E+03  0.00000000000E+00 0. -1.
        -11    1    3    3    0    0 -0.44233144071E+02  0.47255750835E+02  0.83071072402E+02  0.10531134835E+03  0.00000000000E+00 0.  1.
         22    1    1    2    0    0  0.42782201640E+02 -0.40990815972E+02  0.25652269519E+02  0.64564717166E+02  0.00000000000E+00 0.  1.
<mgrwt>
<rscale>  0 0.93159818E+02</rscale>
<asrwt>0</asrwt>
<pdfrwt beam="1">  1        1 0.47304895E-01 0.10832833E+03</pdfrwt>
<pdfrwt beam="2">  1       -1 0.47135133E-02 0.10832833E+03</pdfrwt>
<totfact> 0.15026871E+04</totfact>
</mgrwt>
</event>
<event>
 6    1  0.2975432E-002  0.9125521E+02  0.7546771E-02  0.1399151E+00
         -2   -1    0    0    0  501 -0.00000000000E+00  0.00000000000E+00  0.28698524470E+02  0.28698524470E+02  0.00000000000E+00 0.  1.
          2   -1    0    0  501    0  0.00000000000E+00 -0.00000000000E+00 -0.11089384707E+03  0.11089384707E+03  0.00000000000E+00 0. -1.
         23    2    1    2    0    0 -0.11657612186E+02  0.11959132040E+02 -0.82308568388E+02  0.12289106663E+03  0.89713951342E+02 0.  0.
         11    1    3    3    0    0  0.24580615462E+02  0.30129553769E+02 -0.70759127586E+02  0.80739400565E+02  0.00000000000E+00 0. -1.
        -11    1    3    3    0    0 -0.36238227649E+02 -0.18170421728E+02 -0.11549440802E+02  0.42151666061E+02  0.00000000000E+00 0.  1.
         22    1    1    2    0    0  0.11657612186E+02 -0.11959132040E+02  0.11324579277E+00  0.16701304909E+02  0.00000000000E+00 0.  1.
<mgrwt>
<rscale>  0 0.59686810E+02</rscale>
<asrwt>0</asrwt>
<pdfrwt beam="1">  1        2 0.17060592E-01 0.91255213E+02</pdfrwt>
<pdfrwt beam="2">  1       -2 0.44151576E-02 0.91255213E+02</pdfrwt>
<totfact> 0.67887420E+04</totfact>
</mgrwt>
</event>
<event>
 6    1  0.2975432E-002  0.9235578E+02  0.7546771E-02  0.1412809E+00
          2   -1    0    0  501    0  0.00000000000E+00  0.00000000000E+00  0.61081836255E+03  0.61081836255E+03  0.00000000000E+00 0.  1.
         -2   -1    0    0    0  501 -0.00000000000E+00 -0.00000000000E+00 -0.47825954282E+01  0.47825954282E+01  0.00000000000E+00 0. -1.
         23    2    1    2    0    0  0.38418287988E+00 -0.12996243207E+02  0.56658557147E+03  0.57406341025E+03  0.91435984495E+02 0.  0.
         11    1    3    3    0    0 -0.41344546060E+02  0.64406182288E+01  0.18285012595E+03  0.18757670861E+03  0.00000000000E+00 0. -1.
        -11    1    3    3    0    0  0.41728728939E+02 -0.19436861436E+02  0.38373544551E+03  0.38648670164E+03  0.00000000000E+00 0.  1.
         22    1    1    2    0    0 -0.38418287988E+00  0.12996243207E+02  0.39450195657E+02  0.41537547729E+02  0.00000000000E+00 0. -1.
<mgrwt>
<rscale>  0 0.56571790E+02</rscale>
<asrwt>0</asrwt>
<pdfrwt beam="1">  1        2 0.93971994E-01 0.92355775E+02</pdfrwt>
<pdfrwt beam="2">  1       -2 0.73578439E-03 0.92355775E+02</pdfrwt>
<totfact> 0.14218361E+05</totfact>
</mgrwt>
</event>
<event>
 6    1  0.2975432E-002  0.8894469E+02  0.7546771E-02  0.1407013E+00
          1   -1    0    0  501    0  0.00000000000E+00  0.00000000000E+00  0.43575747499E+03  0.43575747499E+03  0.00000000000E+00 0. -1.
         -1   -1    0    0    0  501 -0.00000000000E+00 -0.00000000000E+00 -0.63941820975E+01  0.63941820975E+01  0.00000000000E+00 0.  1.
         23    2    1    2    0    0  0.60767338601E+01 -0.14729840296E+02  0.38043437412E+03  0.39069357724E+03  0.87505790629E+02 0.  0.
         11    1    3    3    0    0  0.90231302959E+01 -0.28597024895E+02  0.40140640151E+02  0.50104667497E+02  0.00000000000E+00 0.  1.
        -11    1    3    3    0    0 -0.29463964358E+01  0.13867184599E+02  0.34029373397E+03  0.34058890974E+03  0.00000000000E+00 0. -1.
         22    1    1    2    0    0 -0.60767338601E+01  0.14729840296E+02  0.48928918774E+02  0.51458079851E+02  0.00000000000E+00 0.  1.
<mgrwt>
<rscale>  0 0.57865775E+02</rscale>
<asrwt>0</asrwt>
<pdfrwt beam="1">  1        1 0.67039588E-01 0.88944692E+02</pdfrwt>
<pdfrwt beam="2">  1       -1 0.98372066E-03 0.88944692E+02</pdfrwt>
<totfact> 0.90158727E+04</totfact>
</mgrwt>
</event>
<event>
 6    1  0.2975432E-002  0.9421503E+02  0.7546771E-02  0.1406919E+00
         -2   -1    0    0    0  501 -0.00000000000E+00  0.00000000000E+00  0.18576379936E+01  0.18576379936E+01  0.00000000000E+00 0.  1.
          2   -1    0    0  501    0  0.00000000000E+00 -0.00000000000E+00 -0.19185656435E+04  0.19185656435E+04  0.00000000000E+00 0. -1.
         23    2    1    2    0    0  0.73084898716E+01 -0.11263062254E+02 -0.18488924579E+04  0.18512913851E+04  0.93253424801E+02 0.  0.
         11    1    3    3    0    0  0.35524227674E+02 -0.57559556350E+01 -0.16438002295E+04  0.16441941176E+04  0.00000000000E+00 0. -1.
        -11    1    3    3    0    0 -0.28215737803E+02 -0.55071066194E+01 -0.20509222836E+03  0.20709726752E+03  0.00000000000E+00 0.  1.
         22    1    1    2    0    0 -0.73084898716E+01  0.11263062254E+02 -0.67815547593E+02  0.69131896335E+02  0.00000000000E+00 0. -1.
<mgrwt>
<rscale>  0 0.57886961E+02</rscale>
<asrwt>0</asrwt>
<pdfrwt beam="1">  1        2 0.29516486E+00 0.94215030E+02</pdfrwt>
<pdfrwt beam="2">  1       -2 0.28578957E-03 0.94215030E+02</pdfrwt>
<totfact> 0.96939653E+04</totfact>
</mgrwt>
</event>
<event>
 6    1  0.2975432E-002  0.9688520E+02  0.7546771E-02  0.1407158E+00
         -2   -1    0    0    0  501 -0.00000000000E+00  0.00000000000E+00  0.90103046926E+02  0.90103046926E+02  0.00000000000E+00 0. -1.
          2   -1    0    0  501    0  0.00000000000E+00 -0.00000000000E+00 -0.43181333751E+02  0.43181333751E+02  0.00000000000E+00 0.  1.
         23    2    1    2    0    0 -0.15324003189E+01 -0.12204753187E+02  0.13688009189E+02  0.97847347339E+02  0.96101183836E+02 0.  0.
         11    1    3    3    0    0  0.22577699351E+02 -0.42931759969E+02 -0.13391389929E+02  0.50321147108E+02  0.00000000000E+00 0.  1.
        -11    1    3    3    0    0 -0.24110099670E+02  0.30727006782E+02  0.27079399118E+02  0.47526200232E+02  0.00000000000E+00 0. -1.
         22    1    1    2    0    0  0.15324003189E+01  0.12204753187E+02  0.33233703987E+02  0.35437033337E+02  0.00000000000E+00 0. -1.
<mgrwt>
<rscale>  0 0.57832833E+02</rscale>
<asrwt>0</asrwt>
<pdfrwt beam="1">  1        2 0.66432821E-02 0.96885199E+02</pdfrwt>
<pdfrwt beam="2">  1       -2 0.13862007E-01 0.96885199E+02</pdfrwt>
<totfact> 0.36905286E+04</totfact>
</mgrwt>
</event>
<event>
 6    1  0.2975432E-002  0.9234347E+02  0.7546771E-02  0.1425401E+00
         -2   -1    0    0    0  501 -0.00000000000E+00  0.00000000000E+00  0.14418506874E+03  0.14418506874E+03  0.00000000000E+00 0.  1.
          2   -1    0    0  501    0  0.00000000000E+00 -0.00000000000E+00 -0.24272133394E+02  0.24272133394E+02  0.00000000000E+00 0. -1.
         23    2    1    2    0    0  0.68404386660E+01 -0.82461297085E+01  0.66036842836E+02  0.11352612168E+03  0.91719820293E+02 0.  0.
         13    1    3    3    0    0  0.30766573275E+02  0.31606006278E+02  0.43188190295E+02  0.61731203170E+02  0.00000000000E+00 0.  1.
        -13    1    3    3    0    0 -0.23926134609E+02 -0.39852135986E+02  0.22848652541E+02  0.51794918505E+02  0.00000000000E+00 0. -1.
         22    1    1    2    0    0 -0.68404386660E+01  0.82461297085E+01  0.53876092511E+02  0.54931080461E+02  0.00000000000E+00 0.  1.
<mgrwt>
<rscale>  0 0.53894290E+02</rscale>
<asrwt>0</asrwt>
<pdfrwt beam="1">  1        2 0.37341744E-02 0.92343466E+02</pdfrwt>
<pdfrwt beam="2">  1       -2 0.22182318E-01 0.92343466E+02</pdfrwt>
<totfact> 0.35494266E+04</totfact>
</mgrwt>
</event>
<event>
 6    1  0.2975432E-002  0.9254547E+02  0.7546771E-02  0.1413836E+00
         -4   -1    0    0    0  501 -0.00000000000E+00  0.00000000000E+00  0.38463589168E+02  0.38463589168E+02  0.00000000000E+00 0. -1.
          4   -1    0    0  501    0  0.00000000000E+00 -0.00000000000E+00 -0.90716323753E+02  0.90716323753E+02  0.00000000000E+00 0.  1.
         23    2    1    2    0    0  0.12581678393E+02  0.18544610626E+01 -0.63472587932E+02  0.11222046817E+03  0.91667477336E+02 0.  0.
         13    1    3    3    0    0  0.37432967201E+02 -0.16619429168E+02 -0.69503282861E+02  0.80673036312E+02  0.00000000000E+00 0.  1.
        -13    1    3    3    0    0 -0.24851288808E+02  0.18473890231E+02  0.60306949291E+01  0.31547431861E+02  0.00000000000E+00 0. -1.
         22    1    1    2    0    0 -0.12581678393E+02 -0.18544610626E+01  0.11219853347E+02  0.16959444748E+02  0.00000000000E+00 0. -1.
<mgrwt>
<rscale>  0 0.56346607E+02</rscale>
<asrwt>0</asrwt>
<pdfrwt beam="1">  1        4 0.13956357E-01 0.92545470E+02</pdfrwt>
<pdfrwt beam="2">  1       -4 0.59174753E-02 0.92545470E+02</pdfrwt>
<totfact> 0.11321518E+04</totfact>
</mgrwt>
</event>
<event>
 6    1  0.2975432E-002  0.9584806E+02  0.7546771E-02  0.1353087E+00
         -2   -1    0    0    0  501 -0.00000000000E+00  0.00000000000E+00  0.42079400515E+02  0.42079400515E+02  0.00000000000E+00 0.  1.
          2   -1    0    0  501    0  0.00000000000E+00 -0.00000000000E+00 -0.19163056439E+04  0.19163056439E+04  0.00000000000E+00 0. -1.
         23    2    1    2    0    0 -0.24031797097E+02  0.19093150598E+02 -0.19093419089E+04  0.19117461589E+04  0.90800746971E+02 0.  0.
         11    1    3    3    0    0 -0.22933447778E+02 -0.32981742890E+02 -0.10975950208E+04  0.10983298994E+04  0.00000000000E+00 0. -1.
        -11    1    3    3    0    0 -0.10983493187E+01  0.52074893488E+02 -0.81174688810E+03  0.81341625952E+03  0.00000000000E+00 0.  1.
         22    1    1    2    0    0  0.24031797097E+02 -0.19093150598E+02  0.35115665502E+02  0.46638885441E+02  0.00000000000E+00 0.  1.
<mgrwt>
<rscale>  0 0.72102153E+02</rscale>
<asrwt>0</asrwt>
<pdfrwt beam="1">  1        2 0.29481629E+00 0.95848064E+02</pdfrwt>
<pdfrwt beam="2">  1       -2 0.64737531E-02 0.95848064E+02</pdfrwt>
<totfact> 0.11102509E+03</totfact>
</mgrwt>
</event>
<event>
 6    1  0.2975432E-002  0.9205848E+02  0.7546771E-02  0.1417139E+00
          4   -1    0    0  501    0  0.00000000000E+00  0.00000000000E+00  0.44205706662E+02  0.44205706662E+02  0.00000000000E+00 0.  1.
         -4   -1    0    0    0  501 -0.00000000000E+00 -0.00000000000E+00 -0.61650740031E+02  0.61650740031E+02  0.00000000000E+00 0. -1.
         23    2    1    2    0    0  0.63651289500E+01 -0.10497460952E+02 -0.14096422016E+02  0.93131481035E+02  0.91236243309E+02 0.  0.
         11    1    3    3    0    0 -0.38044671578E+02 -0.19401875992E+02 -0.20527279383E+02  0.47383531173E+02  0.00000000000E+00 0. -1.
        -11    1    3    3    0    0  0.44409800528E+02  0.89044150394E+01  0.64308573668E+01  0.45747949863E+02  0.00000000000E+00 0.  1.
         22    1    1    2    0    0 -0.63651289500E+01  0.10497460952E+02 -0.33486113533E+01  0.12724965658E+02  0.00000000000E+00 0. -1.
<mgrwt>
<rscale>  0 0.55630910E+02</rscale>
<asrwt>0</asrwt>
<pdfrwt beam="1">  1        4 0.68008780E-02 0.92058479E+02</pdfrwt>
<pdfrwt beam="2">  1       -4 0.94847291E-02 0.92058479E+02</pdfrwt>
<totfact> 0.17340230E+04</totfact>
</mgrwt>
</event>
<event>
 6    1  0.2975432E-002  0.9532377E+02  0.7546771E-02  0.1403724E+00
          2   -1    0    0  501    0  0.00000000000E+00  0.00000000000E+00  0.15826151649E+03  0.15826151649E+03  0.00000000000E+00 0. -1.
         -2   -1    0    0    0  501 -0.00000000000E+00 -0.00000000000E+00 -0.27152402872E+02  0.27152402872E+02  0.00000000000E+00 0.  1.
         23    2    1    2    0    0  0.59677376210E+01 -0.12255132270E+02  0.13983087348E+03  0.16923148277E+03  0.94344154149E+02 0.  0.
         13    1    3    3    0    0  0.29612330972E+01  0.20213575389E+02 -0.47873414566E+01  0.20982758867E+02  0.00000000000E+00 0.  1.
        -13    1    3    3    0    0  0.30065045237E+01 -0.32468707659E+02  0.14461821494E+03  0.14824872390E+03  0.00000000000E+00 0. -1.
         22    1    1    2    0    0 -0.59677376210E+01  0.12255132270E+02 -0.87217598581E+01  0.16182436600E+02  0.00000000000E+00 0. -1.
<mgrwt>
<rscale>  0 0.58618171E+02</rscale>
<asrwt>0</asrwt>
<pdfrwt beam="1">  1        2 0.24347925E-01 0.95323772E+02</pdfrwt>
<pdfrwt beam="2">  1       -2 0.41772928E-02 0.95323772E+02</pdfrwt>
<totfact> 0.49837335E+04</totfact>
</mgrwt>
</event>
<event>
 6    1  0.2975432E-002  0.1055750E+03  0.7546771E-02  0.1304406E+00
         -1   -1    0    0    0  501 -0.00000000000E+00  0.00000000000E+00  0.25405812103E+03  0.25405812103E+03  0.00000000000E+00 0.  1.
          1   -1    0    0  501    0  0.00000000000E+00 -0.00000000000E+00 -0.32242087157E+02  0.32242087157E+02  0.00000000000E+00 0. -1.
         23    2    1    2    0    0 -0.49922398132E+02 -0.21076715900E+02  0.74170930427E+02  0.12902481164E+03  0.90606850233E+02 0.  0.
         13    1    3    3    0    0 -0.39533500521E+02 -0.43014209558E+02  0.85320656523E+01  0.59041646586E+02  0.00000000000E+00 0. -1.
        -13    1    3    3    0    0 -0.10388897612E+02  0.21937493658E+02  0.65638864775E+02  0.69983165050E+02  0.00000000000E+00 0.  1.
         22    1    1    2    0    0  0.49922398132E+02  0.21076715900E+02  0.14764510344E+03  0.15727539655E+03  0.00000000000E+00 0.  1.
<mgrwt>
<rscale>  0 0.89361202E+02</rscale>
<asrwt>0</asrwt>
<pdfrwt beam="1">  1        1 0.49603213E-02 0.10557497E+03</pdfrwt>
<pdfrwt beam="2">  1       -1 0.39085864E-01 0.10557497E+03</pdfrwt>
<totfact> 0.99539711E+03</totfact>
</mgrwt>
</event>
<event>
 6    1  0.2975432E-002  0.9167956E+02  0.7546771E-02  0.1408608E+00
         -1   -1    0    0    0  501 -0.00000000000E+00  0.00000000000E+00  0.25120328599E+01  0.25120328599E+01  0.00000000000E+00 0.  1.
          1   -1    0    0  501    0  0.00000000000E+00 -0.00000000000E+00 -0.22185203361E+04  0.22185203361E+04  0.00000000000E+00 0. -1.
         23    2    1    2    0    0  0.13496339506E+02 -0.43867585285E+01 -0.21850930433E+04  0.21870154890E+04  0.90574533128E+02 0.  0.
         11    1    3    3    0    0  0.26146303616E+02 -0.26481051304E+02 -0.19798108007E+04  0.19801605192E+04  0.00000000000E+00 0. -1.
        -11    1    3    3    0    0 -0.12649964110E+02  0.22094292775E+02 -0.20528224262E+03  0.20685496973E+03  0.00000000000E+00 0.  1.
         22    1    1    2    0    0 -0.13496339506E+02  0.43867585285E+01 -0.30915259893E+02  0.34016879996E+02  0.00000000000E+00 0.  1.
<mgrwt>
<rscale>  0 0.57505636E+02</rscale>
<asrwt>0</asrwt>
<pdfrwt beam="1">  1        1 0.34130935E+00 0.91679555E+02</pdfrwt>
<pdfrwt beam="2">  1       -1 0.38646826E-03 0.91679555E+02</pdfrwt>
<totfact> 0.17066556E+04</totfact>
</mgrwt>
</event>
<event>
 6    1  0.2975432E-002  0.9016549E+02  0.7546771E-02  0.1418617E+00
         -2   -1    0    0    0  501 -0.00000000000E+00  0.00000000000E+00  0.34206814328E+02  0.34206814328E+02  0.00000000000E+00 0. -1.
          2   -1    0    0  501    0  0.00000000000E+00 -0.00000000000E+00 -0.25151340161E+03  0.25151340161E+03  0.00000000000E+00 0.  1.
         23    2    1    2    0    0 -0.23969488386E+01  0.12544482773E+02 -0.24181811862E+03  0.25808103034E+03  0.89256407695E+02 0.  0.
         11    1    3    3    0    0  0.25763567997E+02 -0.11863315730E+02 -0.24168584084E+02  0.37264193976E+02  0.00000000000E+00 0. -1.
        -11    1    3    3    0    0 -0.28160516836E+02  0.24407798503E+02 -0.21764953454E+03  0.22081683636E+03  0.00000000000E+00 0.  1.
         22    1    1    2    0    0  0.23969488386E+01 -0.12544482773E+02  0.24511531342E+02  0.27639185598E+02  0.00000000000E+00 0. -1.
<mgrwt>
<rscale>  0 0.55314646E+02</rscale>
<asrwt>0</asrwt>
<pdfrwt beam="1">  1        2 0.38694369E-01 0.90165491E+02</pdfrwt>
<pdfrwt beam="2">  1       -2 0.52625869E-02 0.90165491E+02</pdfrwt>
<totfact> 0.21420952E+04</totfact>
</mgrwt>
</event>
<event>
 6    1  0.2975432E-002  0.9064819E+02  0.7546771E-02  0.1410917E+00
          2   -1    0    0  501    0  0.00000000000E+00  0.00000000000E+00  0.62730081083E+03  0.62730081083E+03  0.00000000000E+00 0. -1.
         -2   -1    0    0    0  501 -0.00000000000E+00 -0.00000000000E+00 -0.44045149575E+01  0.44045149575E+01  0.00000000000E+00 0.  1.
         23    2    1    2    0    0 -0.27380820122E+00 -0.14158826333E+02  0.55420108469E+03  0.56156561254E+03  0.89535175153E+02 0.  0.
         13    1    3    3    0    0  0.42390730433E+02  0.43347341437E+01  0.31684038391E+03  0.31969296649E+03  0.00000000000E+00 0. -1.
        -13    1    3    3    0    0 -0.42664538634E+02 -0.18493560477E+02  0.23736070077E+03  0.24187264605E+03  0.00000000000E+00 0.  1.
         22    1    1    2    0    0  0.27380820122E+00  0.14158826333E+02  0.68695211190E+02  0.70139713248E+02  0.00000000000E+00 0. -1.
<mgrwt>
<rscale>  0 0.56989714E+02</rscale>
<asrwt>0</asrwt>
<pdfrwt beam="1">  1        2 0.96507746E-01 0.90648193E+02</pdfrwt>
<pdfrwt beam="2">  1       -2 0.67761818E-03 0.90648193E+02</pdfrwt>
<totfact> 0.15450660E+05</totfact>
</mgrwt>
</event>
<event>
 6    1  0.2975432E-002  0.9633566E+02  0.7546771E-02  0.1352591E+00
          2   -1    0    0  501    0  0.00000000000E+00  0.00000000000E+00  0.17605445286E+02  0.17605445286E+02  0.00000000000E+00 0. -1.
         -2   -1    0    0    0  501 -0.00000000000E+00 -0.00000000000E+00 -0.22956524137E+03  0.22956524137E+03  0.00000000000E+00 0.  1.
         23    2    1    2    0    0 -0.27586288845E+02  0.12975613641E+02 -0.15316207844E+03  0.18093971594E+03  0.91384838190E+02 0.  0.
         13    1    3    3    0    0 -0.12593611070E+01 -0.27947522620E+02 -0.11704143156E+03  0.12033846730E+03  0.00000000000E+00 0.  1.
        -13    1    3    3    0    0 -0.26326927738E+02  0.40923136260E+02 -0.36120646878E+02  0.60601248637E+02  0.00000000000E+00 0. -1.
         22    1    1    2    0    0  0.27586288845E+02 -0.12975613641E+02 -0.58797717647E+02  0.66230970717E+02  0.00000000000E+00 0.  1.
<mgrwt>
<rscale>  0 0.72254328E+02</rscale>
<asrwt>0</asrwt>
<pdfrwt beam="1">  1        2 0.27085301E-02 0.96335656E+02</pdfrwt>
<pdfrwt beam="2">  1       -2 0.35317729E-01 0.96335656E+02</pdfrwt>
<totfact> 0.24042752E+04</totfact>
</mgrwt>
</event>
<event>
 6    1  0.2975432E-002  0.9044279E+02  0.7546771E-02  0.1423960E+00
          2   -1    0    0  501    0  0.00000000000E+00  0.00000000000E+00  0.48305356422E+03  0.48305356422E+03  0.00000000000E+00 0. -1.
         -2   -1    0    0    0  501 -0.00000000000E+00 -0.00000000000E+00 -0.55954127599E+01  0.55954127599E+01  0.00000000000E+00 0.  1.
         23    2    1    2    0    0  0.11196119390E+02  0.32477275093E+01  0.44651606204E+03  0.45558368217E+03  0.89688332430E+02 0.  0.
         11    1    3    3    0    0 -0.52729662411E+01  0.29875072216E+02  0.54951017510E+02  0.62768928925E+02  0.00000000000E+00 0.  1.
        -11    1    3    3    0    0  0.16469085631E+02 -0.26627344707E+02  0.39156504453E+03  0.39281475324E+03  0.00000000000E+00 0. -1.
         22    1    1    2    0    0 -0.11196119390E+02 -0.32477275093E+01  0.30942089420E+02  0.33065294813E+02  0.00000000000E+00 0. -1.
<mgrwt>
<rscale>  0 0.54191755E+02</rscale>
<asrwt>0</asrwt>
<pdfrwt beam="1">  1        2 0.74315900E-01 0.90442787E+02</pdfrwt>
<pdfrwt beam="2">  1       -2 0.86083311E-03 0.90442787E+02</pdfrwt>
<totfact> 0.14694327E+05</totfact>
</mgrwt>
</event>
<event>
 6    1  0.2975432E-002  0.9291349E+02  0.7546771E-02  0.1395504E+00
          2   -1    0    0  501    0  0.00000000000E+00  0.00000000000E+00  0.38782088668E+02  0.38782088668E+02  0.00000000000E+00 0. -1.
         -2   -1    0    0    0  501 -0.00000000000E+00 -0.00000000000E+00 -0.78938529646E+02  0.78938529646E+02  0.00000000000E+00 0.  1.
         23    2    1    2    0    0 -0.62612848576E+01 -0.15554134452E+02 -0.28102646640E+02  0.97070467114E+02  0.91388084841E+02 0.  0.
         11    1    3    3    0    0 -0.31923403510E+02 -0.33942410185E+02 -0.41855847900E+02  0.62634678128E+02  0.00000000000E+00 0.  1.
        -11    1    3    3    0    0  0.25662118652E+02  0.18388275734E+02  0.13753201260E+02  0.34435788986E+02  0.00000000000E+00 0. -1.
         22    1    1    2    0    0  0.62612848576E+01  0.15554134452E+02 -0.12053794338E+02  0.20650151199E+02  0.00000000000E+00 0.  1.
<mgrwt>
<rscale>  0 0.60558263E+02</rscale>
<asrwt>0</asrwt>
<pdfrwt beam="1">  1        2 0.59664752E-02 0.92913491E+02</pdfrwt>
<pdfrwt beam="2">  1       -2 0.12144389E-01 0.92913491E+02</pdfrwt>
<totfact> 0.51933276E+04</totfact>
</mgrwt>
</event>
<event>
 6    1  0.2975432E-002  0.9098934E+02  0.7546771E-02  0.1395302E+00
         -1   -1    0    0    0  501 -0.00000000000E+00  0.00000000000E+00  0.19238808103E+02  0.19238808103E+02  0.00000000000E+00 0.  1.
          1   -1    0    0  501    0  0.00000000000E+00 -0.00000000000E+00 -0.19917405543E+03  0.19917405543E+03  0.00000000000E+00 0. -1.
         23    2    1    2    0    0  0.16789954890E+02 -0.62370304566E+01 -0.17861238989E+03  0.20045310057E+03  0.89209061030E+02 0.  0.
         13    1    3    3    0    0  0.37132509817E+02 -0.32859872374E+02 -0.14392341071E+03  0.15222530226E+03  0.00000000000E+00 0. -1.
        -13    1    3    3    0    0 -0.20342554927E+02  0.26622841918E+02 -0.34688979178E+02  0.48227798303E+02  0.00000000000E+00 0.  1.
         22    1    1    2    0    0 -0.16789954890E+02  0.62370304566E+01 -0.13228574389E+01  0.17959762970E+02  0.00000000000E+00 0.  1.
<mgrwt>
<rscale>  0 0.60606989E+02</rscale>
<asrwt>0</asrwt>
<pdfrwt beam="1">  1        1 0.30642163E-01 0.90989338E+02</pdfrwt>
<pdfrwt beam="2">  1       -1 0.29598166E-02 0.90989338E+02</pdfrwt>
<totfact> 0.49316964E+04</totfact>
</mgrwt>
</event>
<event>
 6    1  0.2975432E-002  0.9317200E+02  0.7546771E-02  0.1398244E+00
          2   -1    0    0  501    0  0.00000000000E+00  0.00000000000E+00  0.46160508213E+03  0.46160508213E+03  0.00000000000E+00 0. -1.
         -2   -1    0    0    0  501 -0.00000000000E+00 -0.00000000000E+00 -0.68520379135E+01  0.68520379135E+01  0.00000000000E+00 0.  1.
         23    2    1    2    0    0 -0.15873079228E+02  0.12048978922E+01  0.42031384973E+03  0.43051684409E+03  0.91802038869E+02 0.  0.
         11    1    3    3    0    0 -0.44151913397E+02 -0.22684038830E+02  0.15827984507E+03  0.16588088024E+03  0.00000000000E+00 0.  1.
        -11    1    3    3    0    0  0.28278834169E+02  0.23888936722E+02  0.26203400467E+03  0.26463596385E+03  0.00000000000E+00 0. -1.
         22    1    1    2    0    0  0.15873079228E+02 -0.12048978922E+01  0.34439194481E+02  0.37940275956E+02  0.00000000000E+00 0.  1.
<mgrwt>
<rscale>  0 0.59901990E+02</rscale>
<asrwt>0</asrwt>
<pdfrwt beam="1">  1        2 0.71016142E-01 0.93171996E+02</pdfrwt>
<pdfrwt beam="2">  1       -2 0.10541600E-02 0.93171996E+02</pdfrwt>
<totfact> 0.11635226E+05</totfact>
</mgrwt>
</event>
<event>
 6    1  0.2975432E-002  0.9655334E+02  0.7546771E-02  0.1376870E+00
         -1   -1    0    0    0  501 -0.00000000000E+00  0.00000000000E+00  0.37340554824E+02  0.37340554824E+02  0.00000000000E+00 0.  1.
          1   -1    0    0  501    0  0.00000000000E+00 -0.00000000000E+00 -0.10529042864E+03  0.10529042864E+03  0.00000000000E+00 0. -1.
         23    2    1    2    0    0 -0.16904026584E+02  0.11044596624E+02 -0.73890763616E+02  0.12158286239E+03  0.94418315220E+02 0.  0.
         13    1    3    3    0    0  0.38168025027E+02  0.23165445146E+01 -0.44082067926E+02  0.58355747151E+02  0.00000000000E+00 0.  1.
        -13    1    3    3    0    0 -0.55072051611E+02  0.87280521092E+01 -0.29808695691E+02  0.63227115236E+02  0.00000000000E+00 0. -1.
         22    1    1    2    0    0  0.16904026584E+02 -0.11044596624E+02  0.59408897989E+01  0.21048121078E+02  0.00000000000E+00 0.  1.
<mgrwt>
<rscale>  0 0.65293802E+02</rscale>
<asrwt>0</asrwt>
<pdfrwt beam="1">  1        1 0.16198527E-01 0.96553340E+02</pdfrwt>
<pdfrwt beam="2">  1       -1 0.57447008E-02 0.96553340E+02</pdfrwt>
<totfact> 0.41984382E+04</totfact>
</mgrwt>
</event>
<event>
 6    1  0.2975432E-002  0.9205533E+02  0.7546771E-02  0.1409146E+00
          2   -1    0    0  501    0  0.00000000000E+00  0.00000000000E+00  0.69539556877E+02  0.69539556877E+02  0.00000000000E+00 0. -1.
         -2   -1    0    0    0  501 -0.00000000000E+00 -0.00000000000E+00 -0.46162396035E+02  0.46162396035E+02  0.00000000000E+00 0.  1.
         23    2    1    2    0    0  0.98123393244E+01  0.98462701352E+01  0.34076861863E+02  0.98160155952E+02  0.90999739909E+02 0.  0.
         13    1    3    3    0    0  0.50920883792E+01  0.25674516658E+02 -0.25375640005E+02  0.36455908648E+02  0.00000000000E+00 0.  1.
        -13    1    3    3    0    0  0.47202509452E+01 -0.15828246523E+02  0.59452501869E+02  0.61704247304E+02  0.00000000000E+00 0. -1.
         22    1    1    2    0    0 -0.98123393244E+01 -0.98462701352E+01 -0.10699701021E+02  0.17541796959E+02  0.00000000000E+00 0.  1.
<mgrwt>
<rscale>  0 0.57384726E+02</rscale>
<asrwt>0</asrwt>
<pdfrwt beam="1">  1        2 0.10698393E-01 0.92055330E+02</pdfrwt>
<pdfrwt beam="2">  1       -2 0.71019071E-02 0.92055330E+02</pdfrwt>
<totfact> 0.57677079E+04</totfact>
</mgrwt>
</event>
<event>
 6    1  0.2975432E-002  0.9303699E+02  0.7546771E-02  0.1384243E+00
         -4   -1    0    0    0  501 -0.00000000000E+00  0.00000000000E+00  0.71851150111E+02  0.71851150111E+02  0.00000000000E+00 0.  1.
          4   -1    0    0  501    0  0.00000000000E+00 -0.00000000000E+00 -0.44505078873E+02  0.44505078873E+02  0.00000000000E+00 0. -1.
         23    2    1    2    0    0  0.83644639562E+00 -0.19996527150E+02  0.21228759601E+02  0.95428203701E+02  0.90858797520E+02 0.  0.
         13    1    3    3    0    0 -0.34497990160E+02 -0.48262601452E+01 -0.19081998456E+02  0.39718091308E+02  0.00000000000E+00 0. -1.
        -13    1    3    3    0    0  0.35334436556E+02 -0.15170267004E+02  0.40310758057E+02  0.55710112393E+02  0.00000000000E+00 0.  1.
         22    1    1    2    0    0 -0.83644639562E+00  0.19996527150E+02  0.61173116364E+01  0.20928025284E+02  0.00000000000E+00 0.  1.
<mgrwt>
<rscale>  0 0.63361477E+02</rscale>
<asrwt>0</asrwt>
<pdfrwt beam="1">  1        4 0.68469352E-02 0.93036992E+02</pdfrwt>
<pdfrwt beam="2">  1       -4 0.11054023E-01 0.93036992E+02</pdfrwt>
<totfact> 0.13315905E+04</totfact>
</mgrwt>
</event>
<event>
 6    1  0.2975432E-002  0.1042034E+03  0.7546771E-02  0.1310889E+00
          4   -1    0    0  501    0  0.00000000000E+00  0.00000000000E+00  0.87453313020E+02  0.87453313020E+02  0.00000000000E+00 0.  1.
         -4   -1    0    0    0  501 -0.00000000000E+00 -0.00000000000E+00 -0.87090516241E+02  0.87090516241E+02  0.00000000000E+00 0. -1.
         23    2    1    2    0    0  0.41216981611E+02 -0.28445211815E+02  0.39030562474E+02  0.11127325354E+03  0.91380427324E+02 0.  0.
         13    1    3    3    0    0 -0.82320092427E+01  0.20749595825E+02  0.34862467043E+02  0.41396899780E+02  0.00000000000E+00 0.  1.
        -13    1    3    3    0    0  0.49448990854E+02 -0.49194807640E+02  0.41680954313E+01  0.69876353760E+02  0.00000000000E+00 0. -1.
         22    1    1    2    0    0 -0.41216981611E+02  0.28445211815E+02 -0.38667765695E+02  0.63270575722E+02  0.00000000000E+00 0.  1.
<mgrwt>
<rscale>  0 0.86761441E+02</rscale>
<asrwt>0</asrwt>
<pdfrwt beam="1">  1        4 0.13454356E-01 0.10420342E+03</pdfrwt>
<pdfrwt beam="2">  1       -4 0.13398541E-01 0.10420342E+03</pdfrwt>
<totfact> 0.32096915E+03</totfact>
</mgrwt>
</event>
<event>
 6    1  0.2975432E-002  0.9374028E+02  0.7546771E-02  0.1424381E+00
         -2   -1    0    0    0  501 -0.00000000000E+00  0.00000000000E+00  0.47636362633E+01  0.47636362633E+01  0.00000000000E+00 0.  1.
          2   -1    0    0  501    0  0.00000000000E+00 -0.00000000000E+00 -0.76397226070E+03  0.76397226070E+03  0.00000000000E+00 0. -1.
         23    2    1    2    0    0  0.18218640116E+01  0.10242296736E+02 -0.74626687685E+03  0.75213129936E+03  0.93161237465E+02 0.  0.
         11    1    3    3    0    0  0.37132322527E+02 -0.58615271744E+01 -0.58706419165E+03  0.58826654842E+03  0.00000000000E+00 0. -1.
        -11    1    3    3    0    0 -0.35310458516E+02  0.16103823910E+02 -0.15920268520E+03  0.16386475094E+03  0.00000000000E+00 0.  1.
         22    1    1    2    0    0 -0.18218640116E+01 -0.10242296736E+02 -0.12941747588E+02  0.16604597603E+02  0.00000000000E+00 0.  1.
<mgrwt>
<rscale>  0 0.54104707E+02</rscale>
<asrwt>0</asrwt>
<pdfrwt beam="1">  1        2 0.11753404E+00 0.93740279E+02</pdfrwt>
<pdfrwt beam="2">  1       -2 0.73286809E-03 0.93740279E+02</pdfrwt>
<totfact> 0.11051489E+05</totfact>
</mgrwt>
</event>
<event>
 6    1  0.2975432E-002  0.1009840E+03  0.7546771E-02  0.1327691E+00
          4   -1    0    0  501    0  0.00000000000E+00  0.00000000000E+00  0.38477704336E+02  0.38477704336E+02  0.00000000000E+00 0. -1.
         -4   -1    0    0    0  501 -0.00000000000E+00 -0.00000000000E+00 -0.20960987567E+03  0.20960987567E+03  0.00000000000E+00 0.  1.
         23    2    1    2    0    0 -0.29402164384E+02  0.28200187799E+02 -0.18000134595E+03  0.20639345427E+03  0.92401491111E+02 0.  0.
         11    1    3    3    0    0  0.80806983423E+01 -0.19381860788E+02 -0.55421027482E+01  0.21717944566E+02  0.00000000000E+00 0. -1.
        -11    1    3    3    0    0 -0.37482862726E+02  0.47582048587E+02 -0.17445924320E+03  0.18467550970E+03  0.00000000000E+00 0.  1.
         22    1    1    2    0    0  0.29402164384E+02 -0.28200187799E+02  0.88691746174E+01  0.41694125735E+02  0.00000000000E+00 0. -1.
<mgrwt>
<rscale>  0 0.80481201E+02</rscale>
<asrwt>0</asrwt>
<pdfrwt beam="1">  1        4 0.59196470E-02 0.10098403E+03</pdfrwt>
<pdfrwt beam="2">  1       -4 0.32247672E-01 0.10098403E+03</pdfrwt>
<totfact> 0.25652386E+03</totfact>
</mgrwt>
</event>
<event>
 6    1  0.2975432E-002  0.1005603E+03  0.7546771E-02  0.1393727E+00
         -2   -1    0    0    0  501 -0.00000000000E+00  0.00000000000E+00  0.38612002013E+02  0.38612002013E+02  0.00000000000E+00 0.  1.
          2   -1    0    0  501    0  0.00000000000E+00 -0.00000000000E+00 -0.11361161792E+03  0.11361161792E+03  0.00000000000E+00 0. -1.
         23    2    1    2    0    0 -0.13123118162E+02  0.35927194913E+01 -0.87834714474E+02  0.13351897829E+03  0.99635619299E+02 0.  0.
         11    1    3    3    0    0  0.28665915580E+02  0.13508362280E+02 -0.84724842550E+02  0.90457224768E+02  0.00000000000E+00 0. -1.
        -11    1    3    3    0    0 -0.41789033742E+02 -0.99156427888E+01 -0.31098719237E+01  0.43061753522E+02  0.00000000000E+00 0.  1.
         22    1    1    2    0    0  0.13123118162E+02 -0.35927194913E+01  0.12835098569E+02  0.18704641641E+02  0.00000000000E+00 0.  1.
<mgrwt>
<rscale>  0 0.60989185E+02</rscale>
<asrwt>0</asrwt>
<pdfrwt beam="1">  1        2 0.17478710E-01 0.10056033E+03</pdfrwt>
<pdfrwt beam="2">  1       -2 0.59403082E-02 0.10056033E+03</pdfrwt>
<totfact> 0.43007862E+04</totfact>
</mgrwt>
</event>
<event>
 6    1  0.2975432E-002  0.9469912E+02  0.7546771E-02  0.1374148E+00
         -2   -1    0    0    0  501 -0.00000000000E+00  0.00000000000E+00  0.44621279091E+01  0.44621279091E+01  0.00000000000E+00 0.  1.
          2   -1    0    0  501    0  0.00000000000E+00 -0.00000000000E+00 -0.81111156649E+03  0.81111156649E+03  0.00000000000E+00 0. -1.
         23    2    1    2    0    0 -0.32229427708E+01  0.22146742767E+02 -0.71435496803E+03  0.72060456852E+03  0.92016619438E+02 0.  0.
         13    1    3    3    0    0  0.35357802352E+01  0.21800021280E+02 -0.36125953807E+02  0.42341790328E+02  0.00000000000E+00 0.  1.
        -13    1    3    3    0    0 -0.67587230060E+01  0.34672148673E+00 -0.67822901422E+03  0.67826277820E+03  0.00000000000E+00 0. -1.
         22    1    1    2    0    0  0.32229427708E+01 -0.22146742767E+02 -0.92294470553E+02  0.94969125877E+02  0.00000000000E+00 0.  1.
<mgrwt>
<rscale>  0 0.66027464E+02</rscale>
<asrwt>0</asrwt>
<pdfrwt beam="1">  1        2 0.12478637E+00 0.94699123E+02</pdfrwt>
<pdfrwt beam="2">  1       -2 0.68648134E-03 0.94699123E+02</pdfrwt>
<totfact> 0.11282792E+05</totfact>
</mgrwt>
</event>
<event>
 6    1  0.2975432E-002  0.1012552E+03  0.7546771E-02  0.1340337E+00
          2   -1    0    0  501    0  0.00000000000E+00  0.00000000000E+00  0.17399797342E+04  0.17399797342E+04  0.00000000000E+00 0. -1.
         -2   -1    0    0    0  501 -0.00000000000E+00 -0.00000000000E+00 -0.38436505225E+01  0.38436505225E+01  0.00000000000E+00 0.  1.
         23    2    1    2    0    0  0.69139953264E+01 -0.31650385456E+02  0.16225832762E+04  0.16257395572E+04  0.95932629947E+02 0.  0.
         11    1    3    3    0    0 -0.40105683770E+02  0.24323295550E+01  0.47877348066E+03  0.48045647865E+03  0.00000000000E+00 0.  1.
        -11    1    3    3    0    0  0.47019679097E+02 -0.34082715011E+02  0.11438097955E+04  0.11452830785E+04  0.00000000000E+00 0. -1.
         22    1    1    2    0    0 -0.69139953264E+01  0.31650385456E+02  0.11355280751E+03  0.11808382753E+03  0.00000000000E+00 0.  1.
<mgrwt>
<rscale>  0 0.76153255E+02</rscale>
<asrwt>0</asrwt>
<pdfrwt beam="1">  1        2 0.26768856E+00 0.10125522E+03</pdfrwt>
<pdfrwt beam="2">  1       -2 0.59133224E-03 0.10125522E+03</pdfrwt>
<totfact> 0.43350408E+04</totfact>
</mgrwt>
</event>
<event>
 6    1  0.2975432E-002  0.1019471E+03  0.7546771E-02  0.1321257E+00
         -2   -1    0    0    0  501 -0.00000000000E+00  0.00000000000E+00  0.12581937402E+02  0.12581937402E+02  0.00000000000E+00 0.  1.
          2   -1    0    0  501    0  0.00000000000E+00 -0.00000000000E+00 -0.45922039812E+03  0.45922039812E+03  0.00000000000E+00 0. -1.
         23    2    1    2    0    0  0.38051148890E+02 -0.22849990549E+02 -0.36389956168E+03  0.37791017709E+03  0.91777987347E+02 0.  0.
         11    1    3    3    0    0  0.27731418479E+02 -0.32387354744E+02 -0.36106670465E+03  0.36357549082E+03  0.00000000000E+00 0. -1.
        -11    1    3    3    0    0  0.10319730411E+02  0.95373641947E+01 -0.28328570246E+01  0.14334686270E+02  0.00000000000E+00 0.  1.
         22    1    1    2    0    0 -0.38051148890E+02  0.22849990549E+02 -0.82738899037E+02  0.93892158425E+02  0.00000000000E+00 0.  1.
<mgrwt>
<rscale>  0 0.82811331E+02</rscale>
<asrwt>0</asrwt>
<pdfrwt beam="1">  1        2 0.70649285E-01 0.10194710E+03</pdfrwt>
<pdfrwt beam="2">  1       -2 0.19356829E-02 0.10194710E+03</pdfrwt>
<totfact> 0.49719205E+04</totfact>
</mgrwt>
</event>
<event>
 6    1  0.2975432E-002  0.9315898E+02  0.7546771E-02  0.1381620E+00
         -2   -1    0    0    0  501 -0.00000000000E+00  0.00000000000E+00  0.13112898672E+03  0.13112898672E+03  0.00000000000E+00 0.  1.
          2   -1    0    0  501    0  0.00000000000E+00 -0.00000000000E+00 -0.25165174216E+02  0.25165174216E+02  0.00000000000E+00 0. -1.
         23    2    1    2    0    0  0.17915153689E+02  0.10574390185E+02  0.78383979387E+02  0.12174828341E+03  0.90806529656E+02 0.  0.
         11    1    3    3    0    0 -0.14243447045E+02  0.23265076434E+02  0.82536569075E+02  0.86927698692E+02  0.00000000000E+00 0.  1.
        -11    1    3    3    0    0  0.32158600734E+02 -0.12690686249E+02 -0.41525896888E+01  0.34820584713E+02  0.00000000000E+00 0. -1.
         22    1    1    2    0    0 -0.17915153689E+02 -0.10574390185E+02  0.27579833113E+02  0.34545877526E+02  0.00000000000E+00 0.  1.
<mgrwt>
<rscale>  0 0.64039917E+02</rscale>
<asrwt>0</asrwt>
<pdfrwt beam="1">  1        2 0.38715653E-02 0.93158984E+02</pdfrwt>
<pdfrwt beam="2">  1       -2 0.20173690E-01 0.93158984E+02</pdfrwt>
<totfact> 0.39786681E+04</totfact>
</mgrwt>
</event>
<event>
 6    1  0.2975432E-002  0.9272689E+02  0.7546771E-02  0.1410893E+00
          1   -1    0    0  501    0  0.00000000000E+00  0.00000000000E+00  0.15649058777E+03  0.15649058777E+03  0.00000000000E+00 0. -1.
         -1   -1    0    0    0  501 -0.00000000000E+00 -0.00000000000E+00 -0.19181951271E+02  0.19181951271E+02  0.00000000000E+00 0.  1.
         23    2    1    2    0    0 -0.11305273295E+02  0.68821414423E+01  0.13221658693E+03  0.16149149381E+03  0.91777468029E+02 0.  0.
         13    1    3    3    0    0 -0.20092725986E+02  0.16573947226E+02 -0.24771655675E+01  0.26163900960E+02  0.00000000000E+00 0.  1.
        -13    1    3    3    0    0  0.87874526907E+01 -0.96918057842E+01  0.13469375250E+03  0.13532759285E+03  0.00000000000E+00 0. -1.
         22    1    1    2    0    0  0.11305273295E+02 -0.68821414423E+01  0.50920495712E+01  0.14181045234E+02  0.00000000000E+00 0.  1.
<mgrwt>
<rscale>  0 0.56995124E+02</rscale>
<asrwt>0</asrwt>
<pdfrwt beam="1">  1        1 0.24075474E-01 0.92726893E+02</pdfrwt>
<pdfrwt beam="2">  1       -1 0.29510695E-02 0.92726893E+02</pdfrwt>
<totfact> 0.66879212E+04</totfact>
</mgrwt>
</event>
<event>
 6    1  0.2975432E-002  0.9994499E+02  0.7546771E-02  0.1378552E+00
         -2   -1    0    0    0  501 -0.00000000000E+00  0.00000000000E+00  0.36511299391E+02  0.36511299391E+02  0.00000000000E+00 0.  1.
          2   -1    0    0  501    0  0.00000000000E+00 -0.00000000000E+00 -0.16488547939E+03  0.16488547939E+03  0.00000000000E+00 0. -1.
         23    2    1    2    0    0  0.16332424897E+02  0.68510758401E+01 -0.14565777285E+03  0.17664990170E+03  0.98363182316E+02 0.  0.
         13    1    3    3    0    0 -0.27012597409E+02  0.27888682166E+02 -0.11016761895E+03  0.11680908902E+03  0.00000000000E+00 0. -1.
        -13    1    3    3    0    0  0.43345022306E+02 -0.21037606326E+02 -0.35490153900E+02  0.59840812682E+02  0.00000000000E+00 0.  1.
         22    1    1    2    0    0 -0.16332424897E+02 -0.68510758401E+01  0.17283592854E+02  0.24746877078E+02  0.00000000000E+00 0.  1.
<mgrwt>
<rscale>  0 0.64845904E+02</rscale>
<asrwt>0</asrwt>
<pdfrwt beam="1">  1        2 0.25366996E-01 0.99944990E+02</pdfrwt>
<pdfrwt beam="2">  1       -2 0.56171231E-02 0.99944990E+02</pdfrwt>
<totfact> 0.30866108E+04</totfact>
</mgrwt>
</event>
<event>
 6    1  0.2975432E-002  0.9266909E+02  0.7546771E-02  0.1404550E+00
          2   -1    0    0  501    0  0.00000000000E+00  0.00000000000E+00  0.64458806423E+02  0.64458806423E+02  0.00000000000E+00 0. -1.
         -2   -1    0    0    0  501 -0.00000000000E+00 -0.00000000000E+00 -0.46972974633E+02  0.46972974633E+02  0.00000000000E+00 0.  1.
         23    2    1    2    0    0 -0.13501512642E+02 -0.56718432127E+01  0.23496968939E+02  0.95601606740E+02  0.91504639297E+02 0.  0.
         13    1    3    3    0    0 -0.36859777141E+02 -0.24366324097E+02  0.41554932448E+02  0.60656189558E+02  0.00000000000E+00 0. -1.
        -13    1    3    3    0    0  0.23358264499E+02  0.18694480884E+02 -0.18057963509E+02  0.34945417182E+02  0.00000000000E+00 0.  1.
         22    1    1    2    0    0  0.13501512642E+02  0.56718432127E+01 -0.60111371484E+01  0.15830174316E+02  0.00000000000E+00 0.  1.
<mgrwt>
<rscale>  0 0.58427811E+02</rscale>
<asrwt>0</asrwt>
<pdfrwt beam="1">  1        2 0.99167394E-02 0.92669087E+02</pdfrwt>
<pdfrwt beam="2">  1       -2 0.72266115E-02 0.92669087E+02</pdfrwt>
<totfact> 0.61625706E+04</totfact>
</mgrwt>
</event>
<event>
 6    1  0.2975432E-002  0.9746036E+02  0.7546771E-02  0.1356657E+00
          2   -1    0    0  501    0  0.00000000000E+00  0.00000000000E+00  0.70459873130E+01  0.70459873130E+01  0.00000000000E+00 0. -1.
         -2   -1    0    0    0  501 -0.00000000000E+00 -0.00000000000E+00 -0.56186228616E+03  0.56186228616E+03  0.00000000000E+00 0.  1.
         23    2    1    2    0    0 -0.27271495110E+02 -0.33944379613E+01 -0.40239803822E+03  0.41403224942E+03  0.93505431606E+02 0.  0.
         13    1    3    3    0    0  0.84192714449E+01  0.29984921994E+02 -0.28739229779E+03  0.28907492542E+03  0.00000000000E+00 0.  1.
        -13    1    3    3    0    0 -0.35690766555E+02 -0.33379359955E+02 -0.11500574043E+03  0.12495732399E+03  0.00000000000E+00 0. -1.
         22    1    1    2    0    0  0.27271495110E+02  0.33944379613E+01 -0.15241826063E+03  0.15487602406E+03  0.00000000000E+00 0. -1.
<mgrwt>
<rscale>  0 0.71020355E+02</rscale>
<asrwt>0</asrwt>
<pdfrwt beam="1">  1        2 0.10839981E-02 0.97460363E+02</pdfrwt>
<pdfrwt beam="2">  1       -2 0.86440344E-01 0.97460363E+02</pdfrwt>
<totfact> 0.13767148E+04</totfact>
</mgrwt>
</event>
<event>
 6    1  0.2975432E-002  0.9130716E+02  0.7546771E-02  0.1421349E+00
         -1   -1    0    0    0  501 -0.00000000000E+00  0.00000000000E+00  0.96683026407E+02  0.96683026407E+02  0.00000000000E+00 0.  1.
          1   -1    0    0  501    0  0.00000000000E+00 -0.00000000000E+00 -0.28810990273E+02  0.28810990273E+02  0.00000000000E+00 0. -1.
         23    2    1    2    0    0 -0.11170409054E+02  0.37785058062E+01  0.50052789658E+02  0.10412626786E+03  0.90542491471E+02 0.  0.
         11    1    3    3    0    0  0.28223116378E+02 -0.28697801994E+02  0.22416730977E+02  0.46071878246E+02  0.00000000000E+00 0.  1.
        -11    1    3    3    0    0 -0.39393525432E+02  0.32476307800E+02  0.27636058681E+02  0.58054389616E+02  0.00000000000E+00 0. -1.
         22    1    1    2    0    0  0.11170409054E+02 -0.37785058062E+01  0.17819246477E+02  0.21367748818E+02  0.00000000000E+00 0.  1.
<mgrwt>
<rscale>  0 0.54736499E+02</rscale>
<asrwt>0</asrwt>
<pdfrwt beam="1">  1        1 0.44324601E-02 0.91307162E+02</pdfrwt>
<pdfrwt beam="2">  1       -1 0.14874312E-01 0.91307162E+02</pdfrwt>
<totfact> 0.54966470E+04</totfact>
</mgrwt>
</event>
<event>
 6    1  0.2975432E-002  0.8768331E+02  0.7546771E-02  0.1439382E+00
          1   -1    0    0  501    0  0.00000000000E+00  0.00000000000E+00  0.94103258594E+03  0.94103258594E+03  0.00000000000E+00 0. -1.
         -1   -1    0    0    0  501 -0.00000000000E+00 -0.00000000000E+00 -0.34942158111E+01  0.34942158111E+01  0.00000000000E+00 0.  1.
         23    2    1    2    0    0 -0.31016107410E+01  0.96451981688E+01  0.92076806465E+03  0.92493361460E+03  0.87095997027E+02 0.  0.
         13    1    3    3    0    0 -0.27926309021E+02  0.11730937792E+02  0.11952508072E+03  0.12330344098E+03  0.00000000000E+00 0.  1.
        -13    1    3    3    0    0  0.24824698280E+02 -0.20857396237E+01  0.80124298393E+03  0.80163017362E+03  0.00000000000E+00 0. -1.
         22    1    1    2    0    0  0.31016107410E+01 -0.96451981688E+01  0.16770305472E+02  0.19593187146E+02  0.00000000000E+00 0.  1.
<mgrwt>
<rscale>  0 0.51121958E+02</rscale>
<asrwt>0</asrwt>
<pdfrwt beam="1">  1        1 0.14477404E+00 0.87683308E+02</pdfrwt>
<pdfrwt beam="2">  1       -1 0.53757241E-03 0.87683308E+02</pdfrwt>
<totfact> 0.72352400E+04</totfact>
</mgrwt>
</event>
<event>
 6    1  0.2975432E-002  0.1230058E+03  0.7546771E-02  0.1259888E+00
          2   -1    0    0  501    0  0.00000000000E+00  0.00000000000E+00  0.34052163242E+03  0.34052163242E+03  0.00000000000E+00 0. -1.
         -2   -1    0    0    0  501 -0.00000000000E+00 -0.00000000000E+00 -0.36599089345E+02  0.36599089345E+02  0.00000000000E+00 0.  1.
         23    2    1    2    0    0 -0.77899462553E+02 -0.16979666917E+02  0.25620610747E+03  0.28420412701E+03  0.93668462932E+02 0.  0.
         11    1    3    3    0    0 -0.91096858619E+02 -0.24318048397E+02  0.25117308269E+03  0.26828701533E+03  0.00000000000E+00 0. -1.
        -11    1    3    3    0    0  0.13197396066E+02  0.73383814800E+01  0.50330247827E+01  0.15917111677E+02  0.00000000000E+00 0.  1.
         22    1    1    2    0    0  0.77899462553E+02  0.16979666917E+02  0.47716435607E+02  0.92916594760E+02  0.00000000000E+00 0.  1.
<mgrwt>
<rscale>  0 0.11036910E+03</rscale>
<asrwt>0</asrwt>
<pdfrwt beam="1">  1        2 0.52387941E-01 0.12300576E+03</pdfrwt>
<pdfrwt beam="2">  1       -2 0.56306294E-02 0.12300576E+03</pdfrwt>
<totfact> 0.14505920E+04</totfact>
</mgrwt>
</event>
<event>
 6    1  0.2975432E-002  0.8527170E+02  0.7546771E-02  0.1418811E+00
         -2   -1    0    0    0  501 -0.00000000000E+00  0.00000000000E+00  0.45729628862E+01  0.45729628862E+01  0.00000000000E+00 0.  1.
          2   -1    0    0  501    0  0.00000000000E+00 -0.00000000000E+00 -0.58166915358E+03  0.58166915358E+03  0.00000000000E+00 0. -1.
         23    2    1    2    0    0 -0.51017649261E+00 -0.15045207584E+02 -0.52949443123E+03  0.53631671155E+03  0.83932376592E+02 0.  0.
         13    1    3    3    0    0 -0.36892730761E+02 -0.18629053186E+02 -0.16929587785E+03  0.17426763745E+03  0.00000000000E+00 0.  1.
        -13    1    3    3    0    0  0.36382554268E+02  0.35838456017E+01 -0.36019855337E+03  0.36204907410E+03  0.00000000000E+00 0. -1.
         22    1    1    2    0    0  0.51017649261E+00  0.15045207584E+02 -0.47601759464E+02  0.49925404910E+02  0.00000000000E+00 0.  1.
<mgrwt>
<rscale>  0 0.55273328E+02</rscale>
<asrwt>0</asrwt>
<pdfrwt beam="1">  1        2 0.89487595E-01 0.85271697E+02</pdfrwt>
<pdfrwt beam="2">  1       -2 0.70353249E-03 0.85271697E+02</pdfrwt>
<totfact> 0.15798069E+05</totfact>
</mgrwt>
</event>
<event>
 6    1  0.2975432E-002  0.9811453E+02  0.7546771E-02  0.1341944E+00
         -2   -1    0    0    0  501 -0.00000000000E+00  0.00000000000E+00  0.84139457666E+01  0.84139457666E+01  0.00000000000E+00 0.  1.
          2   -1    0    0  501    0  0.00000000000E+00 -0.00000000000E+00 -0.61382804266E+03  0.61382804266E+03  0.00000000000E+00 0. -1.
         23    2    1    2    0    0  0.27535540463E+02  0.21004625115E+02 -0.53321094363E+03  0.54216268020E+03  0.91799025762E+02 0.  0.
         11    1    3    3    0    0  0.32311101725E+02 -0.13425472348E+02 -0.76398117895E+02  0.84029298583E+02  0.00000000000E+00 0.  1.
        -11    1    3    3    0    0 -0.47755612615E+01  0.34430097463E+02 -0.45681282573E+03  0.45813338162E+03  0.00000000000E+00 0. -1.
         22    1    1    2    0    0 -0.27535540463E+02 -0.21004625115E+02 -0.72203153269E+02  0.80079308232E+02  0.00000000000E+00 0.  1.
<mgrwt>
<rscale>  0 0.75625894E+02</rscale>
<asrwt>0</asrwt>
<pdfrwt beam="1">  1        2 0.94435078E-01 0.98114532E+02</pdfrwt>
<pdfrwt beam="2">  1       -2 0.12944533E-02 0.98114532E+02</pdfrwt>
<totfact> 0.64037477E+04</totfact>
</mgrwt>
</event>
<event>
 6    1  0.2975432E-002  0.9278563E+02  0.7546771E-02  0.1394840E+00
         -2   -1    0    0    0  501 -0.00000000000E+00  0.00000000000E+00  0.18435316729E+02  0.18435316729E+02  0.00000000000E+00 0.  1.
          2   -1    0    0  501    0  0.00000000000E+00 -0.00000000000E+00 -0.30361906900E+03  0.30361906900E+03  0.00000000000E+00 0. -1.
         23    2    1    2    0    0  0.11191195176E+02 -0.12817703214E+02 -0.28990864217E+03  0.30439480052E+03  0.91212046418E+02 0.  0.
         11    1    3    3    0    0  0.17702132055E+02  0.86145131190E+01 -0.27861445602E+03  0.27930913057E+03  0.00000000000E+00 0. -1.
        -11    1    3    3    0    0 -0.65109368789E+01 -0.21432216333E+02 -0.11294186150E+02  0.25085669949E+02  0.00000000000E+00 0.  1.
         22    1    1    2    0    0 -0.11191195176E+02  0.12817703214E+02  0.47248899031E+01  0.17659585209E+02  0.00000000000E+00 0.  1.
<mgrwt>
<rscale>  0 0.60718837E+02</rscale>
<asrwt>0</asrwt>
<pdfrwt beam="1">  1        2 0.46710625E-01 0.92785633E+02</pdfrwt>
<pdfrwt beam="2">  1       -2 0.28362027E-02 0.92785633E+02</pdfrwt>
<totfact> 0.43763474E+04</totfact>
</mgrwt>
</event>
<event>
 6    1  0.2975432E-002  0.8680246E+02  0.7546771E-02  0.1404017E+00
         -2   -1    0    0    0  501 -0.00000000000E+00  0.00000000000E+00  0.27075986267E+02  0.27075986267E+02  0.00000000000E+00 0. -1.
          2   -1    0    0  501    0  0.00000000000E+00 -0.00000000000E+00 -0.10285154028E+03  0.10285154028E+03  0.00000000000E+00 0.  1.
         23    2    1    2    0    0  0.13941768482E+02 -0.11336534060E+02 -0.68358587993E+02  0.11048784296E+03  0.84922181890E+02 0.  0.
         11    1    3    3    0    0  0.31019283171E+02 -0.11151886866E+02 -0.82162553232E+02  0.88528219584E+02  0.00000000000E+00 0.  1.
        -11    1    3    3    0    0 -0.17077514689E+02 -0.18464719415E+00  0.13803965240E+02  0.21959623377E+02  0.00000000000E+00 0. -1.
         22    1    1    2    0    0 -0.13941768482E+02  0.11336534060E+02 -0.74169660181E+01  0.19439683583E+02  0.00000000000E+00 0. -1.
<mgrwt>
<rscale>  0 0.58550530E+02</rscale>
<asrwt>0</asrwt>
<pdfrwt beam="1">  1        2 0.15823314E-01 0.86802459E+02</pdfrwt>
<pdfrwt beam="2">  1       -2 0.41655364E-02 0.86802459E+02</pdfrwt>
<totfact> 0.80011264E+04</totfact>
</mgrwt>
</event>
<event>
 6    1  0.2975432E-002  0.9402547E+02  0.7546771E-02  0.1417287E+00
          2   -1    0    0  501    0  0.00000000000E+00  0.00000000000E+00  0.74995904758E+03  0.74995904758E+03  0.00000000000E+00 0. -1.
         -2   -1    0    0    0  501 -0.00000000000E+00 -0.00000000000E+00 -0.42839505950E+01  0.42839505950E+01  0.00000000000E+00 0.  1.
         23    2    1    2    0    0 -0.77352807619E+00  0.11469499561E+02  0.71997999414E+03  0.72609364514E+03  0.93320103897E+02 0.  0.
         11    1    3    3    0    0  0.27643132911E+02 -0.14992600366E+02  0.57930843015E+03  0.58016133799E+03  0.00000000000E+00 0. -1.
        -11    1    3    3    0    0 -0.28416660987E+02  0.26462099926E+02  0.14067156399E+03  0.14593230715E+03  0.00000000000E+00 0.  1.
         22    1    1    2    0    0  0.77352807619E+00 -0.11469499561E+02  0.25695102851E+02  0.28149353037E+02  0.00000000000E+00 0.  1.
<mgrwt>
<rscale>  0 0.55598954E+02</rscale>
<asrwt>0</asrwt>
<pdfrwt beam="1">  1        2 0.11537821E+00 0.94025473E+02</pdfrwt>
<pdfrwt beam="2">  1       -2 0.65906992E-03 0.94025473E+02</pdfrwt>
<totfact> 0.13127414E+05</totfact>
</mgrwt>
</event>
<event>
 6    1  0.2975432E-002  0.9481320E+02  0.7546771E-02  0.1404333E+00
         -2   -1    0    0    0  501 -0.00000000000E+00  0.00000000000E+00  0.13844459482E+03  0.13844459482E+03  0.00000000000E+00 0.  1.
          2   -1    0    0  501    0  0.00000000000E+00 -0.00000000000E+00 -0.21288077794E+02  0.21288077794E+02  0.00000000000E+00 0. -1.
         23    2    1    2    0    0 -0.18942647894E+01 -0.13588689847E+02  0.10081142665E+03  0.13839250602E+03  0.93815250616E+02 0.  0.
         11    1    3    3    0    0  0.36062907457E+02 -0.69545957219E+01  0.75652104037E+01  0.37498428026E+02  0.00000000000E+00 0. -1.
        -11    1    3    3    0    0 -0.37957172247E+02 -0.66340941253E+01  0.93246216249E+02  0.10089407800E+03  0.00000000000E+00 0.  1.
         22    1    1    2    0    0  0.18942647894E+01  0.13588689847E+02  0.16345090371E+02  0.21340166590E+02  0.00000000000E+00 0. -1.
<mgrwt>
<rscale>  0 0.58477768E+02</rscale>
<asrwt>0</asrwt>
<pdfrwt beam="1">  1        2 0.32750890E-02 0.94813195E+02</pdfrwt>
<pdfrwt beam="2">  1       -2 0.21299168E-01 0.94813195E+02</pdfrwt>
<totfact> 0.45377170E+04</totfact>
</mgrwt>
</event>
<event>
 6    1  0.2975432E-002  0.9954154E+02  0.7546771E-02  0.1348207E+00
         -2   -1    0    0    0  501 -0.00000000000E+00  0.00000000000E+00  0.14663007401E+03  0.14663007401E+03  0.00000000000E+00 0. -1.
          2   -1    0    0  501    0  0.00000000000E+00 -0.00000000000E+00 -0.36229616485E+02  0.36229616485E+02  0.00000000000E+00 0.  1.
         23    2    1    2    0    0 -0.15494962894E+02 -0.25430127207E+02  0.41587701628E+02  0.10787982240E+03  0.94982808498E+02 0.  0.
         13    1    3    3    0    0  0.22554987085E+02  0.24735136822E+02  0.20612351233E+01  0.33538084713E+02  0.00000000000E+00 0.  1.
        -13    1    3    3    0    0 -0.38049949979E+02 -0.50165264029E+02  0.39526466504E+02  0.74341737690E+02  0.00000000000E+00 0. -1.
         22    1    1    2    0    0  0.15494962894E+02  0.25430127207E+02  0.68812755900E+02  0.74979868094E+02  0.00000000000E+00 0. -1.
<mgrwt>
<rscale>  0 0.73617419E+02</rscale>
<asrwt>0</asrwt>
<pdfrwt beam="1">  1        2 0.55737872E-02 0.99541545E+02</pdfrwt>
<pdfrwt beam="2">  1       -2 0.22558473E-01 0.99541545E+02</pdfrwt>
<totfact> 0.20691984E+04</totfact>
</mgrwt>
</event>
<event>
 6    1  0.2975432E-002  0.9310858E+02  0.7546771E-02  0.1407096E+00
          2   -1    0    0  501    0  0.00000000000E+00  0.00000000000E+00  0.40155147651E+02  0.40155147651E+02  0.00000000000E+00 0. -1.
         -2   -1    0    0    0  501 -0.00000000000E+00 -0.00000000000E+00 -0.72261052087E+02  0.72261052087E+02  0.00000000000E+00 0.  1.
         23    2    1    2    0    0  0.13643053946E+02  0.25122705883E+01 -0.32271835744E+02  0.98542773424E+02  0.92069334674E+02 0.  0.
         13    1    3    3    0    0  0.47565075501E+02  0.23669143160E+02 -0.18204580051E+02  0.56161120717E+02  0.00000000000E+00 0. -1.
        -13    1    3    3    0    0 -0.33922021556E+02 -0.21156872572E+02 -0.14067255693E+02  0.42381652707E+02  0.00000000000E+00 0.  1.
         22    1    1    2    0    0 -0.13643053946E+02 -0.25122705883E+01  0.16593130777E+00  0.13873426313E+02  0.00000000000E+00 0.  1.
<mgrwt>
<rscale>  0 0.57846945E+02</rscale>
<asrwt>0</asrwt>
<pdfrwt beam="1">  1        2 0.61777151E-02 0.93108575E+02</pdfrwt>
<pdfrwt beam="2">  1       -2 0.11117085E-01 0.93108575E+02</pdfrwt>
<totfact> 0.57132751E+04</totfact>
</mgrwt>
</event>
<event>
 6    1  0.2975432E-002  0.9314616E+02  0.7546771E-02  0.1383073E+00
         -2   -1    0    0    0  501 -0.00000000000E+00  0.00000000000E+00  0.21391184329E+01  0.21391184329E+01  0.00000000000E+00 0.  1.
          2   -1    0    0  501    0  0.00000000000E+00 -0.00000000000E+00 -0.29473594137E+04  0.29473594137E+04  0.00000000000E+00 0. -1.
         23    2    1    2    0    0  0.96579804758E+01  0.17884815873E+02 -0.28719797097E+04  0.28734898050E+04  0.90901393353E+02 0.  0.
         13    1    3    3    0    0  0.27846481849E+01 -0.19849352762E-01 -0.27508333444E+04  0.27508347539E+04  0.00000000000E+00 0. -1.
        -13    1    3    3    0    0  0.68733322910E+01  0.17904665226E+02 -0.12114636532E+03  0.12265505111E+03  0.00000000000E+00 0.  1.
         22    1    1    2    0    0 -0.96579804758E+01 -0.17884815873E+02 -0.73240585621E+02  0.76008727182E+02  0.00000000000E+00 0.  1.
<mgrwt>
<rscale>  0 0.63662881E+02</rscale>
<asrwt>0</asrwt>
<pdfrwt beam="1">  1        2 0.45344298E+00 0.93146157E+02</pdfrwt>
<pdfrwt beam="2">  1       -2 0.32909292E-03 0.93146157E+02</pdfrwt>
<totfact> 0.22926008E+04</totfact>
</mgrwt>
</event>
<event>
 6    1  0.2975432E-002  0.9412489E+02  0.7546771E-02  0.1412651E+00
          2   -1    0    0  501    0  0.00000000000E+00  0.00000000000E+00  0.88730747373E+03  0.88730747373E+03  0.00000000000E+00 0. -1.
         -2   -1    0    0    0  501 -0.00000000000E+00 -0.00000000000E+00 -0.64236990142E+01  0.64236990142E+01  0.00000000000E+00 0.  1.
         23    2    1    2    0    0 -0.11812334069E+02  0.34743407818E+01  0.87506526951E+03  0.88011290255E+03  0.93316092208E+02 0.  0.
         13    1    3    3    0    0 -0.45650904367E+02  0.22891966093E+02  0.61768238042E+03  0.61978994044E+03  0.00000000000E+00 0. -1.
        -13    1    3    3    0    0  0.33838570298E+02 -0.19417625311E+02  0.25738288908E+03  0.26032296212E+03  0.00000000000E+00 0.  1.
         22    1    1    2    0    0  0.11812334069E+02 -0.34743407818E+01  0.58185052041E+01  0.13618270185E+02  0.00000000000E+00 0.  1.
<mgrwt>
<rscale>  0 0.56606537E+02</rscale>
<asrwt>0</asrwt>
<pdfrwt beam="1">  1        2 0.13650874E+00 0.94124892E+02</pdfrwt>
<pdfrwt beam="2">  1       -2 0.98826209E-03 0.94124892E+02</pdfrwt>
<totfact> 0.60213829E+04</totfact>
</mgrwt>
</event>
<event>
 6    1  0.2975432E-002  0.8889529E+02  0.7546771E-02  0.1398801E+00
          2   -1    0    0  501    0  0.00000000000E+00  0.00000000000E+00  0.52643481985E+03  0.52643481985E+03  0.00000000000E+00 0.  1.
         -2   -1    0    0    0  501 -0.00000000000E+00 -0.00000000000E+00 -0.66716413981E+01  0.66716413981E+01  0.00000000000E+00 0. -1.
         23    2    1    2    0    0  0.23249399192E+00  0.18165677231E+02  0.49173428575E+03  0.49970489379E+03  0.87019119800E+02 0.  0.
         11    1    3    3    0    0  0.14569712138E+02 -0.27837190484E+02  0.31355199502E+03  0.31512226082E+03  0.00000000000E+00 0.  1.
        -11    1    3    3    0    0 -0.14337218146E+02  0.46002867715E+02  0.17818229073E+03  0.18458263296E+03  0.00000000000E+00 0. -1.
         22    1    1    2    0    0 -0.23249399192E+00 -0.18165677231E+02  0.28028892703E+02  0.33401567461E+02  0.00000000000E+00 0. -1.
<mgrwt>
<rscale>  0 0.59769671E+02</rscale>
<asrwt>0</asrwt>
<pdfrwt beam="1">  1        2 0.80989939E-01 0.88895293E+02</pdfrwt>
<pdfrwt beam="2">  1       -2 0.10264068E-02 0.88895293E+02</pdfrwt>
<totfact> 0.10414018E+05</totfact>
</mgrwt>
</event>
<event>
 6    1  0.2975432E-002  0.9874945E+02  0.7546771E-02  0.1343129E+00
         -2   -1    0    0    0  501 -0.00000000000E+00  0.00000000000E+00  0.10530968066E+03  0.10530968066E+03  0.00000000000E+00 0.  1.
          2   -1    0    0  501    0  0.00000000000E+00 -0.00000000000E+00 -0.43711961750E+02  0.43711961750E+02  0.00000000000E+00 0. -1.
         23    2    1    2    0    0  0.30000301470E+02  0.14407738796E+02  0.60323121806E+02  0.11571660341E+03  0.92972319828E+02 0.  0.
         13    1    3    3    0    0  0.23432119743E+02  0.21688107262E+02  0.84121691435E+02  0.89977203792E+02  0.00000000000E+00 0.  1.
        -13    1    3    3    0    0  0.65681817265E+01 -0.72803684665E+01 -0.23798569629E+02  0.25739399616E+02  0.00000000000E+00 0. -1.
         22    1    1    2    0    0 -0.30000301470E+02 -0.14407738796E+02  0.12745971075E+01  0.33305039007E+02  0.00000000000E+00 0.  1.
<mgrwt>
<rscale>  0 0.75240024E+02</rscale>
<asrwt>0</asrwt>
<pdfrwt beam="1">  1        2 0.67249172E-02 0.98749447E+02</pdfrwt>
<pdfrwt beam="2">  1       -2 0.16201489E-01 0.98749447E+02</pdfrwt>
<totfact> 0.28292162E+04</totfact>
</mgrwt>
</event>
<event>
 6    1  0.2975432E-002  0.8467711E+02  0.7546771E-02  0.1437395E+00
          2   -1    0    0  501    0  0.00000000000E+00  0.00000000000E+00  0.82439830408E+03  0.82439830408E+03  0.00000000000E+00 0. -1.
         -2   -1    0    0    0  501 -0.00000000000E+00 -0.00000000000E+00 -0.29202732331E+01  0.29202732331E+01  0.00000000000E+00 0.  1.
         23    2    1    2    0    0  0.29334455268E+01  0.11212056525E+02  0.76440318272E+03  0.76907895503E+03  0.83880259976E+02 0.  0.
         13    1    3    3    0    0  0.10359118130E+02 -0.74251738898E+01  0.72258517608E+03  0.72269757245E+03  0.00000000000E+00 0. -1.
        -13    1    3    3    0    0 -0.74256726031E+01  0.18637230415E+02  0.41818006632E+02  0.46381382578E+02  0.00000000000E+00 0.  1.
         22    1    1    2    0    0 -0.29334455268E+01 -0.11212056525E+02  0.57074848128E+02  0.58239622278E+02  0.00000000000E+00 0.  1.
<mgrwt>
<rscale>  0 0.51503912E+02</rscale>
<asrwt>0</asrwt>
<pdfrwt beam="1">  1        2 0.12683032E+00 0.84677112E+02</pdfrwt>
<pdfrwt beam="2">  1       -2 0.44927346E-03 0.84677112E+02</pdfrwt>
<totfact> 0.19717702E+05</totfact>
</mgrwt>
</event>
<event>
 6    1  0.2975432E-002  0.9642233E+02  0.7546771E-02  0.1364834E+00
         -2   -1    0    0    0  501 -0.00000000000E+00  0.00000000000E+00  0.10047602875E+02  0.10047602875E+02  0.00000000000E+00 0.  1.
          2   -1    0    0  501    0  0.00000000000E+00 -0.00000000000E+00 -0.48706247569E+03  0.48706247569E+03  0.00000000000E+00 0. -1.
         23    2    1    2    0    0  0.23704866962E+02 -0.70786006793E+01 -0.45107087608E+03  0.46126153226E+03  0.93194627499E+02 0.  0.
         13    1    3    3    0    0 -0.80399750839E+01 -0.45101391605E+02 -0.25128692030E+03  0.25542884144E+03  0.00000000000E+00 0. -1.
        -13    1    3    3    0    0  0.31744842046E+02  0.38022790926E+02 -0.19978395577E+03  0.20583269082E+03  0.00000000000E+00 0.  1.
         22    1    1    2    0    0 -0.23704866962E+02  0.70786006793E+01 -0.25943996735E+02  0.35848546300E+02  0.00000000000E+00 0. -1.
<mgrwt>
<rscale>  0 0.68624559E+02</rscale>
<asrwt>0</asrwt>
<pdfrwt beam="1">  1        2 0.74932701E-01 0.96422331E+02</pdfrwt>
<pdfrwt beam="2">  1       -2 0.15457848E-02 0.96422331E+02</pdfrwt>
<totfact> 0.63992965E+04</totfact>
</mgrwt>
</event>
<event>
 6    1  0.2975432E-002  0.9233255E+02  0.7546771E-02  0.1421936E+00
         -2   -1    0    0    0  501 -0.00000000000E+00  0.00000000000E+00  0.96094998503E+01  0.96094998503E+01  0.00000000000E+00 0.  1.
          2   -1    0    0  501    0  0.00000000000E+00 -0.00000000000E+00 -0.31005362158E+03  0.31005362158E+03  0.00000000000E+00 0. -1.
         23    2    1    2    0    0  0.68985400475E+01 -0.89515506132E+01 -0.28974329171E+03  0.30409944975E+03  0.91638311485E+02 0.  0.
         11    1    3    3    0    0  0.39497860334E+02  0.23489371956E+02 -0.13090265414E+03  0.13873477007E+03  0.00000000000E+00 0. -1.
        -11    1    3    3    0    0 -0.32599320287E+02 -0.32440922569E+02 -0.15884063758E+03  0.16536467968E+03  0.00000000000E+00 0.  1.
         22    1    1    2    0    0 -0.68985400475E+01  0.89515506132E+01 -0.10700830018E+02  0.15563671683E+02  0.00000000000E+00 0.  1.
<mgrwt>
<rscale>  0 0.54613316E+02</rscale>
<asrwt>0</asrwt>
<pdfrwt beam="1">  1        2 0.47700557E-01 0.92332552E+02</pdfrwt>
<pdfrwt beam="2">  1       -2 0.14783846E-02 0.92332552E+02</pdfrwt>
<totfact> 0.10921966E+05</totfact>
</mgrwt>
</event>
<event>
 6    1  0.2975432E-002  0.8516789E+02  0.7546771E-02  0.1420242E+00
          2   -1    0    0  501    0  0.00000000000E+00  0.00000000000E+00  0.17245565850E+03  0.17245565850E+03  0.00000000000E+00 0.  1.
         -2   -1    0    0    0  501 -0.00000000000E+00 -0.00000000000E+00 -0.17716916315E+02  0.17716916315E+02  0.00000000000E+00 0. -1.
         23    2    1    2    0    0 -0.13268531290E+02 -0.65104386494E+01  0.15324003468E+03  0.17531707556E+03  0.83875675969E+02 0.  0.
         11    1    3    3    0    0 -0.34036683396E+02 -0.24570195300E+02  0.37302265207E+02  0.56157361969E+02  0.00000000000E+00 0. -1.
        -11    1    3    3    0    0  0.20768152106E+02  0.18059756651E+02  0.11593776947E+03  0.11915971359E+03  0.00000000000E+00 0.  1.
         22    1    1    2    0    0  0.13268531290E+02  0.65104386494E+01  0.14987075044E+01  0.14855499258E+02  0.00000000000E+00 0. -1.
<mgrwt>
<rscale>  0 0.54969698E+02</rscale>
<asrwt>0</asrwt>
<pdfrwt beam="1">  1        2 0.26531639E-01 0.85167886E+02</pdfrwt>
<pdfrwt beam="2">  1       -2 0.27256795E-02 0.85167886E+02</pdfrwt>
<totfact> 0.83326261E+04</totfact>
</mgrwt>
</event>
<event>
 6    1  0.2975432E-002  0.9483930E+02  0.7546771E-02  0.1420837E+00
         -2   -1    0    0    0  501 -0.00000000000E+00  0.00000000000E+00  0.27563095094E+01  0.27563095094E+01  0.00000000000E+00 0.  1.
          2   -1    0    0  501    0  0.00000000000E+00 -0.00000000000E+00 -0.13722762182E+04  0.13722762182E+04  0.00000000000E+00 0. -1.
         23    2    1    2    0    0 -0.51306878872E+01 -0.92825563636E+01 -0.13447152039E+04  0.13480554413E+04  0.94244381391E+02 0.  0.
         11    1    3    3    0    0 -0.14927964806E+01  0.37953359696E+02 -0.90473444026E+03  0.90553138727E+03  0.00000000000E+00 0. -1.
        -11    1    3    3    0    0 -0.36378914066E+01 -0.47235916060E+02 -0.43998076368E+03  0.44252405407E+03  0.00000000000E+00 0.  1.
         22    1    1    2    0    0  0.51306878872E+01  0.92825563636E+01 -0.24804704737E+02  0.26977086350E+02  0.00000000000E+00 0.  1.
<mgrwt>
<rscale>  0 0.54844163E+02</rscale>
<asrwt>0</asrwt>
<pdfrwt beam="1">  1        2 0.21111899E+00 0.94839302E+02</pdfrwt>
<pdfrwt beam="2">  1       -2 0.42404847E-03 0.94839302E+02</pdfrwt>
<totfact> 0.10587027E+05</totfact>
</mgrwt>
</event>
<event>
 6    1  0.2975432E-002  0.9419164E+02  0.7546771E-02  0.1388477E+00
         -2   -1    0    0    0  501 -0.00000000000E+00  0.00000000000E+00  0.98459330348E+01  0.98459330348E+01  0.00000000000E+00 0.  1.
          2   -1    0    0  501    0  0.00000000000E+00 -0.00000000000E+00 -0.41622382196E+03  0.41622382196E+03  0.00000000000E+00 0. -1.
         23    2    1    2    0    0  0.14564700721E+02  0.10596664557E+02 -0.39160846588E+03  0.40277693070E+03  0.92453477725E+02 0.  0.
         11    1    3    3    0    0 -0.21551807420E+02  0.42394284335E+01 -0.33244583016E+03  0.33317065169E+03  0.00000000000E+00 0. -1.
        -11    1    3    3    0    0  0.36116508142E+02  0.63572361236E+01 -0.59162635720E+02  0.69606279005E+02  0.00000000000E+00 0.  1.
         22    1    1    2    0    0 -0.14564700721E+02 -0.10596664557E+02 -0.14769423046E+02  0.23292824302E+02  0.00000000000E+00 0.  1.
<mgrwt>
<rscale>  0 0.62287040E+02</rscale>
<asrwt>0</asrwt>
<pdfrwt beam="1">  1        2 0.64034430E-01 0.94191642E+02</pdfrwt>
<pdfrwt beam="2">  1       -2 0.15147590E-02 0.94191642E+02</pdfrwt>
<totfact> 0.77667430E+04</totfact>
</mgrwt>
</event>
<event>
 6    1  0.2975432E-002  0.9203518E+02  0.7546771E-02  0.1420183E+00
          2   -1    0    0  501    0  0.00000000000E+00  0.00000000000E+00  0.12574144473E+04  0.12574144473E+04  0.00000000000E+00 0. -1.
         -2   -1    0    0    0  501 -0.00000000000E+00 -0.00000000000E+00 -0.24218917282E+01  0.24218917282E+01  0.00000000000E+00 0.  1.
         23    2    1    2    0    0  0.47597954529E+01 -0.10712982350E+02  0.12040500954E+04  0.12075624651E+04  0.91285548262E+02 0.  0.
         11    1    3    3    0    0  0.12604003368E+02  0.39361202016E+02  0.55348063309E+03  0.55502159988E+03  0.00000000000E+00 0.  1.
        -11    1    3    3    0    0 -0.78442079152E+01 -0.50074184366E+02  0.65056946232E+03  0.65254086527E+03  0.00000000000E+00 0. -1.
         22    1    1    2    0    0 -0.47597954529E+01  0.10712982350E+02  0.50942460138E+02  0.52273873861E+02  0.00000000000E+00 0.  1.
<mgrwt>
<rscale>  0 0.54982324E+02</rscale>
<asrwt>0</asrwt>
<pdfrwt beam="1">  1        2 0.19344785E+00 0.92035183E+02</pdfrwt>
<pdfrwt beam="2">  1       -2 0.37259973E-03 0.92035183E+02</pdfrwt>
<totfact> 0.14532412E+05</totfact>
</mgrwt>
</event>
<event>
 6    1  0.2975432E-002  0.6308636E+02  0.7546771E-02  0.1499984E+00
          2   -1    0    0  501    0  0.00000000000E+00  0.00000000000E+00  0.69218797852E+03  0.69218797852E+03  0.00000000000E+00 0.  1.
         -2   -1    0    0    0  501 -0.00000000000E+00 -0.00000000000E+00 -0.26629880769E+01  0.26629880769E+01  0.00000000000E+00 0. -1.
         23    2    1    2    0    0 -0.10182939433E+02 -0.51460662785E+01  0.66275845601E+03  0.66575420356E+03  0.62046065887E+02 0.  0.
         11    1    3    3    0    0 -0.21673531416E+02  0.21597096156E+02  0.23128599522E+03  0.23330106753E+03  0.00000000000E+00 0. -1.
        -11    1    3    3    0    0  0.11490591983E+02 -0.26743162435E+02  0.43147246078E+03  0.43245313602E+03  0.00000000000E+00 0.  1.
         22    1    1    2    0    0  0.10182939433E+02  0.51460662785E+01  0.26766534432E+02  0.29096763035E+02  0.00000000000E+00 0. -1.
<mgrwt>
<rscale>  0 0.41140279E+02</rscale>
<asrwt>0</asrwt>
<pdfrwt beam="1">  1        2 0.10649031E+00 0.63086358E+02</pdfrwt>
<pdfrwt beam="2">  1       -2 0.40969103E-03 0.63086358E+02</pdfrwt>
<totfact> 0.26223528E+05</totfact>
</mgrwt>
</event>
<event>
 6    1  0.2975432E-002  0.9493126E+02  0.7546771E-02  0.1383354E+00
          2   -1    0    0  501    0  0.00000000000E+00  0.00000000000E+00  0.10344083038E+03  0.10344083038E+03  0.00000000000E+00 0. -1.
         -2   -1    0    0    0  501 -0.00000000000E+00 -0.00000000000E+00 -0.31485050568E+02  0.31485050568E+02  0.00000000000E+00 0.  1.
         23    2    1    2    0    0 -0.41875133821E+01 -0.18648979454E+02  0.57823706658E+02  0.11115541199E+03  0.92987229551E+02 0.  0.
         13    1    3    3    0    0 -0.20062706426E+02  0.64218155798E+01  0.74289823030E+02  0.77218713472E+02  0.00000000000E+00 0. -1.
        -13    1    3    3    0    0  0.15875193044E+02 -0.25070795033E+02 -0.16466116372E+02  0.33936698516E+02  0.00000000000E+00 0.  1.
         22    1    1    2    0    0  0.41875133821E+01  0.18648979454E+02  0.14132073157E+02  0.23770468962E+02  0.00000000000E+00 0.  1.
<mgrwt>
<rscale>  0 0.63590330E+02</rscale>
<asrwt>0</asrwt>
<pdfrwt beam="1">  1        2 0.15913974E-01 0.94931262E+02</pdfrwt>
<pdfrwt beam="2">  1       -2 0.48438540E-02 0.94931262E+02</pdfrwt>
<totfact> 0.64445426E+04</totfact>
</mgrwt>
</event>
<event>
 6    1  0.2975432E-002  0.9126765E+02  0.7546771E-02  0.1382376E+00
          2   -1    0    0  501    0  0.00000000000E+00  0.00000000000E+00  0.16018124184E+04  0.16018124184E+04  0.00000000000E+00 0. -1.
         -2   -1    0    0    0  501 -0.00000000000E+00 -0.00000000000E+00 -0.36248817314E+01  0.36248817314E+01  0.00000000000E+00 0.  1.
         23    2    1    2    0    0  0.14587034130E+02 -0.16271663822E+02  0.15481265313E+04  0.15508144765E+04  0.88612836783E+02 0.  0.
         11    1    3    3    0    0  0.25073764283E+02  0.22622040425E+02  0.27717025849E+03  0.27921998954E+03  0.00000000000E+00 0.  1.
        -11    1    3    3    0    0 -0.10486730153E+02 -0.38893704247E+02  0.12709562728E+04  0.12715944869E+04  0.00000000000E+00 0. -1.
         22    1    1    2    0    0 -0.14587034130E+02  0.16271663822E+02  0.50061005344E+02  0.54622823657E+02  0.00000000000E+00 0.  1.
<mgrwt>
<rscale>  0 0.63843228E+02</rscale>
<asrwt>0</asrwt>
<pdfrwt beam="1">  1        2 0.24643211E+00 0.91267647E+02</pdfrwt>
<pdfrwt beam="2">  1       -2 0.55767539E-03 0.91267647E+02</pdfrwt>
<totfact> 0.54761608E+04</totfact>
</mgrwt>
</event>
<event>
 6    1  0.2975432E-002  0.9362350E+02  0.7546771E-02  0.1394632E+00
          1   -1    0    0  501    0  0.00000000000E+00  0.00000000000E+00  0.45506130563E+02  0.45506130563E+02  0.00000000000E+00 0. -1.
         -1   -1    0    0    0  501 -0.00000000000E+00 -0.00000000000E+00 -0.97409227832E+02  0.97409227832E+02  0.00000000000E+00 0.  1.
         23    2    1    2    0    0  0.38911305764E+01 -0.16155970826E+02 -0.56798175312E+01  0.93795628344E+02  0.92136872525E+02 0.  0.
         13    1    3    3    0    0  0.48362578044E+01 -0.25706976165E+02 -0.45691293728E+02  0.52649143732E+02  0.00000000000E+00 0.  1.
        -13    1    3    3    0    0 -0.94512722796E+00  0.95510053386E+01  0.40011476197E+02  0.41146484612E+02  0.00000000000E+00 0. -1.
         22    1    1    2    0    0 -0.38911305764E+01  0.16155970826E+02 -0.46223279738E+02  0.49119730050E+02  0.00000000000E+00 0.  1.
<mgrwt>
<rscale>  0 0.60769130E+02</rscale>
<asrwt>0</asrwt>
<pdfrwt beam="1">  1        1 0.70009432E-02 0.93623499E+02</pdfrwt>
<pdfrwt beam="2">  1       -1 0.14986035E-01 0.93623499E+02</pdfrwt>
<totfact> 0.29469674E+04</totfact>
</mgrwt>
</event>
<event>
 6    1  0.2975432E-002  0.9046986E+02  0.7546771E-02  0.1400164E+00
          2   -1    0    0  501    0  0.00000000000E+00  0.00000000000E+00  0.49046058316E+02  0.49046058316E+02  0.00000000000E+00 0. -1.
         -2   -1    0    0    0  501 -0.00000000000E+00 -0.00000000000E+00 -0.58921841223E+02  0.58921841223E+02  0.00000000000E+00 0.  1.
         23    2    1    2    0    0 -0.13584144722E+02 -0.99979729134E+01 -0.10580104586E+02  0.91086415030E+02  0.88883676453E+02 0.  0.
         13    1    3    3    0    0  0.17243193003E+02  0.29463763190E+02  0.11958506579E+02  0.36172460877E+02  0.00000000000E+00 0. -1.
        -13    1    3    3    0    0 -0.30827337724E+02 -0.39461736104E+02 -0.22538611165E+02  0.54913954153E+02  0.00000000000E+00 0.  1.
         22    1    1    2    0    0  0.13584144722E+02  0.99979729134E+01  0.70432167876E+00  0.16881484509E+02  0.00000000000E+00 0.  1.
<mgrwt>
<rscale>  0 0.59447834E+02</rscale>
<asrwt>0</asrwt>
<pdfrwt beam="1">  1        2 0.75455475E-02 0.90469865E+02</pdfrwt>
<pdfrwt beam="2">  1       -2 0.90648986E-02 0.90469865E+02</pdfrwt>
<totfact> 0.60770235E+04</totfact>
</mgrwt>
</event>
<event>
 6    1  0.2975432E-002  0.9694460E+02  0.7546771E-02  0.1364153E+00
         -2   -1    0    0    0  501 -0.00000000000E+00  0.00000000000E+00  0.22981963939E+01  0.22981963939E+01  0.00000000000E+00 0.  1.
          2   -1    0    0  501    0  0.00000000000E+00 -0.00000000000E+00 -0.21025251486E+04  0.21025251486E+04  0.00000000000E+00 0. -1.
         23    2    1    2    0    0  0.22449910223E+02  0.10105498351E+02 -0.19638928460E+04  0.19662841517E+04  0.93766385519E+02 0.  0.
         11    1    3    3    0    0  0.15075920757E+02 -0.29845354795E+02 -0.15589477990E+04  0.15593063421E+04  0.00000000000E+00 0. -1.
        -11    1    3    3    0    0  0.73739894659E+01  0.39950853147E+02 -0.40494504707E+03  0.40697780964E+03  0.00000000000E+00 0.  1.
         22    1    1    2    0    0 -0.22449910223E+02 -0.10105498351E+02 -0.13633410616E+03  0.13853919326E+03  0.00000000000E+00 0.  1.
<mgrwt>
<rscale>  0 0.68819655E+02</rscale>
<asrwt>0</asrwt>
<pdfrwt beam="1">  1        2 0.32346523E+00 0.96944596E+02</pdfrwt>
<pdfrwt beam="2">  1       -2 0.35356887E-03 0.96944596E+02</pdfrwt>
<totfact> 0.58337612E+04</totfact>
</mgrwt>
</event>
<event>
 6    1  0.2975432E-002  0.9778096E+02  0.7546771E-02  0.1361507E+00
         -2   -1    0    0    0  501 -0.00000000000E+00  0.00000000000E+00  0.15611290962E+02  0.15611290962E+02  0.00000000000E+00 0.  1.
          2   -1    0    0  501    0  0.00000000000E+00 -0.00000000000E+00 -0.26750468155E+03  0.26750468155E+03  0.00000000000E+00 0. -1.
         23    2    1    2    0    0 -0.13799069236E+02  0.20942356274E+02 -0.22962351657E+03  0.24957578935E+03  0.94509886610E+02 0.  0.
         13    1    3    3    0    0 -0.50413022034E+02  0.30887449164E+02 -0.12476896301E+03  0.13806810435E+03  0.00000000000E+00 0. -1.
        -13    1    3    3    0    0  0.36613952798E+02 -0.99450928901E+01 -0.10485455356E+03  0.11150768500E+03  0.00000000000E+00 0.  1.
         22    1    1    2    0    0  0.13799069236E+02 -0.20942356274E+02 -0.22269874017E+02  0.33540183166E+02  0.00000000000E+00 0.  1.
<mgrwt>
<rscale>  0 0.69585979E+02</rscale>
<asrwt>0</asrwt>
<pdfrwt beam="1">  1        2 0.41154564E-01 0.97780956E+02</pdfrwt>
<pdfrwt beam="2">  1       -2 0.24017372E-02 0.97780956E+02</pdfrwt>
<totfact> 0.64018384E+04</totfact>
</mgrwt>
</event>
<event>
 6    1  0.2975432E-002  0.1020274E+03  0.7546771E-02  0.1323103E+00
          1   -1    0    0  501    0  0.00000000000E+00  0.00000000000E+00  0.15470922615E+03  0.15470922615E+03  0.00000000000E+00 0. -1.
         -1   -1    0    0    0  501 -0.00000000000E+00 -0.00000000000E+00 -0.35571175610E+02  0.35571175610E+02  0.00000000000E+00 0.  1.
         23    2    1    2    0    0 -0.42250257800E+02  0.71328519789E+01  0.10158564875E+03  0.14397652860E+03  0.92593924705E+02 0.  0.
         13    1    3    3    0    0 -0.52543914279E+02  0.36992838687E+02  0.89453749197E+02  0.11014220938E+03  0.00000000000E+00 0. -1.
        -13    1    3    3    0    0  0.10293656479E+02 -0.29859986708E+02  0.12131899558E+02  0.33834319216E+02  0.00000000000E+00 0.  1.
         22    1    1    2    0    0  0.42250257800E+02 -0.71328519789E+01  0.17552401784E+02  0.46303873163E+02  0.00000000000E+00 0.  1.
<mgrwt>
<rscale>  0 0.82133565E+02</rscale>
<asrwt>0</asrwt>
<pdfrwt beam="1">  1        1 0.23801419E-01 0.10202743E+03</pdfrwt>
<pdfrwt beam="2">  1       -1 0.54724887E-02 0.10202743E+03</pdfrwt>
<totfact> 0.27951215E+04</totfact>
</mgrwt>
</event>
<event>
 6    1  0.2975432E-002  0.9345428E+02  0.7546771E-02  0.1402191E+00
          2   -1    0    0  501    0  0.00000000000E+00  0.00000000000E+00  0.19953269919E+03  0.19953269919E+03  0.00000000000E+00 0. -1.
         -2   -1    0    0    0  501 -0.00000000000E+00 -0.00000000000E+00 -0.17497754534E+02  0.17497754534E+02  0.00000000000E+00 0.  1.
         23    2    1    2    0    0 -0.13545493084E+02 -0.60110867703E+01  0.17896500835E+03  0.20189645042E+03  0.92271820897E+02 0.  0.
         13    1    3    3    0    0  0.69932099037E+01 -0.43908972223E+02  0.55443029037E+02  0.71069207785E+02  0.00000000000E+00 0.  1.
        -13    1    3    3    0    0 -0.20538702988E+02  0.37897885452E+02  0.12352197931E+03  0.13082724264E+03  0.00000000000E+00 0. -1.
         22    1    1    2    0    0  0.13545493084E+02  0.60110867703E+01  0.30699363054E+01  0.15134003303E+02  0.00000000000E+00 0. -1.
<mgrwt>
<rscale>  0 0.58973484E+02</rscale>
<asrwt>0</asrwt>
<pdfrwt beam="1">  1        2 0.30697337E-01 0.93454280E+02</pdfrwt>
<pdfrwt beam="2">  1       -2 0.26919624E-02 0.93454280E+02</pdfrwt>
<totfact> 0.73549198E+04</totfact>
</mgrwt>
</event>
<event>
 6    1  0.2975432E-002  0.9475441E+02  0.7546771E-02  0.1361472E+00
          2   -1    0    0  501    0  0.00000000000E+00  0.00000000000E+00  0.72849862996E+02  0.72849862996E+02  0.00000000000E+00 0. -1.
         -2   -1    0    0    0  501 -0.00000000000E+00 -0.00000000000E+00 -0.58197474441E+02  0.58197474441E+02  0.00000000000E+00 0.  1.
         23    2    1    2    0    0  0.15122627848E+02  0.23060128378E+02  0.30123436690E+02  0.99427458813E+02  0.90652825296E+02 0.  0.
         11    1    3    3    0    0 -0.19250957659E+02 -0.13929506456E+02 -0.17894289672E+02  0.29746195114E+02  0.00000000000E+00 0.  1.
        -11    1    3    3    0    0  0.34373585507E+02  0.36989634834E+02  0.48017726362E+02  0.69681263699E+02  0.00000000000E+00 0. -1.
         22    1    1    2    0    0 -0.15122627848E+02 -0.23060128378E+02 -0.15471048135E+02  0.31619878624E+02  0.00000000000E+00 0.  1.
<mgrwt>
<rscale>  0 0.69596013E+02</rscale>
<asrwt>0</asrwt>
<pdfrwt beam="1">  1        2 0.11207671E-01 0.94754410E+02</pdfrwt>
<pdfrwt beam="2">  1       -2 0.89534576E-02 0.94754410E+02</pdfrwt>
<totfact> 0.38420952E+04</totfact>
</mgrwt>
</event>
<event>
 6    1  0.2975432E-002  0.9965222E+02  0.7546771E-02  0.1338273E+00
         -3   -1    0    0    0  501 -0.00000000000E+00  0.00000000000E+00  0.34840728841E+01  0.34840728841E+01  0.00000000000E+00 0.  1.
          3   -1    0    0  501    0  0.00000000000E+00 -0.00000000000E+00 -0.16942923017E+04  0.16942923017E+04  0.00000000000E+00 0. -1.
         23    2    1    2    0    0 -0.28172081934E+02  0.21143901157E+02 -0.15257834880E+04  0.15290342760E+04  0.93219279885E+02 0.  0.
         13    1    3    3    0    0  0.65298568658E+01  0.18695564213E+01 -0.70769394098E+01  0.98090439549E+01  0.00000000000E+00 0.  1.
        -13    1    3    3    0    0 -0.34701938800E+02  0.19274344736E+02 -0.15187065486E+04  0.15192252320E+04  0.00000000000E+00 0. -1.
         22    1    1    2    0    0  0.28172081934E+02 -0.21143901157E+02 -0.16502474083E+03  0.16874209861E+03  0.00000000000E+00 0.  1.
<mgrwt>
<rscale>  0 0.76837801E+02</rscale>
<asrwt>0</asrwt>
<pdfrwt beam="1">  1        3 0.26066054E+00 0.99652220E+02</pdfrwt>
<pdfrwt beam="2">  1       -3 0.53601084E-03 0.99652220E+02</pdfrwt>
<totfact> 0.11278845E+03</totfact>
</mgrwt>
</event>
<event>
 6    1  0.2975432E-002  0.9168065E+02  0.7546771E-02  0.1399736E+00
          2   -1    0    0  501    0  0.00000000000E+00  0.00000000000E+00  0.18504974758E+03  0.18504974758E+03  0.00000000000E+00 0. -1.
         -2   -1    0    0    0  501 -0.00000000000E+00 -0.00000000000E+00 -0.22450837962E+02  0.22450837962E+02  0.00000000000E+00 0.  1.
         23    2    1    2    0    0  0.13241315095E+02  0.95357474267E+01  0.16707828577E+03  0.19057936469E+03  0.90216837481E+02 0.  0.
         13    1    3    3    0    0  0.45174598450E+02  0.13804474428E+02  0.14230068632E+03  0.14993596362E+03  0.00000000000E+00 0. -1.
        -13    1    3    3    0    0 -0.31933283356E+02 -0.42687270016E+01  0.24777599453E+02  0.40643401072E+02  0.00000000000E+00 0.  1.
         22    1    1    2    0    0 -0.13241315095E+02 -0.95357474267E+01 -0.44793761530E+01  0.16921220853E+02  0.00000000000E+00 0.  1.
<mgrwt>
<rscale>  0 0.59548672E+02</rscale>
<asrwt>0</asrwt>
<pdfrwt beam="1">  1        2 0.28469191E-01 0.91680645E+02</pdfrwt>
<pdfrwt beam="2">  1       -2 0.34539752E-02 0.91680645E+02</pdfrwt>
<totfact> 0.55323014E+04</totfact>
</mgrwt>
</event>
<event>
 6    1  0.2975432E-002  0.9476632E+02  0.7546771E-02  0.1366439E+00
         -2   -1    0    0    0  501 -0.00000000000E+00  0.00000000000E+00  0.27648154581E+01  0.27648154581E+01  0.00000000000E+00 0.  1.
          2   -1    0    0  501    0  0.00000000000E+00 -0.00000000000E+00 -0.15841602781E+04  0.15841602781E+04  0.00000000000E+00 0. -1.
         23    2    1    2    0    0 -0.24367585323E+02  0.70648650137E+01 -0.14505672767E+04  0.14536595474E+04  0.91306978070E+02 0.  0.
         11    1    3    3    0    0  0.91147735712E+01  0.42315438869E+02 -0.86272981662E+03  0.86381503342E+03  0.00000000000E+00 0. -1.
        -11    1    3    3    0    0 -0.33482358895E+02 -0.35250573856E+02 -0.58783746003E+03  0.58984451403E+03  0.00000000000E+00 0.  1.
         22    1    1    2    0    0  0.24367585323E+02 -0.70648650137E+01 -0.13082818599E+03  0.13326554612E+03  0.00000000000E+00 0.  1.
<mgrwt>
<rscale>  0 0.68167167E+02</rscale>
<asrwt>0</asrwt>
<pdfrwt beam="1">  1        2 0.24371740E+00 0.94766322E+02</pdfrwt>
<pdfrwt beam="2">  1       -2 0.42535547E-03 0.94766322E+02</pdfrwt>
<totfact> 0.82028736E+04</totfact>
</mgrwt>
</event>
<event>
 6    1  0.2975432E-002  0.8942591E+02  0.7546771E-02  0.1433808E+00
         -2   -1    0    0    0  501 -0.00000000000E+00  0.00000000000E+00  0.26889271893E+02  0.26889271893E+02  0.00000000000E+00 0.  1.
          2   -1    0    0  501    0  0.00000000000E+00 -0.00000000000E+00 -0.14007583678E+03  0.14007583678E+03  0.00000000000E+00 0. -1.
         23    2    1    2    0    0  0.55593624417E+01 -0.87713856696E+01 -0.12340226507E+03  0.15239787669E+03  0.88820887622E+02 0.  0.
         11    1    3    3    0    0 -0.37680333156E+02  0.21935065878E+01 -0.86954117245E+02  0.94792602474E+02  0.00000000000E+00 0. -1.
        -11    1    3    3    0    0  0.43239695598E+02 -0.10964892257E+02 -0.36448147823E+02  0.57605274215E+02  0.00000000000E+00 0.  1.
         22    1    1    2    0    0 -0.55593624417E+01  0.87713856696E+01  0.10215700184E+02  0.14567231981E+02  0.00000000000E+00 0.  1.
<mgrwt>
<rscale>  0 0.52203172E+02</rscale>
<asrwt>0</asrwt>
<pdfrwt beam="1">  1        2 0.21550129E-01 0.89425912E+02</pdfrwt>
<pdfrwt beam="2">  1       -2 0.41368110E-02 0.89425912E+02</pdfrwt>
<totfact> 0.57325062E+04</totfact>
</mgrwt>
</event>
<event>
 6    1  0.2975432E-002  0.9149241E+02  0.7546771E-02  0.1407160E+00
         -2   -1    0    0    0  501 -0.00000000000E+00  0.00000000000E+00  0.20530695608E+01  0.20530695608E+01  0.00000000000E+00 0.  1.
          2   -1    0    0  501    0  0.00000000000E+00 -0.00000000000E+00 -0.21535669762E+04  0.21535669762E+04  0.00000000000E+00 0. -1.
         23    2    1    2    0    0 -0.12940620137E+02 -0.67727932778E+01 -0.21021647570E+04  0.21041548250E+04  0.90319054501E+02 0.  0.
         13    1    3    3    0    0 -0.33684451786E+01 -0.48044410112E+02 -0.96502520862E+03  0.96622630115E+03  0.00000000000E+00 0. -1.
        -13    1    3    3    0    0 -0.95721749580E+01  0.41271616834E+02 -0.11371395483E+04  0.11379285238E+04  0.00000000000E+00 0.  1.
         22    1    1    2    0    0  0.12940620137E+02  0.67727932778E+01 -0.49349149668E+02  0.51465220793E+02  0.00000000000E+00 0.  1.
<mgrwt>
<rscale>  0 0.57832292E+02</rscale>
<asrwt>0</asrwt>
<pdfrwt beam="1">  1        2 0.33131756E+00 0.91492415E+02</pdfrwt>
<pdfrwt beam="2">  1       -2 0.31585727E-03 0.91492415E+02</pdfrwt>
<totfact> 0.64010044E+04</totfact>
</mgrwt>
</event>
<event>
 6    1  0.2975432E-002  0.9251120E+02  0.7546771E-02  0.1424992E+00
          2   -1    0    0  501    0  0.00000000000E+00  0.00000000000E+00  0.98057001398E+03  0.98057001398E+03  0.00000000000E+00 0. -1.
         -2   -1    0    0    0  501 -0.00000000000E+00 -0.00000000000E+00 -0.27977744778E+01  0.27977744778E+01  0.00000000000E+00 0.  1.
         23    2    1    2    0    0 -0.34563702546E+00  0.10717122056E+02  0.91721281797E+03  0.92186640875E+03  0.91887681198E+02 0.  0.
         11    1    3    3    0    0  0.36715971451E+02  0.13176381163E+02  0.20455248495E+03  0.20823880205E+03  0.00000000000E+00 0.  1.
        -11    1    3    3    0    0 -0.37061608477E+02 -0.24592591070E+01  0.71266033302E+03  0.71362760670E+03  0.00000000000E+00 0. -1.
         22    1    1    2    0    0  0.34563702546E+00 -0.10717122056E+02  0.60559421532E+02  0.61501379711E+02  0.00000000000E+00 0.  1.
<mgrwt>
<rscale>  0 0.53978612E+02</rscale>
<asrwt>0</asrwt>
<pdfrwt beam="1">  1        2 0.15085665E+00 0.92511200E+02</pdfrwt>
<pdfrwt beam="2">  1       -2 0.43042762E-03 0.92511200E+02</pdfrwt>
<totfact> 0.16985108E+05</totfact>
</mgrwt>
</event>
<event>
 6    1  0.2975432E-002  0.1073062E+03  0.7546771E-02  0.1313764E+00
         -2   -1    0    0    0  501 -0.00000000000E+00  0.00000000000E+00  0.52003301166E+01  0.52003301166E+01  0.00000000000E+00 0.  1.
          2   -1    0    0  501    0  0.00000000000E+00 -0.00000000000E+00 -0.16670355939E+04  0.16670355939E+04  0.00000000000E+00 0. -1.
         23    2    1    2    0    0 -0.42642496472E+02  0.87817504137E+01 -0.15220407659E+04  0.15258187007E+04  0.98077075278E+02 0.  0.
         13    1    3    3    0    0 -0.25202976650E+02 -0.19733901214E+02 -0.13594910576E+04  0.13598678438E+04  0.00000000000E+00 0. -1.
        -13    1    3    3    0    0 -0.17439519822E+02  0.28515651628E+02 -0.16254970832E+03  0.16595085693E+03  0.00000000000E+00 0.  1.
         22    1    1    2    0    0  0.42642496472E+02 -0.87817504137E+01 -0.13979449789E+03  0.14641722333E+03  0.00000000000E+00 0.  1.
<mgrwt>
<rscale>  0 0.85641456E+02</rscale>
<asrwt>0</asrwt>
<pdfrwt beam="1">  1        2 0.25646698E+00 0.10730617E+03</pdfrwt>
<pdfrwt beam="2">  1       -2 0.80005090E-03 0.10730617E+03</pdfrwt>
<totfact> 0.30933967E+04</totfact>
</mgrwt>
</event>
<event>
 6    1  0.2975432E-002  0.9577297E+02  0.7546771E-02  0.1406642E+00
         -1   -1    0    0    0  501 -0.00000000000E+00  0.00000000000E+00  0.15686323517E+02  0.15686323517E+02  0.00000000000E+00 0. -1.
          1   -1    0    0  501    0  0.00000000000E+00 -0.00000000000E+00 -0.35685029547E+03  0.35685029547E+03  0.00000000000E+00 0.  1.
         23    2    1    2    0    0  0.98567335181E+01  0.82249845540E+01 -0.34585352883E+03  0.35886923042E+03  0.94908669641E+02 0.  0.
         13    1    3    3    0    0  0.36979267738E+02 -0.15792454749E+02 -0.70649926401E+02  0.81291327766E+02  0.00000000000E+00 0. -1.
        -13    1    3    3    0    0 -0.27122534220E+02  0.24017439303E+02 -0.27520360243E+03  0.27757790266E+03  0.00000000000E+00 0.  1.
         22    1    1    2    0    0 -0.98567335181E+01 -0.82249845540E+01  0.46895568741E+01  0.13667388567E+02  0.00000000000E+00 0.  1.
<mgrwt>
<rscale>  0 0.57950033E+02</rscale>
<asrwt>0</asrwt>
<pdfrwt beam="1">  1        1 0.54900044E-01 0.95772967E+02</pdfrwt>
<pdfrwt beam="2">  1       -1 0.24132806E-02 0.95772967E+02</pdfrwt>
<totfact> 0.32599304E+04</totfact>
</mgrwt>
</event>
<event>
 6    1  0.2975432E-002  0.8212731E+02  0.7546771E-02  0.1446653E+00
         -2   -1    0    0    0  501 -0.00000000000E+00  0.00000000000E+00  0.71735226036E+01  0.71735226036E+01  0.00000000000E+00 0. -1.
          2   -1    0    0  501    0  0.00000000000E+00 -0.00000000000E+00 -0.30588261103E+03  0.30588261103E+03  0.00000000000E+00 0.  1.
         23    2    1    2    0    0 -0.98292727197E+01  0.50826463152E+01 -0.27249461249E+03  0.28460184320E+03  0.81378421082E+02 0.  0.
         13    1    3    3    0    0  0.22895372832E+02  0.24113789199E+02 -0.20072162490E+03  0.20345722801E+03  0.00000000000E+00 0.  1.
        -13    1    3    3    0    0 -0.32724645552E+02 -0.19031142884E+02 -0.71772987592E+02  0.81144615187E+02  0.00000000000E+00 0. -1.
         22    1    1    2    0    0  0.98292727197E+01 -0.50826463152E+01 -0.26214475930E+02  0.28454290433E+02  0.00000000000E+00 0. -1.
<mgrwt>
<rscale>  0 0.49757622E+02</rscale>
<asrwt>0</asrwt>
<pdfrwt beam="1">  1        2 0.47058872E-01 0.82127312E+02</pdfrwt>
<pdfrwt beam="2">  1       -2 0.11036187E-02 0.82127312E+02</pdfrwt>
<totfact> 0.16465697E+05</totfact>
</mgrwt>
</event>
<event>
 6    1  0.2975432E-002  0.9154584E+02  0.7546771E-02  0.1422677E+00
          2   -1    0    0  501    0  0.00000000000E+00  0.00000000000E+00  0.11442050801E+04  0.11442050801E+04  0.00000000000E+00 0.  1.
         -2   -1    0    0    0  501 -0.00000000000E+00 -0.00000000000E+00 -0.45239708256E+01  0.45239708256E+01  0.00000000000E+00 0. -1.
         23    2    1    2    0    0  0.11236088253E+02  0.22757244808E+01  0.11300617593E+04  0.11337637412E+04  0.90825174882E+02 0.  0.
         11    1    3    3    0    0  0.57820186079E+01  0.44184435953E+02  0.39882271563E+03  0.40130444132E+03  0.00000000000E+00 0. -1.
        -11    1    3    3    0    0  0.54540696450E+01 -0.41908711473E+02  0.73123904368E+03  0.73245929988E+03  0.00000000000E+00 0.  1.
         22    1    1    2    0    0 -0.11236088253E+02 -0.22757244808E+01  0.96193499213E+01  0.14965309688E+02  0.00000000000E+00 0. -1.
<mgrwt>
<rscale>  0 0.54458440E+02</rscale>
<asrwt>0</asrwt>
<pdfrwt beam="1">  1        2 0.17603132E+00 0.91545841E+02</pdfrwt>
<pdfrwt beam="2">  1       -2 0.69599642E-03 0.91545841E+02</pdfrwt>
<totfact> 0.69680012E+04</totfact>
</mgrwt>
</event>
<event>
 6    1  0.2975432E-002  0.1082287E+03  0.7546771E-02  0.1330376E+00
          2   -1    0    0  501    0  0.00000000000E+00  0.00000000000E+00  0.15259815430E+03  0.15259815430E+03  0.00000000000E+00 0. -1.
         -2   -1    0    0    0  501 -0.00000000000E+00 -0.00000000000E+00 -0.32016088155E+02  0.32016088155E+02  0.00000000000E+00 0.  1.
         23    2    1    2    0    0 -0.30446618780E+02  0.83275857667E+01  0.93543156572E+02  0.14305166420E+03  0.10352348144E+03 0.  0.
         11    1    3    3    0    0 -0.45851782883E+02  0.19981269212E+02  0.10793681321E+03  0.11896214843E+03  0.00000000000E+00 0. -1.
        -11    1    3    3    0    0  0.15405164104E+02 -0.11653683445E+02 -0.14393656638E+02  0.24089515776E+02  0.00000000000E+00 0.  1.
         22    1    1    2    0    0  0.30446618780E+02 -0.83275857667E+01  0.27038909571E+02  0.41562578248E+02  0.00000000000E+00 0.  1.
<mgrwt>
<rscale>  0 0.79534972E+02</rscale>
<asrwt>0</asrwt>
<pdfrwt beam="1">  1        2 0.23476639E-01 0.10822872E+03</pdfrwt>
<pdfrwt beam="2">  1       -2 0.49255521E-02 0.10822872E+03</pdfrwt>
<totfact> 0.41292357E+04</totfact>
</mgrwt>
</event>
<event>
 6    1  0.2975432E-002  0.9115791E+02  0.7546771E-02  0.1430383E+00
          2   -1    0    0  501    0  0.00000000000E+00  0.00000000000E+00  0.23884180046E+02  0.23884180046E+02  0.00000000000E+00 0. -1.
         -2   -1    0    0    0  501 -0.00000000000E+00 -0.00000000000E+00 -0.10909842218E+03  0.10909842218E+03  0.00000000000E+00 0.  1.
         23    2    1    2    0    0  0.31002980417E+01  0.98485590433E+01 -0.71708112117E+02  0.11598196956E+03  0.90571286594E+02 0.  0.
         11    1    3    3    0    0  0.27080808411E+02 -0.21824472102E+02 -0.90170200119E+00  0.34792108778E+02  0.00000000000E+00 0. -1.
        -11    1    3    3    0    0 -0.23980510369E+02  0.31673031145E+02 -0.70806410116E+02  0.81189860777E+02  0.00000000000E+00 0.  1.
         22    1    1    2    0    0 -0.31002980417E+01 -0.98485590433E+01 -0.13506130019E+02  0.17000632672E+02  0.00000000000E+00 0. -1.
<mgrwt>
<rscale>  0 0.52883287E+02</rscale>
<asrwt>0</asrwt>
<pdfrwt beam="1">  1        2 0.36744893E-02 0.91157907E+02</pdfrwt>
<pdfrwt beam="2">  1       -2 0.16784373E-01 0.91157907E+02</pdfrwt>
<totfact> 0.57631788E+04</totfact>
</mgrwt>
</event>
<event>
 6    1  0.2975432E-002  0.9153786E+02  0.7546771E-02  0.1408810E+00
         -2   -1    0    0    0  501 -0.00000000000E+00  0.00000000000E+00  0.35343963565E+03  0.35343963565E+03  0.00000000000E+00 0.  1.
          2   -1    0    0  501    0  0.00000000000E+00 -0.00000000000E+00 -0.81694835443E+01  0.81694835443E+01  0.00000000000E+00 0. -1.
         23    2    1    2    0    0 -0.24732791718E+01 -0.13995460440E+02  0.27249093640E+03  0.28745519643E+03  0.90427813812E+02 0.  0.
         11    1    3    3    0    0 -0.38007948194E+02 -0.18576759808E+02  0.69780805553E+02  0.81603069517E+02  0.00000000000E+00 0. -1.
        -11    1    3    3    0    0  0.35534669022E+02  0.45812993677E+01  0.20271013085E+03  0.20585212691E+03  0.00000000000E+00 0.  1.
         22    1    1    2    0    0  0.24732791718E+01  0.13995460440E+02  0.72779215707E+02  0.74153922767E+02  0.00000000000E+00 0. -1.
<mgrwt>
<rscale>  0 0.57460156E+02</rscale>
<asrwt>0</asrwt>
<pdfrwt beam="1">  1        2 0.12568439E-02 0.91537858E+02</pdfrwt>
<pdfrwt beam="2">  1       -2 0.54375317E-01 0.91537858E+02</pdfrwt>
<totfact> 0.29530135E+04</totfact>
</mgrwt>
</event>
<event>
 6    1  0.2975432E-002  0.9217877E+02  0.7546771E-02  0.1419188E+00
          1   -1    0    0  501    0  0.00000000000E+00  0.00000000000E+00  0.57040291410E+03  0.57040291410E+03  0.00000000000E+00 0. -1.
         -1   -1    0    0    0  501 -0.00000000000E+00 -0.00000000000E+00 -0.49612691092E+01  0.49612691092E+01  0.00000000000E+00 0.  1.
         23    2    1    2    0    0  0.93400655885E+01  0.72895981723E+01  0.53100378066E+03  0.53894521059E+03  0.91414166735E+02 0.  0.
         13    1    3    3    0    0  0.37026539755E+02  0.13969103635E+02  0.10865807378E+03  0.11564029359E+03  0.00000000000E+00 0.  1.
        -13    1    3    3    0    0 -0.27686474166E+02 -0.66795054628E+01  0.42234570687E+03  0.42330491700E+03  0.00000000000E+00 0. -1.
         22    1    1    2    0    0 -0.93400655885E+01 -0.72895981723E+01  0.34437864330E+02  0.36418972615E+02  0.00000000000E+00 0.  1.
<mgrwt>
<rscale>  0 0.55193053E+02</rscale>
<asrwt>0</asrwt>
<pdfrwt beam="1">  1        1 0.87754243E-01 0.92178766E+02</pdfrwt>
<pdfrwt beam="2">  1       -1 0.76327262E-03 0.92178766E+02</pdfrwt>
<totfact> 0.91633464E+04</totfact>
</mgrwt>
</event>
<event>
 6    1  0.2975432E-002  0.9180232E+02  0.7546771E-02  0.1402225E+00
         -2   -1    0    0    0  501 -0.00000000000E+00  0.00000000000E+00  0.28391819825E+01  0.28391819825E+01  0.00000000000E+00 0. -1.
          2   -1    0    0  501    0  0.00000000000E+00 -0.00000000000E+00 -0.10706515560E+04  0.10706515560E+04  0.00000000000E+00 0.  1.
         23    2    1    2    0    0 -0.62128914747E+00  0.15613170210E+02 -0.98075962838E+03  0.98504675793E+03  0.90462752376E+02 0.  0.
         11    1    3    3    0    0 -0.35351045910E+02 -0.21166809116E+02 -0.43202335145E+03  0.43398376289E+03  0.00000000000E+00 0. -1.
        -11    1    3    3    0    0  0.34729756763E+02  0.36779979326E+02 -0.54873627693E+03  0.55106299504E+03  0.00000000000E+00 0.  1.
         22    1    1    2    0    0  0.62128914747E+00 -0.15613170210E+02 -0.87052745642E+02  0.88443980055E+02  0.00000000000E+00 0. -1.
<mgrwt>
<rscale>  0 0.58965627E+02</rscale>
<asrwt>0</asrwt>
<pdfrwt beam="1">  1        2 0.16471564E+00 0.91802324E+02</pdfrwt>
<pdfrwt beam="2">  1       -2 0.43679718E-03 0.91802324E+02</pdfrwt>
<totfact> 0.14737673E+05</totfact>
</mgrwt>
</event>
<event>
 6    1  0.2975432E-002  0.9207213E+02  0.7546771E-02  0.1391573E+00
         -2   -1    0    0    0  501 -0.00000000000E+00  0.00000000000E+00  0.38969881235E+01  0.38969881235E+01  0.00000000000E+00 0.  1.
          2   -1    0    0  501    0  0.00000000000E+00 -0.00000000000E+00 -0.80021774251E+03  0.80021774251E+03  0.00000000000E+00 0. -1.
         23    2    1    2    0    0 -0.10210547326E+01  0.18319979258E+02 -0.70334242305E+03  0.70934324605E+03  0.90225342652E+02 0.  0.
         13    1    3    3    0    0 -0.32359745529E+01  0.51125804697E+02 -0.55708286262E+03  0.55943331619E+03  0.00000000000E+00 0. -1.
        -13    1    3    3    0    0  0.22149198204E+01 -0.32805825440E+02 -0.14625956043E+03  0.14990992985E+03  0.00000000000E+00 0.  1.
         22    1    1    2    0    0  0.10210547326E+01 -0.18319979258E+02 -0.92978331339E+02  0.94771484589E+02  0.00000000000E+00 0.  1.
<mgrwt>
<rscale>  0 0.61517085E+02</rscale>
<asrwt>0</asrwt>
<pdfrwt beam="1">  1        2 0.12311045E+00 0.92072127E+02</pdfrwt>
<pdfrwt beam="2">  1       -2 0.59953650E-03 0.92072127E+02</pdfrwt>
<totfact> 0.13824804E+05</totfact>
</mgrwt>
</event>
<event>
 6    1  0.2975432E-002  0.1042991E+03  0.7546771E-02  0.1386339E+00
          2   -1    0    0  501    0  0.00000000000E+00  0.00000000000E+00  0.10818386838E+04  0.10818386838E+04  0.00000000000E+00 0. -1.
         -2   -1    0    0    0  501 -0.00000000000E+00 -0.00000000000E+00 -0.36681468991E+01  0.36681468991E+01  0.00000000000E+00 0.  1.
         23    2    1    2    0    0  0.41274141056E+01 -0.13096904438E+02  0.10341003672E+04  0.10393468446E+04  0.10339114867E+03 0.  0.
         13    1    3    3    0    0  0.86986480432E+01 -0.36192138589E+02  0.97527547258E+03  0.97598554538E+03  0.00000000000E+00 0. -1.
        -13    1    3    3    0    0 -0.45712339376E+01  0.23095234151E+02  0.58824894599E+02  0.63361299267E+02  0.00000000000E+00 0.  1.
         22    1    1    2    0    0 -0.41274141056E+01  0.13096904438E+02  0.44070169717E+02  0.46159986048E+02  0.00000000000E+00 0.  1.
<mgrwt>
<rscale>  0 0.62826487E+02</rscale>
<asrwt>0</asrwt>
<pdfrwt beam="1">  1        2 0.16643647E+00 0.10429906E+03</pdfrwt>
<pdfrwt beam="2">  1       -2 0.56433116E-03 0.10429906E+03</pdfrwt>
<totfact> 0.10305598E+05</totfact>
</mgrwt>
</event>
<event>
 6    1  0.2975432E-002  0.9178586E+02  0.7546771E-02  0.1421143E+00
          2   -1    0    0  501    0  0.00000000000E+00  0.00000000000E+00  0.18206776906E+04  0.18206776906E+04  0.00000000000E+00 0. -1.
         -2   -1    0    0    0  501 -0.00000000000E+00 -0.00000000000E+00 -0.17771055729E+01  0.17771055729E+01  0.00000000000E+00 0.  1.
         23    2    1    2    0    0 -0.66330474871E+01  0.95717230919E+01  0.17612361002E+04  0.17636261636E+04  0.91044104840E+02 0.  0.
         11    1    3    3    0    0  0.12465717016E+02  0.33834643724E+01  0.16762938873E+04  0.16763436517E+04  0.00000000000E+00 0. -1.
        -11    1    3    3    0    0 -0.19098764503E+02  0.61882587195E+01  0.84942212878E+02  0.87282511880E+02  0.00000000000E+00 0.  1.
         22    1    1    2    0    0  0.66330474871E+01 -0.95717230919E+01  0.57664484800E+02  0.58828632562E+02  0.00000000000E+00 0.  1.
<mgrwt>
<rscale>  0 0.54779793E+02</rscale>
<asrwt>0</asrwt>
<pdfrwt beam="1">  1        2 0.28010277E+00 0.91785861E+02</pdfrwt>
<pdfrwt beam="2">  1       -2 0.27340231E-03 0.91785861E+02</pdfrwt>
<totfact> 0.11513136E+05</totfact>
</mgrwt>
</event>
<event>
 6    1  0.2975432E-002  0.1229044E+03  0.7546771E-02  0.1257155E+00
         -2   -1    0    0    0  501 -0.00000000000E+00  0.00000000000E+00  0.18917413713E+03  0.18917413713E+03  0.00000000000E+00 0.  1.
          2   -1    0    0  501    0  0.00000000000E+00 -0.00000000000E+00 -0.56995351856E+02  0.56995351856E+02  0.00000000000E+00 0. -1.
         23    2    1    2    0    0 -0.10613332662E+01 -0.84340691053E+02  0.86036689921E+02  0.15002599436E+03  0.89392440261E+02 0.  0.
         13    1    3    3    0    0 -0.95902888867E+01 -0.62395962065E+02  0.10313969234E+03  0.12092570388E+03  0.00000000000E+00 0.  1.
        -13    1    3    3    0    0  0.85289556205E+01 -0.21944728987E+02 -0.17103002419E+02  0.29100290480E+02  0.00000000000E+00 0. -1.
         22    1    1    2    0    0  0.10613332662E+01  0.84340691053E+02  0.46142095355E+02  0.96143494628E+02  0.00000000000E+00 0. -1.
<mgrwt>
<rscale>  0 0.11186479E+03</rscale>
<asrwt>0</asrwt>
<pdfrwt beam="1">  1        2 0.87685158E-02 0.12290438E+03</pdfrwt>
<pdfrwt beam="2">  1       -2 0.29103713E-01 0.12290438E+03</pdfrwt>
<totfact> 0.76454052E+03</totfact>
</mgrwt>
</event>
<event>
 6    1  0.2975432E-002  0.9758434E+02  0.7546771E-02  0.1337692E+00
          1   -1    0    0  501    0  0.00000000000E+00  0.00000000000E+00  0.57812945263E+02  0.57812945263E+02  0.00000000000E+00 0. -1.
         -1   -1    0    0    0  501 -0.00000000000E+00 -0.00000000000E+00 -0.14778247281E+03  0.14778247281E+03  0.00000000000E+00 0.  1.
         23    2    1    2    0    0 -0.37343683800E+02  0.64197236177E+01  0.10567577430E+02  0.98154862192E+02  0.89927413552E+02 0.  0.
         13    1    3    3    0    0 -0.23721323646E+02 -0.32376856261E+02  0.32415814597E+02  0.51592122004E+02  0.00000000000E+00 0. -1.
        -13    1    3    3    0    0 -0.13622360153E+02  0.38796579879E+02 -0.21848237167E+02  0.46562740188E+02  0.00000000000E+00 0.  1.
         22    1    1    2    0    0  0.37343683800E+02 -0.64197236177E+01 -0.10053710498E+03  0.10744055588E+03  0.00000000000E+00 0.  1.
<mgrwt>
<rscale>  0 0.77031874E+02</rscale>
<asrwt>0</asrwt>
<pdfrwt beam="1">  1        1 0.88942995E-02 0.97584339E+02</pdfrwt>
<pdfrwt beam="2">  1       -1 0.22735765E-01 0.97584339E+02</pdfrwt>
<totfact> 0.11151881E+04</totfact>
</mgrwt>
</event>
<event>
 6    1  0.2975432E-002  0.1218971E+03  0.7546771E-02  0.1260364E+00
         -1   -1    0    0    0  501 -0.00000000000E+00  0.00000000000E+00  0.26481202901E+03  0.26481202901E+03  0.00000000000E+00 0.  1.
          1   -1    0    0  501    0  0.00000000000E+00 -0.00000000000E+00 -0.99316592022E+02  0.99316592022E+02  0.00000000000E+00 0. -1.
         23    2    1    2    0    0  0.12276309744E+02  0.80227759246E+02 -0.51591932353E+02  0.13236553713E+03  0.90948924127E+02 0.  0.
         11    1    3    3    0    0  0.41565255462E+02  0.28786327455E+02 -0.52873030228E+02  0.73156547454E+02  0.00000000000E+00 0. -1.
        -11    1    3    3    0    0 -0.29288945718E+02  0.51441431792E+02  0.12810978759E+01  0.59208989671E+02  0.00000000000E+00 0.  1.
         22    1    1    2    0    0 -0.12276309744E+02 -0.80227759246E+02  0.21708736934E+03  0.23176308391E+03  0.00000000000E+00 0.  1.
<mgrwt>
<rscale>  0 0.11011151E+03</rscale>
<asrwt>0</asrwt>
<pdfrwt beam="1">  1        1 0.15279476E-01 0.12189712E+03</pdfrwt>
<pdfrwt beam="2">  1       -1 0.40740312E-01 0.12189712E+03</pdfrwt>
<totfact> 0.21025389E+03</totfact>
</mgrwt>
</event>
<event>
 6    1  0.2975432E-002  0.9325470E+02  0.7546771E-02  0.1403585E+00
          1   -1    0    0  501    0  0.00000000000E+00  0.00000000000E+00  0.40131262805E+03  0.40131262805E+03  0.00000000000E+00 0. -1.
         -1   -1    0    0    0  501 -0.00000000000E+00 -0.00000000000E+00 -0.76161630218E+01  0.76161630218E+01  0.00000000000E+00 0.  1.
         23    2    1    2    0    0  0.53948800595E+01 -0.13556390754E+02  0.36514761766E+03  0.37686764407E+03  0.92106232154E+02 0.  0.
         13    1    3    3    0    0  0.39458203001E+02 -0.34004115030E+02  0.23905646021E+03  0.24466552841E+03  0.00000000000E+00 0. -1.
        -13    1    3    3    0    0 -0.34063322942E+02  0.20447724277E+02  0.12609115745E+03  0.13220211566E+03  0.00000000000E+00 0.  1.
         22    1    1    2    0    0 -0.53948800595E+01  0.13556390754E+02  0.28548847367E+02  0.32061147003E+02  0.00000000000E+00 0.  1.
<mgrwt>
<rscale>  0 0.58650269E+02</rscale>
<asrwt>0</asrwt>
<pdfrwt beam="1">  1        1 0.61740388E-01 0.93254697E+02</pdfrwt>
<pdfrwt beam="2">  1       -1 0.11717177E-02 0.93254697E+02</pdfrwt>
<totfact> 0.78595782E+04</totfact>
</mgrwt>
</event>
<event>
 6    1  0.2975432E-002  0.8492336E+02  0.7546771E-02  0.1416353E+00
         -2   -1    0    0    0  501 -0.00000000000E+00  0.00000000000E+00  0.89057360804E+02  0.89057360804E+02  0.00000000000E+00 0.  1.
          2   -1    0    0  501    0  0.00000000000E+00 -0.00000000000E+00 -0.28693259286E+02  0.28693259286E+02  0.00000000000E+00 0. -1.
         23    2    1    2    0    0 -0.79234554151E+01 -0.13703350251E+02  0.47173248664E+02  0.97145728611E+02  0.83435090004E+02 0.  0.
         13    1    3    3    0    0  0.20190662476E+02  0.24068001931E+02  0.13522337542E+01  0.31444556035E+02  0.00000000000E+00 0. -1.
        -13    1    3    3    0    0 -0.28114117891E+02 -0.37771352182E+02  0.45821014910E+02  0.65701172575E+02  0.00000000000E+00 0.  1.
         22    1    1    2    0    0  0.79234554151E+01  0.13703350251E+02  0.13190852854E+02  0.20604891479E+02  0.00000000000E+00 0. -1.
<mgrwt>
<rscale>  0 0.55800101E+02</rscale>
<asrwt>0</asrwt>
<pdfrwt beam="1">  1        2 0.44143476E-02 0.84923361E+02</pdfrwt>
<pdfrwt beam="2">  1       -2 0.13701132E-01 0.84923361E+02</pdfrwt>
<totfact> 0.62307011E+04</totfact>
</mgrwt>
</event>
<event>
 6    1  0.2975432E-002  0.9978388E+02  0.7546771E-02  0.1353455E+00
          2   -1    0    0  501    0  0.00000000000E+00  0.00000000000E+00  0.42374459468E+03  0.42374459468E+03  0.00000000000E+00 0. -1.
         -2   -1    0    0    0  501 -0.00000000000E+00 -0.00000000000E+00 -0.12740851126E+02  0.12740851126E+02  0.00000000000E+00 0.  1.
         23    2    1    2    0    0 -0.19756856582E+02  0.18451781534E+02  0.38910339837E+03  0.40169425808E+03  0.96052177135E+02 0.  0.
         13    1    3    3    0    0 -0.29384702893E+02  0.13765269892E+02  0.36145898499E+02  0.48574369760E+02  0.00000000000E+00 0.  1.
        -13    1    3    3    0    0  0.96278463113E+01  0.46865116415E+01  0.35295749987E+03  0.35311988832E+03  0.00000000000E+00 0. -1.
         22    1    1    2    0    0  0.19756856582E+02 -0.18451781534E+02  0.21900345186E+02  0.34791187721E+02  0.00000000000E+00 0.  1.
<mgrwt>
<rscale>  0 0.71989677E+02</rscale>
<asrwt>0</asrwt>
<pdfrwt beam="1">  1        2 0.65191465E-01 0.99783878E+02</pdfrwt>
<pdfrwt beam="2">  1       -2 0.19601313E-02 0.99783878E+02</pdfrwt>
<totfact> 0.53063017E+04</totfact>
</mgrwt>
</event>
<event>
 6    1  0.2975432E-002  0.9123936E+02  0.7546771E-02  0.1417693E+00
         -2   -1    0    0    0  501 -0.00000000000E+00  0.00000000000E+00  0.29302485742E+02  0.29302485742E+02  0.00000000000E+00 0.  1.
          2   -1    0    0  501    0  0.00000000000E+00 -0.00000000000E+00 -0.10035211625E+03  0.10035211625E+03  0.00000000000E+00 0. -1.
         23    2    1    2    0    0 -0.46602133319E+01 -0.11601610641E+02 -0.73193291099E+02  0.11696956204E+03  0.90378679035E+02 0.  0.
         11    1    3    3    0    0 -0.29835174569E+02  0.34646659597E+01 -0.81183942271E+02  0.86561966442E+02  0.00000000000E+00 0. -1.
        -11    1    3    3    0    0  0.25174961237E+02 -0.15066276600E+02  0.79906511713E+01  0.30407595598E+02  0.00000000000E+00 0.  1.
         22    1    1    2    0    0  0.46602133319E+01  0.11601610641E+02  0.21436605945E+01  0.12685039949E+02  0.00000000000E+00 0.  1.
<mgrwt>
<rscale>  0 0.55511982E+02</rscale>
<asrwt>0</asrwt>
<pdfrwt beam="1">  1        2 0.15438787E-01 0.91239359E+02</pdfrwt>
<pdfrwt beam="2">  1       -2 0.45080746E-02 0.91239359E+02</pdfrwt>
<totfact> 0.73809820E+04</totfact>
</mgrwt>
</event>
<event>
 6    1  0.2975432E-002  0.9181993E+02  0.7546771E-02  0.1424006E+00
          2   -1    0    0  501    0  0.00000000000E+00  0.00000000000E+00  0.41976466405E+03  0.41976466405E+03  0.00000000000E+00 0.  1.
         -2   -1    0    0    0  501 -0.00000000000E+00 -0.00000000000E+00 -0.63867281117E+01  0.63867281117E+01  0.00000000000E+00 0. -1.
         23    2    1    2    0    0  0.95144083195E+01  0.57813362402E+01  0.38117965943E+03  0.39208268476E+03  0.91142476956E+02 0.  0.
         13    1    3    3    0    0  0.24208287375E+02  0.43300533616E+02  0.16986757775E+03  0.17696319210E+03  0.00000000000E+00 0. -1.
        -13    1    3    3    0    0 -0.14693879056E+02 -0.37519197376E+02  0.21131208169E+03  0.21511949266E+03  0.00000000000E+00 0.  1.
         22    1    1    2    0    0 -0.95144083195E+01 -0.57813362402E+01  0.32198276508E+02  0.34068707408E+02  0.00000000000E+00 0. -1.
<mgrwt>
<rscale>  0 0.54182316E+02</rscale>
<asrwt>0</asrwt>
<pdfrwt beam="1">  1        2 0.64579157E-01 0.91819927E+02</pdfrwt>
<pdfrwt beam="2">  1       -2 0.98257388E-03 0.91819927E+02</pdfrwt>
<totfact> 0.14189306E+05</totfact>
</mgrwt>
</event>
<event>
 6    1  0.2975432E-002  0.9205872E+02  0.7546771E-02  0.1405736E+00
          2   -1    0    0  501    0  0.00000000000E+00  0.00000000000E+00  0.15173125929E+04  0.15173125929E+04  0.00000000000E+00 0. -1.
         -2   -1    0    0    0  501 -0.00000000000E+00 -0.00000000000E+00 -0.31816361884E+01  0.31816361884E+01  0.00000000000E+00 0.  1.
         23    2    1    2    0    0  0.13065712046E+02 -0.66525442824E+01  0.14852921137E+04  0.14881422887E+04  0.90883658758E+02 0.  0.
         13    1    3    3    0    0 -0.34654762240E+01  0.27518377634E+01  0.14231040080E+04  0.14231108880E+04  0.00000000000E+00 0. -1.
        -13    1    3    3    0    0  0.16531188270E+02 -0.94043820459E+01  0.62188105678E+02  0.65031400685E+02  0.00000000000E+00 0.  1.
         22    1    1    2    0    0 -0.13065712046E+02  0.66525442824E+01  0.28838843094E+02  0.32351940401E+02  0.00000000000E+00 0.  1.
<mgrwt>
<rscale>  0 0.58156162E+02</rscale>
<asrwt>0</asrwt>
<pdfrwt beam="1">  1        2 0.23343213E+00 0.92058724E+02</pdfrwt>
<pdfrwt beam="2">  1       -2 0.48948370E-03 0.92058724E+02</pdfrwt>
<totfact> 0.72647132E+04</totfact>
</mgrwt>
</event>
<event>
 6    1  0.2975432E-002  0.9046227E+02  0.7546771E-02  0.1419140E+00
         -2   -1    0    0    0  501 -0.00000000000E+00  0.00000000000E+00  0.32994938757E+01  0.32994938757E+01  0.00000000000E+00 0.  1.
          2   -1    0    0  501    0  0.00000000000E+00 -0.00000000000E+00 -0.89576265029E+03  0.89576265029E+03  0.00000000000E+00 0. -1.
         23    2    1    2    0    0  0.11648772889E+02  0.46554458750E+01 -0.84955766075E+03  0.85436036966E+03  0.89588253771E+02 0.  0.
         13    1    3    3    0    0 -0.24314200746E+02  0.22830856298E+02 -0.64556604694E+03  0.64642706419E+03  0.00000000000E+00 0. -1.
        -13    1    3    3    0    0  0.35962973635E+02 -0.18175410423E+02 -0.20399161381E+03  0.20793330547E+03  0.00000000000E+00 0.  1.
         22    1    1    2    0    0 -0.11648772889E+02 -0.46554458750E+01 -0.42905495662E+02  0.44701774507E+02  0.00000000000E+00 0.  1.
<mgrwt>
<rscale>  0 0.55203276E+02</rscale>
<asrwt>0</asrwt>
<pdfrwt beam="1">  1        2 0.13780963E+00 0.90462270E+02</pdfrwt>
<pdfrwt beam="2">  1       -2 0.50761446E-03 0.90462270E+02</pdfrwt>
<totfact> 0.15126684E+05</totfact>
</mgrwt>
</event>
<event>
 6    1  0.2975432E-002  0.9338408E+02  0.7546771E-02  0.1375206E+00
         -1   -1    0    0    0  501 -0.00000000000E+00  0.00000000000E+00  0.18899021375E+03  0.18899021375E+03  0.00000000000E+00 0.  1.
          1   -1    0    0  501    0  0.00000000000E+00 -0.00000000000E+00 -0.18106838245E+02  0.18106838245E+02  0.00000000000E+00 0. -1.
         23    2    1    2    0    0  0.18947029467E+02 -0.12926418196E+02  0.12772168097E+03  0.15821951024E+03  0.90523496494E+02 0.  0.
         13    1    3    3    0    0 -0.21752415593E+02 -0.39274198026E+02  0.60606025242E+02  0.75423607116E+02  0.00000000000E+00 0.  1.
        -13    1    3    3    0    0  0.40699445060E+02  0.26347779830E+02  0.67115655731E+02  0.82795903125E+02  0.00000000000E+00 0. -1.
         22    1    1    2    0    0 -0.18947029467E+02  0.12926418196E+02  0.43161694529E+02  0.48877541751E+02  0.00000000000E+00 0.  1.
<mgrwt>
<rscale>  0 0.65741002E+02</rscale>
<asrwt>0</asrwt>
<pdfrwt beam="1">  1        1 0.27856676E-02 0.93384076E+02</pdfrwt>
<pdfrwt beam="2">  1       -1 0.29075416E-01 0.93384076E+02</pdfrwt>
<totfact> 0.35618900E+04</totfact>
</mgrwt>
</event>
<event>
 6    1  0.2975432E-002  0.1137252E+03  0.7546771E-02  0.1283992E+00
          2   -1    0    0  501    0  0.00000000000E+00  0.00000000000E+00  0.40632020097E+03  0.40632020097E+03  0.00000000000E+00 0. -1.
         -2   -1    0    0    0  501 -0.00000000000E+00 -0.00000000000E+00 -0.20674914891E+02  0.20674914891E+02  0.00000000000E+00 0.  1.
         23    2    1    2    0    0  0.62433184978E+02  0.10943561285E+02  0.29692259731E+03  0.31795668400E+03  0.94423302142E+02 0.  0.
         11    1    3    3    0    0  0.46489537828E+02 -0.12424390371E+02  0.28180044977E+03  0.28587958321E+03  0.00000000000E+00 0. -1.
        -11    1    3    3    0    0  0.15943647150E+02  0.23367951656E+02  0.15122147535E+02  0.32077100790E+02  0.00000000000E+00 0.  1.
         22    1    1    2    0    0 -0.62433184978E+02 -0.10943561285E+02  0.88722688766E+02  0.10903843186E+03  0.00000000000E+00 0.  1.
<mgrwt>
<rscale>  0 0.98262831E+02</rscale>
<asrwt>0</asrwt>
<pdfrwt beam="1">  1        2 0.62510794E-01 0.11372521E+03</pdfrwt>
<pdfrwt beam="2">  1       -2 0.31807565E-02 0.11372521E+03</pdfrwt>
<totfact> 0.27885791E+04</totfact>
</mgrwt>
</event>
<event>
 6    1  0.2975432E-002  0.9176883E+02  0.7546771E-02  0.1408224E+00
         -2   -1    0    0    0  501 -0.00000000000E+00  0.00000000000E+00  0.10399245642E+03  0.10399245642E+03  0.00000000000E+00 0.  1.
          2   -1    0    0  501    0  0.00000000000E+00 -0.00000000000E+00 -0.80556490554E+02  0.80556490554E+02  0.00000000000E+00 0. -1.
         23    2    1    2    0    0 -0.19028742766E+01  0.14107343320E+02 -0.53555174364E+02  0.10625288232E+03  0.90658040099E+02 0.  0.
         11    1    3    3    0    0 -0.42642217923E+01  0.52765509731E+02 -0.33381368334E+02  0.62583531033E+02  0.00000000000E+00 0. -1.
        -11    1    3    3    0    0  0.23613475157E+01 -0.38658166411E+02 -0.20173806030E+02  0.43669351289E+02  0.00000000000E+00 0.  1.
         22    1    1    2    0    0  0.19028742766E+01 -0.14107343320E+02  0.76991140235E+02  0.78296064657E+02  0.00000000000E+00 0.  1.
<mgrwt>
<rscale>  0 0.57591916E+02</rscale>
<asrwt>0</asrwt>
<pdfrwt beam="1">  1        2 0.12393306E-01 0.91768831E+02</pdfrwt>
<pdfrwt beam="2">  1       -2 0.15998839E-01 0.91768831E+02</pdfrwt>
<totfact> 0.13547151E+04</totfact>
</mgrwt>
</event>
<event>
 6    1  0.2975432E-002  0.9838730E+02  0.7546771E-02  0.1375890E+00
          2   -1    0    0  501    0  0.00000000000E+00  0.00000000000E+00  0.19314883575E+04  0.19314883575E+04  0.00000000000E+00 0. -1.
         -2   -1    0    0    0  501 -0.00000000000E+00 -0.00000000000E+00 -0.35280731448E+01  0.35280731448E+01  0.00000000000E+00 0.  1.
         23    2    1    2    0    0  0.73733970603E+01  0.17936587058E+02  0.18883718934E+04  0.18909332270E+04  0.96457106060E+02 0.  0.
         11    1    3    3    0    0  0.16091758676E+02  0.56465446176E+02  0.11828250691E+04  0.11842814004E+04  0.00000000000E+00 0. -1.
        -11    1    3    3    0    0 -0.87183616158E+01 -0.38528859118E+02  0.70554682430E+03  0.70665182664E+03  0.00000000000E+00 0.  1.
         22    1    1    2    0    0 -0.73733970603E+01 -0.17936587058E+02  0.39588390997E+02  0.44083203618E+02  0.00000000000E+00 0.  1.
<mgrwt>
<rscale>  0 0.65556461E+02</rscale>
<asrwt>0</asrwt>
<pdfrwt beam="1">  1        2 0.29715121E+00 0.98387303E+02</pdfrwt>
<pdfrwt beam="2">  1       -2 0.54278203E-03 0.98387303E+02</pdfrwt>
<totfact> 0.39074824E+04</totfact>
</mgrwt>
</event>
<event>
 6    1  0.2975432E-002  0.1356573E+03  0.7546771E-02  0.1234788E+00
          2   -1    0    0  501    0  0.00000000000E+00  0.00000000000E+00  0.13086538959E+04  0.13086538959E+04  0.00000000000E+00 0. -1.
         -2   -1    0    0    0  501 -0.00000000000E+00 -0.00000000000E+00 -0.16505739050E+02  0.16505739050E+02  0.00000000000E+00 0.  1.
         23    2    1    2    0    0  0.71510746045E+02 -0.67532949587E+02  0.11090413992E+04  0.11173073538E+04  0.93425968827E+02 0.  0.
         13    1    3    3    0    0  0.46316124265E+02 -0.86892945165E+02  0.95235350893E+03  0.95743029681E+03  0.00000000000E+00 0. -1.
        -13    1    3    3    0    0  0.25194621780E+02  0.19359995578E+02  0.15668789029E+03  0.15987705701E+03  0.00000000000E+00 0.  1.
         22    1    1    2    0    0 -0.71510746045E+02  0.67532949587E+02  0.18310675766E+03  0.20785228115E+03  0.00000000000E+00 0.  1.
<mgrwt>
<rscale>  0 0.12518025E+03</rscale>
<asrwt>0</asrwt>
<pdfrwt beam="1">  1        2 0.20133129E+00 0.13565728E+03</pdfrwt>
<pdfrwt beam="2">  1       -2 0.25393455E-02 0.13565728E+03</pdfrwt>
<totfact> 0.91638620E+03</totfact>
</mgrwt>
</event>
<event>
 6    1  0.2975432E-002  0.1002806E+03  0.7546771E-02  0.1330367E+00
          2   -1    0    0  501    0  0.00000000000E+00  0.00000000000E+00  0.25821654036E+02  0.25821654036E+02  0.00000000000E+00 0.  1.
         -2   -1    0    0    0  501 -0.00000000000E+00 -0.00000000000E+00 -0.22181967163E+03  0.22181967163E+03  0.00000000000E+00 0. -1.
         23    2    1    2    0    0  0.37397732334E+02  0.13286398646E+02 -0.91083429494E+02  0.13547096608E+03  0.92092739946E+02 0.  0.
         13    1    3    3    0    0  0.14542281848E+02  0.33084896741E+02  0.33687782659E+01  0.36296515269E+02  0.00000000000E+00 0.  1.
        -13    1    3    3    0    0  0.22855450486E+02 -0.19798498094E+02 -0.94452207760E+02  0.99174450815E+02  0.00000000000E+00 0. -1.
         22    1    1    2    0    0 -0.37397732334E+02 -0.13286398646E+02 -0.10491458810E+03  0.11217035958E+03  0.00000000000E+00 0. -1.
<mgrwt>
<rscale>  0 0.79538380E+02</rscale>
<asrwt>0</asrwt>
<pdfrwt beam="1">  1        2 0.39725623E-02 0.10028056E+03</pdfrwt>
<pdfrwt beam="2">  1       -2 0.34126102E-01 0.10028056E+03</pdfrwt>
<totfact> 0.15487241E+04</totfact>
</mgrwt>
</event>
<event>
 6    1  0.2975432E-002  0.9362201E+02  0.7546771E-02  0.1382381E+00
          2   -1    0    0  501    0  0.00000000000E+00  0.00000000000E+00  0.60969513578E+03  0.60969513578E+03  0.00000000000E+00 0. -1.
         -2   -1    0    0    0  501 -0.00000000000E+00 -0.00000000000E+00 -0.56270223078E+01  0.56270223078E+01  0.00000000000E+00 0.  1.
         23    2    1    2    0    0 -0.11767825680E+02  0.16472102338E+02  0.54227830746E+03  0.55030068468E+03  0.91407160248E+02 0.  0.
         13    1    3    3    0    0 -0.34913890211E+02  0.39442566817E+02  0.43494370556E+03  0.43812181276E+03  0.00000000000E+00 0. -1.
        -13    1    3    3    0    0  0.23146064531E+02 -0.22970464480E+02  0.10733460189E+03  0.11217887192E+03  0.00000000000E+00 0.  1.
         22    1    1    2    0    0  0.11767825680E+02 -0.16472102338E+02  0.61789806012E+02  0.65021473404E+02  0.00000000000E+00 0. -1.
<mgrwt>
<rscale>  0 0.63842008E+02</rscale>
<asrwt>0</asrwt>
<pdfrwt beam="1">  1        2 0.93799199E-01 0.93622010E+02</pdfrwt>
<pdfrwt beam="2">  1       -2 0.86569622E-03 0.93622010E+02</pdfrwt>
<totfact> 0.11348938E+05</totfact>
</mgrwt>
</event>
<event>
 6    1  0.2975432E-002  0.9201094E+02  0.7546771E-02  0.1413808E+00
         -1   -1    0    0    0  501 -0.00000000000E+00  0.00000000000E+00  0.79399693559E+01  0.79399693559E+01  0.00000000000E+00 0.  1.
          1   -1    0    0  501    0  0.00000000000E+00 -0.00000000000E+00 -0.41544326523E+03  0.41544326523E+03  0.00000000000E+00 0. -1.
         23    2    1    2    0    0  0.10205884490E+02  0.79651549977E+01 -0.39429486070E+03  0.40488819384E+03  0.91095601249E+02 0.  0.
         13    1    3    3    0    0  0.38877457682E+02  0.91199983142E+01 -0.81269146305E+02  0.90550015054E+02  0.00000000000E+00 0.  1.
        -13    1    3    3    0    0 -0.28671573192E+02 -0.11548433165E+01 -0.31302571439E+03  0.31433817879E+03  0.00000000000E+00 0. -1.
         22    1    1    2    0    0 -0.10205884490E+02 -0.79651549977E+01 -0.13208435178E+02  0.18495040747E+02  0.00000000000E+00 0. -1.
<mgrwt>
<rscale>  0 0.56352743E+02</rscale>
<asrwt>0</asrwt>
<pdfrwt beam="1">  1        1 0.63914353E-01 0.92010936E+02</pdfrwt>
<pdfrwt beam="2">  1       -1 0.12215337E-02 0.92010936E+02</pdfrwt>
<totfact> 0.70839009E+04</totfact>
</mgrwt>
</event>
<event>
 6    1  0.2975432E-002  0.9466123E+02  0.7546771E-02  0.1375514E+00
          1   -1    0    0  501    0  0.00000000000E+00  0.00000000000E+00  0.13942672872E+04  0.13942672872E+04  0.00000000000E+00 0. -1.
         -1   -1    0    0    0  501 -0.00000000000E+00 -0.00000000000E+00 -0.29097831005E+01  0.29097831005E+01  0.00000000000E+00 0.  1.
         23    2    1    2    0    0 -0.18588202329E+02 -0.11597131300E+02  0.12905086002E+04  0.12939757324E+04  0.92090901898E+02 0.  0.
         11    1    3    3    0    0 -0.35413442682E+02  0.25054035748E+02  0.96558615295E+03  0.96656010439E+03  0.00000000000E+00 0. -1.
        -11    1    3    3    0    0  0.16825240353E+02 -0.36651167048E+02  0.32492244721E+03  0.32741562801E+03  0.00000000000E+00 0.  1.
         22    1    1    2    0    0  0.18588202329E+02  0.11597131300E+02  0.10084890392E+03  0.10320133789E+03  0.00000000000E+00 0.  1.
<mgrwt>
<rscale>  0 0.65657741E+02</rscale>
<asrwt>0</asrwt>
<pdfrwt beam="1">  1        1 0.21450213E+00 0.94661232E+02</pdfrwt>
<pdfrwt beam="2">  1       -1 0.44766005E-03 0.94661232E+02</pdfrwt>
<totfact> 0.46188800E+04</totfact>
</mgrwt>
</event>
<event>
 6    1  0.2975432E-002  0.1353738E+03  0.7546771E-02  0.1233377E+00
          1   -1    0    0  501    0  0.00000000000E+00  0.00000000000E+00  0.14883250775E+03  0.14883250775E+03  0.00000000000E+00 0. -1.
         -1   -1    0    0    0  501 -0.00000000000E+00 -0.00000000000E+00 -0.21019493346E+03  0.21019493346E+03  0.00000000000E+00 0.  1.
         23    2    1    2    0    0 -0.93803318906E+02  0.39763367009E+02  0.99922818659E+02  0.16825763741E+03  0.89139636880E+02 0.  0.
         11    1    3    3    0    0 -0.12121768485E+02  0.48795935925E+02  0.21565366679E+02  0.54708734897E+02  0.00000000000E+00 0. -1.
        -11    1    3    3    0    0 -0.81681550421E+02 -0.90325689153E+01  0.78357451980E+02  0.11354890251E+03  0.00000000000E+00 0.  1.
         22    1    1    2    0    0  0.93803318906E+02 -0.39763367009E+02 -0.16128524437E+03  0.19076980381E+03  0.00000000000E+00 0.  1.
<mgrwt>
<rscale>  0 0.12608882E+03</rscale>
<asrwt>0</asrwt>
<pdfrwt beam="1">  1        1 0.22897309E-01 0.13537379E+03</pdfrwt>
<pdfrwt beam="2">  1       -1 0.32337682E-01 0.13537379E+03</pdfrwt>
<totfact> 0.18775935E+03</totfact>
</mgrwt>
</event>
<event>
 6    1  0.2975432E-002  0.9770863E+02  0.7546771E-02  0.1363119E+00
          2   -1    0    0  501    0  0.00000000000E+00  0.00000000000E+00  0.67833962313E+02  0.67833962313E+02  0.00000000000E+00 0. -1.
         -2   -1    0    0    0  501 -0.00000000000E+00 -0.00000000000E+00 -0.72164744273E+02  0.72164744273E+02  0.00000000000E+00 0.  1.
         23    2    1    2    0    0 -0.14544443025E+02  0.19673520108E+02  0.25924102781E+02  0.10108924415E+03  0.94595919369E+02 0.  0.
         11    1    3    3    0    0  0.40204574944E+02  0.88318511799E+01  0.17144156178E+02  0.44590711283E+02  0.00000000000E+00 0.  1.
        -11    1    3    3    0    0 -0.54749017969E+02  0.10841668928E+02  0.87799466030E+01  0.56498532866E+02  0.00000000000E+00 0. -1.
         22    1    1    2    0    0  0.14544443025E+02 -0.19673520108E+02 -0.30254884742E+02  0.38909462437E+02  0.00000000000E+00 0.  1.
<mgrwt>
<rscale>  0 0.69117928E+02</rscale>
<asrwt>0</asrwt>
<pdfrwt beam="1">  1        2 0.10435994E-01 0.97708629E+02</pdfrwt>
<pdfrwt beam="2">  1       -2 0.11102268E-01 0.97708629E+02</pdfrwt>
<totfact> 0.30063814E+04</totfact>
</mgrwt>
</event>
<event>
 6    1  0.2975432E-002  0.9262297E+02  0.7546771E-02  0.1377237E+00
          2   -1    0    0  501    0  0.00000000000E+00  0.00000000000E+00  0.18154333957E+04  0.18154333957E+04  0.00000000000E+00 0. -1.
         -2   -1    0    0    0  501 -0.00000000000E+00 -0.00000000000E+00 -0.30186825425E+01  0.30186825425E+01  0.00000000000E+00 0.  1.
         23    2    1    2    0    0 -0.18747098888E+00  0.22735568174E+02  0.17419360755E+04  0.17443968315E+04  0.89789049320E+02 0.  0.
         13    1    3    3    0    0 -0.37122336428E+01  0.54497763735E+02  0.13706384515E+04  0.13717264857E+04  0.00000000000E+00 0. -1.
        -13    1    3    3    0    0  0.35247626539E+01 -0.31762195560E+02  0.37129762401E+03  0.37267034576E+03  0.00000000000E+00 0.  1.
         22    1    1    2    0    0  0.18747098888E+00 -0.22735568174E+02  0.70478637662E+02  0.74055246757E+02  0.00000000000E+00 0.  1.
<mgrwt>
<rscale>  0 0.65195733E+02</rscale>
<asrwt>0</asrwt>
<pdfrwt beam="1">  1        2 0.27929657E+00 0.92622970E+02</pdfrwt>
<pdfrwt beam="2">  1       -2 0.46441415E-03 0.92622970E+02</pdfrwt>
<totfact> 0.55337222E+04</totfact>
</mgrwt>
</event>
<event>
 6    1  0.2975432E-002  0.9076422E+02  0.7546771E-02  0.1417321E+00
          2   -1    0    0  501    0  0.00000000000E+00  0.00000000000E+00  0.23568069416E+03  0.23568069416E+03  0.00000000000E+00 0. -1.
         -2   -1    0    0    0  501 -0.00000000000E+00 -0.00000000000E+00 -0.11385895630E+02  0.11385895630E+02  0.00000000000E+00 0.  1.
         23    2    1    2    0    0 -0.80671995033E+01  0.99032391300E+01  0.19942652572E+03  0.21910975081E+03  0.89860947508E+02 0.  0.
         13    1    3    3    0    0  0.26869397119E+02 -0.20037337758E+02  0.13998180098E+03  0.14393875090E+03  0.00000000000E+00 0. -1.
        -13    1    3    3    0    0 -0.34936596622E+02  0.29940576888E+02  0.59444724745E+02  0.75170999913E+02  0.00000000000E+00 0.  1.
         22    1    1    2    0    0  0.80671995033E+01 -0.99032391300E+01  0.24868272811E+02  0.27956838979E+02  0.00000000000E+00 0. -1.
<mgrwt>
<rscale>  0 0.55591793E+02</rscale>
<asrwt>0</asrwt>
<pdfrwt beam="1">  1        2 0.36258565E-01 0.90764221E+02</pdfrwt>
<pdfrwt beam="2">  1       -2 0.17516764E-02 0.90764221E+02</pdfrwt>
<totfact> 0.11395813E+05</totfact>
</mgrwt>
</event>
<event>
 6    1  0.2975432E-002  0.1163953E+03  0.7546771E-02  0.1356149E+00
         -2   -1    0    0    0  501 -0.00000000000E+00  0.00000000000E+00  0.38221372218E+01  0.38221372218E+01  0.00000000000E+00 0.  1.
          2   -1    0    0  501    0  0.00000000000E+00 -0.00000000000E+00 -0.18738292084E+04  0.18738292084E+04  0.00000000000E+00 0. -1.
         23    2    1    2    0    0 -0.15407070399E+02  0.52363427824E+01 -0.18385856487E+04  0.18422662796E+04  0.11525216003E+03 0.  0.
         11    1    3    3    0    0 -0.25418066333E+02 -0.13309897392E+01 -0.87177638271E+02  0.90817345504E+02  0.00000000000E+00 0.  1.
        -11    1    3    3    0    0  0.10010995934E+02  0.65673325216E+01 -0.17514080104E+04  0.17514489341E+04  0.00000000000E+00 0. -1.
         22    1    1    2    0    0  0.15407070399E+02 -0.52363427824E+01 -0.31421422491E+02  0.35385065993E+02  0.00000000000E+00 0.  1.
<mgrwt>
<rscale>  0 0.71173060E+02</rscale>
<asrwt>0</asrwt>
<pdfrwt beam="1">  1        2 0.28828215E+00 0.11639526E+03</pdfrwt>
<pdfrwt beam="2">  1       -2 0.58801961E-03 0.11639526E+03</pdfrwt>
<totfact> 0.37796401E+04</totfact>
</mgrwt>
</event>
<event>
 6    1  0.2975432E-002  0.9082427E+02  0.7546771E-02  0.1427913E+00
          2   -1    0    0  501    0  0.00000000000E+00  0.00000000000E+00  0.51254637675E+03  0.51254637675E+03  0.00000000000E+00 0. -1.
         -2   -1    0    0    0  501 -0.00000000000E+00 -0.00000000000E+00 -0.51483858805E+01  0.51483858805E+01  0.00000000000E+00 0.  1.
         23    2    1    2    0    0 -0.11359698915E+01  0.10778239361E+02  0.47259628231E+03  0.48124452545E+03  0.90175309028E+02 0.  0.
         11    1    3    3    0    0 -0.41345232969E+02 -0.41649832280E+01  0.14451268007E+03  0.15036851424E+03  0.00000000000E+00 0.  1.
        -11    1    3    3    0    0  0.40209263078E+02  0.14943222589E+02  0.32808360224E+03  0.33087601121E+03  0.00000000000E+00 0. -1.
         22    1    1    2    0    0  0.11359698915E+01 -0.10778239361E+02  0.34801708568E+02  0.36450237182E+02  0.00000000000E+00 0. -1.
<mgrwt>
<rscale>  0 0.53381168E+02</rscale>
<asrwt>0</asrwt>
<pdfrwt beam="1">  1        2 0.78853249E-01 0.90824266E+02</pdfrwt>
<pdfrwt beam="2">  1       -2 0.79205977E-03 0.90824266E+02</pdfrwt>
<totfact> 0.15511836E+05</totfact>
</mgrwt>
</event>
<event>
 6    1  0.2975432E-002  0.9411054E+02  0.7546771E-02  0.1418876E+00
          1   -1    0    0  501    0  0.00000000000E+00  0.00000000000E+00  0.58433121469E+03  0.58433121469E+03  0.00000000000E+00 0. -1.
         -1   -1    0    0    0  501 -0.00000000000E+00 -0.00000000000E+00 -0.14682979767E+02  0.14682979767E+02  0.00000000000E+00 0.  1.
         23    2    1    2    0    0 -0.21229032896E+01  0.10983625468E+02  0.57764622773E+03  0.58526229875E+03  0.93443283237E+02 0.  0.
         13    1    3    3    0    0  0.34767133213E+01 -0.47611633125E+01  0.56303102127E+03  0.56306188569E+03  0.00000000000E+00 0. -1.
        -13    1    3    3    0    0 -0.55996166109E+01  0.15744788781E+02  0.14615206460E+02  0.22200413055E+02  0.00000000000E+00 0.  1.
         22    1    1    2    0    0  0.21229032896E+01 -0.10983625468E+02 -0.79979928018E+01  0.13751895712E+02  0.00000000000E+00 0.  1.
<mgrwt>
<rscale>  0 0.55259398E+02</rscale>
<asrwt>0</asrwt>
<pdfrwt beam="1">  1        1 0.89897092E-01 0.94110541E+02</pdfrwt>
<pdfrwt beam="2">  1       -1 0.22589204E-02 0.94110541E+02</pdfrwt>
<totfact> 0.19104065E+04</totfact>
</mgrwt>
</event>
<event>
 6    1  0.2975432E-002  0.9284212E+02  0.7546771E-02  0.1396719E+00
         -2   -1    0    0    0  501 -0.00000000000E+00  0.00000000000E+00  0.77951064697E+01  0.77951064697E+01  0.00000000000E+00 0. -1.
          2   -1    0    0  501    0  0.00000000000E+00 -0.00000000000E+00 -0.39632583758E+03  0.39632583758E+03  0.00000000000E+00 0.  1.
         23    2    1    2    0    0 -0.15697357763E+02 -0.50303430108E+01 -0.29889728357E+03  0.31298441839E+03  0.91367109166E+02 0.  0.
         11    1    3    3    0    0 -0.21134388567E+02  0.41172316505E+02 -0.14441908113E+03  0.15165319984E+03  0.00000000000E+00 0. -1.
        -11    1    3    3    0    0  0.54370308045E+01 -0.46202659516E+02 -0.15447820244E+03  0.16133121855E+03  0.00000000000E+00 0.  1.
         22    1    1    2    0    0  0.15697357763E+02  0.50303430108E+01 -0.89633447536E+02  0.91136525656E+02  0.00000000000E+00 0. -1.
<mgrwt>
<rscale>  0 0.60265988E+02</rscale>
<asrwt>0</asrwt>
<pdfrwt beam="1">  1        2 0.60973207E-01 0.92842124E+02</pdfrwt>
<pdfrwt beam="2">  1       -2 0.11992471E-02 0.92842124E+02</pdfrwt>
<totfact> 0.11383849E+05</totfact>
</mgrwt>
</event>
<event>
 6    1  0.2975432E-002  0.1026613E+03  0.7546771E-02  0.1340365E+00
         -2   -1    0    0    0  501 -0.00000000000E+00  0.00000000000E+00  0.64957827435E+02  0.64957827435E+02  0.00000000000E+00 0.  1.
          2   -1    0    0  501    0  0.00000000000E+00 -0.00000000000E+00 -0.68949136720E+02  0.68949136720E+02  0.00000000000E+00 0. -1.
         23    2    1    2    0    0 -0.12102806112E+02 -0.28613918780E+02 -0.54368007061E+01  0.10280513609E+03  0.97847345086E+02 0.  0.
         11    1    3    3    0    0  0.49667971411E+01  0.85980059781E+01 -0.44874216550E+02  0.45959657218E+02  0.00000000000E+00 0. -1.
        -11    1    3    3    0    0 -0.17069603253E+02 -0.37211924758E+02  0.39437415844E+02  0.56845478869E+02  0.00000000000E+00 0.  1.
         22    1    1    2    0    0  0.12102806112E+02  0.28613918780E+02  0.14454914213E+01  0.31101828068E+02  0.00000000000E+00 0. -1.
<mgrwt>
<rscale>  0 0.76143718E+02</rscale>
<asrwt>0</asrwt>
<pdfrwt beam="1">  1        2 0.10607559E-01 0.10266127E+03</pdfrwt>
<pdfrwt beam="2">  1       -2 0.99935119E-02 0.10266127E+03</pdfrwt>
<totfact> 0.34970678E+04</totfact>
</mgrwt>
</event>
<event>
 6    1  0.2975432E-002  0.9418262E+02  0.7546771E-02  0.1412901E+00
          2   -1    0    0  501    0  0.00000000000E+00  0.00000000000E+00  0.66977443556E+02  0.66977443556E+02  0.00000000000E+00 0. -1.
         -2   -1    0    0    0  501 -0.00000000000E+00 -0.00000000000E+00 -0.60592492354E+02  0.60592492354E+02  0.00000000000E+00 0.  1.
         23    2    1    2    0    0  0.49666452078E+01 -0.11189501000E+02  0.31762139906E+02  0.99394162562E+02  0.93383582726E+02 0.  0.
         11    1    3    3    0    0  0.34338472152E+02 -0.10376487293E+02  0.52389333566E+02  0.63493656611E+02  0.00000000000E+00 0. -1.
        -11    1    3    3    0    0 -0.29371826944E+02 -0.81301370619E+00 -0.20627193660E+02  0.35900505952E+02  0.00000000000E+00 0.  1.
         22    1    1    2    0    0 -0.49666452078E+01  0.11189501000E+02 -0.25377188704E+02  0.28175773348E+02  0.00000000000E+00 0.  1.
<mgrwt>
<rscale>  0 0.56551395E+02</rscale>
<asrwt>0</asrwt>
<pdfrwt beam="1">  1        2 0.10304222E-01 0.94182621E+02</pdfrwt>
<pdfrwt beam="2">  1       -2 0.93219219E-02 0.94182621E+02</pdfrwt>
<totfact> 0.39911704E+04</totfact>
</mgrwt>
</event>
<event>
 6    1  0.2975432E-002  0.9179449E+02  0.7546771E-02  0.1417861E+00
          2   -1    0    0  501    0  0.00000000000E+00  0.00000000000E+00  0.71342424393E+03  0.71342424393E+03  0.00000000000E+00 0. -1.
         -2   -1    0    0    0  501 -0.00000000000E+00 -0.00000000000E+00 -0.56760452419E+01  0.56760452419E+01  0.00000000000E+00 0.  1.
         23    2    1    2    0    0 -0.51100038477E+00  0.12234762545E+02  0.69633956375E+03  0.70236387716E+03  0.90974047722E+02 0.  0.
         11    1    3    3    0    0  0.17128231281E+01  0.56903328975E+01  0.69535706277E+03  0.69538245477E+03  0.00000000000E+00 0. -1.
        -11    1    3    3    0    0 -0.22238235129E+01  0.65444296472E+01  0.98250097643E+00  0.69814223903E+01  0.00000000000E+00 0.  1.
         22    1    1    2    0    0  0.51100038477E+00 -0.12234762545E+02  0.11408634940E+02  0.16736412014E+02  0.00000000000E+00 0.  1.
<mgrwt>
<rscale>  0 0.55476104E+02</rscale>
<asrwt>0</asrwt>
<pdfrwt beam="1">  1        2 0.10975750E+00 0.91794487E+02</pdfrwt>
<pdfrwt beam="2">  1       -2 0.87323830E-03 0.91794487E+02</pdfrwt>
<totfact> 0.93347316E+04</totfact>
</mgrwt>
</event>
<event>
 6    1  0.2975432E-002  0.1024378E+03  0.7546771E-02  0.1315674E+00
         -2   -1    0    0    0  501 -0.00000000000E+00  0.00000000000E+00  0.15923079670E+02  0.15923079670E+02  0.00000000000E+00 0. -1.
          2   -1    0    0  501    0  0.00000000000E+00 -0.00000000000E+00 -0.48889762738E+03  0.48889762738E+03  0.00000000000E+00 0.  1.
         23    2    1    2    0    0 -0.32538301339E+02  0.35764996730E+02 -0.42322520901E+03  0.43544583591E+03  0.90308484775E+02 0.  0.
         11    1    3    3    0    0  0.42272147711E+00  0.60719102225E+02 -0.23320938775E+03  0.24098466051E+03  0.00000000000E+00 0.  1.
        -11    1    3    3    0    0 -0.32961022816E+02 -0.24954105495E+02 -0.19001582126E+03  0.19446117540E+03  0.00000000000E+00 0. -1.
         22    1    1    2    0    0  0.32538301339E+02 -0.35764996730E+02 -0.49749338704E+02  0.69374871147E+02  0.00000000000E+00 0. -1.
<mgrwt>
<rscale>  0 0.84907841E+02</rscale>
<asrwt>0</asrwt>
<pdfrwt beam="1">  1        2 0.75215020E-01 0.10243778E+03</pdfrwt>
<pdfrwt beam="2">  1       -2 0.24497046E-02 0.10243778E+03</pdfrwt>
<totfact> 0.33092784E+04</totfact>
</mgrwt>
</event>
<event>
 6    1  0.2975432E-002  0.8052500E+02  0.7546771E-02  0.1452234E+00
          1   -1    0    0  501    0  0.00000000000E+00  0.00000000000E+00  0.58553048762E+02  0.58553048762E+02  0.00000000000E+00 0. -1.
         -1   -1    0    0    0  501 -0.00000000000E+00 -0.00000000000E+00 -0.35645831885E+02  0.35645831885E+02  0.00000000000E+00 0.  1.
         23    2    1    2    0    0  0.93413605461E+01  0.54442150340E+01  0.19357272180E+02  0.82818959666E+02  0.79795836982E+02 0.  0.
         11    1    3    3    0    0  0.78130640488E+01 -0.18604033315E+02  0.43967134555E+02  0.48376264287E+02  0.00000000000E+00 0. -1.
        -11    1    3    3    0    0  0.15282964973E+01  0.24048248349E+02 -0.24609862375E+02  0.34442695378E+02  0.00000000000E+00 0.  1.
         22    1    1    2    0    0 -0.93413605461E+01 -0.54442150340E+01  0.35499446970E+01  0.11379920981E+02  0.00000000000E+00 0. -1.
<mgrwt>
<rscale>  0 0.48744442E+02</rscale>
<asrwt>0</asrwt>
<pdfrwt beam="1">  1        1 0.90081614E-02 0.80525003E+02</pdfrwt>
<pdfrwt beam="2">  1       -1 0.54839741E-02 0.80525003E+02</pdfrwt>
<totfact> 0.93500097E+04</totfact>
</mgrwt>
</event>
<event>
 6    1  0.2975432E-002  0.9294538E+02  0.7546771E-02  0.1393374E+00
         -2   -1    0    0    0  501 -0.00000000000E+00  0.00000000000E+00  0.85610252345E+01  0.85610252345E+01  0.00000000000E+00 0.  1.
          2   -1    0    0  501    0  0.00000000000E+00 -0.00000000000E+00 -0.50812689633E+03  0.50812689633E+03  0.00000000000E+00 0. -1.
         23    2    1    2    0    0 -0.13305816414E+02  0.11102042427E+02 -0.48564657233E+03  0.49446075408E+03  0.91315628508E+02 0.  0.
         13    1    3    3    0    0 -0.20395197555E+02 -0.26500083628E+02 -0.76006132856E+02  0.83037044428E+02  0.00000000000E+00 0.  1.
        -13    1    3    3    0    0  0.70893811409E+01  0.37602126055E+02 -0.40964043947E+03  0.41142370965E+03  0.00000000000E+00 0. -1.
         22    1    1    2    0    0  0.13305816414E+02 -0.11102042427E+02 -0.13919298771E+02  0.22227167493E+02  0.00000000000E+00 0. -1.
<mgrwt>
<rscale>  0 0.61075256E+02</rscale>
<asrwt>0</asrwt>
<pdfrwt beam="1">  1        2 0.78173398E-01 0.92945382E+02</pdfrwt>
<pdfrwt beam="2">  1       -2 0.13170803E-02 0.92945382E+02</pdfrwt>
<totfact> 0.76444434E+04</totfact>
</mgrwt>
</event>
<event>
 6    1  0.2975432E-002  0.9385631E+02  0.7546771E-02  0.1416687E+00
          1   -1    0    0  501    0  0.00000000000E+00  0.00000000000E+00  0.16830840768E+03  0.16830840768E+03  0.00000000000E+00 0. -1.
         -1   -1    0    0    0  501 -0.00000000000E+00 -0.00000000000E+00 -0.22447593473E+02  0.22447593473E+02  0.00000000000E+00 0.  1.
         23    2    1    2    0    0 -0.59787799574E+01 -0.10017008531E+02  0.15117208122E+03  0.17793820778E+03  0.93128520754E+02 0.  0.
         13    1    3    3    0    0 -0.49285457938E+01  0.39209523576E+02  0.39409407822E+02  0.55810202719E+02  0.00000000000E+00 0.  1.
        -13    1    3    3    0    0 -0.10502341636E+01 -0.49226532107E+02  0.11176267340E+03  0.12212800506E+03  0.00000000000E+00 0. -1.
         22    1    1    2    0    0  0.59787799574E+01  0.10017008531E+02 -0.53112670121E+01  0.12817793374E+02  0.00000000000E+00 0.  1.
<mgrwt>
<rscale>  0 0.55728122E+02</rscale>
<asrwt>0</asrwt>
<pdfrwt beam="1">  1        1 0.25893600E-01 0.93856314E+02</pdfrwt>
<pdfrwt beam="2">  1       -1 0.34534760E-02 0.93856314E+02</pdfrwt>
<totfact> 0.48775500E+04</totfact>
</mgrwt>
</event>
<event>
 6    1  0.2975432E-002  0.9184545E+02  0.7546771E-02  0.1407041E+00
          2   -1    0    0  501    0  0.00000000000E+00  0.00000000000E+00  0.35733085838E+03  0.35733085838E+03  0.00000000000E+00 0. -1.
         -2   -1    0    0    0  501 -0.00000000000E+00 -0.00000000000E+00 -0.79881938275E+01  0.79881938275E+01  0.00000000000E+00 0.  1.
         23    2    1    2    0    0 -0.58871252130E+01  0.13212930775E+02  0.31320469728E+03  0.32639357903E+03  0.90699207579E+02 0.  0.
         13    1    3    3    0    0  0.27159477093E+02  0.20262815641E+02  0.46390356225E+02  0.57448098701E+02  0.00000000000E+00 0.  1.
        -13    1    3    3    0    0 -0.33046602306E+02 -0.70498848654E+01  0.26681434105E+03  0.26894548033E+03  0.00000000000E+00 0. -1.
         22    1    1    2    0    0  0.58871252130E+01 -0.13212930775E+02  0.36137967272E+02  0.38925473170E+02  0.00000000000E+00 0. -1.
<mgrwt>
<rscale>  0 0.57859377E+02</rscale>
<asrwt>0</asrwt>
<pdfrwt beam="1">  1        2 0.54973966E-01 0.91845446E+02</pdfrwt>
<pdfrwt beam="2">  1       -2 0.12289532E-02 0.91845446E+02</pdfrwt>
<totfact> 0.12238402E+05</totfact>
</mgrwt>
</event>
<event>
 6    1  0.2975432E-002  0.8955447E+02  0.7546771E-02  0.1424808E+00
          4   -1    0    0  501    0  0.00000000000E+00  0.00000000000E+00  0.31672684365E+03  0.31672684365E+03  0.00000000000E+00 0. -1.
         -4   -1    0    0    0  501 -0.00000000000E+00 -0.00000000000E+00 -0.82585937969E+01  0.82585937969E+01  0.00000000000E+00 0.  1.
         23    2    1    2    0    0 -0.11393175995E+02  0.32709836492E+01  0.28422100650E+03  0.29799594683E+03  0.88766547756E+02 0.  0.
         11    1    3    3    0    0 -0.24859494410E+02 -0.14711117088E+02  0.26970781673E+03  0.27125028633E+03  0.00000000000E+00 0. -1.
        -11    1    3    3    0    0  0.13466318416E+02  0.17982100738E+02  0.14513189772E+02  0.26745660508E+02  0.00000000000E+00 0.  1.
         22    1    1    2    0    0  0.11393175995E+02 -0.32709836492E+01  0.24247243348E+02  0.26989490608E+02  0.00000000000E+00 0. -1.
<mgrwt>
<rscale>  0 0.54016504E+02</rscale>
<asrwt>0</asrwt>
<pdfrwt beam="1">  1        4 0.48727197E-01 0.89554474E+02</pdfrwt>
<pdfrwt beam="2">  1       -4 0.12705531E-02 0.89554474E+02</pdfrwt>
<totfact> 0.12070749E+04</totfact>
</mgrwt>
</event>
<event>
 6    1  0.2975432E-002  0.8005358E+02  0.7546771E-02  0.1443409E+00
         -2   -1    0    0    0  501 -0.00000000000E+00  0.00000000000E+00  0.13141122198E+03  0.13141122198E+03  0.00000000000E+00 0. -1.
          2   -1    0    0  501    0  0.00000000000E+00 -0.00000000000E+00 -0.24379363859E+02  0.24379363859E+02  0.00000000000E+00 0.  1.
         23    2    1    2    0    0 -0.86973378513E+01  0.90300019417E+01  0.43649868780E+02  0.91180515467E+02  0.79065736799E+02 0.  0.
         11    1    3    3    0    0 -0.22870617595E+02  0.25785109782E+02  0.56179688202E+02  0.65909744364E+02  0.00000000000E+00 0. -1.
        -11    1    3    3    0    0  0.14173279743E+02 -0.16755107841E+02 -0.12529819421E+02  0.25270771103E+02  0.00000000000E+00 0.  1.
         22    1    1    2    0    0  0.86973378513E+01 -0.90300019417E+01  0.63381989340E+02  0.64610070372E+02  0.00000000000E+00 0. -1.
<mgrwt>
<rscale>  0 0.50360127E+02</rscale>
<asrwt>0</asrwt>
<pdfrwt beam="1">  1        2 0.37506714E-02 0.80053578E+02</pdfrwt>
<pdfrwt beam="2">  1       -2 0.20217111E-01 0.80053578E+02</pdfrwt>
<totfact> 0.40433943E+04</totfact>
</mgrwt>
</event>
<event>
 6    1  0.2975432E-002  0.8319038E+02  0.7546771E-02  0.1432839E+00
          2   -1    0    0  501    0  0.00000000000E+00  0.00000000000E+00  0.67623039672E+03  0.67623039672E+03  0.00000000000E+00 0. -1.
         -2   -1    0    0    0  501 -0.00000000000E+00 -0.00000000000E+00 -0.46310365196E+01  0.46310365196E+01  0.00000000000E+00 0.  1.
         23    2    1    2    0    0 -0.72398470506E+01  0.10904751504E+02  0.65204567752E+03  0.65733112306E+03  0.82154189086E+02 0.  0.
         13    1    3    3    0    0 -0.67884226850E+00 -0.23372242844E+02  0.62132404549E+02  0.66386431275E+02  0.00000000000E+00 0.  1.
        -13    1    3    3    0    0 -0.65610047821E+01  0.34276994348E+02  0.58991327297E+03  0.59094469179E+03  0.00000000000E+00 0. -1.
         22    1    1    2    0    0  0.72398470506E+01 -0.10904751504E+02  0.19553682686E+02  0.23530310182E+02  0.00000000000E+00 0.  1.
<mgrwt>
<rscale>  0 0.52394259E+02</rscale>
<asrwt>0</asrwt>
<pdfrwt beam="1">  1        2 0.10403537E+00 0.83190383E+02</pdfrwt>
<pdfrwt beam="2">  1       -2 0.71246769E-03 0.83190383E+02</pdfrwt>
<totfact> 0.13045579E+05</totfact>
</mgrwt>
</event>
<event>
 6    1  0.2975432E-002  0.9396783E+02  0.7546771E-02  0.1382730E+00
          2   -1    0    0  501    0  0.00000000000E+00  0.00000000000E+00  0.12754014095E+04  0.12754014095E+04  0.00000000000E+00 0.  1.
         -2   -1    0    0    0  501 -0.00000000000E+00 -0.00000000000E+00 -0.34489177178E+01  0.34489177178E+01  0.00000000000E+00 0. -1.
         23    2    1    2    0    0  0.19871068729E+02  0.12123320132E+01  0.12128557292E+04  0.12164904325E+04  0.91834761326E+02 0.  0.
         11    1    3    3    0    0  0.23578737925E+02  0.29866317591E+02  0.22373476353E+03  0.22694756712E+03  0.00000000000E+00 0. -1.
        -11    1    3    3    0    0 -0.37076691961E+01 -0.28653985578E+02  0.98912096570E+03  0.98954286541E+03  0.00000000000E+00 0.  1.
         22    1    1    2    0    0 -0.19871068729E+02 -0.12123320132E+01  0.59096762544E+02  0.62359894680E+02  0.00000000000E+00 0. -1.
<mgrwt>
<rscale>  0 0.63751644E+02</rscale>
<asrwt>0</asrwt>
<pdfrwt beam="1">  1        2 0.19621523E+00 0.93967827E+02</pdfrwt>
<pdfrwt beam="2">  1       -2 0.53060374E-03 0.93967827E+02</pdfrwt>
<totfact> 0.86878412E+04</totfact>
</mgrwt>
</event>
<event>
 6    1  0.2975432E-002  0.9613389E+02  0.7546771E-02  0.1370893E+00
          2   -1    0    0  501    0  0.00000000000E+00  0.00000000000E+00  0.25187118290E+02  0.25187118290E+02  0.00000000000E+00 0. -1.
         -2   -1    0    0    0  501 -0.00000000000E+00 -0.00000000000E+00 -0.14156762682E+03  0.14156762682E+03  0.00000000000E+00 0.  1.
         23    2    1    2    0    0  0.31233084142E+01 -0.22355513152E+02 -0.86614452764E+02  0.12939778994E+03  0.93446244388E+02 0.  0.
         11    1    3    3    0    0  0.13506971716E+02  0.20911225319E+02 -0.80771227336E+02  0.84520463763E+02  0.00000000000E+00 0.  1.
        -11    1    3    3    0    0 -0.10383663301E+02 -0.43266738471E+02 -0.58432254279E+01  0.44877326178E+02  0.00000000000E+00 0. -1.
         22    1    1    2    0    0 -0.31233084142E+01  0.22355513152E+02 -0.29766055769E+02  0.37356955173E+02  0.00000000000E+00 0.  1.
<mgrwt>
<rscale>  0 0.66919543E+02</rscale>
<asrwt>0</asrwt>
<pdfrwt beam="1">  1        2 0.38749414E-02 0.96133889E+02</pdfrwt>
<pdfrwt beam="2">  1       -2 0.21779634E-01 0.96133889E+02</pdfrwt>
<totfact> 0.35069277E+04</totfact>
</mgrwt>
</event>
<event>
 6    1  0.2975432E-002  0.1145113E+03  0.7546771E-02  0.1375463E+00
          2   -1    0    0  501    0  0.00000000000E+00  0.00000000000E+00  0.82112202498E+03  0.82112202498E+03  0.00000000000E+00 0. -1.
         -2   -1    0    0    0  501 -0.00000000000E+00 -0.00000000000E+00 -0.16708604991E+02  0.16708604991E+02  0.00000000000E+00 0.  1.
         23    2    1    2    0    0 -0.11905308821E+02  0.34207579030E+01  0.81409486062E+03  0.82210904431E+03  0.11383936348E+03 0.  0.
         11    1    3    3    0    0 -0.28928010223E+02  0.44143902374E+02  0.21472132703E+03  0.22111255544E+03  0.00000000000E+00 0. -1.
        -11    1    3    3    0    0  0.17022701403E+02 -0.40723144471E+02  0.59937353359E+03  0.60099648887E+03  0.00000000000E+00 0.  1.
         22    1    1    2    0    0  0.11905308821E+02 -0.34207579030E+01 -0.96814406384E+01  0.15721585657E+02  0.00000000000E+00 0.  1.
<mgrwt>
<rscale>  0 0.65671641E+02</rscale>
<asrwt>0</asrwt>
<pdfrwt beam="1">  1        2 0.12632643E+00 0.11451130E+03</pdfrwt>
<pdfrwt beam="2">  1       -2 0.25705553E-02 0.11451130E+03</pdfrwt>
<totfact> 0.17177336E+04</totfact>
</mgrwt>
</event>
<event>
 6    1  0.2975432E-002  0.1059395E+03  0.7546771E-02  0.1337904E+00
         -2   -1    0    0    0  501 -0.00000000000E+00  0.00000000000E+00  0.65362188836E+01  0.65362188836E+01  0.00000000000E+00 0.  1.
          2   -1    0    0  501    0  0.00000000000E+00 -0.00000000000E+00 -0.75028614526E+03  0.75028614526E+03  0.00000000000E+00 0. -1.
         23    2    1    2    0    0 -0.10785660250E+02  0.27463933961E+02 -0.64883988057E+03  0.65743164561E+03  0.10174762845E+03 0.  0.
         13    1    3    3    0    0  0.28521468527E+02  0.69773587625E+01 -0.58746100368E+02  0.65675429277E+02  0.00000000000E+00 0.  1.
        -13    1    3    3    0    0 -0.39307128777E+02  0.20486575198E+02 -0.59009378020E+03  0.59175621633E+03  0.00000000000E+00 0. -1.
         22    1    1    2    0    0  0.10785660250E+02 -0.27463933961E+02 -0.94910045803E+02  0.99390718530E+02  0.00000000000E+00 0.  1.
<mgrwt>
<rscale>  0 0.76960993E+02</rscale>
<asrwt>0</asrwt>
<pdfrwt beam="1">  1        2 0.11542857E+00 0.10593950E+03</pdfrwt>
<pdfrwt beam="2">  1       -2 0.10055727E-02 0.10593950E+03</pdfrwt>
<totfact> 0.73329251E+04</totfact>
</mgrwt>
</event>
<event>
 6    1  0.2975432E-002  0.9073208E+02  0.7546771E-02  0.1429846E+00
         -1   -1    0    0    0  501 -0.00000000000E+00  0.00000000000E+00  0.11831545404E+03  0.11831545404E+03  0.00000000000E+00 0.  1.
          1   -1    0    0  501    0  0.00000000000E+00 -0.00000000000E+00 -0.21743711801E+02  0.21743711801E+02  0.00000000000E+00 0. -1.
         23    2    1    2    0    0  0.52264549852E+01  0.91719402589E+01  0.84033286095E+02  0.12366852210E+03  0.90115869114E+02 0.  0.
         13    1    3    3    0    0  0.24425253300E+02  0.17756552581E+02 -0.63608752400E+01  0.30860150553E+02  0.00000000000E+00 0. -1.
        -13    1    3    3    0    0 -0.19198798314E+02 -0.85846123226E+01  0.90394161335E+02  0.92808371545E+02  0.00000000000E+00 0.  1.
         22    1    1    2    0    0 -0.52264549852E+01 -0.91719402589E+01  0.12538456142E+02  0.16390643741E+02  0.00000000000E+00 0.  1.
<mgrwt>
<rscale>  0 0.52990857E+02</rscale>
<asrwt>0</asrwt>
<pdfrwt beam="1">  1        1 0.33451865E-02 0.90732079E+02</pdfrwt>
<pdfrwt beam="2">  1       -1 0.18202377E-01 0.90732079E+02</pdfrwt>
<totfact> 0.58761978E+04</totfact>
</mgrwt>
</event>
<event>
 6    1  0.2975432E-002  0.9356648E+02  0.7546771E-02  0.1367573E+00
         -2   -1    0    0    0  501 -0.00000000000E+00  0.00000000000E+00  0.48159227527E+01  0.48159227527E+01  0.00000000000E+00 0. -1.
          2   -1    0    0  501    0  0.00000000000E+00 -0.00000000000E+00 -0.79792124263E+03  0.79792124263E+03  0.00000000000E+00 0.  1.
         23    2    1    2    0    0  0.39251853232E+01 -0.25567665504E+02 -0.69536788789E+03  0.70163465201E+03  0.89919813118E+02 0.  0.
         11    1    3    3    0    0 -0.11274587942E+02 -0.52921080670E+02 -0.28606836036E+03  0.29114062566E+03  0.00000000000E+00 0. -1.
        -11    1    3    3    0    0  0.15199773265E+02  0.27353415167E+02 -0.40929952753E+03  0.41049402635E+03  0.00000000000E+00 0.  1.
         22    1    1    2    0    0 -0.39251853232E+01  0.25567665504E+02 -0.97737431982E+02  0.10110251337E+03  0.00000000000E+00 0. -1.
<mgrwt>
<rscale>  0 0.67846524E+02</rscale>
<asrwt>0</asrwt>
<pdfrwt beam="1">  1        2 0.12275735E+00 0.93566476E+02</pdfrwt>
<pdfrwt beam="2">  1       -2 0.74090974E-03 0.93566476E+02</pdfrwt>
<totfact> 0.10321379E+05</totfact>
</mgrwt>
</event>
<event>
 6    1  0.2975432E-002  0.9292979E+02  0.7546771E-02  0.1397031E+00
          2   -1    0    0  501    0  0.00000000000E+00  0.00000000000E+00  0.27745331496E+04  0.27745331496E+04  0.00000000000E+00 0.  1.
         -2   -1    0    0    0  501 -0.00000000000E+00 -0.00000000000E+00 -0.58799694222E+01  0.58799694222E+01  0.00000000000E+00 0. -1.
         23    2    1    2    0    0 -0.16238199813E+02 -0.19560727542E+01  0.27606334888E+04  0.27621971699E+04  0.91479181124E+02 0.  0.
         13    1    3    3    0    0 -0.46509659439E+02  0.91238678951E+01  0.87088634103E+03  0.87217510419E+03  0.00000000000E+00 0. -1.
        -13    1    3    3    0    0  0.30271459627E+02 -0.11079940649E+02  0.18897471477E+04  0.18900220657E+04  0.00000000000E+00 0.  1.
         22    1    1    2    0    0  0.16238199813E+02  0.19560727542E+01  0.80196914384E+01  0.18215949180E+02  0.00000000000E+00 0. -1.
<mgrwt>
<rscale>  0 0.60191169E+02</rscale>
<asrwt>0</asrwt>
<pdfrwt beam="1">  1        2 0.42685021E+00 0.92929790E+02</pdfrwt>
<pdfrwt beam="2">  1       -2 0.90461289E-03 0.92929790E+02</pdfrwt>
<totfact> 0.69146596E+03</totfact>
</mgrwt>
</event>
<event>
 6    1  0.2975432E-002  0.9542533E+02  0.7546771E-02  0.1379830E+00
          2   -1    0    0  501    0  0.00000000000E+00  0.00000000000E+00  0.40551988355E+03  0.40551988355E+03  0.00000000000E+00 0. -1.
         -2   -1    0    0    0  501 -0.00000000000E+00 -0.00000000000E+00 -0.83068680683E+01  0.83068680683E+01  0.00000000000E+00 0.  1.
         23    2    1    2    0    0 -0.18305101014E+02 -0.78781245881E+01  0.34451638673E+03  0.35748781081E+03  0.93321233269E+02 0.  0.
         11    1    3    3    0    0  0.28583258107E+02 -0.31784515041E+02  0.14879822281E+03  0.15481656614E+03  0.00000000000E+00 0.  1.
        -11    1    3    3    0    0 -0.46888359120E+02  0.23906390453E+02  0.19571816392E+03  0.20267124467E+03  0.00000000000E+00 0. -1.
         22    1    1    2    0    0  0.18305101014E+02  0.78781245881E+01  0.52696628752E+02  0.56338940813E+02  0.00000000000E+00 0.  1.
<mgrwt>
<rscale>  0 0.64508350E+02</rscale>
<asrwt>0</asrwt>
<pdfrwt beam="1">  1        2 0.62387659E-01 0.95425333E+02</pdfrwt>
<pdfrwt beam="2">  1       -2 0.12779800E-02 0.95425333E+02</pdfrwt>
<totfact> 0.10191911E+05</totfact>
</mgrwt>
</event>
<event>
 6    1  0.2975432E-002  0.9472221E+02  0.7546771E-02  0.1360543E+00
         -4   -1    0    0    0  501 -0.00000000000E+00  0.00000000000E+00  0.79406138718E+01  0.79406138718E+01  0.00000000000E+00 0. -1.
          4   -1    0    0  501    0  0.00000000000E+00 -0.00000000000E+00 -0.54655865015E+03  0.54655865015E+03  0.00000000000E+00 0.  1.
         23    2    1    2    0    0  0.60307246762E+01  0.27382323254E+02 -0.48314614794E+03  0.49234388080E+03  0.90477264719E+02 0.  0.
         11    1    3    3    0    0 -0.55041508007E+01  0.30308601640E+02 -0.47995072766E+02  0.57030115020E+02  0.00000000000E+00 0. -1.
        -11    1    3    3    0    0  0.11534875477E+02 -0.29262783860E+01 -0.43515107517E+03  0.43531376578E+03  0.00000000000E+00 0.  1.
         22    1    1    2    0    0 -0.60307246762E+01 -0.27382323254E+02 -0.55471888342E+02  0.62155383219E+02  0.00000000000E+00 0.  1.
<mgrwt>
<rscale>  0 0.69867920E+02</rscale>
<asrwt>0</asrwt>
<pdfrwt beam="1">  1        4 0.84085958E-01 0.94722208E+02</pdfrwt>
<pdfrwt beam="2">  1       -4 0.12216327E-02 0.94722208E+02</pdfrwt>
<totfact> 0.41217936E+03</totfact>
</mgrwt>
</event>
<event>
 6    1  0.2975432E-002  0.9046120E+02  0.7546771E-02  0.1432424E+00
         -2   -1    0    0    0  501 -0.00000000000E+00  0.00000000000E+00  0.22512573201E+03  0.22512573201E+03  0.00000000000E+00 0.  1.
          2   -1    0    0  501    0  0.00000000000E+00 -0.00000000000E+00 -0.12765316609E+02  0.12765316609E+02  0.00000000000E+00 0. -1.
         23    2    1    2    0    0 -0.10150777165E+02  0.13795077047E+01  0.15371682271E+03  0.17835944120E+03  0.89879293285E+02 0.  0.
         11    1    3    3    0    0 -0.44377184182E+02 -0.12246966276E+02  0.48454304971E+02  0.66836684007E+02  0.00000000000E+00 0. -1.
        -11    1    3    3    0    0  0.34226407016E+02  0.13626473980E+02  0.10526251774E+03  0.11152275719E+03  0.00000000000E+00 0.  1.
         22    1    1    2    0    0  0.10150777165E+02 -0.13795077047E+01  0.58643592695E+02  0.59531607426E+02  0.00000000000E+00 0.  1.
<mgrwt>
<rscale>  0 0.52476526E+02</rscale>
<asrwt>0</asrwt>
<pdfrwt beam="1">  1        2 0.19638950E-02 0.90461200E+02</pdfrwt>
<pdfrwt beam="2">  1       -2 0.34634725E-01 0.90461200E+02</pdfrwt>
<totfact> 0.38041979E+04</totfact>
</mgrwt>
</event>
<event>
 6    1  0.2975432E-002  0.9417070E+02  0.7546771E-02  0.1394738E+00
          4   -1    0    0  501    0  0.00000000000E+00  0.00000000000E+00  0.15826578329E+03  0.15826578329E+03  0.00000000000E+00 0. -1.
         -4   -1    0    0    0  501 -0.00000000000E+00 -0.00000000000E+00 -0.19449233663E+02  0.19449233663E+02  0.00000000000E+00 0.  1.
         23    2    1    2    0    0  0.16301566418E+02 -0.15466708931E+00  0.11196404237E+03  0.14630129168E+03  0.92748887723E+02 0.  0.
         11    1    3    3    0    0  0.33060841071E+02  0.38906244904E+02  0.69312703311E+02  0.86086967336E+02  0.00000000000E+00 0. -1.
        -11    1    3    3    0    0 -0.16759274653E+02 -0.39060911993E+02  0.42651339060E+02  0.60214324344E+02  0.00000000000E+00 0.  1.
         22    1    1    2    0    0 -0.16301566418E+02  0.15466708931E+00  0.26852507257E+02  0.31413725274E+02  0.00000000000E+00 0. -1.
<mgrwt>
<rscale>  0 0.60743397E+02</rscale>
<asrwt>0</asrwt>
<pdfrwt beam="1">  1        4 0.24348581E-01 0.94170702E+02</pdfrwt>
<pdfrwt beam="2">  1       -4 0.29921899E-02 0.94170702E+02</pdfrwt>
<totfact> 0.12486084E+04</totfact>
</mgrwt>
</event>
<event>
 6    1  0.2975432E-002  0.9548048E+02  0.7546771E-02  0.1385299E+00
         -2   -1    0    0    0  501 -0.00000000000E+00  0.00000000000E+00  0.16987755638E+02  0.16987755638E+02  0.00000000000E+00 0.  1.
          2   -1    0    0  501    0  0.00000000000E+00 -0.00000000000E+00 -0.19331428941E+03  0.19331428941E+03  0.00000000000E+00 0. -1.
         23    2    1    2    0    0 -0.99429143027E+01 -0.15246869251E+02 -0.15699353864E+03  0.18374845269E+03  0.93729366378E+02 0.  0.
         13    1    3    3    0    0 -0.13952330173E+02 -0.39471412639E+02 -0.15330545300E+03  0.15891891597E+03  0.00000000000E+00 0. -1.
        -13    1    3    3    0    0  0.40094158700E+01  0.24224543388E+02 -0.36880856462E+01  0.24829536719E+02  0.00000000000E+00 0.  1.
         22    1    1    2    0    0  0.99429143027E+01  0.15246869251E+02 -0.19332995132E+02  0.26553592367E+02  0.00000000000E+00 0. -1.
<mgrwt>
<rscale>  0 0.63091132E+02</rscale>
<asrwt>0</asrwt>
<pdfrwt beam="1">  1        2 0.29740659E-01 0.95480483E+02</pdfrwt>
<pdfrwt beam="2">  1       -2 0.26135010E-02 0.95480483E+02</pdfrwt>
<totfact> 0.79659637E+04</totfact>
</mgrwt>
</event>
<event>
 6    1  0.2975432E-002  0.1113066E+03  0.7546771E-02  0.1369009E+00
          2   -1    0    0  501    0  0.00000000000E+00  0.00000000000E+00  0.19080149660E+03  0.19080149660E+03  0.00000000000E+00 0. -1.
         -2   -1    0    0    0  501 -0.00000000000E+00 -0.00000000000E+00 -0.29242551343E+02  0.29242551343E+02  0.00000000000E+00 0.  1.
         23    2    1    2    0    0  0.47709844571E+01 -0.14224839498E+02  0.16972101872E+03  0.20296400712E+03  0.11029077766E+03 0.  0.
         11    1    3    3    0    0  0.57002113101E+02  0.57862245306E+00  0.85372305073E+02  0.10265479129E+03  0.00000000000E+00 0. -1.
        -11    1    3    3    0    0 -0.52231128644E+02 -0.14803461951E+02  0.84348713651E+02  0.10030921583E+03  0.00000000000E+00 0.  1.
         22    1    1    2    0    0 -0.47709844571E+01  0.14224839498E+02 -0.81620734633E+01  0.17080040827E+02  0.00000000000E+00 0.  1.
<mgrwt>
<rscale>  0 0.67443438E+02</rscale>
<asrwt>0</asrwt>
<pdfrwt beam="1">  1        2 0.29354076E-01 0.11130662E+03</pdfrwt>
<pdfrwt beam="2">  1       -2 0.44988542E-02 0.11130662E+03</pdfrwt>
<totfact> 0.37164852E+04</totfact>
</mgrwt>
</event>
<event>
 6    1  0.2975432E-002  0.9272420E+02  0.7546771E-02  0.1392033E+00
         -2   -1    0    0    0  501 -0.00000000000E+00  0.00000000000E+00  0.32971540881E+02  0.32971540881E+02  0.00000000000E+00 0.  1.
          2   -1    0    0  501    0  0.00000000000E+00 -0.00000000000E+00 -0.93854677249E+02  0.93854677249E+02  0.00000000000E+00 0. -1.
         23    2    1    2    0    0 -0.90144681531E-01  0.17831783946E+02 -0.56059425917E+02  0.10835329667E+03  0.90993389982E+02 0.  0.
         13    1    3    3    0    0 -0.29354754562E+02  0.28429894658E+02 -0.64272158614E+02  0.76163448573E+02  0.00000000000E+00 0. -1.
        -13    1    3    3    0    0  0.29264609881E+02 -0.10598110713E+02  0.82127326971E+01  0.32189848097E+02  0.00000000000E+00 0.  1.
         22    1    1    2    0    0  0.90144681531E-01 -0.17831783946E+02 -0.48237104510E+01  0.18472921460E+02  0.00000000000E+00 0. -1.
<mgrwt>
<rscale>  0 0.61403753E+02</rscale>
<asrwt>0</asrwt>
<pdfrwt beam="1">  1        2 0.14439181E-01 0.92724202E+02</pdfrwt>
<pdfrwt beam="2">  1       -2 0.50725449E-02 0.92724202E+02</pdfrwt>
<totfact> 0.67111307E+04</totfact>
</mgrwt>
</event>
<event>
 6    1  0.2975432E-002  0.1378417E+03  0.7546771E-02  0.1230739E+00
         -2   -1    0    0    0  501 -0.00000000000E+00  0.00000000000E+00  0.23644063022E+02  0.23644063022E+02  0.00000000000E+00 0. -1.
          2   -1    0    0  501    0  0.00000000000E+00 -0.00000000000E+00 -0.63872260741E+03  0.63872260741E+03  0.00000000000E+00 0.  1.
         23    2    1    2    0    0  0.96579659762E+02  0.32471300312E+02 -0.42363863777E+03  0.44549976685E+03  0.92834965546E+02 0.  0.
         11    1    3    3    0    0  0.15542784921E+02  0.40801246702E+02 -0.69222703546E+02  0.81841936571E+02  0.00000000000E+00 0. -1.
        -11    1    3    3    0    0  0.81036874840E+02 -0.83299463905E+01 -0.35441593422E+03  0.36365783028E+03  0.00000000000E+00 0.  1.
         22    1    1    2    0    0 -0.96579659762E+02 -0.32471300312E+02 -0.19143990662E+03  0.21686690358E+03  0.00000000000E+00 0. -1.
<mgrwt>
<rscale>  0 0.12781175E+03</rscale>
<asrwt>0</asrwt>
<pdfrwt beam="1">  1        2 0.98265002E-01 0.13784175E+03</pdfrwt>
<pdfrwt beam="2">  1       -2 0.36375487E-02 0.13784175E+03</pdfrwt>
<totfact> 0.14140261E+04</totfact>
</mgrwt>
</event>
<event>
 6    1  0.2975432E-002  0.8848938E+02  0.7546771E-02  0.1413564E+00
         -2   -1    0    0    0  501 -0.00000000000E+00  0.00000000000E+00  0.76478830050E+01  0.76478830050E+01  0.00000000000E+00 0.  1.
          2   -1    0    0  501    0  0.00000000000E+00 -0.00000000000E+00 -0.36788825936E+03  0.36788825936E+03  0.00000000000E+00 0. -1.
         23    2    1    2    0    0 -0.45477032963E+01 -0.13883403435E+02 -0.33377948872E+03  0.34531017554E+03  0.87275080885E+02 0.  0.
         11    1    3    3    0    0  0.11373422832E+02 -0.48612711610E+02 -0.20430737034E+03  0.21031892937E+03  0.00000000000E+00 0. -1.
        -11    1    3    3    0    0 -0.15921126128E+02  0.34729308175E+02 -0.12947211839E+03  0.13499124617E+03  0.00000000000E+00 0.  1.
         22    1    1    2    0    0  0.45477032963E+01  0.13883403435E+02 -0.26460887634E+02  0.30225966827E+02  0.00000000000E+00 0.  1.
<mgrwt>
<rscale>  0 0.56406015E+02</rscale>
<asrwt>0</asrwt>
<pdfrwt beam="1">  1        2 0.56598183E-01 0.88489379E+02</pdfrwt>
<pdfrwt beam="2">  1       -2 0.11765976E-02 0.88489379E+02</pdfrwt>
<totfact> 0.12554527E+05</totfact>
</mgrwt>
</event>
<event>
 6    1  0.2975432E-002  0.9252994E+02  0.7546771E-02  0.1388251E+00
          2   -1    0    0  501    0  0.00000000000E+00  0.00000000000E+00  0.40271581838E+03  0.40271581838E+03  0.00000000000E+00 0. -1.
         -2   -1    0    0    0  501 -0.00000000000E+00 -0.00000000000E+00 -0.78256767560E+01  0.78256767560E+01  0.00000000000E+00 0.  1.
         23    2    1    2    0    0 -0.53935801976E+01 -0.18290396555E+02  0.30881766950E+03  0.32238198191E+03  0.90543690866E+02 0.  0.
         11    1    3    3    0    0  0.24447748404E+02 -0.25593410949E+02  0.47353604603E+02  0.59119192779E+02  0.00000000000E+00 0.  1.
        -11    1    3    3    0    0 -0.29841328601E+02  0.73030143936E+01  0.26146406490E+03  0.26326278914E+03  0.00000000000E+00 0. -1.
         22    1    1    2    0    0  0.53935801976E+01  0.18290396555E+02  0.86072472122E+02  0.88159513217E+02  0.00000000000E+00 0. -1.
<mgrwt>
<rscale>  0 0.62343914E+02</rscale>
<asrwt>0</asrwt>
<pdfrwt beam="1">  1        2 0.61956264E-01 0.92529937E+02</pdfrwt>
<pdfrwt beam="2">  1       -2 0.12039506E-02 0.92529937E+02</pdfrwt>
<totfact> 0.11125993E+05</totfact>
</mgrwt>
</event>
<event>
 6    1  0.2975432E-002  0.9856722E+02  0.7546771E-02  0.1368728E+00
         -2   -1    0    0    0  501 -0.00000000000E+00  0.00000000000E+00  0.83541871648E+02  0.83541871648E+02  0.00000000000E+00 0.  1.
          2   -1    0    0  501    0  0.00000000000E+00 -0.00000000000E+00 -0.39556385758E+03  0.39556385758E+03  0.00000000000E+00 0. -1.
         23    2    1    2    0    0  0.75983443235E+01  0.20332784639E+02 -0.38787759304E+03  0.40020560186E+03  0.96147488826E+02 0.  0.
         13    1    3    3    0    0 -0.95266206765E+01 -0.27042359571E+02 -0.27629584638E+03  0.27777948168E+03  0.00000000000E+00 0. -1.
        -13    1    3    3    0    0  0.17124965000E+02  0.47375144210E+02 -0.11158174666E+03  0.12242612018E+03  0.00000000000E+00 0.  1.
         22    1    1    2    0    0 -0.75983443235E+01 -0.20332784639E+02  0.75855607113E+02  0.78900127365E+02  0.00000000000E+00 0.  1.
<mgrwt>
<rscale>  0 0.67521966E+02</rscale>
<asrwt>0</asrwt>
<pdfrwt beam="1">  1        2 0.60855977E-01 0.98567219E+02</pdfrwt>
<pdfrwt beam="2">  1       -2 0.12852596E-01 0.98567219E+02</pdfrwt>
<totfact> 0.34052453E+03</totfact>
</mgrwt>
</event>
<event>
 6    1  0.2975432E-002  0.9251089E+02  0.7546771E-02  0.1408350E+00
          2   -1    0    0  501    0  0.00000000000E+00  0.00000000000E+00  0.21039346206E+04  0.21039346206E+04  0.00000000000E+00 0. -1.
         -2   -1    0    0    0  501 -0.00000000000E+00 -0.00000000000E+00 -0.23551116826E+01  0.23551116826E+01  0.00000000000E+00 0.  1.
         23    2    1    2    0    0  0.12901117400E+02 -0.50877897637E+01  0.20664819546E+04  0.20685516514E+04  0.91465518627E+02 0.  0.
         11    1    3    3    0    0 -0.35024632999E+02 -0.43029662984E+01  0.45869682276E+03  0.46005218796E+03  0.00000000000E+00 0.  1.
        -11    1    3    3    0    0  0.47925750399E+02 -0.78482346536E+00  0.16077851319E+04  0.16084994634E+04  0.00000000000E+00 0. -1.
         22    1    1    2    0    0 -0.12901117400E+02  0.50877897637E+01  0.35097554302E+02  0.37738080937E+02  0.00000000000E+00 0. -1.
<mgrwt>
<rscale>  0 0.57563735E+02</rscale>
<asrwt>0</asrwt>
<pdfrwt beam="1">  1        2 0.32368075E+00 0.92510894E+02</pdfrwt>
<pdfrwt beam="2">  1       -2 0.36232656E-03 0.92510894E+02</pdfrwt>
<totfact> 0.56060116E+04</totfact>
</mgrwt>
</event>
<event>
 6    1  0.2975432E-002  0.9347383E+02  0.7546771E-02  0.1392329E+00
         -2   -1    0    0    0  501 -0.00000000000E+00  0.00000000000E+00  0.73336416304E+02  0.73336416304E+02  0.00000000000E+00 0.  1.
          2   -1    0    0  501    0  0.00000000000E+00 -0.00000000000E+00 -0.53757396810E+02  0.53757396810E+02  0.00000000000E+00 0. -1.
         23    2    1    2    0    0  0.14240629206E+02  0.98656839966E+01 -0.87552886993E+01  0.93882967570E+02  0.91854391722E+02 0.  0.
         13    1    3    3    0    0 -0.81554000909E+01  0.41176448941E+02 -0.28383389023E+02  0.50671760089E+02  0.00000000000E+00 0. -1.
        -13    1    3    3    0    0  0.22396029297E+02 -0.31310764944E+02  0.19628100324E+02  0.43211207481E+02  0.00000000000E+00 0.  1.
         22    1    1    2    0    0 -0.14240629206E+02 -0.98656839966E+01  0.28334308194E+02  0.33210845544E+02  0.00000000000E+00 0.  1.
<mgrwt>
<rscale>  0 0.61331092E+02</rscale>
<asrwt>0</asrwt>
<pdfrwt beam="1">  1        2 0.82703687E-02 0.93473828E+02</pdfrwt>
<pdfrwt beam="2">  1       -2 0.11282526E-01 0.93473828E+02</pdfrwt>
<totfact> 0.38740737E+04</totfact>
</mgrwt>
</event>
<event>
 6    1  0.2975432E-002  0.9182210E+02  0.7546771E-02  0.1409583E+00
          2   -1    0    0  501    0  0.00000000000E+00  0.00000000000E+00  0.11974132068E+03  0.11974132068E+03  0.00000000000E+00 0. -1.
         -2   -1    0    0    0  501 -0.00000000000E+00 -0.00000000000E+00 -0.24538876767E+02  0.24538876767E+02  0.00000000000E+00 0.  1.
         23    2    1    2    0    0  0.94243612893E+01  0.10233137517E+02  0.92046860032E+02  0.13001508620E+03  0.90762120454E+02 0.  0.
         13    1    3    3    0    0  0.25644359447E+02  0.16856442204E+02  0.10424401228E+03  0.10866732219E+03  0.00000000000E+00 0. -1.
        -13    1    3    3    0    0 -0.16219998157E+02 -0.66233046867E+01 -0.12197152252E+02  0.21347764011E+02  0.00000000000E+00 0.  1.
         22    1    1    2    0    0 -0.94243612893E+01 -0.10233137517E+02  0.31555838804E+01  0.14265111243E+02  0.00000000000E+00 0.  1.
<mgrwt>
<rscale>  0 0.57286930E+02</rscale>
<asrwt>0</asrwt>
<pdfrwt beam="1">  1        2 0.18421741E-01 0.91822101E+02</pdfrwt>
<pdfrwt beam="2">  1       -2 0.37752119E-02 0.91822101E+02</pdfrwt>
<totfact> 0.78428874E+04</totfact>
</mgrwt>
</event>
<event>
 6    1  0.2975432E-002  0.9591550E+02  0.7546771E-02  0.1356262E+00
         -1   -1    0    0    0  501 -0.00000000000E+00  0.00000000000E+00  0.84919284606E+01  0.84919284606E+01  0.00000000000E+00 0.  1.
          1   -1    0    0  501    0  0.00000000000E+00 -0.00000000000E+00 -0.59535384428E+03  0.59535384428E+03  0.00000000000E+00 0. -1.
         23    2    1    2    0    0 -0.18099472422E+02 -0.22690249537E+02 -0.54194366546E+03  0.55036598645E+03  0.91418511183E+02 0.  0.
         13    1    3    3    0    0  0.17722919436E+02  0.26037745502E+02 -0.26686951815E+03  0.26872179997E+03  0.00000000000E+00 0. -1.
        -13    1    3    3    0    0 -0.35822391858E+02 -0.48727995039E+02 -0.27507414731E+03  0.28164418648E+03  0.00000000000E+00 0.  1.
         22    1    1    2    0    0  0.18099472422E+02  0.22690249537E+02 -0.44918250364E+02  0.53479786291E+02  0.00000000000E+00 0.  1.
<mgrwt>
<rscale>  0 0.71139179E+02</rscale>
<asrwt>0</asrwt>
<pdfrwt beam="1">  1        1 0.91592914E-01 0.95915497E+02</pdfrwt>
<pdfrwt beam="2">  1       -1 0.13064503E-02 0.95915497E+02</pdfrwt>
<totfact> 0.40732928E+04</totfact>
</mgrwt>
</event>
<event>
 6    1  0.2975432E-002  0.9921368E+02  0.7546771E-02  0.1332849E+00
         -2   -1    0    0    0  501 -0.00000000000E+00  0.00000000000E+00  0.33328222874E+02  0.33328222874E+02  0.00000000000E+00 0.  1.
          2   -1    0    0  501    0  0.00000000000E+00 -0.00000000000E+00 -0.14972252033E+03  0.14972252033E+03  0.00000000000E+00 0. -1.
         23    2    1    2    0    0  0.34935090874E+02  0.17858220630E+02 -0.65902654091E+02  0.11910715347E+03  0.91126162943E+02 0.  0.
         11    1    3    3    0    0  0.21622132557E+02  0.48785405215E+02 -0.10667173661E+02  0.54418020657E+02  0.00000000000E+00 0.  1.
        -11    1    3    3    0    0  0.13312958318E+02 -0.30927184586E+02 -0.55235480430E+02  0.64689132811E+02  0.00000000000E+00 0. -1.
         22    1    1    2    0    0 -0.34935090874E+02 -0.17858220630E+02 -0.50491643366E+02  0.63943589735E+02  0.00000000000E+00 0. -1.
<mgrwt>
<rscale>  0 0.78676816E+02</rscale>
<asrwt>0</asrwt>
<pdfrwt beam="1">  1        2 0.23034234E-01 0.99213679E+02</pdfrwt>
<pdfrwt beam="2">  1       -2 0.51274188E-02 0.99213679E+02</pdfrwt>
<totfact> 0.39286874E+04</totfact>
</mgrwt>
</event>
<event>
 6    1  0.2975432E-002  0.9338512E+02  0.7546771E-02  0.1390421E+00
          4   -1    0    0  501    0  0.00000000000E+00  0.00000000000E+00  0.30536738294E+02  0.30536738294E+02  0.00000000000E+00 0. -1.
         -4   -1    0    0    0  501 -0.00000000000E+00 -0.00000000000E+00 -0.24293535194E+03  0.24293535194E+03  0.00000000000E+00 0.  1.
         23    2    1    2    0    0  0.17913090646E+02 -0.10898071286E+00 -0.23007556067E+03  0.24830534335E+03  0.91650909572E+02 0.  0.
         11    1    3    3    0    0 -0.28873676365E+02  0.11818742715E+02 -0.16120154996E+03  0.16419290964E+03  0.00000000000E+00 0.  1.
        -11    1    3    3    0    0  0.46786767011E+02 -0.11927723428E+02 -0.68874010705E+02  0.84112433707E+02  0.00000000000E+00 0. -1.
         22    1    1    2    0    0 -0.17913090646E+02  0.10898071286E+00  0.17676947016E+02  0.25166746891E+02  0.00000000000E+00 0. -1.
<mgrwt>
<rscale>  0 0.61802051E+02</rscale>
<asrwt>0</asrwt>
<pdfrwt beam="1">  1        4 0.46979597E-02 0.93385116E+02</pdfrwt>
<pdfrwt beam="2">  1       -4 0.37374670E-01 0.93385116E+02</pdfrwt>
<totfact> 0.27437998E+03</totfact>
</mgrwt>
</event>
<event>
 6    1  0.2975432E-002  0.9484530E+02  0.7546771E-02  0.1405270E+00
         -3   -1    0    0    0  501 -0.00000000000E+00  0.00000000000E+00  0.36552976582E+03  0.36552976582E+03  0.00000000000E+00 0.  1.
          3   -1    0    0  501    0  0.00000000000E+00 -0.00000000000E+00 -0.86238148670E+01  0.86238148670E+01  0.00000000000E+00 0. -1.
         23    2    1    2    0    0 -0.83424634290E+01 -0.10621049857E+02  0.33704514797E+03  0.35013577705E+03  0.93878789984E+02 0.  0.
         13    1    3    3    0    0  0.29987441390E+02  0.26288034566E+01  0.27076015640E+03  0.27242837507E+03  0.00000000000E+00 0.  1.
        -13    1    3    3    0    0 -0.38329904819E+02 -0.13249853314E+02  0.66284991566E+02  0.77707401984E+02  0.00000000000E+00 0. -1.
         22    1    1    2    0    0  0.83424634290E+01  0.10621049857E+02  0.19860802988E+02  0.24017803635E+02  0.00000000000E+00 0. -1.
<mgrwt>
<rscale>  0 0.58262749E+02</rscale>
<asrwt>0</asrwt>
<pdfrwt beam="1">  1        3 0.13267410E-02 0.94845298E+02</pdfrwt>
<pdfrwt beam="2">  1       -3 0.56235337E-01 0.94845298E+02</pdfrwt>
<totfact> 0.11700858E+04</totfact>
</mgrwt>
</event>
<event>
 6    1  0.2975432E-002  0.9966366E+02  0.7546771E-02  0.1331304E+00
          4   -1    0    0  501    0  0.00000000000E+00  0.00000000000E+00  0.14664180760E+02  0.14664180760E+02  0.00000000000E+00 0. -1.
         -4   -1    0    0    0  501 -0.00000000000E+00 -0.00000000000E+00 -0.33243661404E+03  0.33243661404E+03  0.00000000000E+00 0.  1.
         23    2    1    2    0    0 -0.36966827727E+02  0.14663311336E+02 -0.23550062891E+03  0.25572131764E+03  0.91385376440E+02 0.  0.
         13    1    3    3    0    0  0.10189246755E+02  0.28501355763E+02 -0.24120053584E+02  0.38703036246E+02  0.00000000000E+00 0. -1.
        -13    1    3    3    0    0 -0.47156074482E+02 -0.13838044427E+02 -0.21138057533E+03  0.21701828139E+03  0.00000000000E+00 0.  1.
         22    1    1    2    0    0  0.36966827727E+02 -0.14663311336E+02 -0.82271804369E+02  0.91379477158E+02  0.00000000000E+00 0. -1.
<mgrwt>
<rscale>  0 0.79211514E+02</rscale>
<asrwt>0</asrwt>
<pdfrwt beam="1">  1        4 0.22560284E-02 0.99663665E+02</pdfrwt>
<pdfrwt beam="2">  1       -4 0.51144081E-01 0.99663665E+02</pdfrwt>
<totfact> 0.47168219E+03</totfact>
</mgrwt>
</event>
<event>
 6    1  0.2975432E-002  0.9229380E+02  0.7546771E-02  0.1388793E+00
          2   -1    0    0  501    0  0.00000000000E+00  0.00000000000E+00  0.54083015272E+02  0.54083015272E+02  0.00000000000E+00 0. -1.
         -2   -1    0    0    0  501 -0.00000000000E+00 -0.00000000000E+00 -0.66019349545E+02  0.66019349545E+02  0.00000000000E+00 0.  1.
         23    2    1    2    0    0  0.66163616476E+01 -0.17862704827E+02  0.78622584225E+01  0.92628072508E+02  0.90306656697E+02 0.  0.
         11    1    3    3    0    0  0.94504933346E+01 -0.50507172755E+02  0.23284081383E+02  0.56413072685E+02  0.00000000000E+00 0. -1.
        -11    1    3    3    0    0 -0.28341316870E+01  0.32644467928E+02 -0.15421822960E+02  0.36214999822E+02  0.00000000000E+00 0.  1.
         22    1    1    2    0    0 -0.66163616476E+01  0.17862704827E+02 -0.19798592695E+02  0.27474292309E+02  0.00000000000E+00 0. -1.
<mgrwt>
<rscale>  0 0.62207914E+02</rscale>
<asrwt>0</asrwt>
<pdfrwt beam="1">  1        2 0.83204638E-02 0.92293796E+02</pdfrwt>
<pdfrwt beam="2">  1       -2 0.10156823E-01 0.92293796E+02</pdfrwt>
<totfact> 0.45252234E+04</totfact>
</mgrwt>
</event>
<event>
 6    1  0.2975432E-002  0.9046692E+02  0.7546771E-02  0.1432658E+00
         -1   -1    0    0    0  501 -0.00000000000E+00  0.00000000000E+00  0.34429996920E+01  0.34429996920E+01  0.00000000000E+00 0.  1.
          1   -1    0    0  501    0  0.00000000000E+00 -0.00000000000E+00 -0.80768614173E+03  0.80768614173E+03  0.00000000000E+00 0. -1.
         23    2    1    2    0    0  0.74350491252E+00  0.10178808514E+02 -0.77265537062E+03  0.77793353560E+03  0.89889393875E+02 0.  0.
         11    1    3    3    0    0 -0.31396091753E+02 -0.16360923490E+02 -0.16038132566E+03  0.16424239409E+03  0.00000000000E+00 0.  1.
        -11    1    3    3    0    0  0.32139596665E+02  0.26539732004E+02 -0.61227404496E+03  0.61369114152E+03  0.00000000000E+00 0. -1.
         22    1    1    2    0    0 -0.74350491252E+00 -0.10178808514E+02 -0.31587771425E+02  0.33195605823E+02  0.00000000000E+00 0.  1.
<mgrwt>
<rscale>  0 0.52430075E+02</rscale>
<asrwt>0</asrwt>
<pdfrwt beam="1">  1        1 0.12425933E+00 0.90466923E+02</pdfrwt>
<pdfrwt beam="2">  1       -1 0.52969257E-03 0.90466923E+02</pdfrwt>
<totfact> 0.93873239E+04</totfact>
</mgrwt>
</event>
<event>
 6    1  0.2975432E-002  0.7952994E+02  0.7546771E-02  0.1385665E+00
          2   -1    0    0  501    0  0.00000000000E+00  0.00000000000E+00  0.10992570721E+02  0.10992570721E+02  0.00000000000E+00 0. -1.
         -2   -1    0    0    0  501 -0.00000000000E+00 -0.00000000000E+00 -0.27946724456E+03  0.27946724456E+03  0.00000000000E+00 0.  1.
         23    2    1    2    0    0  0.25282482874E+02 -0.18472520847E+02 -0.19442216991E+03  0.21005949622E+03  0.73106592269E+02 0.  0.
         13    1    3    3    0    0 -0.21326531109E+02 -0.15622152059E+02 -0.11434968499E+03  0.11736576597E+03  0.00000000000E+00 0. -1.
        -13    1    3    3    0    0  0.46609013984E+02 -0.28503687875E+01 -0.80072484919E+02  0.92693730251E+02  0.00000000000E+00 0.  1.
         22    1    1    2    0    0 -0.25282482874E+02  0.18472520847E+02 -0.74052503932E+02  0.80400319062E+02  0.00000000000E+00 0. -1.
<mgrwt>
<rscale>  0 0.62997819E+02</rscale>
<asrwt>0</asrwt>
<pdfrwt beam="1">  1        2 0.16911645E-02 0.79529943E+02</pdfrwt>
<pdfrwt beam="2">  1       -2 0.42994966E-01 0.79529943E+02</pdfrwt>
<totfact> 0.30530357E+04</totfact>
</mgrwt>
</event>
