<event>
 6    1  0.6091287E-004  0.1977932E+04  0.7818608E-02  0.8617008E-01
          2   -1    0    0  501    0  0.00000000000E+00  0.00000000000E+00  0.42184683190E+04  0.42184683190E+04  0.00000000000E+00 0.  1.
         -2   -1    0    0    0  501 -0.00000000000E+00 -0.00000000000E+00 -0.23185055979E+03  0.23185055979E+03  0.00000000000E+00 0. -1.
         23    2    1    2    0    0  0.34121572116E+03 -0.39227719158E+03  0.38849881774E+04  0.39205659786E+04  0.85993550368E+02 0.  0.
         11    1    3    3    0    0  0.15578118899E+03 -0.15059725560E+03  0.19048194313E+04  0.19171031215E+04  0.00000000000E+00 0.  1.
        -11    1    3    3    0    0  0.18543453217E+03 -0.24167993599E+03  0.19801687460E+04  0.20034628571E+04  0.00000000000E+00 0. -1.
         22    1    1    2    0    0 -0.34121572116E+03  0.39227719158E+03  0.10162958187E+03  0.52975290024E+03  0.00000000000E+00 0. -1.
<mgrwt>
<rscale>  0 0.19779325E+04</rscale>
<asrwt>0</asrwt>
<pdfrwt beam="1">  1        2 0.64899507E+00 0.19779325E+04</pdfrwt>
<pdfrwt beam="2">  1       -2 0.35669320E-01 0.19779325E+04</pdfrwt>
<totfact> 0.15616456E+00</totfact>
</mgrwt>
</event>
<event>
 6    1  0.6091287E-004  0.1480279E+04  0.7818608E-02  0.8897674E-01
          2   -1    0    0  501    0  0.00000000000E+00  0.00000000000E+00  0.17893081747E+04  0.17893081747E+04  0.00000000000E+00 0.  1.
         -2   -1    0    0    0  501 -0.00000000000E+00 -0.00000000000E+00 -0.30615537152E+03  0.30615537152E+03  0.00000000000E+00 0. -1.
         23    2    1    2    0    0  0.65888267187E+03  0.12337120754E+03  0.30862758800E+03  0.74311140596E+03  0.87273956320E+02 0.  0.
         13    1    3    3    0    0  0.39245869248E+03  0.33938279198E+02  0.20029558577E+03  0.44192075509E+03  0.00000000000E+00 0. -1.
        -13    1    3    3    0    0  0.26642397939E+03  0.89432928341E+02  0.10833200223E+03  0.30119065088E+03  0.00000000000E+00 0.  1.
         22    1    1    2    0    0 -0.65888267187E+03 -0.12337120754E+03  0.11745252152E+04  0.13523521402E+04  0.00000000000E+00 0.  1.
<mgrwt>
<rscale>  0 0.14802788E+04</rscale>
<asrwt>0</asrwt>
<pdfrwt beam="1">  1        2 0.27527817E+00 0.14802788E+04</pdfrwt>
<pdfrwt beam="2">  1       -2 0.47100827E-01 0.14802788E+04</pdfrwt>
<totfact> 0.36162480E+01</totfact>
</mgrwt>
</event>
<event>
 6    1  0.6091287E-004  0.1962721E+04  0.7818608E-02  0.8624251E-01
          2   -1    0    0  501    0  0.00000000000E+00  0.00000000000E+00  0.29435793987E+04  0.29435793987E+04  0.00000000000E+00 0.  1.
         -2   -1    0    0    0  501 -0.00000000000E+00 -0.00000000000E+00 -0.32717587966E+03  0.32717587966E+03  0.00000000000E+00 0. -1.
         23    2    1    2    0    0  0.18726404375E+03 -0.44592821195E+03  0.27299596843E+04  0.27739506941E+04  0.90569216933E+02 0.  0.
         11    1    3    3    0    0  0.10279769703E+03 -0.21480442291E+03  0.15900279860E+04  0.16077615815E+04  0.00000000000E+00 0. -1.
        -11    1    3    3    0    0  0.84466346721E+02 -0.23112378904E+03  0.11399316983E+04  0.11661891126E+04  0.00000000000E+00 0.  1.
         22    1    1    2    0    0 -0.18726404375E+03  0.44592821195E+03 -0.11355616525E+03  0.49680458428E+03  0.00000000000E+00 0. -1.
<mgrwt>
<rscale>  0 0.19627207E+04</rscale>
<asrwt>0</asrwt>
<pdfrwt beam="1">  1        2 0.45285835E+00 0.19627207E+04</pdfrwt>
<pdfrwt beam="2">  1       -2 0.50334753E-01 0.19627207E+04</pdfrwt>
<totfact> 0.65837041E+00</totfact>
</mgrwt>
</event>
<event>
 6    1  0.6091287E-004  0.4115557E+04  0.7818608E-02  0.7981632E-01
         -2   -1    0    0    0  501 -0.00000000000E+00  0.00000000000E+00  0.15137760316E+04  0.15137760316E+04  0.00000000000E+00 0.  1.
          2   -1    0    0  501    0  0.00000000000E+00 -0.00000000000E+00 -0.27972777735E+04  0.27972777735E+04  0.00000000000E+00 0. -1.
         23    2    1    2    0    0  0.11423324328E+04  0.16284852592E+04 -0.94555162005E+02  0.19936238502E+04  0.93315330346E+02 0.  0.
         11    1    3    3    0    0  0.64466507167E+03  0.98928242661E+03 -0.77856985624E+02  0.11833572936E+04  0.00000000000E+00 0.  1.
        -11    1    3    3    0    0  0.49766736115E+03  0.63920283255E+03 -0.16698176380E+02  0.81026655651E+03  0.00000000000E+00 0. -1.
         22    1    1    2    0    0 -0.11423324328E+04 -0.16284852592E+04 -0.11889465799E+04  0.23174299550E+04  0.00000000000E+00 0.  1.
<mgrwt>
<rscale>  0 0.41155569E+04</rscale>
<asrwt>0</asrwt>
<pdfrwt beam="1">  1        2 0.43035042E+00 0.41155569E+04</pdfrwt>
<pdfrwt beam="2">  1       -2 0.23288862E+00 0.41155569E+04</pdfrwt>
<totfact> 0.14875278E-01</totfact>
</mgrwt>
</event>
<event>
 6    1  0.6091287E-004  0.2212202E+04  0.7818608E-02  0.8513366E-01
          2   -1    0    0  501    0  0.00000000000E+00  0.00000000000E+00  0.10435768103E+04  0.10435768103E+04  0.00000000000E+00 0.  1.
         -2   -1    0    0    0  501 -0.00000000000E+00 -0.00000000000E+00 -0.11723717167E+04  0.11723717167E+04  0.00000000000E+00 0. -1.
         23    2    1    2    0    0  0.96749445293E+03  0.41833189715E+03 -0.39320365976E+03  0.11292291145E+04  0.97479137912E+02 0.  0.
         11    1    3    3    0    0  0.77792242281E+03  0.29468577474E+03 -0.32112723626E+03  0.89169821330E+03  0.00000000000E+00 0.  1.
        -11    1    3    3    0    0  0.18957203013E+03  0.12364612241E+03 -0.72076423501E+02  0.23753090118E+03  0.00000000000E+00 0. -1.
         22    1    1    2    0    0 -0.96749445293E+03 -0.41833189715E+03  0.26440875336E+03  0.10867194125E+04  0.00000000000E+00 0.  1.
<mgrwt>
<rscale>  0 0.22122025E+04</rscale>
<asrwt>0</asrwt>
<pdfrwt beam="1">  1        2 0.16055028E+00 0.22122025E+04</pdfrwt>
<pdfrwt beam="2">  1       -2 0.18036488E+00 0.22122025E+04</pdfrwt>
<totfact> 0.38889236E+00</totfact>
</mgrwt>
</event>
<event>
 6    1  0.6091287E-004  0.2125593E+04  0.7818608E-02  0.8550052E-01
          2   -1    0    0  501    0  0.00000000000E+00  0.00000000000E+00  0.13851018277E+04  0.13851018277E+04  0.00000000000E+00 0.  1.
         -2   -1    0    0    0  501 -0.00000000000E+00 -0.00000000000E+00 -0.81548990115E+03  0.81548990115E+03  0.00000000000E+00 0. -1.
         23    2    1    2    0    0 -0.73605005956E+03  0.25707470847E+03 -0.45950605925E+03  0.90949106484E+03  0.90394040861E+02 0.  0.
         13    1    3    3    0    0 -0.17769495482E+03  0.47719840302E+02 -0.68063013278E+02  0.19617658857E+03  0.00000000000E+00 0. -1.
        -13    1    3    3    0    0 -0.55835510474E+03  0.20935486817E+03 -0.39144304597E+03  0.71331447627E+03  0.00000000000E+00 0.  1.
         22    1    1    2    0    0  0.73605005956E+03 -0.25707470847E+03  0.10291179858E+04  0.12911006640E+04  0.00000000000E+00 0.  1.
<mgrwt>
<rscale>  0 0.21255931E+04</rscale>
<asrwt>0</asrwt>
<pdfrwt beam="1">  1        2 0.21309259E+00 0.21255931E+04</pdfrwt>
<pdfrwt beam="2">  1       -2 0.12545998E+00 0.21255931E+04</pdfrwt>
<totfact> 0.64489450E+00</totfact>
</mgrwt>
</event>
<event>
 6    1  0.6091287E-004  0.2150756E+04  0.7818608E-02  0.8539209E-01
          2   -1    0    0  501    0  0.00000000000E+00  0.00000000000E+00  0.72598277304E+03  0.72598277304E+03  0.00000000000E+00 0.  1.
         -2   -1    0    0    0  501 -0.00000000000E+00 -0.00000000000E+00 -0.15929268060E+04  0.15929268060E+04  0.00000000000E+00 0. -1.
         23    2    1    2    0    0  0.10064190930E+04 -0.96058670616E+02 -0.82316637685E+03  0.13069692932E+04  0.91973858072E+02 0.  0.
         13    1    3    3    0    0  0.33437708906E+03  0.93644200042E+01 -0.28868553786E+03  0.44185412730E+03  0.00000000000E+00 0.  1.
        -13    1    3    3    0    0  0.67204200392E+03 -0.10542309062E+03 -0.53448083899E+03  0.86511516593E+03  0.00000000000E+00 0. -1.
         22    1    1    2    0    0 -0.10064190930E+04  0.96058670616E+02 -0.43777656132E+02  0.10119402858E+04  0.00000000000E+00 0.  1.
<mgrwt>
<rscale>  0 0.21507556E+04</rscale>
<asrwt>0</asrwt>
<pdfrwt beam="1">  1        2 0.11168966E+00 0.21507556E+04</pdfrwt>
<pdfrwt beam="2">  1       -2 0.24506566E+00 0.21507556E+04</pdfrwt>
<totfact> 0.24732118E+00</totfact>
</mgrwt>
</event>
<event>
 6    1  0.6091287E-004  0.2205086E+04  0.7818608E-02  0.8516314E-01
          2   -1    0    0  501    0  0.00000000000E+00  0.00000000000E+00  0.19685487661E+04  0.19685487661E+04  0.00000000000E+00 0.  1.
         -2   -1    0    0    0  501 -0.00000000000E+00 -0.00000000000E+00 -0.61751136668E+03  0.61751136668E+03  0.00000000000E+00 0. -1.
         23    2    1    2    0    0 -0.10292791463E+04 -0.33758296864E+03  0.44233170592E+03  0.11721563669E+04  0.70109833100E+02 0.  0.
         11    1    3    3    0    0 -0.67524346611E+03 -0.20957789621E+03  0.32231945915E+03  0.77702410957E+03  0.00000000000E+00 0.  1.
        -11    1    3    3    0    0 -0.35403568020E+03 -0.12800507243E+03  0.12001224677E+03  0.39513225735E+03  0.00000000000E+00 0. -1.
         22    1    1    2    0    0  0.10292791463E+04  0.33758296864E+03  0.90870569351E+03  0.14139037659E+04  0.00000000000E+00 0. -1.
<mgrwt>
<rscale>  0 0.22050862E+04</rscale>
<asrwt>0</asrwt>
<pdfrwt beam="1">  1        2 0.30285365E+00 0.22050862E+04</pdfrwt>
<pdfrwt beam="2">  1       -2 0.95001750E-01 0.22050862E+04</pdfrwt>
<totfact> 0.59225189E+00</totfact>
</mgrwt>
</event>
<event>
 6    1  0.6091287E-004  0.3822989E+04  0.7818608E-02  0.8041240E-01
          2   -1    0    0  501    0  0.00000000000E+00  0.00000000000E+00  0.17352397529E+04  0.17352397529E+04  0.00000000000E+00 0.  1.
         -2   -1    0    0    0  501 -0.00000000000E+00 -0.00000000000E+00 -0.21056516981E+04  0.21056516981E+04  0.00000000000E+00 0. -1.
         23    2    1    2    0    0  0.61557318065E+03  0.14591128623E+04  0.88843823470E+03  0.18178629142E+04  0.85804383445E+02 0.  0.
         13    1    3    3    0    0  0.58535220158E+03  0.14072573674E+04  0.83715933262E+03  0.17389210006E+04  0.00000000000E+00 0.  1.
        -13    1    3    3    0    0  0.30220979068E+02  0.51855494878E+02  0.51278902083E+02  0.78941913606E+02  0.00000000000E+00 0. -1.
         22    1    1    2    0    0 -0.61557318065E+03 -0.14591128623E+04 -0.12588501799E+04  0.20230285369E+04  0.00000000000E+00 0. -1.
<mgrwt>
<rscale>  0 0.38229886E+04</rscale>
<asrwt>0</asrwt>
<pdfrwt beam="1">  1        2 0.26695996E+00 0.38229886E+04</pdfrwt>
<pdfrwt beam="2">  1       -2 0.32394641E+00 0.38229886E+04</pdfrwt>
<totfact> 0.16978293E-01</totfact>
</mgrwt>
</event>
<event>
 6    1  0.6091287E-004  0.1644472E+04  0.7818608E-02  0.8793684E-01
         -2   -1    0    0    0  501 -0.00000000000E+00  0.00000000000E+00  0.19886513136E+03  0.19886513136E+03  0.00000000000E+00 0. -1.
          2   -1    0    0  501    0  0.00000000000E+00 -0.00000000000E+00 -0.33996505412E+04  0.33996505412E+04  0.00000000000E+00 0.  1.
         23    2    1    2    0    0 -0.57176388682E+03  0.57601781140E+03 -0.18592209241E+04  0.20305533864E+04  0.87944011721E+02 0.  0.
         11    1    3    3    0    0 -0.33998161247E+03  0.28045025922E+03 -0.10114618342E+04  0.11033108749E+04  0.00000000000E+00 0. -1.
        -11    1    3    3    0    0 -0.23178227436E+03  0.29556755218E+03 -0.84775908991E+03  0.92724251150E+03  0.00000000000E+00 0.  1.
         22    1    1    2    0    0  0.57176388682E+03 -0.57601781140E+03 -0.13415644858E+04  0.15679622861E+04  0.00000000000E+00 0.  1.
<mgrwt>
<rscale>  0 0.16444719E+04</rscale>
<asrwt>0</asrwt>
<pdfrwt beam="1">  1        2 0.52302314E+00 0.16444719E+04</pdfrwt>
<pdfrwt beam="2">  1       -2 0.30594637E-01 0.16444719E+04</pdfrwt>
<totfact> 0.90991244E+00</totfact>
</mgrwt>
</event>
<event>
 6    1  0.6091287E-004  0.9994383E+03  0.7818608E-02  0.9309161E-01
         -2   -1    0    0    0  501 -0.00000000000E+00  0.00000000000E+00  0.56944765513E+03  0.56944765513E+03  0.00000000000E+00 0.  1.
          2   -1    0    0  501    0  0.00000000000E+00 -0.00000000000E+00 -0.43852886816E+03  0.43852886816E+03  0.00000000000E+00 0. -1.
         23    2    1    2    0    0  0.38588052788E+03 -0.24136146360E+03 -0.13165615355E+03  0.48251982926E+03  0.91284746534E+02 0.  0.
         11    1    3    3    0    0  0.18667917174E+03 -0.16832278373E+03 -0.58348956527E+02  0.25804316192E+03  0.00000000000E+00 0. -1.
        -11    1    3    3    0    0  0.19920135614E+03 -0.73038679877E+02 -0.73307197026E+02  0.22447666735E+03  0.00000000000E+00 0.  1.
         22    1    1    2    0    0 -0.38588052788E+03  0.24136146360E+03  0.26257494052E+03  0.52545669403E+03  0.00000000000E+00 0.  1.
<mgrwt>
<rscale>  0 0.99943831E+03</rscale>
<asrwt>0</asrwt>
<pdfrwt beam="1">  1        2 0.67465980E-01 0.99943831E+03</pdfrwt>
<pdfrwt beam="2">  1       -2 0.87607331E-01 0.99943831E+03</pdfrwt>
<totfact> 0.80468610E+01</totfact>
</mgrwt>
</event>
<event>
 6    1  0.6091287E-004  0.1365180E+04  0.7818608E-02  0.8979416E-01
          2   -1    0    0  501    0  0.00000000000E+00  0.00000000000E+00  0.26215135525E+03  0.26215135525E+03  0.00000000000E+00 0.  1.
         -2   -1    0    0    0  501 -0.00000000000E+00 -0.00000000000E+00 -0.17773296842E+04  0.17773296842E+04  0.00000000000E+00 0. -1.
         23    2    1    2    0    0 -0.17360496224E+03  0.47290650548E+03 -0.78950975113E+02  0.51746650018E+03  0.88085620254E+02 0.  0.
         13    1    3    3    0    0 -0.62711766758E+02  0.23216799021E+03  0.14360740582E+01  0.24049283498E+03  0.00000000000E+00 0. -1.
        -13    1    3    3    0    0 -0.11089319549E+03  0.24073851527E+03 -0.80387049171E+02  0.27697366520E+03  0.00000000000E+00 0.  1.
         22    1    1    2    0    0  0.17360496224E+03 -0.47290650548E+03 -0.14362273538E+04  0.15220145392E+04  0.00000000000E+00 0. -1.
<mgrwt>
<rscale>  0 0.13651804E+04</rscale>
<asrwt>0</asrwt>
<pdfrwt beam="1">  1        2 0.40330979E-01 0.13651804E+04</pdfrwt>
<pdfrwt beam="2">  1       -2 0.27343533E+00 0.13651804E+04</pdfrwt>
<totfact> 0.57687186E+00</totfact>
</mgrwt>
</event>
<event>
 6    1  0.6091287E-004  0.1035246E+04  0.7818608E-02  0.9270711E-01
         -2   -1    0    0    0  501 -0.00000000000E+00  0.00000000000E+00  0.31165310606E+03  0.31165310606E+03  0.00000000000E+00 0. -1.
          2   -1    0    0  501    0  0.00000000000E+00 -0.00000000000E+00 -0.85971706446E+03  0.85971706446E+03  0.00000000000E+00 0.  1.
         23    2    1    2    0    0  0.99702658552E+02 -0.10992132316E+02 -0.84625896990E+03  0.85675657899E+03  0.88408961120E+02 0.  0.
         11    1    3    3    0    0  0.10986858958E+03  0.63209005658E+01 -0.62740102012E+03  0.63697967064E+03  0.00000000000E+00 0. -1.
        -11    1    3    3    0    0 -0.10165931026E+02 -0.17313032881E+02 -0.21885794978E+03  0.21977690835E+03  0.00000000000E+00 0.  1.
         22    1    1    2    0    0 -0.99702658552E+02  0.10992132316E+02  0.29819501150E+03  0.31461359154E+03  0.00000000000E+00 0. -1.
<mgrwt>
<rscale>  0 0.10352459E+04</rscale>
<asrwt>0</asrwt>
<pdfrwt beam="1">  1        2 0.13226416E+00 0.10352459E+04</pdfrwt>
<pdfrwt beam="2">  1       -2 0.47946633E-01 0.10352459E+04</pdfrwt>
<totfact> 0.12831088E+02</totfact>
</mgrwt>
</event>
<event>
 6    1  0.6091287E-004  0.6120858E+03  0.7818608E-02  0.9880644E-01
         -2   -1    0    0    0  501 -0.00000000000E+00  0.00000000000E+00  0.70925384743E+02  0.70925384743E+02  0.00000000000E+00 0. -1.
          2   -1    0    0  501    0  0.00000000000E+00 -0.00000000000E+00 -0.13205744715E+04  0.13205744715E+04  0.00000000000E+00 0.  1.
         23    2    1    2    0    0  0.19517118697E+02 -0.95319077628E+02 -0.12820583117E+04  0.12889474192E+04  0.90803581783E+02 0.  0.
         11    1    3    3    0    0 -0.24997680844E+01 -0.25522794230E+02 -0.87411699258E+03  0.87449309808E+03  0.00000000000E+00 0.  1.
        -11    1    3    3    0    0  0.22016886782E+02 -0.69796283398E+02 -0.40794131913E+03  0.41445432117E+03  0.00000000000E+00 0. -1.
         22    1    1    2    0    0 -0.19517118697E+02  0.95319077628E+02  0.32409224917E+02  0.10255243704E+03  0.00000000000E+00 0. -1.
<mgrwt>
<rscale>  0 0.61208579E+03</rscale>
<asrwt>0</asrwt>
<pdfrwt beam="1">  1        2 0.20316529E+00 0.61208579E+03</pdfrwt>
<pdfrwt beam="2">  1       -2 0.10911598E-01 0.61208579E+03</pdfrwt>
<totfact> 0.97070220E+02</totfact>
</mgrwt>
</event>
<event>
 6    1  0.6091287E-004  0.3358153E+04  0.7818608E-02  0.8148254E-01
          2   -1    0    0  501    0  0.00000000000E+00  0.00000000000E+00  0.20089322603E+04  0.20089322603E+04  0.00000000000E+00 0.  1.
         -2   -1    0    0    0  501 -0.00000000000E+00 -0.00000000000E+00 -0.14033814385E+04  0.14033814385E+04  0.00000000000E+00 0. -1.
         23    2    1    2    0    0  0.96602769937E+03 -0.10929691931E+04  0.11454067250E+04  0.18569244969E+04  0.91765180833E+02 0.  0.
         13    1    3    3    0    0  0.13254895827E+03 -0.14970728977E+03  0.11846275012E+03  0.23241110583E+03  0.00000000000E+00 0.  1.
        -13    1    3    3    0    0  0.83347874110E+03 -0.94326190335E+03  0.10269439749E+04  0.16245133911E+04  0.00000000000E+00 0. -1.
         22    1    1    2    0    0 -0.96602769937E+03  0.10929691931E+04 -0.53985590318E+03  0.15553892019E+04  0.00000000000E+00 0. -1.
<mgrwt>
<rscale>  0 0.33581532E+04</rscale>
<asrwt>0</asrwt>
<pdfrwt beam="1">  1        2 0.30906650E+00 0.33581532E+04</pdfrwt>
<pdfrwt beam="2">  1       -2 0.21590484E+00 0.33581532E+04</pdfrwt>
<totfact> 0.57625326E-01</totfact>
</mgrwt>
</event>
<event>
 6    1  0.6091287E-004  0.2160185E+04  0.7818608E-02  0.8535185E-01
         -2   -1    0    0    0  501 -0.00000000000E+00  0.00000000000E+00  0.10882158137E+04  0.10882158137E+04  0.00000000000E+00 0. -1.
          2   -1    0    0  501    0  0.00000000000E+00 -0.00000000000E+00 -0.10720298825E+04  0.10720298825E+04  0.00000000000E+00 0.  1.
         23    2    1    2    0    0  0.36430258545E+03  0.82762341205E+02 -0.10035935805E+04  0.10741903424E+04  0.84373206871E+02 0.  0.
         13    1    3    3    0    0  0.27266325033E+03  0.40011105887E+02 -0.81292322657E+03  0.85836490432E+03  0.00000000000E+00 0.  1.
        -13    1    3    3    0    0  0.91639335120E+02  0.42751235318E+02 -0.19067035396E+03  0.21582543812E+03  0.00000000000E+00 0. -1.
         22    1    1    2    0    0 -0.36430258545E+03 -0.82762341205E+02  0.10197795117E+04  0.10860553537E+04  0.00000000000E+00 0. -1.
<mgrwt>
<rscale>  0 0.21601851E+04</rscale>
<asrwt>0</asrwt>
<pdfrwt beam="1">  1        2 0.16492767E+00 0.21601851E+04</pdfrwt>
<pdfrwt beam="2">  1       -2 0.16741782E+00 0.21601851E+04</pdfrwt>
<totfact> 0.46240830E+00</totfact>
</mgrwt>
</event>
<event>
 6    1  0.6091287E-004  0.5023597E+04  0.7818608E-02  0.7824877E-01
          2   -1    0    0  501    0  0.00000000000E+00  0.00000000000E+00  0.20600598357E+04  0.20600598357E+04  0.00000000000E+00 0.  1.
         -2   -1    0    0    0  501 -0.00000000000E+00 -0.00000000000E+00 -0.30625963390E+04  0.30625963390E+04  0.00000000000E+00 0. -1.
         23    2    1    2    0    0  0.11037942247E+04  0.17523672425E+04 -0.19491842919E+04  0.28455319623E+04  0.92628836616E+02 0.  0.
         11    1    3    3    0    0  0.77205276321E+03  0.11452935800E+04 -0.12871270096E+04  0.18879774343E+04  0.00000000000E+00 0. -1.
        -11    1    3    3    0    0  0.33174146147E+03  0.60707366249E+03 -0.66205728234E+03  0.95755452797E+03  0.00000000000E+00 0.  1.
         22    1    1    2    0    0 -0.11037942247E+04 -0.17523672425E+04  0.94664778861E+03  0.22771242124E+04  0.00000000000E+00 0.  1.
<mgrwt>
<rscale>  0 0.50235970E+04</rscale>
<asrwt>0</asrwt>
<pdfrwt beam="1">  1        2 0.31693228E+00 0.50235970E+04</pdfrwt>
<pdfrwt beam="2">  1       -2 0.47116867E+00 0.50235970E+04</pdfrwt>
<totfact> 0.11373720E-02</totfact>
</mgrwt>
</event>
<event>
 6    1  0.6091287E-004  0.9014535E+03  0.7818608E-02  0.9423766E-01
          2   -1    0    0  501    0  0.00000000000E+00  0.00000000000E+00  0.98941214658E+03  0.98941214658E+03  0.00000000000E+00 0.  1.
         -2   -1    0    0    0  501 -0.00000000000E+00 -0.00000000000E+00 -0.20532859960E+03  0.20532859960E+03  0.00000000000E+00 0. -1.
         23    2    1    2    0    0  0.40278558831E+02  0.27296946497E+03  0.86032889970E+03  0.90847505679E+03  0.95007484231E+02 0.  0.
         11    1    3    3    0    0  0.47665483159E+01  0.22374724897E+03  0.58065355529E+03  0.62228940428E+03  0.00000000000E+00 0.  1.
        -11    1    3    3    0    0  0.35512010515E+02  0.49222215999E+02  0.27967534441E+03  0.28618565252E+03  0.00000000000E+00 0. -1.
         22    1    1    2    0    0 -0.40278558831E+02 -0.27296946497E+03 -0.76245352720E+02  0.28626568938E+03  0.00000000000E+00 0. -1.
<mgrwt>
<rscale>  0 0.90145352E+03</rscale>
<asrwt>0</asrwt>
<pdfrwt beam="1">  1        2 0.15221725E+00 0.90145352E+03</pdfrwt>
<pdfrwt beam="2">  1       -2 0.31589016E-01 0.90145352E+03</pdfrwt>
<totfact> 0.23845879E+02</totfact>
</mgrwt>
</event>
<event>
 6    1  0.6091287E-004  0.2807266E+04  0.7818608E-02  0.8301016E-01
          2   -1    0    0  501    0  0.00000000000E+00  0.00000000000E+00  0.23069300136E+04  0.23069300136E+04  0.00000000000E+00 0.  1.
         -2   -1    0    0    0  501 -0.00000000000E+00 -0.00000000000E+00 -0.85402905648E+03  0.85402905648E+03  0.00000000000E+00 0. -1.
         23    2    1    2    0    0 -0.41941719490E+03  0.98268243065E+03  0.17496145223E+04  0.20520792376E+04  0.91119031772E+02 0.  0.
         11    1    3    3    0    0 -0.12617578456E+03  0.27132726483E+03  0.41633284278E+03  0.51271029756E+03  0.00000000000E+00 0. -1.
        -11    1    3    3    0    0 -0.29324141034E+03  0.71135516582E+03  0.13332816795E+04  0.15393689401E+04  0.00000000000E+00 0.  1.
         22    1    1    2    0    0  0.41941719490E+03 -0.98268243065E+03 -0.29671356526E+03  0.11088798324E+04  0.00000000000E+00 0. -1.
<mgrwt>
<rscale>  0 0.28072658E+04</rscale>
<asrwt>0</asrwt>
<pdfrwt beam="1">  1        2 0.35491231E+00 0.28072658E+04</pdfrwt>
<pdfrwt beam="2">  1       -2 0.13138909E+00 0.28072658E+04</pdfrwt>
<totfact> 0.16514838E+00</totfact>
</mgrwt>
</event>
<event>
 6    1  0.6091287E-004  0.2105278E+04  0.7818608E-02  0.8558922E-01
          2   -1    0    0  501    0  0.00000000000E+00  0.00000000000E+00  0.84493550073E+03  0.84493550073E+03  0.00000000000E+00 0.  1.
         -2   -1    0    0    0  501 -0.00000000000E+00 -0.00000000000E+00 -0.13114002341E+04  0.13114002341E+04  0.00000000000E+00 0. -1.
         23    2    1    2    0    0 -0.67801710237E+03  0.83954494389E+02  0.58392065815E+03  0.90331338110E+03  0.90863530817E+02 0.  0.
         11    1    3    3    0    0 -0.45562125240E+03  0.13809994909E+02  0.37634612958E+03  0.59111576772E+03  0.00000000000E+00 0. -1.
        -11    1    3    3    0    0 -0.22239584997E+03  0.70144499480E+02  0.20757452857E+03  0.31219761338E+03  0.00000000000E+00 0.  1.
         22    1    1    2    0    0  0.67801710237E+03 -0.83954494389E+02 -0.10503853916E+04  0.12530223538E+04  0.00000000000E+00 0. -1.
<mgrwt>
<rscale>  0 0.21052778E+04</rscale>
<asrwt>0</asrwt>
<pdfrwt beam="1">  1        2 0.12999008E+00 0.21052778E+04</pdfrwt>
<pdfrwt beam="2">  1       -2 0.20175388E+00 0.21052778E+04</pdfrwt>
<totfact> 0.38161605E+00</totfact>
</mgrwt>
</event>
<event>
 6    1  0.6091287E-004  0.5148048E+04  0.7818608E-02  0.7806067E-01
          2   -1    0    0  501    0  0.00000000000E+00  0.00000000000E+00  0.37361470215E+04  0.37361470215E+04  0.00000000000E+00 0.  1.
         -2   -1    0    0    0  501 -0.00000000000E+00 -0.00000000000E+00 -0.17733779069E+04  0.17733779069E+04  0.00000000000E+00 0. -1.
         23    2    1    2    0    0 -0.66469910435E+03  0.16716248453E+04 -0.98745492639E+03  0.20540978326E+04  0.89978615998E+02 0.  0.
         11    1    3    3    0    0 -0.27265723949E+03  0.74424760771E+03 -0.47963170412E+03  0.92644106312E+03  0.00000000000E+00 0.  1.
        -11    1    3    3    0    0 -0.39204186486E+03  0.92737723760E+03 -0.50782322227E+03  0.11276567695E+04  0.00000000000E+00 0. -1.
         22    1    1    2    0    0  0.66469910435E+03 -0.16716248453E+04  0.29502240409E+04  0.34554270958E+04  0.00000000000E+00 0.  1.
<mgrwt>
<rscale>  0 0.51480484E+04</rscale>
<asrwt>0</asrwt>
<pdfrwt beam="1">  1        2 0.57479185E+00 0.51480484E+04</pdfrwt>
<pdfrwt beam="2">  1       -2 0.27282737E+00 0.51480484E+04</pdfrwt>
<totfact> 0.18331629E-02</totfact>
</mgrwt>
</event>
<event>
 6    1  0.6091287E-004  0.6875604E+03  0.7818608E-02  0.9738745E-01
         -2   -1    0    0    0  501 -0.00000000000E+00  0.00000000000E+00  0.53500269127E+02  0.53500269127E+02  0.00000000000E+00 0. -1.
          2   -1    0    0  501    0  0.00000000000E+00 -0.00000000000E+00 -0.22090512903E+04  0.22090512903E+04  0.00000000000E+00 0.  1.
         23    2    1    2    0    0 -0.16893385885E+03 -0.29230283912E+03 -0.10540093128E+04  0.11104344935E+04  0.90274771398E+02 0.  0.
         11    1    3    3    0    0 -0.45423474745E+01 -0.73113602529E+02 -0.17497997539E+03  0.18969508054E+03  0.00000000000E+00 0.  1.
        -11    1    3    3    0    0 -0.16439151138E+03 -0.21918923659E+03 -0.87902933743E+03  0.92073941293E+03  0.00000000000E+00 0. -1.
         22    1    1    2    0    0  0.16893385885E+03  0.29230283912E+03 -0.11015417083E+04  0.11521170659E+04  0.00000000000E+00 0. -1.
<mgrwt>
<rscale>  0 0.68756044E+03</rscale>
<asrwt>0</asrwt>
<pdfrwt beam="1">  1        2 0.33985408E+00 0.68756044E+03</pdfrwt>
<pdfrwt beam="2">  1       -2 0.82308099E-02 0.68756044E+03</pdfrwt>
<totfact> 0.49621349E+02</totfact>
</mgrwt>
</event>
<event>
 6    1  0.6091287E-004  0.1905959E+04  0.7818608E-02  0.8651896E-01
         -2   -1    0    0    0  501 -0.00000000000E+00  0.00000000000E+00  0.40030860353E+03  0.40030860353E+03  0.00000000000E+00 0. -1.
          2   -1    0    0  501    0  0.00000000000E+00 -0.00000000000E+00 -0.22686734953E+04  0.22686734953E+04  0.00000000000E+00 0.  1.
         23    2    1    2    0    0 -0.69079409609E+03 -0.63982761772E+03 -0.11213412148E+04  0.14670585415E+04  0.90987805368E+02 0.  0.
         13    1    3    3    0    0 -0.37055643647E+03 -0.40378184722E+03 -0.63955977728E+03  0.84225207715E+03  0.00000000000E+00 0. -1.
        -13    1    3    3    0    0 -0.32023765961E+03 -0.23604577050E+03 -0.48178143752E+03  0.62480646439E+03  0.00000000000E+00 0.  1.
         22    1    1    2    0    0  0.69079409609E+03  0.63982761772E+03 -0.74702367693E+03  0.12019235573E+04  0.00000000000E+00 0. -1.
<mgrwt>
<rscale>  0 0.19059586E+04</rscale>
<asrwt>0</asrwt>
<pdfrwt beam="1">  1        2 0.34902669E+00 0.19059586E+04</pdfrwt>
<pdfrwt beam="2">  1       -2 0.61585938E-01 0.19059586E+04</pdfrwt>
<totfact> 0.10836214E+01</totfact>
</mgrwt>
</event>
<event>
 6    1  0.6091287E-004  0.1018507E+04  0.7818608E-02  0.9288476E-01
          1   -1    0    0  501    0  0.00000000000E+00  0.00000000000E+00  0.29210021779E+03  0.29210021779E+03  0.00000000000E+00 0.  1.
         -1   -1    0    0    0  501 -0.00000000000E+00 -0.00000000000E+00 -0.88784284471E+03  0.88784284471E+03  0.00000000000E+00 0. -1.
         23    2    1    2    0    0  0.10794083322E+03  0.49610164057E+01 -0.87202446196E+03  0.88328250305E+03  0.89919312597E+02 0.  0.
         11    1    3    3    0    0  0.35172001324E+02  0.43650330689E+02 -0.28072709478E+03  0.28626931864E+03  0.00000000000E+00 0. -1.
        -11    1    3    3    0    0  0.72768831891E+02 -0.38689314283E+02 -0.59129736718E+03  0.59701318441E+03  0.00000000000E+00 0.  1.
         22    1    1    2    0    0 -0.10794083322E+03 -0.49610164057E+01  0.27628183505E+03  0.29666055945E+03  0.00000000000E+00 0.  1.
<mgrwt>
<rscale>  0 0.10185069E+04</rscale>
<asrwt>0</asrwt>
<pdfrwt beam="1">  1        1 0.44938494E-01 0.10185069E+04</pdfrwt>
<pdfrwt beam="2">  1       -1 0.13659121E+00 0.10185069E+04</pdfrwt>
<totfact> 0.40649936E+01</totfact>
</mgrwt>
</event>
<event>
 6    1  0.8218544E-004  0.3017897E+04  0.7818608E-02  0.8238639E-01
          2   -1    0    0  501    0  0.00000000000E+00  0.00000000000E+00  0.20089859006E+04  0.20089859006E+04  0.00000000000E+00 0.  1.
         -2   -1    0    0    0  501 -0.00000000000E+00 -0.00000000000E+00 -0.11333705686E+04  0.11333705686E+04  0.00000000000E+00 0. -1.
         23    2    1    2    0    0  0.12204860606E+04  0.84418722761E+03  0.71518265948E+03  0.16497155406E+04  0.88525866476E+02 0.  0.
         13    1    3    3    0    0  0.53334590622E+03  0.37837049730E+03  0.26727536386E+03  0.70644052052E+03  0.00000000000E+00 0. -1.
        -13    1    3    3    0    0  0.68714015438E+03  0.46581673032E+03  0.44790729562E+03  0.94327502006E+03  0.00000000000E+00 0.  1.
         22    1    1    2    0    0 -0.12204860606E+04 -0.84418722761E+03  0.16043267246E+03  0.14926409286E+04  0.00000000000E+00 0.  1.
<mgrwt>
<rscale>  0 0.30178969E+04</rscale>
<asrwt>0</asrwt>
<pdfrwt beam="1">  1        2 0.30907475E+00 0.30178969E+04</pdfrwt>
<pdfrwt beam="2">  1       -2 0.17436470E+00 0.30178969E+04</pdfrwt>
<totfact> 0.11207704E+00</totfact>
</mgrwt>
</event>
<event>
 6    1  0.6091287E-004  0.2484960E+04  0.7818608E-02  0.8408363E-01
         -2   -1    0    0    0  501 -0.00000000000E+00  0.00000000000E+00  0.75675416479E+03  0.75675416479E+03  0.00000000000E+00 0. -1.
          2   -1    0    0  501    0  0.00000000000E+00 -0.00000000000E+00 -0.20399712498E+04  0.20399712498E+04  0.00000000000E+00 0.  1.
         23    2    1    2    0    0 -0.14829432089E+03  0.17911696912E+02 -0.20288113385E+04  0.20363157716E+04  0.90523146380E+02 0.  0.
         11    1    3    3    0    0 -0.11904782150E+03  0.46238952690E+01 -0.10106607891E+04  0.10176585846E+04  0.00000000000E+00 0.  1.
        -11    1    3    3    0    0 -0.29246499384E+02  0.13287801643E+02 -0.10181505494E+04  0.10186571870E+04  0.00000000000E+00 0. -1.
         22    1    1    2    0    0  0.14829432089E+03 -0.17911696912E+02  0.74559425342E+03  0.76040964304E+03  0.00000000000E+00 0. -1.
<mgrwt>
<rscale>  0 0.24849602E+04</rscale>
<asrwt>0</asrwt>
<pdfrwt beam="1">  1        2 0.31384172E+00 0.24849602E+04</pdfrwt>
<pdfrwt beam="2">  1       -2 0.11642372E+00 0.24849602E+04</pdfrwt>
<totfact> 0.32429413E+00</totfact>
</mgrwt>
</event>
<event>
 6    1  0.6091287E-004  0.3894811E+04  0.7818608E-02  0.8026109E-01
          2   -1    0    0  501    0  0.00000000000E+00  0.00000000000E+00  0.24907008119E+04  0.24907008119E+04  0.00000000000E+00 0.  1.
         -2   -1    0    0    0  501 -0.00000000000E+00 -0.00000000000E+00 -0.15226187157E+04  0.15226187157E+04  0.00000000000E+00 0. -1.
         23    2    1    2    0    0  0.12517291485E+04  0.11846165637E+03  0.20152122503E+04  0.23770614231E+04  0.92095440148E+02 0.  0.
         11    1    3    3    0    0  0.84148456429E+03  0.44115870733E+02  0.13947753333E+04  0.16295523043E+04  0.00000000000E+00 0.  1.
        -11    1    3    3    0    0  0.41024458421E+03  0.74345785640E+02  0.62043691696E+03  0.74750911876E+03  0.00000000000E+00 0. -1.
         22    1    1    2    0    0 -0.12517291485E+04 -0.11846165637E+03 -0.10471301541E+04  0.16362581046E+04  0.00000000000E+00 0. -1.
<mgrwt>
<rscale>  0 0.38948107E+04</rscale>
<asrwt>0</asrwt>
<pdfrwt beam="1">  1        2 0.38318474E+00 0.38948107E+04</pdfrwt>
<pdfrwt beam="2">  1       -2 0.23424903E+00 0.38948107E+04</pdfrwt>
<totfact> 0.22553850E-01</totfact>
</mgrwt>
</event>
<event>
 6    1  0.6091287E-004  0.2097409E+04  0.7818608E-02  0.8562386E-01
         -2   -1    0    0    0  501 -0.00000000000E+00  0.00000000000E+00  0.61301217043E+03  0.61301217043E+03  0.00000000000E+00 0. -1.
          2   -1    0    0  501    0  0.00000000000E+00 -0.00000000000E+00 -0.17940601460E+04  0.17940601460E+04  0.00000000000E+00 0.  1.
         23    2    1    2    0    0  0.55843905572E+03 -0.78564237437E+03 -0.10599057971E+04  0.14355973828E+04  0.91931644978E+02 0.  0.
         13    1    3    3    0    0  0.49026602546E+03 -0.63174687942E+03 -0.88852324185E+03  0.11953821342E+04  0.00000000000E+00 0.  1.
        -13    1    3    3    0    0  0.68173030267E+02 -0.15389549495E+03 -0.17138255524E+03  0.24021524860E+03  0.00000000000E+00 0. -1.
         22    1    1    2    0    0 -0.55843905572E+03  0.78564237437E+03 -0.12114217849E+03  0.97147493368E+03  0.00000000000E+00 0.  1.
<mgrwt>
<rscale>  0 0.20974086E+04</rscale>
<asrwt>0</asrwt>
<pdfrwt beam="1">  1        2 0.27600925E+00 0.20974086E+04</pdfrwt>
<pdfrwt beam="2">  1       -2 0.94309566E-01 0.20974086E+04</pdfrwt>
<totfact> 0.75975843E+00</totfact>
</mgrwt>
</event>
<event>
 6    1  0.6091287E-004  0.5649159E+03  0.7818608E-02  0.9980993E-01
          2   -1    0    0  501    0  0.00000000000E+00  0.00000000000E+00  0.29127097175E+04  0.29127097175E+04  0.00000000000E+00 0.  1.
         -2   -1    0    0    0  501 -0.00000000000E+00 -0.00000000000E+00 -0.27391157347E+02  0.27391157347E+02  0.00000000000E+00 0. -1.
         23    2    1    2    0    0  0.11859473097E+03  0.11072490039E+03  0.26365244764E+04  0.26430769534E+04  0.90938184102E+02 0.  0.
         11    1    3    3    0    0  0.63478646679E+02  0.82856490241E+02  0.21663970811E+04  0.21689101064E+04  0.00000000000E+00 0. -1.
        -11    1    3    3    0    0  0.55116084288E+02  0.27868410149E+02  0.47012739528E+03  0.47416684703E+03  0.00000000000E+00 0.  1.
         22    1    1    2    0    0 -0.11859473097E+03 -0.11072490039E+03  0.24879408372E+03  0.29702392138E+03  0.00000000000E+00 0. -1.
<mgrwt>
<rscale>  0 0.56491589E+03</rscale>
<asrwt>0</asrwt>
<pdfrwt beam="1">  1        2 0.44810894E+00 0.56491589E+03</pdfrwt>
<pdfrwt beam="2">  1       -2 0.42140265E-02 0.56491589E+03</pdfrwt>
<totfact> 0.56927630E+02</totfact>
</mgrwt>
</event>
<event>
 6    1  0.6091287E-004  0.2280438E+04  0.7818608E-02  0.8485674E-01
          2   -1    0    0  501    0  0.00000000000E+00  0.00000000000E+00  0.16951802176E+04  0.16951802176E+04  0.00000000000E+00 0.  1.
         -2   -1    0    0    0  501 -0.00000000000E+00 -0.00000000000E+00 -0.76693857555E+03  0.76693857555E+03  0.00000000000E+00 0. -1.
         23    2    1    2    0    0  0.19598180173E+03  0.93867887839E+03 -0.19798072985E+03  0.98296236655E+03  0.86554845673E+02 0.  0.
         11    1    3    3    0    0  0.16685290979E+03  0.77899482396E+03 -0.13098068301E+03  0.80735913235E+03  0.00000000000E+00 0.  1.
        -11    1    3    3    0    0  0.29128891941E+02  0.15968405443E+03 -0.67000046839E+02  0.17560323420E+03  0.00000000000E+00 0. -1.
         22    1    1    2    0    0 -0.19598180173E+03 -0.93867887839E+03  0.11262223719E+04  0.14791564266E+04  0.00000000000E+00 0.  1.
<mgrwt>
<rscale>  0 0.22804378E+04</rscale>
<asrwt>0</asrwt>
<pdfrwt beam="1">  1        2 0.26079696E+00 0.22804378E+04</pdfrwt>
<pdfrwt beam="2">  1       -2 0.11799055E+00 0.22804378E+04</pdfrwt>
<totfact> 0.49619737E+00</totfact>
</mgrwt>
</event>
<event>
 6    1  0.6091287E-004  0.4418811E+04  0.7818608E-02  0.7925007E-01
          2   -1    0    0  501    0  0.00000000000E+00  0.00000000000E+00  0.35748080848E+04  0.35748080848E+04  0.00000000000E+00 0.  1.
         -2   -1    0    0    0  501 -0.00000000000E+00 -0.00000000000E+00 -0.13655199915E+04  0.13655199915E+04  0.00000000000E+00 0. -1.
         23    2    1    2    0    0 -0.16553517811E+04 -0.29100931794E+02  0.27391815353E+04  0.32019887989E+04  0.92630456373E+02 0.  0.
         11    1    3    3    0    0 -0.96652099625E+03  0.16689975035E+02  0.16572103337E+04  0.19185378499E+04  0.00000000000E+00 0. -1.
        -11    1    3    3    0    0 -0.68883078487E+03 -0.45790906830E+02  0.10819712015E+04  0.12834509489E+04  0.00000000000E+00 0.  1.
         22    1    1    2    0    0  0.16553517811E+04  0.29100931794E+02 -0.52989344200E+03  0.17383392774E+04  0.00000000000E+00 0. -1.
<mgrwt>
<rscale>  0 0.44188107E+04</rscale>
<asrwt>0</asrwt>
<pdfrwt beam="1">  1        2 0.54997047E+00 0.44188107E+04</pdfrwt>
<pdfrwt beam="2">  1       -2 0.21008000E+00 0.44188107E+04</pdfrwt>
<totfact> 0.62645447E-02</totfact>
</mgrwt>
</event>
<event>
 6    1  0.6091287E-004  0.1681235E+04  0.7818608E-02  0.8772140E-01
         -4   -1    0    0    0  501 -0.00000000000E+00  0.00000000000E+00  0.11434595765E+04  0.11434595765E+04  0.00000000000E+00 0. -1.
          4   -1    0    0  501    0  0.00000000000E+00 -0.00000000000E+00 -0.61798213507E+03  0.61798213507E+03  0.00000000000E+00 0.  1.
         23    2    1    2    0    0 -0.73885504403E+03 -0.30993362117E+03  0.58276696879E+01  0.80645400960E+03  0.91479408871E+02 0.  0.
         11    1    3    3    0    0 -0.25227773684E+03 -0.94633627066E+02 -0.40025025883E+02  0.27239967433E+03  0.00000000000E+00 0.  1.
        -11    1    3    3    0    0 -0.48657730719E+03 -0.21529999410E+03  0.45852695571E+02  0.53405433527E+03  0.00000000000E+00 0. -1.
         22    1    1    2    0    0  0.73885504403E+03  0.30993362117E+03  0.51964977170E+03  0.95498770193E+03  0.00000000000E+00 0.  1.
<mgrwt>
<rscale>  0 0.16812348E+04</rscale>
<asrwt>0</asrwt>
<pdfrwt beam="1">  1        4 0.95074175E-01 0.16812348E+04</pdfrwt>
<pdfrwt beam="2">  1       -4 0.17591686E+00 0.16812348E+04</pdfrwt>
<totfact> 0.34064633E-01</totfact>
</mgrwt>
</event>
<event>
 6    1  0.6091287E-004  0.1436482E+04  0.7818608E-02  0.8927826E-01
          2   -1    0    0  501    0  0.00000000000E+00  0.00000000000E+00  0.22355193375E+04  0.22355193375E+04  0.00000000000E+00 0. -1.
         -2   -1    0    0    0  501 -0.00000000000E+00 -0.00000000000E+00 -0.23076083886E+03  0.23076083886E+03  0.00000000000E+00 0.  1.
         23    2    1    2    0    0  0.26050089338E+03  0.52115544005E+03  0.17187724882E+04  0.18172411126E+04  0.93395325875E+02 0.  0.
         13    1    3    3    0    0  0.15894139960E+03  0.22337105905E+03  0.74044960123E+03  0.78957115607E+03  0.00000000000E+00 0.  1.
        -13    1    3    3    0    0  0.10155949378E+03  0.29778438100E+03  0.97832288700E+03  0.10276699565E+04  0.00000000000E+00 0. -1.
         22    1    1    2    0    0 -0.26050089338E+03 -0.52115544005E+03  0.28598601045E+03  0.64903906379E+03  0.00000000000E+00 0.  1.
<mgrwt>
<rscale>  0 0.14364823E+04</rscale>
<asrwt>0</asrwt>
<pdfrwt beam="1">  1        2 0.34392604E+00 0.14364823E+04</pdfrwt>
<pdfrwt beam="2">  1       -2 0.35501669E-01 0.14364823E+04</pdfrwt>
<totfact> 0.35739187E+01</totfact>
</mgrwt>
</event>
<event>
 6    1  0.6091287E-004  0.2569729E+04  0.7818608E-02  0.8378557E-01
         -4   -1    0    0    0  501 -0.00000000000E+00  0.00000000000E+00  0.14107642840E+04  0.14107642840E+04  0.00000000000E+00 0. -1.
          4   -1    0    0  501    0  0.00000000000E+00 -0.00000000000E+00 -0.11702000340E+04  0.11702000340E+04  0.00000000000E+00 0.  1.
         23    2    1    2    0    0  0.12530558518E+04  0.18140417537E+03 -0.89629742799E+02  0.12724978434E+04  0.90337301335E+02 0.  0.
         13    1    3    3    0    0  0.40661570234E+03  0.58694930172E+02  0.13251459178E+02  0.41104382417E+03  0.00000000000E+00 0.  1.
        -13    1    3    3    0    0  0.84644014945E+03  0.12270924520E+03 -0.10288120198E+03  0.86145401919E+03  0.00000000000E+00 0. -1.
         22    1    1    2    0    0 -0.12530558518E+04 -0.18140417537E+03  0.33019399277E+03  0.13084664747E+04  0.00000000000E+00 0. -1.
<mgrwt>
<rscale>  0 0.25697287E+04</rscale>
<asrwt>0</asrwt>
<pdfrwt beam="1">  1        4 0.18003078E+00 0.25697287E+04</pdfrwt>
<pdfrwt beam="2">  1       -4 0.21704066E+00 0.25697287E+04</pdfrwt>
<totfact> 0.32364558E-02</totfact>
</mgrwt>
</event>
<event>
 6    1  0.6091287E-004  0.2491512E+04  0.7818608E-02  0.8406016E-01
          2   -1    0    0  501    0  0.00000000000E+00  0.00000000000E+00  0.15389501125E+04  0.15389501125E+04  0.00000000000E+00 0.  1.
         -2   -1    0    0    0  501 -0.00000000000E+00 -0.00000000000E+00 -0.10084201157E+04  0.10084201157E+04  0.00000000000E+00 0. -1.
         23    2    1    2    0    0 -0.11520259759E+04 -0.17047017553E+03 -0.18171217912E+03  0.11822647937E+04  0.92232296036E+02 0.  0.
         11    1    3    3    0    0 -0.69143869509E+03 -0.94734482489E+02 -0.63662811797E+02  0.70079600801E+03  0.00000000000E+00 0.  1.
        -11    1    3    3    0    0 -0.46058728086E+03 -0.75735693041E+02 -0.11804936732E+03  0.48146878571E+03  0.00000000000E+00 0. -1.
         22    1    1    2    0    0  0.11520259759E+04  0.17047017553E+03  0.71224217600E+03  0.13651054345E+04  0.00000000000E+00 0.  1.
<mgrwt>
<rscale>  0 0.24915122E+04</rscale>
<asrwt>0</asrwt>
<pdfrwt beam="1">  1        2 0.23676156E+00 0.24915122E+04</pdfrwt>
<pdfrwt beam="2">  1       -2 0.15514156E+00 0.24915122E+04</pdfrwt>
<totfact> 0.29499857E+00</totfact>
</mgrwt>
</event>
<event>
 6    1  0.6091287E-004  0.1567084E+04  0.7818608E-02  0.8841028E-01
         -2   -1    0    0    0  501 -0.00000000000E+00  0.00000000000E+00  0.19140639727E+03  0.19140639727E+03  0.00000000000E+00 0. -1.
          2   -1    0    0  501    0  0.00000000000E+00 -0.00000000000E+00 -0.32075118577E+04  0.32075118577E+04  0.00000000000E+00 0.  1.
         23    2    1    2    0    0  0.17031804253E+03 -0.70600493809E+03 -0.21383398838E+04  0.22596537485E+04  0.78015358624E+02 0.  0.
         13    1    3    3    0    0  0.28073459889E+02 -0.89497855042E+02 -0.20554252987E+03  0.22593299182E+03  0.00000000000E+00 0.  1.
        -13    1    3    3    0    0  0.14224458264E+03 -0.61650708304E+03 -0.19327973539E+04  0.20337207566E+04  0.00000000000E+00 0. -1.
         22    1    1    2    0    0 -0.17031804253E+03  0.70600493809E+03 -0.87776557666E+03  0.11392645065E+04  0.00000000000E+00 0. -1.
<mgrwt>
<rscale>  0 0.15670843E+04</rscale>
<asrwt>0</asrwt>
<pdfrwt beam="1">  1        2 0.49346340E+00 0.15670843E+04</pdfrwt>
<pdfrwt beam="2">  1       -2 0.29447136E-01 0.15670843E+04</pdfrwt>
<totfact> 0.13200106E+01</totfact>
</mgrwt>
</event>
<event>
 6    1  0.6091287E-004  0.7741545E+03  0.7818608E-02  0.9598200E-01
         -2   -1    0    0    0  501 -0.00000000000E+00  0.00000000000E+00  0.29926552531E+03  0.29926552531E+03  0.00000000000E+00 0. -1.
          2   -1    0    0  501    0  0.00000000000E+00 -0.00000000000E+00 -0.50065507824E+03  0.50065507824E+03  0.00000000000E+00 0.  1.
         23    2    1    2    0    0 -0.15654496230E+03 -0.17468024716E+03 -0.41339971604E+03  0.48374371756E+03  0.89939674719E+02 0.  0.
         11    1    3    3    0    0 -0.10288023694E+03 -0.10397824739E+03 -0.33410325623E+03  0.36472017343E+03  0.00000000000E+00 0.  1.
        -11    1    3    3    0    0 -0.53664725361E+02 -0.70701999769E+02 -0.79296459814E+02  0.11902354414E+03  0.00000000000E+00 0. -1.
         22    1    1    2    0    0  0.15654496230E+03  0.17468024716E+03  0.21201016311E+03  0.31617688599E+03  0.00000000000E+00 0. -1.
<mgrwt>
<rscale>  0 0.77415452E+03</rscale>
<asrwt>0</asrwt>
<pdfrwt beam="1">  1        2 0.77023857E-01 0.77415452E+03</pdfrwt>
<pdfrwt beam="2">  1       -2 0.46040851E-01 0.77415452E+03</pdfrwt>
<totfact> 0.27707412E+02</totfact>
</mgrwt>
</event>
<event>
 6    1  0.6091287E-004  0.9967535E+04  0.7818608E-02  0.7330723E-01
          2   -1    0    0  501    0  0.00000000000E+00  0.00000000000E+00  0.45854899688E+04  0.45854899688E+04  0.00000000000E+00 0.  1.
         -2   -1    0    0    0  501 -0.00000000000E+00 -0.00000000000E+00 -0.54166374043E+04  0.54166374043E+04  0.00000000000E+00 0. -1.
         23    2    1    2    0    0 -0.89275830863E+03 -0.42531056947E+04  0.20316824253E+04  0.47981173559E+04  0.90946334626E+02 0.  0.
         11    1    3    3    0    0 -0.23436790399E+03 -0.10219509787E+04  0.52753180187E+03  0.11737128777E+04  0.00000000000E+00 0. -1.
        -11    1    3    3    0    0 -0.65839040464E+03 -0.32311547159E+04  0.15041506235E+04  0.36244044782E+04  0.00000000000E+00 0.  1.
         22    1    1    2    0    0  0.89275830863E+03  0.42531056947E+04 -0.28628298608E+04  0.52040100172E+04  0.00000000000E+00 0.  1.
<mgrwt>
<rscale>  0 0.99675346E+04</rscale>
<asrwt>0</asrwt>
<pdfrwt beam="1">  1        2 0.70546000E+00 0.99675346E+04</pdfrwt>
<pdfrwt beam="2">  1       -2 0.83332883E+00 0.99675346E+04</pdfrwt>
<totfact> 0.22736532E-06</totfact>
</mgrwt>
</event>
<event>
 6    1  0.6091287E-004  0.1812966E+04  0.7818608E-02  0.8699435E-01
         -2   -1    0    0    0  501 -0.00000000000E+00  0.00000000000E+00  0.37473582074E+03  0.37473582074E+03  0.00000000000E+00 0. -1.
          2   -1    0    0  501    0  0.00000000000E+00 -0.00000000000E+00 -0.21927753707E+04  0.21927753707E+04  0.00000000000E+00 0.  1.
         23    2    1    2    0    0 -0.49087392646E+03 -0.18152217464E+03 -0.19555946464E+04  0.20263745024E+04  0.89082497284E+02 0.  0.
         11    1    3    3    0    0 -0.22749160331E+03 -0.67124713765E+02 -0.10448387429E+04  0.10714224916E+04  0.00000000000E+00 0.  1.
        -11    1    3    3    0    0 -0.26338232314E+03 -0.11439746087E+03 -0.91075590353E+03  0.95495201084E+03  0.00000000000E+00 0. -1.
         22    1    1    2    0    0  0.49087392646E+03  0.18152217464E+03  0.13755509653E+03  0.54113668896E+03  0.00000000000E+00 0. -1.
<mgrwt>
<rscale>  0 0.18129661E+04</rscale>
<asrwt>0</asrwt>
<pdfrwt beam="1">  1        2 0.33735005E+00 0.18129661E+04</pdfrwt>
<pdfrwt beam="2">  1       -2 0.57651666E-01 0.18129661E+04</pdfrwt>
<totfact> 0.13853318E+01</totfact>
</mgrwt>
</event>
<event>
 6    1  0.6091287E-004  0.3065450E+04  0.7818608E-02  0.8225284E-01
         -2   -1    0    0    0  501 -0.00000000000E+00  0.00000000000E+00  0.16250687072E+04  0.16250687072E+04  0.00000000000E+00 0. -1.
          2   -1    0    0  501    0  0.00000000000E+00 -0.00000000000E+00 -0.14456283297E+04  0.14456283297E+04  0.00000000000E+00 0.  1.
         23    2    1    2    0    0 -0.80120582970E+03 -0.36420524455E+03 -0.11655228976E+04  0.14633693003E+04  0.91814173178E+02 0.  0.
         13    1    3    3    0    0 -0.32191339154E+03 -0.13094110725E+03 -0.53169978838E+03  0.63519955147E+03  0.00000000000E+00 0. -1.
        -13    1    3    3    0    0 -0.47929243816E+03 -0.23326413729E+03 -0.63382310923E+03  0.82816974879E+03  0.00000000000E+00 0.  1.
         22    1    1    2    0    0  0.80120582970E+03  0.36420524455E+03  0.13449632751E+04  0.16073277367E+04  0.00000000000E+00 0. -1.
<mgrwt>
<rscale>  0 0.30654496E+04</rscale>
<asrwt>0</asrwt>
<pdfrwt beam="1">  1        2 0.22240436E+00 0.30654496E+04</pdfrwt>
<pdfrwt beam="2">  1       -2 0.25001057E+00 0.30654496E+04</pdfrwt>
<totfact> 0.74554793E-01</totfact>
</mgrwt>
</event>
<event>
 6    1  0.6091287E-004  0.1337696E+04  0.7818608E-02  0.9000195E-01
         -2   -1    0    0    0  501 -0.00000000000E+00  0.00000000000E+00  0.36383656452E+03  0.36383656452E+03  0.00000000000E+00 0. -1.
          2   -1    0    0  501    0  0.00000000000E+00 -0.00000000000E+00 -0.12295568968E+04  0.12295568968E+04  0.00000000000E+00 0.  1.
         23    2    1    2    0    0  0.52394441495E+03  0.36063237800E+03 -0.66878052018E+03  0.92754156218E+03  0.92154779500E+02 0.  0.
         13    1    3    3    0    0  0.27654925364E+03  0.15825002392E+03 -0.27941229635E+03  0.42378507656E+03  0.00000000000E+00 0.  1.
        -13    1    3    3    0    0  0.24739516131E+03  0.20238235408E+03 -0.38936822383E+03  0.50375648563E+03  0.00000000000E+00 0. -1.
         22    1    1    2    0    0 -0.52394441495E+03 -0.36063237800E+03 -0.19693981214E+03  0.66585189917E+03  0.00000000000E+00 0. -1.
<mgrwt>
<rscale>  0 0.13376962E+04</rscale>
<asrwt>0</asrwt>
<pdfrwt beam="1">  1        2 0.18916260E+00 0.13376962E+04</pdfrwt>
<pdfrwt beam="2">  1       -2 0.55974856E-01 0.13376962E+04</pdfrwt>
<totfact> 0.53285652E+01</totfact>
</mgrwt>
</event>
<event>
 6    1  0.6091287E-004  0.1119957E+04  0.7818608E-02  0.9185956E-01
         -2   -1    0    0    0  501 -0.00000000000E+00  0.00000000000E+00  0.66076650682E+03  0.66076650682E+03  0.00000000000E+00 0. -1.
          2   -1    0    0  501    0  0.00000000000E+00 -0.00000000000E+00 -0.47456365457E+03  0.47456365457E+03  0.00000000000E+00 0.  1.
         23    2    1    2    0    0 -0.45565712251E+03  0.29032110023E+03  0.22798256949E+03  0.59343044806E+03  0.90960926542E+02 0.  0.
         13    1    3    3    0    0 -0.20840224150E+03  0.15080951676E+03  0.15487920684E+03  0.30027083329E+03  0.00000000000E+00 0. -1.
        -13    1    3    3    0    0 -0.24725488101E+03  0.13951158347E+03  0.73103362653E+02  0.29315961478E+03  0.00000000000E+00 0.  1.
         22    1    1    2    0    0  0.45565712251E+03 -0.29032110023E+03 -0.41779717249E+02  0.54189971333E+03  0.00000000000E+00 0. -1.
<mgrwt>
<rscale>  0 0.11199567E+04</rscale>
<asrwt>0</asrwt>
<pdfrwt beam="1">  1        2 0.73009793E-01 0.11199567E+04</pdfrwt>
<pdfrwt beam="2">  1       -2 0.10165639E+00 0.11199567E+04</pdfrwt>
<totfact> 0.51545649E+01</totfact>
</mgrwt>
</event>
<event>
 6    1  0.6091287E-004  0.8358940E+03  0.7818608E-02  0.9509468E-01
         -2   -1    0    0    0  501 -0.00000000000E+00  0.00000000000E+00  0.47181226839E+03  0.47181226839E+03  0.00000000000E+00 0. -1.
          2   -1    0    0  501    0  0.00000000000E+00 -0.00000000000E+00 -0.37023136500E+03  0.37023136500E+03  0.00000000000E+00 0.  1.
         23    2    1    2    0    0 -0.36432053320E+03 -0.14690306850E+02 -0.14403333125E+03  0.40241696417E+03  0.90821564133E+02 0.  0.
         13    1    3    3    0    0 -0.62288259099E+02  0.16134909582E+02 -0.58587199796E+02  0.87020816525E+02  0.00000000000E+00 0. -1.
        -13    1    3    3    0    0 -0.30203227410E+03 -0.30825216433E+02 -0.85446131458E+02  0.31539614764E+03  0.00000000000E+00 0.  1.
         22    1    1    2    0    0  0.36432053320E+03  0.14690306850E+02  0.24561423464E+03  0.43962666921E+03  0.00000000000E+00 0. -1.
<mgrwt>
<rscale>  0 0.83589401E+03</rscale>
<asrwt>0</asrwt>
<pdfrwt beam="1">  1        2 0.56958672E-01 0.83589401E+03</pdfrwt>
<pdfrwt beam="2">  1       -2 0.72586503E-01 0.83589401E+03</pdfrwt>
<totfact> 0.14990708E+02</totfact>
</mgrwt>
</event>
<event>
 6    1  0.6091287E-004  0.1016287E+04  0.7818608E-02  0.9290860E-01
          2   -1    0    0  501    0  0.00000000000E+00  0.00000000000E+00  0.24799698428E+04  0.24799698428E+04  0.00000000000E+00 0.  1.
         -2   -1    0    0    0  501 -0.00000000000E+00 -0.00000000000E+00 -0.10411803888E+03  0.10411803888E+03  0.00000000000E+00 0. -1.
         23    2    1    2    0    0 -0.37904829611E+02 -0.37423824618E+03  0.34445158812E+03  0.51815519212E+03  0.91361181847E+02 0.  0.
         13    1    3    3    0    0  0.22121266003E+02 -0.11005808558E+03  0.68821220736E+02  0.13167571164E+03  0.00000000000E+00 0.  1.
        -13    1    3    3    0    0 -0.60026095614E+02 -0.26418016060E+03  0.27563036738E+03  0.38647948048E+03  0.00000000000E+00 0. -1.
         22    1    1    2    0    0  0.37904829611E+02  0.37423824618E+03  0.20314002158E+04  0.20659326896E+04  0.00000000000E+00 0.  1.
<mgrwt>
<rscale>  0 0.10162866E+04</rscale>
<asrwt>0</asrwt>
<pdfrwt beam="1">  1        2 0.38153378E+00 0.10162866E+04</pdfrwt>
<pdfrwt beam="2">  1       -2 0.16018162E-01 0.10162866E+04</pdfrwt>
<totfact> 0.11327098E+02</totfact>
</mgrwt>
</event>
<event>
 6    1  0.6091287E-004  0.2317456E+04  0.7818608E-02  0.8471070E-01
         -2   -1    0    0    0  501 -0.00000000000E+00  0.00000000000E+00  0.38494278916E+04  0.38494278916E+04  0.00000000000E+00 0. -1.
          2   -1    0    0  501    0  0.00000000000E+00 -0.00000000000E+00 -0.34879209747E+03  0.34879209747E+03  0.00000000000E+00 0.  1.
         23    2    1    2    0    0 -0.87920728465E+03 -0.74701500850E+03  0.15954076760E+04  0.19709052259E+04  0.90027131474E+02 0.  0.
         11    1    3    3    0    0 -0.18125324756E+03 -0.10940317466E+03  0.27976779722E+03  0.35084443097E+03  0.00000000000E+00 0.  1.
        -11    1    3    3    0    0 -0.69795403708E+03 -0.63761183384E+03  0.13156398788E+04  0.16200607949E+04  0.00000000000E+00 0. -1.
         22    1    1    2    0    0  0.87920728465E+03  0.74701500850E+03  0.19052281181E+04  0.22273147632E+04  0.00000000000E+00 0.  1.
<mgrwt>
<rscale>  0 0.23174555E+04</rscale>
<asrwt>0</asrwt>
<pdfrwt beam="1">  1        2 0.53660325E-01 0.23174555E+04</pdfrwt>
<pdfrwt beam="2">  1       -2 0.59221965E+00 0.23174555E+04</pdfrwt>
<totfact> 0.44977271E-02</totfact>
</mgrwt>
</event>
<event>
 6    1  0.6091287E-004  0.6282012E+03  0.7818608E-02  0.9848565E-01
         -2   -1    0    0    0  501 -0.00000000000E+00  0.00000000000E+00  0.21705510272E+03  0.21705510272E+03  0.00000000000E+00 0. -1.
          2   -1    0    0  501    0  0.00000000000E+00 -0.00000000000E+00 -0.45453526773E+03  0.45453526773E+03  0.00000000000E+00 0.  1.
         23    2    1    2    0    0 -0.94646851052E+02  0.21141958877E+03  0.96111319862E+02  0.26546286866E+03  0.87045275019E+02 0.  0.
         11    1    3    3    0    0 -0.62090952082E+02  0.17663388620E+03  0.39284711982E+02  0.19130631114E+03  0.00000000000E+00 0. -1.
        -11    1    3    3    0    0 -0.32555898970E+02  0.34785702567E+02  0.56826607880E+02  0.74156557525E+02  0.00000000000E+00 0.  1.
         22    1    1    2    0    0  0.94646851052E+02 -0.21141958877E+03 -0.33359148488E+03  0.40612750179E+03  0.00000000000E+00 0.  1.
<mgrwt>
<rscale>  0 0.62820124E+03</rscale>
<asrwt>0</asrwt>
<pdfrwt beam="1">  1        2 0.69928502E-01 0.62820124E+03</pdfrwt>
<pdfrwt beam="2">  1       -2 0.33393093E-01 0.62820124E+03</pdfrwt>
<totfact> 0.57994511E+02</totfact>
</mgrwt>
</event>
<event>
 6    1  0.6091287E-004  0.2816762E+04  0.7818608E-02  0.8298083E-01
          2   -1    0    0  501    0  0.00000000000E+00  0.00000000000E+00  0.49629694766E+04  0.49629694766E+04  0.00000000000E+00 0.  1.
         -2   -1    0    0    0  501 -0.00000000000E+00 -0.00000000000E+00 -0.39966730983E+03  0.39966730983E+03  0.00000000000E+00 0. -1.
         23    2    1    2    0    0  0.57677468345E+03  0.49663615829E+03  0.31484134788E+02  0.76734667761E+03  0.92266807188E+02 0.  0.
         11    1    3    3    0    0  0.24151395877E+03  0.21120184709E+03  0.58848560121E+02  0.32618762319E+03  0.00000000000E+00 0.  1.
        -11    1    3    3    0    0  0.33526072468E+03  0.28543431120E+03 -0.27364425333E+02  0.44115905442E+03  0.00000000000E+00 0. -1.
         22    1    1    2    0    0 -0.57677468345E+03 -0.49663615829E+03  0.45318180320E+04  0.45952901088E+04  0.00000000000E+00 0.  1.
<mgrwt>
<rscale>  0 0.28167617E+04</rscale>
<asrwt>0</asrwt>
<pdfrwt beam="1">  1        2 0.76353372E+00 0.28167617E+04</pdfrwt>
<pdfrwt beam="2">  1       -2 0.61487282E-01 0.28167617E+04</pdfrwt>
<totfact> 0.81820701E-02</totfact>
</mgrwt>
</event>
<event>
 6    1  0.6091287E-004  0.8561290E+03  0.7818608E-02  0.9482148E-01
         -2   -1    0    0    0  501 -0.00000000000E+00  0.00000000000E+00  0.24276263157E+03  0.24276263157E+03  0.00000000000E+00 0. -1.
          2   -1    0    0  501    0  0.00000000000E+00 -0.00000000000E+00 -0.75480808180E+03  0.75480808180E+03  0.00000000000E+00 0.  1.
         23    2    1    2    0    0 -0.28618603642E+03 -0.29984189211E+02 -0.62055161795E+03  0.69004008486E+03  0.90936841392E+02 0.  0.
         13    1    3    3    0    0 -0.16933006017E+03  0.34606881891E+01 -0.44826172616E+03  0.47919017184E+03  0.00000000000E+00 0.  1.
        -13    1    3    3    0    0 -0.11685597624E+03 -0.33444877400E+02 -0.17228989179E+03  0.21084991302E+03  0.00000000000E+00 0. -1.
         22    1    1    2    0    0  0.28618603642E+03  0.29984189211E+02  0.10850616773E+03  0.30753062852E+03  0.00000000000E+00 0. -1.
<mgrwt>
<rscale>  0 0.85612895E+03</rscale>
<asrwt>0</asrwt>
<pdfrwt beam="1">  1        2 0.11612432E+00 0.85612895E+03</pdfrwt>
<pdfrwt beam="2">  1       -2 0.37348097E-01 0.85612895E+03</pdfrwt>
<totfact> 0.25232600E+02</totfact>
</mgrwt>
</event>
<event>
 6    1  0.6762900E-004  0.3257473E+04  0.7818608E-02  0.8173801E-01
          1   -1    0    0  501    0  0.00000000000E+00  0.00000000000E+00  0.22811488858E+04  0.22811488858E+04  0.00000000000E+00 0.  1.
         -1   -1    0    0    0  501 -0.00000000000E+00 -0.00000000000E+00 -0.11629154434E+04  0.11629154434E+04  0.00000000000E+00 0. -1.
         23    2    1    2    0    0  0.14921478798E+04 -0.11384727404E+03  0.12366080319E+04  0.19429050971E+04  0.78830798953E+02 0.  0.
         11    1    3    3    0    0  0.72102406936E+03 -0.81197635065E+02  0.56099275407E+03  0.91715954700E+03  0.00000000000E+00 0. -1.
        -11    1    3    3    0    0  0.77112381039E+03 -0.32649638971E+02  0.67561527782E+03  0.10257455501E+04  0.00000000000E+00 0.  1.
         22    1    1    2    0    0 -0.14921478798E+04  0.11384727404E+03 -0.11837458948E+03  0.15011592322E+04  0.00000000000E+00 0. -1.
<mgrwt>
<rscale>  0 0.32574734E+04</rscale>
<asrwt>0</asrwt>
<pdfrwt beam="1">  1        1 0.35094598E+00 0.32574734E+04</pdfrwt>
<pdfrwt beam="2">  1       -1 0.17891007E+00 0.32574734E+04</pdfrwt>
<totfact> 0.33823884E-01</totfact>
</mgrwt>
</event>
<event>
 6    1  0.6091287E-004  0.1083415E+04  0.7818608E-02  0.9221509E-01
         -2   -1    0    0    0  501 -0.00000000000E+00  0.00000000000E+00  0.33094096164E+03  0.33094096164E+03  0.00000000000E+00 0. -1.
          2   -1    0    0  501    0  0.00000000000E+00 -0.00000000000E+00 -0.88670563700E+03  0.88670563700E+03  0.00000000000E+00 0.  1.
         23    2    1    2    0    0 -0.72218808388E+02  0.15578874276E+03 -0.85238081065E+03  0.87491226951E+03  0.97122316281E+02 0.  0.
         13    1    3    3    0    0 -0.42131842524E+02  0.13571311302E+03 -0.79103457607E+03  0.80369698378E+03  0.00000000000E+00 0.  1.
        -13    1    3    3    0    0 -0.30086965863E+02  0.20075629738E+02 -0.61346234574E+02  0.71215285723E+02  0.00000000000E+00 0. -1.
         22    1    1    2    0    0  0.72218808388E+02 -0.15578874276E+03  0.29661613529E+03  0.34273432914E+03  0.00000000000E+00 0. -1.
<mgrwt>
<rscale>  0 0.10834154E+04</rscale>
<asrwt>0</asrwt>
<pdfrwt beam="1">  1        2 0.13641625E+00 0.10834154E+04</pdfrwt>
<pdfrwt beam="2">  1       -2 0.50913995E-01 0.10834154E+04</pdfrwt>
<totfact> 0.10849124E+02</totfact>
</mgrwt>
</event>
<event>
 6    1  0.6091287E-004  0.1284970E+04  0.7818608E-02  0.9041570E-01
         -2   -1    0    0    0  501 -0.00000000000E+00  0.00000000000E+00  0.41217260745E+03  0.41217260745E+03  0.00000000000E+00 0. -1.
          2   -1    0    0  501    0  0.00000000000E+00 -0.00000000000E+00 -0.10014907111E+04  0.10014907111E+04  0.00000000000E+00 0.  1.
         23    2    1    2    0    0  0.21434386736E+03  0.41612598346E+03  0.18274042714E+03  0.51079095628E+03  0.91701743280E+02 0.  0.
         11    1    3    3    0    0  0.12672516984E+03  0.15490351885E+03  0.95734164865E+02  0.22185445487E+03  0.00000000000E+00 0.  1.
        -11    1    3    3    0    0  0.87618697515E+02  0.26122246461E+03  0.87006262275E+02  0.28893650141E+03  0.00000000000E+00 0. -1.
         22    1    1    2    0    0 -0.21434386736E+03 -0.41612598346E+03 -0.77205853074E+03  0.90287236223E+03  0.00000000000E+00 0.  1.
<mgrwt>
<rscale>  0 0.12849701E+04</rscale>
<asrwt>0</asrwt>
<pdfrwt beam="1">  1        2 0.15407549E+00 0.12849701E+04</pdfrwt>
<pdfrwt beam="2">  1       -2 0.63411171E-01 0.12849701E+04</pdfrwt>
<totfact> 0.56784012E+01</totfact>
</mgrwt>
</event>
<event>
 6    1  0.6091287E-004  0.4966541E+04  0.7818608E-02  0.7833689E-01
         -2   -1    0    0    0  501 -0.00000000000E+00  0.00000000000E+00  0.17893608828E+04  0.17893608828E+04  0.00000000000E+00 0. -1.
          2   -1    0    0  501    0  0.00000000000E+00 -0.00000000000E+00 -0.34462765218E+04  0.34462765218E+04  0.00000000000E+00 0.  1.
         23    2    1    2    0    0 -0.49670533755E+03 -0.58076730198E+03  0.16611105575E+04  0.18307431782E+04  0.91243898655E+02 0.  0.
         11    1    3    3    0    0 -0.19835606701E+03 -0.16942848826E+03  0.52914058912E+03  0.58994991737E+03  0.00000000000E+00 0. -1.
        -11    1    3    3    0    0 -0.29834927054E+03 -0.41133881372E+03  0.11319699684E+04  0.12407932609E+04  0.00000000000E+00 0.  1.
         22    1    1    2    0    0  0.49670533755E+03  0.58076730198E+03 -0.33180261966E+04  0.34048942264E+04  0.00000000000E+00 0.  1.
<mgrwt>
<rscale>  0 0.49665410E+04</rscale>
<asrwt>0</asrwt>
<pdfrwt beam="1">  1        2 0.53019638E+00 0.49665410E+04</pdfrwt>
<pdfrwt beam="2">  1       -2 0.27528629E+00 0.49665410E+04</pdfrwt>
<totfact> 0.29051297E-02</totfact>
</mgrwt>
</event>
<event>
 6    1  0.6091287E-004  0.1932680E+04  0.7818608E-02  0.8638758E-01
         -2   -1    0    0    0  501 -0.00000000000E+00  0.00000000000E+00  0.43459114071E+03  0.43459114071E+03  0.00000000000E+00 0. -1.
          2   -1    0    0  501    0  0.00000000000E+00 -0.00000000000E+00 -0.21487161798E+04  0.21487161798E+04  0.00000000000E+00 0.  1.
         23    2    1    2    0    0 -0.39038920201E+03 -0.73305921909E+03 -0.20409992025E+03  0.85995146427E+03  0.89889908899E+02 0.  0.
         13    1    3    3    0    0 -0.24476362604E+03 -0.54545150965E+03 -0.14255767330E+03  0.61461310775E+03  0.00000000000E+00 0. -1.
        -13    1    3    3    0    0 -0.14562557597E+03 -0.18760770944E+03 -0.61542246945E+02  0.24533835652E+03  0.00000000000E+00 0.  1.
         22    1    1    2    0    0  0.39038920201E+03  0.73305921909E+03 -0.15100251189E+04  0.17233558563E+04  0.00000000000E+00 0.  1.
<mgrwt>
<rscale>  0 0.19326800E+04</rscale>
<asrwt>0</asrwt>
<pdfrwt beam="1">  1        2 0.33057172E+00 0.19326800E+04</pdfrwt>
<pdfrwt beam="2">  1       -2 0.66860175E-01 0.19326800E+04</pdfrwt>
<totfact> 0.10588451E+01</totfact>
</mgrwt>
</event>
<event>
 6    1  0.6091287E-004  0.4589485E+04  0.7818608E-02  0.7895155E-01
         -2   -1    0    0    0  501 -0.00000000000E+00  0.00000000000E+00  0.15825187450E+04  0.15825187450E+04  0.00000000000E+00 0. -1.
          2   -1    0    0  501    0  0.00000000000E+00 -0.00000000000E+00 -0.33275076913E+04  0.33275076913E+04  0.00000000000E+00 0.  1.
         23    2    1    2    0    0  0.11068899364E+04  0.84451113156E+03  0.10775414992E+04  0.17627923334E+04  0.89088414015E+02 0.  0.
         13    1    3    3    0    0  0.25411712481E+03  0.16979061430E+03  0.19747561949E+03  0.36386946302E+03  0.00000000000E+00 0. -1.
        -13    1    3    3    0    0  0.85277281161E+03  0.67472051725E+03  0.88006587973E+03  0.13989228704E+04  0.00000000000E+00 0.  1.
         22    1    1    2    0    0 -0.11068899364E+04 -0.84451113156E+03 -0.28225304455E+04  0.31472341029E+04  0.00000000000E+00 0.  1.
<mgrwt>
<rscale>  0 0.45894851E+04</rscale>
<asrwt>0</asrwt>
<pdfrwt beam="1">  1        2 0.51192426E+00 0.45894851E+04</pdfrwt>
<pdfrwt beam="2">  1       -2 0.24346442E+00 0.45894851E+04</pdfrwt>
<totfact> 0.56549733E-02</totfact>
</mgrwt>
</event>
<event>
 6    1  0.6091287E-004  0.1752865E+04  0.7818608E-02  0.8731775E-01
         -1   -1    0    0    0  501 -0.00000000000E+00  0.00000000000E+00  0.10082794881E+04  0.10082794881E+04  0.00000000000E+00 0. -1.
          1   -1    0    0  501    0  0.00000000000E+00 -0.00000000000E+00 -0.76182677318E+03  0.76182677318E+03  0.00000000000E+00 0.  1.
         23    2    1    2    0    0 -0.16919818336E+03  0.63995554999E+03 -0.45277798692E+03  0.80724868844E+03  0.92040253870E+02 0.  0.
         13    1    3    3    0    0 -0.15077007817E+03  0.46575862262E+03 -0.29544191373E+03  0.57179422470E+03  0.00000000000E+00 0.  1.
        -13    1    3    3    0    0 -0.18428105192E+02  0.17419692737E+03 -0.15733607319E+03  0.23545446373E+03  0.00000000000E+00 0. -1.
         22    1    1    2    0    0  0.16919818336E+03 -0.63995554999E+03  0.69923070189E+03  0.96285757289E+03  0.00000000000E+00 0. -1.
<mgrwt>
<rscale>  0 0.17528654E+04</rscale>
<asrwt>0</asrwt>
<pdfrwt beam="1">  1        1 0.11720412E+00 0.17528654E+04</pdfrwt>
<pdfrwt beam="2">  1       -1 0.15511992E+00 0.17528654E+04</pdfrwt>
<totfact> 0.72104829E+00</totfact>
</mgrwt>
</event>
<event>
 6    1  0.6091287E-004  0.1517930E+04  0.7818608E-02  0.8872617E-01
         -2   -1    0    0    0  501 -0.00000000000E+00  0.00000000000E+00  0.18489793036E+03  0.18489793036E+03  0.00000000000E+00 0. -1.
          2   -1    0    0  501    0  0.00000000000E+00 -0.00000000000E+00 -0.31153809863E+04  0.31153809863E+04  0.00000000000E+00 0.  1.
         23    2    1    2    0    0  0.48761579820E+03 -0.33930903070E+03 -0.24878061962E+04  0.25594263084E+04  0.92647576018E+02 0.  0.
         13    1    3    3    0    0  0.26508416129E+03 -0.17325125406E+03 -0.11308575655E+04  0.11743612915E+04  0.00000000000E+00 0. -1.
        -13    1    3    3    0    0  0.22253163691E+03 -0.16605777664E+03 -0.13569486307E+04  0.13850650169E+04  0.00000000000E+00 0.  1.
         22    1    1    2    0    0 -0.48761579820E+03  0.33930903070E+03 -0.44267685967E+03  0.74085260819E+03  0.00000000000E+00 0. -1.
<mgrwt>
<rscale>  0 0.15179295E+04</rscale>
<asrwt>0</asrwt>
<pdfrwt beam="1">  1        2 0.47928942E+00 0.15179295E+04</pdfrwt>
<pdfrwt beam="2">  1       -2 0.28445833E-01 0.15179295E+04</pdfrwt>
<totfact> 0.16205171E+01</totfact>
</mgrwt>
</event>
<event>
 6    1  0.6091287E-004  0.1916796E+04  0.7818608E-02  0.8646541E-01
          2   -1    0    0  501    0  0.00000000000E+00  0.00000000000E+00  0.11871335497E+04  0.11871335497E+04  0.00000000000E+00 0.  1.
         -2   -1    0    0    0  501 -0.00000000000E+00 -0.00000000000E+00 -0.77373473241E+03  0.77373473241E+03  0.00000000000E+00 0. -1.
         23    2    1    2    0    0 -0.71423954361E+03  0.29512361955E+03 -0.36890664222E+03  0.86121474192E+03  0.91447496127E+02 0.  0.
         13    1    3    3    0    0 -0.32326917657E+03  0.16148059368E+03 -0.21387413269E+03  0.41990604579E+03  0.00000000000E+00 0.  1.
        -13    1    3    3    0    0 -0.39097036704E+03  0.13364302586E+03 -0.15503250953E+03  0.44130869613E+03  0.00000000000E+00 0. -1.
         22    1    1    2    0    0  0.71423954361E+03 -0.29512361955E+03  0.78230545951E+03  0.10996535402E+04  0.00000000000E+00 0.  1.
<mgrwt>
<rscale>  0 0.19167957E+04</rscale>
<asrwt>0</asrwt>
<pdfrwt beam="1">  1        2 0.18263593E+00 0.19167957E+04</pdfrwt>
<pdfrwt beam="2">  1       -2 0.11903611E+00 0.19167957E+04</pdfrwt>
<totfact> 0.97709734E+00</totfact>
</mgrwt>
</event>
<event>
 6    1  0.6091287E-004  0.3205135E+04  0.7818608E-02  0.8187462E-01
         -2   -1    0    0    0  501 -0.00000000000E+00  0.00000000000E+00  0.10422775052E+04  0.10422775052E+04  0.00000000000E+00 0. -1.
          2   -1    0    0  501    0  0.00000000000E+00 -0.00000000000E+00 -0.24640482794E+04  0.24640482794E+04  0.00000000000E+00 0.  1.
         23    2    1    2    0    0  0.23569821273E+03 -0.49253609215E+03  0.93538538818E+03  0.10867533796E+04  0.89115846575E+02 0.  0.
         13    1    3    3    0    0  0.18197104253E+03 -0.38275538296E+03  0.79266105381E+03  0.89884742294E+03  0.00000000000E+00 0.  1.
        -13    1    3    3    0    0  0.53727170198E+02 -0.10978070919E+03  0.14272433437E+03  0.18790595666E+03  0.00000000000E+00 0. -1.
         22    1    1    2    0    0 -0.23569821273E+03  0.49253609215E+03 -0.23571561623E+04  0.24195724050E+04  0.00000000000E+00 0. -1.
<mgrwt>
<rscale>  0 0.32051347E+04</rscale>
<asrwt>0</asrwt>
<pdfrwt beam="1">  1        2 0.37908435E+00 0.32051347E+04</pdfrwt>
<pdfrwt beam="2">  1       -2 0.16035039E+00 0.32051347E+04</pdfrwt>
<totfact> 0.76956089E-01</totfact>
</mgrwt>
</event>
<event>
 6    1  0.6091287E-004  0.1401634E+04  0.7818608E-02  0.8952637E-01
          2   -1    0    0  501    0  0.00000000000E+00  0.00000000000E+00  0.14817618918E+04  0.14817618918E+04  0.00000000000E+00 0.  1.
         -2   -1    0    0    0  501 -0.00000000000E+00 -0.00000000000E+00 -0.33145963232E+03  0.33145963232E+03  0.00000000000E+00 0. -1.
         23    2    1    2    0    0 -0.67822222195E+02  0.17867671118E+03  0.14458279402E+04  0.14612831078E+04  0.91676974592E+02 0.  0.
         11    1    3    3    0    0 -0.12474679677E+02 -0.13983478740E+01  0.24539492580E+02  0.27563738968E+02  0.00000000000E+00 0. -1.
        -11    1    3    3    0    0 -0.55347542518E+02  0.18007505906E+03  0.14212884476E+04  0.14337193689E+04  0.00000000000E+00 0.  1.
         22    1    1    2    0    0  0.67822222195E+02 -0.17867671118E+03 -0.29552568067E+03  0.35193841632E+03  0.00000000000E+00 0. -1.
<mgrwt>
<rscale>  0 0.14016337E+04</rscale>
<asrwt>0</asrwt>
<pdfrwt beam="1">  1        2 0.22796336E+00 0.14016337E+04</pdfrwt>
<pdfrwt beam="2">  1       -2 0.50993790E-01 0.14016337E+04</pdfrwt>
<totfact> 0.45972554E+01</totfact>
</mgrwt>
</event>
<event>
 6    1  0.6091287E-004  0.1032539E+04  0.7818608E-02  0.9273559E-01
          2   -1    0    0  501    0  0.00000000000E+00  0.00000000000E+00  0.10641717468E+04  0.10641717468E+04  0.00000000000E+00 0.  1.
         -2   -1    0    0    0  501 -0.00000000000E+00 -0.00000000000E+00 -0.25046168803E+03  0.25046168803E+03  0.00000000000E+00 0. -1.
         23    2    1    2    0    0  0.36718871101E+03  0.32009116668E+03  0.20778708993E+03  0.53718340516E+03  0.90025727168E+02 0.  0.
         11    1    3    3    0    0  0.14934085754E+03  0.78631277232E+02  0.52140559068E+02  0.17664712675E+03  0.00000000000E+00 0. -1.
        -11    1    3    3    0    0  0.21784785346E+03  0.24145988945E+03  0.15564653086E+03  0.36053627840E+03  0.00000000000E+00 0.  1.
         22    1    1    2    0    0 -0.36718871101E+03 -0.32009116668E+03  0.60592296885E+03  0.77745002968E+03  0.00000000000E+00 0. -1.
<mgrwt>
<rscale>  0 0.10325391E+04</rscale>
<asrwt>0</asrwt>
<pdfrwt beam="1">  1        2 0.16371873E+00 0.10325391E+04</pdfrwt>
<pdfrwt beam="2">  1       -2 0.38532568E-01 0.10325391E+04</pdfrwt>
<totfact> 0.14528383E+02</totfact>
</mgrwt>
</event>
<event>
 6    1  0.6091287E-004  0.4133032E+04  0.7818608E-02  0.7978235E-01
         -2   -1    0    0    0  501 -0.00000000000E+00  0.00000000000E+00  0.10820677303E+04  0.10820677303E+04  0.00000000000E+00 0. -1.
          2   -1    0    0  501    0  0.00000000000E+00 -0.00000000000E+00 -0.39465993367E+04  0.39465993367E+04  0.00000000000E+00 0.  1.
         23    2    1    2    0    0 -0.79676336573E+03  0.18800980611E+04 -0.10502133491E+04  0.22971196450E+04  0.64884545699E+02 0.  0.
         13    1    3    3    0    0 -0.45004870355E+03  0.10599344066E+04 -0.55601140441E+03  0.12787311929E+04  0.00000000000E+00 0.  1.
        -13    1    3    3    0    0 -0.34671466218E+03  0.82016365450E+03 -0.49420194473E+03  0.10183884521E+04  0.00000000000E+00 0. -1.
         22    1    1    2    0    0  0.79676336573E+03 -0.18800980611E+04 -0.18143182572E+04  0.27315474220E+04  0.00000000000E+00 0.  1.
<mgrwt>
<rscale>  0 0.41330317E+04</rscale>
<asrwt>0</asrwt>
<pdfrwt beam="1">  1        2 0.60716914E+00 0.41330317E+04</pdfrwt>
<pdfrwt beam="2">  1       -2 0.16647196E+00 0.41330317E+04</pdfrwt>
<totfact> 0.66346502E-02</totfact>
</mgrwt>
</event>
<event>
 6    1  0.6091288E-004  0.4663541E+04  0.7818608E-02  0.7882615E-01
          2   -1    0    0  501    0  0.00000000000E+00  0.00000000000E+00  0.15104595879E+04  0.15104595879E+04  0.00000000000E+00 0.  1.
         -2   -1    0    0    0  501 -0.00000000000E+00 -0.00000000000E+00 -0.35996683611E+04  0.35996683611E+04  0.00000000000E+00 0. -1.
         23    2    1    2    0    0 -0.72326604532E+03 -0.17471656594E+04  0.44837272169E+03  0.19454760792E+04  0.90207888946E+02 0.  0.
         11    1    3    3    0    0 -0.24161822687E+03 -0.54074841700E+03  0.10102140841E+03  0.60082738204E+03  0.00000000000E+00 0.  1.
        -11    1    3    3    0    0 -0.48164781845E+03 -0.12064172424E+04  0.34735131328E+03  0.13446486971E+04  0.00000000000E+00 0. -1.
         22    1    1    2    0    0  0.72326604532E+03  0.17471656594E+04 -0.25375814949E+04  0.31646518698E+04  0.00000000000E+00 0. -1.
<mgrwt>
<rscale>  0 0.46635410E+04</rscale>
<asrwt>0</asrwt>
<pdfrwt beam="1">  1        2 0.23237840E+00 0.46635410E+04</pdfrwt>
<pdfrwt beam="2">  1       -2 0.55379512E+00 0.46635410E+04</pdfrwt>
<totfact> 0.76996214E-03</totfact>
</mgrwt>
</event>
<event>
 6    1  0.6091287E-004  0.1996643E+04  0.7818608E-02  0.8608192E-01
          2   -1    0    0  501    0  0.00000000000E+00  0.00000000000E+00  0.13056459972E+04  0.13056459972E+04  0.00000000000E+00 0.  1.
         -2   -1    0    0    0  501 -0.00000000000E+00 -0.00000000000E+00 -0.76333524599E+03  0.76333524599E+03  0.00000000000E+00 0. -1.
         23    2    1    2    0    0  0.96217007332E+02  0.85862008027E+03  0.78590720324E+03  0.11713034691E+04  0.88405485061E+02 0.  0.
         13    1    3    3    0    0  0.10745847343E+03  0.62281191896E+03  0.58812577025E+03  0.86332724476E+03  0.00000000000E+00 0. -1.
        -13    1    3    3    0    0 -0.11241466098E+02  0.23580816131E+03  0.19778143299E+03  0.30797622430E+03  0.00000000000E+00 0.  1.
         22    1    1    2    0    0 -0.96217007332E+02 -0.85862008027E+03 -0.24359645202E+03  0.89767777414E+03  0.00000000000E+00 0.  1.
<mgrwt>
<rscale>  0 0.19966428E+04</rscale>
<asrwt>0</asrwt>
<pdfrwt beam="1">  1        2 0.20086861E+00 0.19966428E+04</pdfrwt>
<pdfrwt beam="2">  1       -2 0.11743619E+00 0.19966428E+04</pdfrwt>
<totfact> 0.85418614E+00</totfact>
</mgrwt>
</event>
<event>
 6    1  0.6091287E-004  0.3111977E+04  0.7818608E-02  0.8212459E-01
          2   -1    0    0  501    0  0.00000000000E+00  0.00000000000E+00  0.16761316114E+04  0.16761316114E+04  0.00000000000E+00 0.  1.
         -2   -1    0    0    0  501 -0.00000000000E+00 -0.00000000000E+00 -0.14444574616E+04  0.14444574616E+04  0.00000000000E+00 0. -1.
         23    2    1    2    0    0  0.30464864654E+03  0.14413528791E+04  0.61399788717E+03  0.15985902687E+04  0.90490451821E+02 0.  0.
         11    1    3    3    0    0  0.86929741849E+02  0.29677707707E+03  0.15975757286E+03  0.34807455462E+03  0.00000000000E+00 0. -1.
        -11    1    3    3    0    0  0.21771890469E+03  0.11445758020E+04  0.45424031431E+03  0.12505157141E+04  0.00000000000E+00 0.  1.
         22    1    1    2    0    0 -0.30464864654E+03 -0.14413528791E+04 -0.38232373732E+03  0.15219988042E+04  0.00000000000E+00 0.  1.
<mgrwt>
<rscale>  0 0.31119774E+04</rscale>
<asrwt>0</asrwt>
<pdfrwt beam="1">  1        2 0.25786640E+00 0.31119774E+04</pdfrwt>
<pdfrwt beam="2">  1       -2 0.22222423E+00 0.31119774E+04</pdfrwt>
<totfact> 0.82070360E-01</totfact>
</mgrwt>
</event>
<event>
 6    1  0.6091287E-004  0.3015882E+04  0.7818608E-02  0.8239210E-01
          2   -1    0    0  501    0  0.00000000000E+00  0.00000000000E+00  0.13788064239E+04  0.13788064239E+04  0.00000000000E+00 0.  1.
         -2   -1    0    0    0  501 -0.00000000000E+00 -0.00000000000E+00 -0.16491701526E+04  0.16491701526E+04  0.00000000000E+00 0. -1.
         23    2    1    2    0    0  0.81827337229E+03 -0.58273294979E+03  0.99193643154E+03  0.14147342832E+04  0.91576226431E+02 0.  0.
         13    1    3    3    0    0  0.33649015731E+03 -0.19099079257E+03  0.40950651307E+03  0.56338148093E+03  0.00000000000E+00 0.  1.
        -13    1    3    3    0    0  0.48178321498E+03 -0.39174215722E+03  0.58242991848E+03  0.85135280226E+03  0.00000000000E+00 0. -1.
         22    1    1    2    0    0 -0.81827337229E+03  0.58273294979E+03 -0.12623001603E+04  0.16132422934E+04  0.00000000000E+00 0. -1.
<mgrwt>
<rscale>  0 0.30158822E+04</rscale>
<asrwt>0</asrwt>
<pdfrwt beam="1">  1        2 0.21212407E+00 0.30158822E+04</pdfrwt>
<pdfrwt beam="2">  1       -2 0.25371848E+00 0.30158822E+04</pdfrwt>
<totfact> 0.77564613E-01</totfact>
</mgrwt>
</event>
<event>
 6    1  0.6091287E-004  0.4884847E+04  0.7818608E-02  0.7846520E-01
          2   -1    0    0  501    0  0.00000000000E+00  0.00000000000E+00  0.14092039915E+04  0.14092039915E+04  0.00000000000E+00 0.  1.
         -2   -1    0    0    0  501 -0.00000000000E+00 -0.00000000000E+00 -0.42331937985E+04  0.42331937985E+04  0.00000000000E+00 0. -1.
         23    2    1    2    0    0 -0.14147138833E+04  0.65075396120E+03  0.75968793713E+03  0.17350147446E+04  0.90853246289E+02 0.  0.
         11    1    3    3    0    0 -0.13287703547E+04  0.60766453818E+03  0.68749585721E+03  0.16147871068E+04  0.00000000000E+00 0. -1.
        -11    1    3    3    0    0 -0.85943528612E+02  0.43089423019E+02  0.72192079917E+02  0.12022763779E+03  0.00000000000E+00 0.  1.
         22    1    1    2    0    0  0.14147138833E+04 -0.65075396120E+03 -0.35836777441E+04  0.39073830454E+04  0.00000000000E+00 0. -1.
<mgrwt>
<rscale>  0 0.48848474E+04</rscale>
<asrwt>0</asrwt>
<pdfrwt beam="1">  1        2 0.21680061E+00 0.48848474E+04</pdfrwt>
<pdfrwt beam="2">  1       -2 0.65126059E+00 0.48848474E+04</pdfrwt>
<totfact> 0.35262208E-03</totfact>
</mgrwt>
</event>
<event>
 6    1  0.6091287E-004  0.4638498E+04  0.7818608E-02  0.7886829E-01
          2   -1    0    0  501    0  0.00000000000E+00  0.00000000000E+00  0.10126208424E+04  0.10126208424E+04  0.00000000000E+00 0.  1.
         -2   -1    0    0    0  501 -0.00000000000E+00 -0.00000000000E+00 -0.53118746843E+04  0.53118746843E+04  0.00000000000E+00 0. -1.
         23    2    1    2    0    0  0.96615139210E+03  0.84028241029E+03 -0.47856350654E+04  0.49547912754E+04  0.90169630139E+02 0.  0.
         11    1    3    3    0    0  0.49101547704E+03  0.47598509920E+03 -0.26505661015E+04  0.27373634527E+04  0.00000000000E+00 0. -1.
        -11    1    3    3    0    0  0.47513591506E+03  0.36429731109E+03 -0.21350689638E+04  0.22174278227E+04  0.00000000000E+00 0.  1.
         22    1    1    2    0    0 -0.96615139210E+03 -0.84028241029E+03  0.48638122347E+03  0.13697042513E+04  0.00000000000E+00 0.  1.
<mgrwt>
<rscale>  0 0.46384976E+04</rscale>
<asrwt>0</asrwt>
<pdfrwt beam="1">  1        2 0.15578782E+00 0.46384976E+04</pdfrwt>
<pdfrwt beam="2">  1       -2 0.81721148E+00 0.46384976E+04</pdfrwt>
<totfact> 0.11086439E-03</totfact>
</mgrwt>
</event>
<event>
 6    1  0.6091287E-004  0.4310287E+04  0.7818608E-02  0.7944719E-01
         -2   -1    0    0    0  501 -0.00000000000E+00  0.00000000000E+00  0.14438556045E+04  0.14438556045E+04  0.00000000000E+00 0. -1.
          2   -1    0    0  501    0  0.00000000000E+00 -0.00000000000E+00 -0.32168336601E+04  0.32168336601E+04  0.00000000000E+00 0.  1.
         23    2    1    2    0    0  0.82707247459E+03 -0.13021816086E+04  0.73888418292E+03  0.17129481421E+04  0.92280452089E+02 0.  0.
         11    1    3    3    0    0  0.42558932478E+03 -0.60145260233E+03  0.32174842771E+03  0.80398604276E+03  0.00000000000E+00 0.  1.
        -11    1    3    3    0    0  0.40148314981E+03 -0.70072900629E+03  0.41713575521E+03  0.90896209938E+03  0.00000000000E+00 0. -1.
         22    1    1    2    0    0 -0.82707247459E+03  0.13021816086E+04 -0.25118622384E+04  0.29477411224E+04  0.00000000000E+00 0.  1.
<mgrwt>
<rscale>  0 0.43102869E+04</rscale>
<asrwt>0</asrwt>
<pdfrwt beam="1">  1        2 0.49489748E+00 0.43102869E+04</pdfrwt>
<pdfrwt beam="2">  1       -2 0.22213164E+00 0.43102869E+04</pdfrwt>
<totfact> 0.93103824E-02</totfact>
</mgrwt>
</event>
<event>
 6    1  0.6091287E-004  0.4239369E+04  0.7818608E-02  0.7957925E-01
          2   -1    0    0  501    0  0.00000000000E+00  0.00000000000E+00  0.28884722289E+04  0.28884722289E+04  0.00000000000E+00 0.  1.
         -2   -1    0    0    0  501 -0.00000000000E+00 -0.00000000000E+00 -0.15555153331E+04  0.15555153331E+04  0.00000000000E+00 0. -1.
         23    2    1    2    0    0 -0.20152977186E+04  0.55858720384E+03  0.31060739756E+03  0.21161896636E+04  0.91308148539E+02 0.  0.
         13    1    3    3    0    0 -0.29664310720E+03  0.11537993576E+03  0.54546791514E+02  0.32293190472E+03  0.00000000000E+00 0. -1.
        -13    1    3    3    0    0 -0.17186546115E+04  0.44320726807E+03  0.25606060605E+03  0.17932577589E+04  0.00000000000E+00 0.  1.
         22    1    1    2    0    0  0.20152977186E+04 -0.55858720384E+03  0.10223494983E+04  0.23277978984E+04  0.00000000000E+00 0.  1.
<mgrwt>
<rscale>  0 0.42393692E+04</rscale>
<asrwt>0</asrwt>
<pdfrwt beam="1">  1        2 0.44438034E+00 0.42393692E+04</pdfrwt>
<pdfrwt beam="2">  1       -2 0.23931005E+00 0.42393692E+04</pdfrwt>
<totfact> 0.11817030E-01</totfact>
</mgrwt>
</event>
<event>
 6    1  0.6091287E-004  0.2810045E+04  0.7818608E-02  0.8300157E-01
         -2   -1    0    0    0  501 -0.00000000000E+00  0.00000000000E+00  0.89252760345E+03  0.89252760345E+03  0.00000000000E+00 0. -1.
          2   -1    0    0  501    0  0.00000000000E+00 -0.00000000000E+00 -0.22117953899E+04  0.22117953899E+04  0.00000000000E+00 0.  1.
         23    2    1    2    0    0 -0.83395253624E+03 -0.36984291829E+03 -0.18386439372E+04  0.20545553035E+04  0.91243357108E+02 0.  0.
         11    1    3    3    0    0 -0.37754941377E+03 -0.11823308331E+03 -0.78372149398E+03  0.87791913179E+03  0.00000000000E+00 0. -1.
        -11    1    3    3    0    0 -0.45640312247E+03 -0.25160983498E+03 -0.10549224432E+04  0.11766361717E+04  0.00000000000E+00 0.  1.
         22    1    1    2    0    0  0.83395253624E+03  0.36984291829E+03  0.51937615072E+03  0.10497676899E+04  0.00000000000E+00 0. -1.
<mgrwt>
<rscale>  0 0.28100452E+04</rscale>
<asrwt>0</asrwt>
<pdfrwt beam="1">  1        2 0.34027621E+00 0.28100452E+04</pdfrwt>
<pdfrwt beam="2">  1       -2 0.13731194E+00 0.28100452E+04</pdfrwt>
<totfact> 0.16698307E+00</totfact>
</mgrwt>
</event>
<event>
 6    1  0.6091287E-004  0.2613187E+04  0.7818608E-02  0.8363736E-01
          2   -1    0    0  501    0  0.00000000000E+00  0.00000000000E+00  0.61787428622E+03  0.61787428622E+03  0.00000000000E+00 0.  1.
         -2   -1    0    0    0  501 -0.00000000000E+00 -0.00000000000E+00 -0.27629994793E+04  0.27629994793E+04  0.00000000000E+00 0. -1.
         23    2    1    2    0    0 -0.24494237928E+03  0.86197994744E+03 -0.23013007238E+04  0.24712601138E+04  0.90196063487E+02 0.  0.
         11    1    3    3    0    0 -0.17152808542E+03  0.55223672506E+03 -0.13692265294E+04  0.14863272094E+04  0.00000000000E+00 0. -1.
        -11    1    3    3    0    0 -0.73414293857E+02  0.30974322237E+03 -0.93207419437E+03  0.98493290439E+03  0.00000000000E+00 0.  1.
         22    1    1    2    0    0  0.24494237928E+03 -0.86197994744E+03  0.15617553072E+03  0.90961365169E+03  0.00000000000E+00 0.  1.
<mgrwt>
<rscale>  0 0.26131868E+04</rscale>
<asrwt>0</asrwt>
<pdfrwt beam="1">  1        2 0.95057585E-01 0.26131868E+04</pdfrwt>
<pdfrwt beam="2">  1       -2 0.42507683E+00 0.26131868E+04</pdfrwt>
<totfact> 0.21451410E-01</totfact>
</mgrwt>
</event>
<event>
 6    1  0.6091287E-004  0.1720456E+04  0.7818608E-02  0.8749783E-01
         -2   -1    0    0    0  501 -0.00000000000E+00  0.00000000000E+00  0.97914803211E+03  0.97914803211E+03  0.00000000000E+00 0. -1.
          2   -1    0    0  501    0  0.00000000000E+00 -0.00000000000E+00 -0.75575142945E+03  0.75575142945E+03  0.00000000000E+00 0.  1.
         23    2    1    2    0    0  0.78933882392E+02 -0.11848363391E+03  0.96526309488E+03  0.97949571417E+03  0.86081835700E+02 0.  0.
         13    1    3    3    0    0  0.63057796042E+02 -0.13106992549E+03  0.81564576007E+03  0.82851289484E+03  0.00000000000E+00 0.  1.
        -13    1    3    3    0    0  0.15876086349E+02  0.12586291577E+02  0.14961733482E+03  0.15098281932E+03  0.00000000000E+00 0. -1.
         22    1    1    2    0    0 -0.78933882392E+02  0.11848363391E+03 -0.74186649222E+03  0.75540374739E+03  0.00000000000E+00 0.  1.
<mgrwt>
<rscale>  0 0.17204564E+04</rscale>
<asrwt>0</asrwt>
<pdfrwt beam="1">  1        2 0.11626945E+00 0.17204564E+04</pdfrwt>
<pdfrwt beam="2">  1       -2 0.15063816E+00 0.17204564E+04</pdfrwt>
<totfact> 0.10445195E+01</totfact>
</mgrwt>
</event>
<event>
 6    1  0.6091287E-004  0.2349336E+04  0.7818608E-02  0.8458719E-01
         -2   -1    0    0    0  501 -0.00000000000E+00  0.00000000000E+00  0.48865690455E+03  0.48865690455E+03  0.00000000000E+00 0. -1.
          2   -1    0    0  501    0  0.00000000000E+00 -0.00000000000E+00 -0.28237496579E+04  0.28237496579E+04  0.00000000000E+00 0.  1.
         23    2    1    2    0    0 -0.11557576582E+04  0.30287914585E+02 -0.14474388568E+04  0.18547980546E+04  0.92214190551E+02 0.  0.
         13    1    3    3    0    0 -0.91486368504E+02 -0.20793478785E+02 -0.13268491595E+03  0.16250357320E+03  0.00000000000E+00 0.  1.
        -13    1    3    3    0    0 -0.10642712897E+04  0.51081393370E+02 -0.13147539409E+04  0.16922944814E+04  0.00000000000E+00 0. -1.
         22    1    1    2    0    0  0.11557576582E+04 -0.30287914585E+02 -0.88765389653E+03  0.14576085079E+04  0.00000000000E+00 0. -1.
<mgrwt>
<rscale>  0 0.23493359E+04</rscale>
<asrwt>0</asrwt>
<pdfrwt beam="1">  1        2 0.43442303E+00 0.23493359E+04</pdfrwt>
<pdfrwt beam="2">  1       -2 0.75177985E-01 0.23493359E+04</pdfrwt>
<totfact> 0.32093566E+00</totfact>
</mgrwt>
</event>
<event>
 6    1  0.6091287E-004  0.1251780E+04  0.7818608E-02  0.9068703E-01
         -2   -1    0    0    0  501 -0.00000000000E+00  0.00000000000E+00  0.99161730635E+03  0.99161730635E+03  0.00000000000E+00 0. -1.
          2   -1    0    0  501    0  0.00000000000E+00 -0.00000000000E+00 -0.39505012232E+03  0.39505012232E+03  0.00000000000E+00 0.  1.
         23    2    1    2    0    0  0.19030282694E+03 -0.58674935235E+03  0.37378710674E+03  0.73083137350E+03  0.11793102602E+03 0.  0.
         13    1    3    3    0    0  0.85201321300E+02 -0.11062890819E+03  0.68196137154E+02  0.15539862805E+03  0.00000000000E+00 0. -1.
        -13    1    3    3    0    0  0.10510150564E+03 -0.47612044416E+03  0.30559096959E+03  0.57543274544E+03  0.00000000000E+00 0.  1.
         22    1    1    2    0    0 -0.19030282694E+03  0.58674935235E+03  0.22278007728E+03  0.65583605517E+03  0.00000000000E+00 0. -1.
<mgrwt>
<rscale>  0 0.12517804E+04</rscale>
<asrwt>0</asrwt>
<pdfrwt beam="1">  1        2 0.60776942E-01 0.12517804E+04</pdfrwt>
<pdfrwt beam="2">  1       -2 0.15255651E+00 0.12517804E+04</pdfrwt>
<totfact> 0.22692033E+01</totfact>
</mgrwt>
</event>
<event>
 6    1  0.6091287E-004  0.2630668E+04  0.7818608E-02  0.8357858E-01
          2   -1    0    0  501    0  0.00000000000E+00  0.00000000000E+00  0.13378736135E+04  0.13378736135E+04  0.00000000000E+00 0.  1.
         -2   -1    0    0    0  501 -0.00000000000E+00 -0.00000000000E+00 -0.12931739201E+04  0.12931739201E+04  0.00000000000E+00 0. -1.
         23    2    1    2    0    0 -0.54650741319E+03  0.35531822804E+03  0.11632035327E+04  0.13364540706E+04  0.90253135648E+02 0.  0.
         11    1    3    3    0    0 -0.25296689977E+03  0.14666079943E+03  0.43627224645E+03  0.52520007187E+03  0.00000000000E+00 0. -1.
        -11    1    3    3    0    0 -0.29354051342E+03  0.20865742861E+03  0.72693128624E+03  0.81125399873E+03  0.00000000000E+00 0.  1.
         22    1    1    2    0    0  0.54650741319E+03 -0.35531822804E+03 -0.11185038393E+04  0.12945934630E+04  0.00000000000E+00 0. -1.
<mgrwt>
<rscale>  0 0.26306678E+04</rscale>
<asrwt>0</asrwt>
<pdfrwt beam="1">  1        2 0.20582671E+00 0.26306678E+04</pdfrwt>
<pdfrwt beam="2">  1       -2 0.19894983E+00 0.26306678E+04</pdfrwt>
<totfact> 0.18736880E+00</totfact>
</mgrwt>
</event>
<event>
 6    1  0.6169626E-004  0.2541625E+04  0.7818608E-02  0.8388305E-01
          1   -1    0    0  501    0  0.00000000000E+00  0.00000000000E+00  0.15845972176E+04  0.15845972176E+04  0.00000000000E+00 0.  1.
         -1   -1    0    0    0  501 -0.00000000000E+00 -0.00000000000E+00 -0.10191637178E+04  0.10191637178E+04  0.00000000000E+00 0. -1.
         23    2    1    2    0    0 -0.63749903929E+03  0.98648133545E+03  0.77554460141E+03  0.14105731358E+04  0.93256058031E+02 0.  0.
         13    1    3    3    0    0 -0.33132483806E+03  0.43976542825E+03  0.39205719522E+03  0.67592797288E+03  0.00000000000E+00 0.  1.
        -13    1    3    3    0    0 -0.30617420123E+03  0.54671590720E+03  0.38348740619E+03  0.73464516291E+03  0.00000000000E+00 0. -1.
         22    1    1    2    0    0  0.63749903929E+03 -0.98648133545E+03 -0.21011110160E+03  0.11931877997E+04  0.00000000000E+00 0.  1.
<mgrwt>
<rscale>  0 0.25416247E+04</rscale>
<asrwt>0</asrwt>
<pdfrwt beam="1">  1        1 0.24378419E+00 0.25416247E+04</pdfrwt>
<pdfrwt beam="2">  1       -1 0.15679442E+00 0.25416247E+04</pdfrwt>
<totfact> 0.15648465E+00</totfact>
</mgrwt>
</event>
<event>
 6    1  0.6091287E-004  0.2608730E+04  0.7818608E-02  0.8365242E-01
          2   -1    0    0  501    0  0.00000000000E+00  0.00000000000E+00  0.16409643715E+04  0.16409643715E+04  0.00000000000E+00 0.  1.
         -2   -1    0    0    0  501 -0.00000000000E+00 -0.00000000000E+00 -0.10368102390E+04  0.10368102390E+04  0.00000000000E+00 0. -1.
         23    2    1    2    0    0  0.71434448598E+03 -0.39871623746E+03 -0.73831599608E+03  0.11056776896E+04  0.90277131805E+02 0.  0.
         13    1    3    3    0    0  0.40273463178E+03 -0.27191574897E+03 -0.41383708026E+03  0.63827461736E+03  0.00000000000E+00 0. -1.
        -13    1    3    3    0    0  0.31160985419E+03 -0.12680048849E+03 -0.32447891582E+03  0.46740307223E+03  0.00000000000E+00 0.  1.
         22    1    1    2    0    0 -0.71434448598E+03  0.39871623746E+03  0.13424701286E+04  0.15720969209E+04  0.00000000000E+00 0.  1.
<mgrwt>
<rscale>  0 0.26087305E+04</rscale>
<asrwt>0</asrwt>
<pdfrwt beam="1">  1        2 0.25245606E+00 0.26087305E+04</pdfrwt>
<pdfrwt beam="2">  1       -2 0.15950927E+00 0.26087305E+04</pdfrwt>
<totfact> 0.23756396E+00</totfact>
</mgrwt>
</event>
<event>
 6    1  0.6091287E-004  0.1949563E+04  0.7818608E-02  0.8630571E-01
          2   -1    0    0  501    0  0.00000000000E+00  0.00000000000E+00  0.20786133209E+04  0.20786133209E+04  0.00000000000E+00 0.  1.
         -2   -1    0    0    0  501 -0.00000000000E+00 -0.00000000000E+00 -0.45713130531E+03  0.45713130531E+03  0.00000000000E+00 0. -1.
         23    2    1    2    0    0  0.96715215793E+03 -0.30341145108E+02  0.68271796373E+03  0.11875674024E+04  0.88930510191E+02 0.  0.
         11    1    3    3    0    0  0.85176966988E+03 -0.37996008390E+02  0.63193582384E+03  0.10612719504E+04  0.00000000000E+00 0.  1.
        -11    1    3    3    0    0  0.11538248805E+03  0.76548632828E+01  0.50782139887E+02  0.12629545206E+03  0.00000000000E+00 0. -1.
         22    1    1    2    0    0 -0.96715215793E+03  0.30341145108E+02  0.93876405186E+03  0.13481772238E+04  0.00000000000E+00 0. -1.
<mgrwt>
<rscale>  0 0.19495633E+04</rscale>
<asrwt>0</asrwt>
<pdfrwt beam="1">  1        2 0.31978666E+00 0.19495633E+04</pdfrwt>
<pdfrwt beam="2">  1       -2 0.70327894E-01 0.19495633E+04</pdfrwt>
<totfact> 0.10366699E+01</totfact>
</mgrwt>
</event>
<event>
 6    1  0.6091287E-004  0.1698561E+04  0.7818608E-02  0.8762185E-01
         -2   -1    0    0    0  501 -0.00000000000E+00  0.00000000000E+00  0.43992912853E+03  0.43992912853E+03  0.00000000000E+00 0. -1.
          2   -1    0    0  501    0  0.00000000000E+00 -0.00000000000E+00 -0.16395308303E+04  0.16395308303E+04  0.00000000000E+00 0.  1.
         23    2    1    2    0    0 -0.65466767498E+02  0.76756292826E+03 -0.17105336552E+03  0.79441115568E+03  0.91602859795E+02 0.  0.
         13    1    3    3    0    0 -0.56216389079E+02  0.41410388908E+03 -0.13417192765E+03  0.43891276983E+03  0.00000000000E+00 0. -1.
        -13    1    3    3    0    0 -0.92503784184E+01  0.35345903919E+03 -0.36881437872E+02  0.35549838585E+03  0.00000000000E+00 0.  1.
         22    1    1    2    0    0  0.65466767498E+02 -0.76756292826E+03 -0.10285483362E+04  0.12850488031E+04  0.00000000000E+00 0.  1.
<mgrwt>
<rscale>  0 0.16985610E+04</rscale>
<asrwt>0</asrwt>
<pdfrwt beam="1">  1        2 0.25223551E+00 0.16985610E+04</pdfrwt>
<pdfrwt beam="2">  1       -2 0.67681404E-01 0.16985610E+04</pdfrwt>
<totfact> 0.20174978E+01</totfact>
</mgrwt>
</event>
<event>
 6    1  0.6091287E-004  0.6477865E+04  0.7818608E-02  0.7633820E-01
         -2   -1    0    0    0  501 -0.00000000000E+00  0.00000000000E+00  0.21503616032E+04  0.21503616032E+04  0.00000000000E+00 0. -1.
          2   -1    0    0  501    0  0.00000000000E+00 -0.00000000000E+00 -0.48785674247E+04  0.48785674247E+04  0.00000000000E+00 0.  1.
         23    2    1    2    0    0 -0.17049200558E+04 -0.17489454639E+04  0.94263414244E+03  0.26197761985E+04  0.95423117410E+02 0.  0.
         13    1    3    3    0    0 -0.16528670734E+04 -0.16993874491E+04  0.89709852798E+03  0.25346938737E+04  0.00000000000E+00 0.  1.
        -13    1    3    3    0    0 -0.52052982382E+02 -0.49558014834E+02  0.45535614465E+02  0.85082324803E+02  0.00000000000E+00 0. -1.
         22    1    1    2    0    0  0.17049200558E+04  0.17489454639E+04 -0.36708399639E+04  0.44091528294E+04  0.00000000000E+00 0.  1.
<mgrwt>
<rscale>  0 0.64778651E+04</rscale>
<asrwt>0</asrwt>
<pdfrwt beam="1">  1        2 0.75054882E+00 0.64778651E+04</pdfrwt>
<pdfrwt beam="2">  1       -2 0.33082487E+00 0.64778651E+04</pdfrwt>
<totfact> 0.63013912E-04</totfact>
</mgrwt>
</event>
<event>
 6    1  0.6091287E-004  0.4111088E+04  0.7818608E-02  0.7982504E-01
         -2   -1    0    0    0  501 -0.00000000000E+00  0.00000000000E+00  0.11131682733E+04  0.11131682733E+04  0.00000000000E+00 0. -1.
          2   -1    0    0  501    0  0.00000000000E+00 -0.00000000000E+00 -0.37957069694E+04  0.37957069694E+04  0.00000000000E+00 0.  1.
         23    2    1    2    0    0  0.68869364498E+03 -0.12963415956E+04  0.37388819286E+03  0.15182195840E+04  0.10196987424E+03 0.  0.
         11    1    3    3    0    0  0.22784353071E+03 -0.39028440937E+03  0.16020038880E+03  0.47947758994E+03  0.00000000000E+00 0. -1.
        -11    1    3    3    0    0  0.46085011427E+03 -0.90605718623E+03  0.21368780406E+03  0.10387419940E+04  0.00000000000E+00 0.  1.
         22    1    1    2    0    0 -0.68869364498E+03  0.12963415956E+04 -0.30564268890E+04  0.33906556588E+04  0.00000000000E+00 0.  1.
<mgrwt>
<rscale>  0 0.41110877E+04</rscale>
<asrwt>0</asrwt>
<pdfrwt beam="1">  1        2 0.58395492E+00 0.41110877E+04</pdfrwt>
<pdfrwt beam="2">  1       -2 0.17125666E+00 0.41110877E+04</pdfrwt>
<totfact> 0.80545581E-02</totfact>
</mgrwt>
</event>
<event>
 6    1  0.6091287E-004  0.2841010E+04  0.7818608E-02  0.8290648E-01
         -2   -1    0    0    0  501 -0.00000000000E+00  0.00000000000E+00  0.80145086387E+03  0.80145086387E+03  0.00000000000E+00 0. -1.
          2   -1    0    0  501    0  0.00000000000E+00 -0.00000000000E+00 -0.25177266991E+04  0.25177266991E+04  0.00000000000E+00 0.  1.
         23    2    1    2    0    0  0.12797507511E+04 -0.50493572709E+03 -0.12653667063E+04  0.18714064774E+04  0.91034218557E+02 0.  0.
         13    1    3    3    0    0  0.72203579101E+03 -0.24391286121E+03 -0.73292629239E+03  0.10573599753E+04  0.00000000000E+00 0. -1.
        -13    1    3    3    0    0  0.55771496010E+03 -0.26102286588E+03 -0.53244041391E+03  0.81404650211E+03  0.00000000000E+00 0.  1.
         22    1    1    2    0    0 -0.12797507511E+04  0.50493572709E+03 -0.45090912889E+03  0.14477710855E+04  0.00000000000E+00 0.  1.
<mgrwt>
<rscale>  0 0.28410098E+04</rscale>
<asrwt>0</asrwt>
<pdfrwt beam="1">  1        2 0.38734257E+00 0.28410098E+04</pdfrwt>
<pdfrwt beam="2">  1       -2 0.12330013E+00 0.28410098E+04</pdfrwt>
<totfact> 0.14626723E+00</totfact>
</mgrwt>
</event>
<event>
 6    1  0.6091287E-004  0.1575652E+04  0.7818608E-02  0.8835647E-01
         -2   -1    0    0    0  501 -0.00000000000E+00  0.00000000000E+00  0.71329527903E+03  0.71329527903E+03  0.00000000000E+00 0. -1.
          2   -1    0    0  501    0  0.00000000000E+00 -0.00000000000E+00 -0.87014393855E+03  0.87014393855E+03  0.00000000000E+00 0.  1.
         23    2    1    2    0    0  0.29392899806E+03 -0.71858172820E+03  0.38041625475E+02  0.78297923783E+03  0.94102952137E+02 0.  0.
         13    1    3    3    0    0  0.21189370200E+03 -0.40024949561E+03  0.90200468011E+01  0.45296794691E+03  0.00000000000E+00 0. -1.
        -13    1    3    3    0    0  0.82035296054E+02 -0.31833223259E+03  0.29021578674E+02  0.33001129092E+03  0.00000000000E+00 0.  1.
         22    1    1    2    0    0 -0.29392899806E+03  0.71858172820E+03 -0.19489028500E+03  0.80045997975E+03  0.00000000000E+00 0.  1.
<mgrwt>
<rscale>  0 0.15756517E+04</rscale>
<asrwt>0</asrwt>
<pdfrwt beam="1">  1        2 0.13386830E+00 0.15756517E+04</pdfrwt>
<pdfrwt beam="2">  1       -2 0.10973774E+00 0.15756517E+04</pdfrwt>
<totfact> 0.19513334E+01</totfact>
</mgrwt>
</event>
<event>
 6    1  0.6091287E-004  0.1796673E+04  0.7818608E-02  0.8708071E-01
          2   -1    0    0  501    0  0.00000000000E+00  0.00000000000E+00  0.12013841708E+04  0.12013841708E+04  0.00000000000E+00 0.  1.
         -2   -1    0    0    0  501 -0.00000000000E+00 -0.00000000000E+00 -0.67173208006E+03  0.67173208006E+03  0.00000000000E+00 0. -1.
         23    2    1    2    0    0  0.68463468568E+03  0.30594789190E+03  0.77667905585E+03  0.10835903888E+04  0.92784748053E+02 0.  0.
         13    1    3    3    0    0  0.23833442113E+03  0.58964137695E+02  0.25153277732E+03  0.35149509797E+03  0.00000000000E+00 0.  1.
        -13    1    3    3    0    0  0.44630026455E+03  0.24698375420E+03  0.52514627852E+03  0.73209529081E+03  0.00000000000E+00 0. -1.
         22    1    1    2    0    0 -0.68463468568E+03 -0.30594789190E+03 -0.24702696511E+03  0.78952586207E+03  0.00000000000E+00 0. -1.
<mgrwt>
<rscale>  0 0.17966728E+04</rscale>
<asrwt>0</asrwt>
<pdfrwt beam="1">  1        2 0.18482833E+00 0.17966728E+04</pdfrwt>
<pdfrwt beam="2">  1       -2 0.10334340E+00 0.17966728E+04</pdfrwt>
<totfact> 0.13635483E+01</totfact>
</mgrwt>
</event>
<event>
 6    1  0.6091287E-004  0.5545327E+03  0.7818608E-02  0.1000450E+00
         -2   -1    0    0    0  501 -0.00000000000E+00  0.00000000000E+00  0.56848139253E+02  0.56848139253E+02  0.00000000000E+00 0. -1.
          2   -1    0    0  501    0  0.00000000000E+00 -0.00000000000E+00 -0.13523158646E+04  0.13523158646E+04  0.00000000000E+00 0.  1.
         23    2    1    2    0    0 -0.14778321089E+03 -0.20687194880E+03 -0.89770692100E+03  0.93709458300E+03  0.87365100933E+02 0.  0.
         13    1    3    3    0    0 -0.34953565877E+01  0.72915330203E+01 -0.11700020399E+02  0.14222322201E+02  0.00000000000E+00 0. -1.
        -13    1    3    3    0    0 -0.14428785431E+03 -0.21416348182E+03 -0.88600690060E+03  0.92287226080E+03  0.00000000000E+00 0.  1.
         22    1    1    2    0    0  0.14778321089E+03  0.20687194880E+03 -0.39776080434E+03  0.47206942084E+03  0.00000000000E+00 0.  1.
<mgrwt>
<rscale>  0 0.55453274E+03</rscale>
<asrwt>0</asrwt>
<pdfrwt beam="1">  1        2 0.20804859E+00 0.55453274E+03</pdfrwt>
<pdfrwt beam="2">  1       -2 0.87458678E-02 0.55453274E+03</pdfrwt>
<totfact> 0.13349674E+03</totfact>
</mgrwt>
</event>
<event>
 6    1  0.6091287E-004  0.4859424E+04  0.7818608E-02  0.7850566E-01
          1   -1    0    0  501    0  0.00000000000E+00  0.00000000000E+00  0.23795467440E+04  0.23795467440E+04  0.00000000000E+00 0.  1.
         -1   -1    0    0    0  501 -0.00000000000E+00 -0.00000000000E+00 -0.24809349371E+04  0.24809349371E+04  0.00000000000E+00 0. -1.
         23    2    1    2    0    0 -0.50840123479E+03  0.23433084764E+04 -0.43795925332E+03  0.24391501240E+04  0.89880971601E+02 0.  0.
         13    1    3    3    0    0 -0.24924988280E+03  0.13374308511E+04 -0.22840897074E+03  0.13794989828E+04  0.00000000000E+00 0.  1.
        -13    1    3    3    0    0 -0.25915135198E+03  0.10058776252E+04 -0.20955028258E+03  0.10596511412E+04  0.00000000000E+00 0. -1.
         22    1    1    2    0    0  0.50840123479E+03 -0.23433084764E+04  0.33657106023E+03  0.24213315571E+04  0.00000000000E+00 0.  1.
<mgrwt>
<rscale>  0 0.48594241E+04</rscale>
<asrwt>0</asrwt>
<pdfrwt beam="1">  1        1 0.36608412E+00 0.48594241E+04</pdfrwt>
<pdfrwt beam="2">  1       -1 0.38168230E+00 0.48594241E+04</pdfrwt>
<totfact> 0.11420516E-02</totfact>
</mgrwt>
</event>
<event>
 6    1  0.6091287E-004  0.3940395E+04  0.7818608E-02  0.8016680E-01
          2   -1    0    0  501    0  0.00000000000E+00  0.00000000000E+00  0.35500597610E+04  0.35500597610E+04  0.00000000000E+00 0.  1.
         -2   -1    0    0    0  501 -0.00000000000E+00 -0.00000000000E+00 -0.10934121990E+04  0.10934121990E+04  0.00000000000E+00 0. -1.
         23    2    1    2    0    0 -0.85632426051E+03  0.10917107063E+04  0.28754247622E+04  0.31941625213E+04  0.97381437730E+02 0.  0.
         11    1    3    3    0    0 -0.29549884058E+03  0.42856194136E+03  0.99903527203E+03  0.11265240242E+04  0.00000000000E+00 0. -1.
        -11    1    3    3    0    0 -0.56082541993E+03  0.66314876498E+03  0.18763894901E+04  0.20676384971E+04  0.00000000000E+00 0.  1.
         22    1    1    2    0    0  0.85632426051E+03 -0.10917107063E+04 -0.41877720013E+03  0.14493094386E+04  0.00000000000E+00 0. -1.
<mgrwt>
<rscale>  0 0.39403952E+04</rscale>
<asrwt>0</asrwt>
<pdfrwt beam="1">  1        2 0.54616303E+00 0.39403952E+04</pdfrwt>
<pdfrwt beam="2">  1       -2 0.16821726E+00 0.39403952E+04</pdfrwt>
<totfact> 0.13013911E-01</totfact>
</mgrwt>
</event>
<event>
 6    1  0.6091287E-004  0.2797506E+04  0.7818608E-02  0.8304043E-01
         -2   -1    0    0    0  501 -0.00000000000E+00  0.00000000000E+00  0.13851117200E+04  0.13851117200E+04  0.00000000000E+00 0. -1.
          2   -1    0    0  501    0  0.00000000000E+00 -0.00000000000E+00 -0.14125288565E+04  0.14125288565E+04  0.00000000000E+00 0.  1.
         23    2    1    2    0    0 -0.29277886848E+03 -0.61582660583E+03 -0.12333899425E+04  0.14122408931E+04  0.90618517558E+02 0.  0.
         13    1    3    3    0    0 -0.21247587961E+03 -0.36941274821E+03 -0.70694430387E+03  0.82545867657E+03  0.00000000000E+00 0. -1.
        -13    1    3    3    0    0 -0.80302988867E+02 -0.24641385762E+03 -0.52644563859E+03  0.58678221654E+03  0.00000000000E+00 0.  1.
         22    1    1    2    0    0  0.29277886848E+03  0.61582660583E+03  0.12059728060E+04  0.13853996835E+04  0.00000000000E+00 0. -1.
<mgrwt>
<rscale>  0 0.27975062E+04</rscale>
<asrwt>0</asrwt>
<pdfrwt beam="1">  1        2 0.21731213E+00 0.27975062E+04</pdfrwt>
<pdfrwt beam="2">  1       -2 0.21309411E+00 0.27975062E+04</pdfrwt>
<totfact> 0.13551086E+00</totfact>
</mgrwt>
</event>
<event>
 6    1  0.6091287E-004  0.2206045E+04  0.7818608E-02  0.8515916E-01
          2   -1    0    0  501    0  0.00000000000E+00  0.00000000000E+00  0.15986136023E+04  0.15986136023E+04  0.00000000000E+00 0.  1.
         -2   -1    0    0    0  501 -0.00000000000E+00 -0.00000000000E+00 -0.76107113353E+03  0.76107113353E+03  0.00000000000E+00 0. -1.
         23    2    1    2    0    0 -0.20419919389E+03 -0.66059370557E+03 -0.49698023154E+03  0.85667702052E+03  0.93940472248E+02 0.  0.
         11    1    3    3    0    0 -0.41764875067E+02 -0.28939480770E+03 -0.19795899298E+03  0.35310256642E+03  0.00000000000E+00 0.  1.
        -11    1    3    3    0    0 -0.16243431882E+03 -0.37119889787E+03 -0.29902123856E+03  0.50357445410E+03  0.00000000000E+00 0. -1.
         22    1    1    2    0    0  0.20419919389E+03  0.66059370557E+03  0.13345227003E+04  0.15030077153E+04  0.00000000000E+00 0.  1.
<mgrwt>
<rscale>  0 0.22060450E+04</rscale>
<asrwt>0</asrwt>
<pdfrwt beam="1">  1        2 0.24594055E+00 0.22060450E+04</pdfrwt>
<pdfrwt beam="2">  1       -2 0.11708787E+00 0.22060450E+04</pdfrwt>
<totfact> 0.57596774E+00</totfact>
</mgrwt>
</event>
<event>
 6    1  0.6091287E-004  0.4514985E+04  0.7818608E-02  0.7908019E-01
         -2   -1    0    0    0  501 -0.00000000000E+00  0.00000000000E+00  0.33281514702E+04  0.33281514702E+04  0.00000000000E+00 0. -1.
          2   -1    0    0  501    0  0.00000000000E+00 -0.00000000000E+00 -0.15312619307E+04  0.15312619307E+04  0.00000000000E+00 0.  1.
         23    2    1    2    0    0 -0.15117165605E+04  0.42634484867E+03  0.26425770167E+04  0.30755288199E+04  0.92775770687E+02 0.  0.
         11    1    3    3    0    0 -0.71568187665E+03  0.16930926491E+03  0.13031440534E+04  0.14963457487E+04  0.00000000000E+00 0.  1.
        -11    1    3    3    0    0 -0.79603468386E+03  0.25703558376E+03  0.13394329633E+04  0.15791830712E+04  0.00000000000E+00 0. -1.
         22    1    1    2    0    0  0.15117165605E+04 -0.42634484867E+03 -0.84568747718E+03  0.17838845810E+04  0.00000000000E+00 0.  1.
<mgrwt>
<rscale>  0 0.45149847E+04</rscale>
<asrwt>0</asrwt>
<pdfrwt beam="1">  1        2 0.23557876E+00 0.45149847E+04</pdfrwt>
<pdfrwt beam="2">  1       -2 0.51202330E+00 0.45149847E+04</pdfrwt>
<totfact> 0.12908623E-02</totfact>
</mgrwt>
</event>
<event>
 6    1  0.6091287E-004  0.1121742E+04  0.7818608E-02  0.9184256E-01
         -2   -1    0    0    0  501 -0.00000000000E+00  0.00000000000E+00  0.16457726564E+03  0.16457726564E+03  0.00000000000E+00 0. -1.
          2   -1    0    0  501    0  0.00000000000E+00 -0.00000000000E+00 -0.19114186391E+04  0.19114186391E+04  0.00000000000E+00 0.  1.
         23    2    1    2    0    0 -0.83094719593E+02  0.35324007111E+03 -0.16618200226E+04  0.17032870232E+04  0.88643192719E+02 0.  0.
         13    1    3    3    0    0 -0.47900420929E+02  0.17319522498E+03 -0.10223591421E+04  0.10380314310E+04  0.00000000000E+00 0. -1.
        -13    1    3    3    0    0 -0.35194298665E+02  0.18004484614E+03 -0.63946088050E+03  0.66525559221E+03  0.00000000000E+00 0.  1.
         22    1    1    2    0    0  0.83094719593E+02 -0.35324007111E+03 -0.85021350841E+02  0.37270888152E+03  0.00000000000E+00 0. -1.
<mgrwt>
<rscale>  0 0.11217416E+04</rscale>
<asrwt>0</asrwt>
<pdfrwt beam="1">  1        2 0.29406441E+00 0.11217416E+04</pdfrwt>
<pdfrwt beam="2">  1       -2 0.25319579E-01 0.11217416E+04</pdfrwt>
<totfact> 0.10415210E+02</totfact>
</mgrwt>
</event>
<event>
 6    1  0.6091287E-004  0.1575079E+04  0.7818608E-02  0.8836006E-01
         -2   -1    0    0    0  501 -0.00000000000E+00  0.00000000000E+00  0.42997289208E+03  0.42997289208E+03  0.00000000000E+00 0. -1.
          2   -1    0    0  501    0  0.00000000000E+00 -0.00000000000E+00 -0.14424602240E+04  0.14424602240E+04  0.00000000000E+00 0.  1.
         23    2    1    2    0    0  0.54929513522E+03 -0.64607045003E+02  0.15388151246E+03  0.58157468195E+03  0.93007392027E+02 0.  0.
         11    1    3    3    0    0  0.34018621794E+03 -0.84676304636E+01  0.59810210888E+02  0.34550777845E+03  0.00000000000E+00 0.  1.
        -11    1    3    3    0    0  0.20910891727E+03 -0.56139414540E+02  0.94071301569E+02  0.23606690350E+03  0.00000000000E+00 0. -1.
         22    1    1    2    0    0 -0.54929513522E+03  0.64607045003E+02 -0.11663688444E+04  0.12908584341E+04  0.00000000000E+00 0.  1.
<mgrwt>
<rscale>  0 0.15750794E+04</rscale>
<asrwt>0</asrwt>
<pdfrwt beam="1">  1        2 0.22191696E+00 0.15750794E+04</pdfrwt>
<pdfrwt beam="2">  1       -2 0.66149675E-01 0.15750794E+04</pdfrwt>
<totfact> 0.27636140E+01</totfact>
</mgrwt>
</event>
<event>
 6    1  0.6091287E-004  0.1433161E+04  0.7818608E-02  0.8930158E-01
         -2   -1    0    0    0  501 -0.00000000000E+00  0.00000000000E+00  0.30633680759E+03  0.30633680759E+03  0.00000000000E+00 0. -1.
          2   -1    0    0  501    0  0.00000000000E+00 -0.00000000000E+00 -0.16762198930E+04  0.16762198930E+04  0.00000000000E+00 0.  1.
         23    2    1    2    0    0 -0.11687053601E+03  0.69924865761E+03 -0.57290889826E+03  0.91589121304E+03  0.89580695862E+02 0.  0.
         13    1    3    3    0    0  0.18139681148E+01  0.17980432124E+03 -0.11599710201E+03  0.21398180318E+03  0.00000000000E+00 0.  1.
        -13    1    3    3    0    0 -0.11868450412E+03  0.51944433637E+03 -0.45691179625E+03  0.70190940986E+03  0.00000000000E+00 0. -1.
         22    1    1    2    0    0  0.11687053601E+03 -0.69924865761E+03 -0.79697418716E+03  0.10666654876E+04  0.00000000000E+00 0. -1.
<mgrwt>
<rscale>  0 0.14331613E+04</rscale>
<asrwt>0</asrwt>
<pdfrwt beam="1">  1        2 0.25787998E+00 0.14331613E+04</pdfrwt>
<pdfrwt beam="2">  1       -2 0.47128739E-01 0.14331613E+04</pdfrwt>
<totfact> 0.41887460E+01</totfact>
</mgrwt>
</event>
<event>
 6    1  0.6091287E-004  0.1134918E+04  0.7818608E-02  0.9171811E-01
          2   -1    0    0  501    0  0.00000000000E+00  0.00000000000E+00  0.10386549075E+04  0.10386549075E+04  0.00000000000E+00 0.  1.
         -2   -1    0    0    0  501 -0.00000000000E+00 -0.00000000000E+00 -0.31002586140E+03  0.31002586140E+03  0.00000000000E+00 0. -1.
         23    2    1    2    0    0  0.20992311913E+03 -0.43278260179E+03  0.14504457613E+02  0.48766832751E+03  0.79003303775E+02 0.  0.
         13    1    3    3    0    0  0.84300101903E+02 -0.24331032764E+03  0.32887355736E+02  0.25959198925E+03  0.00000000000E+00 0. -1.
        -13    1    3    3    0    0  0.12562301723E+03 -0.18947227415E+03 -0.18382898123E+02  0.22807633826E+03  0.00000000000E+00 0.  1.
         22    1    1    2    0    0 -0.20992311913E+03  0.43278260179E+03  0.71412458847E+03  0.86101244138E+03  0.00000000000E+00 0.  1.
<mgrwt>
<rscale>  0 0.11349183E+04</rscale>
<asrwt>0</asrwt>
<pdfrwt beam="1">  1        2 0.15979306E+00 0.11349183E+04</pdfrwt>
<pdfrwt beam="2">  1       -2 0.47696287E-01 0.11349183E+04</pdfrwt>
<totfact> 0.98179639E+01</totfact>
</mgrwt>
</event>
<event>
 6    1  0.6091287E-004  0.4281431E+04  0.7818608E-02  0.7950061E-01
         -2   -1    0    0    0  501 -0.00000000000E+00  0.00000000000E+00  0.12802312348E+04  0.12802312348E+04  0.00000000000E+00 0. -1.
          2   -1    0    0  501    0  0.00000000000E+00 -0.00000000000E+00 -0.35795581341E+04  0.35795581341E+04  0.00000000000E+00 0.  1.
         23    2    1    2    0    0  0.14964748788E+04 -0.54888109160E+02  0.58489217484E+03  0.16099940776E+04  0.86788860179E+02 0.  0.
         11    1    3    3    0    0  0.49591985574E+03 -0.83808639369E+01  0.15144961953E+03  0.51859784945E+03  0.00000000000E+00 0. -1.
        -11    1    3    3    0    0  0.10005550231E+04 -0.46507245223E+02  0.43344255530E+03  0.10913962281E+04  0.00000000000E+00 0.  1.
         22    1    1    2    0    0 -0.14964748788E+04  0.54888109160E+02 -0.28842190742E+04  0.32497952913E+04  0.00000000000E+00 0.  1.
<mgrwt>
<rscale>  0 0.42814307E+04</rscale>
<asrwt>0</asrwt>
<pdfrwt beam="1">  1        2 0.55070125E+00 0.42814307E+04</pdfrwt>
<pdfrwt beam="2">  1       -2 0.19695865E+00 0.42814307E+04</pdfrwt>
<totfact> 0.76541696E-02</totfact>
</mgrwt>
</event>
<event>
 6    1  0.6091287E-004  0.7146061E+04  0.7818608E-02  0.7562557E-01
         -2   -1    0    0    0  501 -0.00000000000E+00  0.00000000000E+00  0.26917666663E+04  0.26917666663E+04  0.00000000000E+00 0. -1.
          2   -1    0    0  501    0  0.00000000000E+00 -0.00000000000E+00 -0.47428130622E+04  0.47428130622E+04  0.00000000000E+00 0.  1.
         23    2    1    2    0    0  0.42757040444E+03 -0.23212343654E+04 -0.38156466725E+04  0.44875881157E+04  0.91335300566E+02 0.  0.
         13    1    3    3    0    0  0.25302548995E+03 -0.14972644132E+04 -0.23823009776E+04  0.28250983292E+04  0.00000000000E+00 0. -1.
        -13    1    3    3    0    0  0.17454491448E+03 -0.82396995220E+03 -0.14333456949E+04  0.16624897865E+04  0.00000000000E+00 0.  1.
         22    1    1    2    0    0 -0.42757040444E+03  0.23212343654E+04  0.17646002766E+04  0.29469916128E+04  0.00000000000E+00 0. -1.
<mgrwt>
<rscale>  0 0.71460608E+04</rscale>
<asrwt>0</asrwt>
<pdfrwt beam="1">  1        2 0.72966354E+00 0.71460608E+04</pdfrwt>
<pdfrwt beam="2">  1       -2 0.41411795E+00 0.71460608E+04</pdfrwt>
<totfact> 0.25097888E-04</totfact>
</mgrwt>
</event>
<event>
 6    1  0.6091287E-004  0.2855882E+04  0.7818608E-02  0.8286126E-01
         -2   -1    0    0    0  501 -0.00000000000E+00  0.00000000000E+00  0.66175382126E+03  0.66175382126E+03  0.00000000000E+00 0. -1.
          2   -1    0    0  501    0  0.00000000000E+00 -0.00000000000E+00 -0.30812299288E+04  0.30812299288E+04  0.00000000000E+00 0.  1.
         23    2    1    2    0    0  0.34121171080E+03 -0.63592180855E+03  0.40176272627E+03  0.83090364546E+03  0.90363718617E+02 0.  0.
         11    1    3    3    0    0  0.16102523279E+03 -0.37256179140E+03  0.19168856180E+03  0.44886068968E+03  0.00000000000E+00 0. -1.
        -11    1    3    3    0    0  0.18018647801E+03 -0.26336001715E+03  0.21007416447E+03  0.38204295579E+03  0.00000000000E+00 0.  1.
         22    1    1    2    0    0 -0.34121171080E+03  0.63592180855E+03 -0.28212388338E+04  0.29120801046E+04  0.00000000000E+00 0.  1.
<mgrwt>
<rscale>  0 0.28558821E+04</rscale>
<asrwt>0</asrwt>
<pdfrwt beam="1">  1        2 0.47403537E+00 0.28558821E+04</pdfrwt>
<pdfrwt beam="2">  1       -2 0.10180828E+00 0.28558821E+04</pdfrwt>
<totfact> 0.10600461E+00</totfact>
</mgrwt>
</event>
<event>
 6    1  0.6091287E-004  0.3970759E+04  0.7818608E-02  0.8010471E-01
         -2   -1    0    0    0  501 -0.00000000000E+00  0.00000000000E+00  0.15751834531E+04  0.15751834531E+04  0.00000000000E+00 0. -1.
          2   -1    0    0  501    0  0.00000000000E+00 -0.00000000000E+00 -0.25023952973E+04  0.25023952973E+04  0.00000000000E+00 0.  1.
         23    2    1    2    0    0 -0.32976429517E+03 -0.12506856958E+04  0.10814681192E+04  0.16884880458E+04  0.91974930530E+02 0.  0.
         13    1    3    3    0    0 -0.58315879212E+02 -0.29096617092E+03  0.29388326878E+03  0.41764749497E+03  0.00000000000E+00 0. -1.
        -13    1    3    3    0    0 -0.27144841596E+03 -0.95971952487E+03  0.78758485040E+03  0.12708405508E+04  0.00000000000E+00 0.  1.
         22    1    1    2    0    0  0.32976429517E+03  0.12506856958E+04 -0.20086799633E+04  0.23890907047E+04  0.00000000000E+00 0.  1.
<mgrwt>
<rscale>  0 0.39707590E+04</rscale>
<asrwt>0</asrwt>
<pdfrwt beam="1">  1        2 0.38498389E+00 0.39707590E+04</pdfrwt>
<pdfrwt beam="2">  1       -2 0.24233592E+00 0.39707590E+04</pdfrwt>
<totfact> 0.19659887E-01</totfact>
</mgrwt>
</event>
<event>
 6    1  0.6091287E-004  0.3912005E+04  0.7818608E-02  0.8022537E-01
          2   -1    0    0  501    0  0.00000000000E+00  0.00000000000E+00  0.17428254671E+04  0.17428254671E+04  0.00000000000E+00 0.  1.
         -2   -1    0    0    0  501 -0.00000000000E+00 -0.00000000000E+00 -0.21952541515E+04  0.21952541515E+04  0.00000000000E+00 0. -1.
         23    2    1    2    0    0  0.85604705140E+03 -0.10442066294E+04 -0.16496581025E+04  0.21334903804E+04  0.85001819020E+02 0.  0.
         11    1    3    3    0    0  0.64529386622E+03 -0.74240540019E+03 -0.12392856709E+04  0.15822132998E+04  0.00000000000E+00 0. -1.
        -11    1    3    3    0    0  0.21075318518E+03 -0.30180122918E+03 -0.41037243152E+03  0.55127708056E+03  0.00000000000E+00 0.  1.
         22    1    1    2    0    0 -0.85604705140E+03  0.10442066294E+04  0.11972294181E+04  0.18045892382E+04  0.00000000000E+00 0.  1.
<mgrwt>
<rscale>  0 0.39120045E+04</rscale>
<asrwt>0</asrwt>
<pdfrwt beam="1">  1        2 0.26812700E+00 0.39120045E+04</pdfrwt>
<pdfrwt beam="2">  1       -2 0.33773141E+00 0.39120045E+04</pdfrwt>
<totfact> 0.13699872E-01</totfact>
</mgrwt>
</event>
<event>
 6    1  0.6091287E-004  0.2438825E+04  0.7818608E-02  0.8425109E-01
         -2   -1    0    0    0  501 -0.00000000000E+00  0.00000000000E+00  0.90355315661E+03  0.90355315661E+03  0.00000000000E+00 0. -1.
          2   -1    0    0  501    0  0.00000000000E+00 -0.00000000000E+00 -0.16456881843E+04  0.16456881843E+04  0.00000000000E+00 0.  1.
         23    2    1    2    0    0  0.28804036921E+03 -0.11660190234E+04 -0.16225992005E+03  0.12155161976E+04  0.92648409067E+02 0.  0.
         13    1    3    3    0    0  0.16048626413E+03 -0.60165735416E+03 -0.12933503503E+03  0.63598346211E+03  0.00000000000E+00 0.  1.
        -13    1    3    3    0    0  0.12755410508E+03 -0.56436166928E+03 -0.32924885018E+02  0.57953273551E+03  0.00000000000E+00 0. -1.
         22    1    1    2    0    0 -0.28804036921E+03  0.11660190234E+04 -0.57987510760E+03  0.13337251432E+04  0.00000000000E+00 0.  1.
<mgrwt>
<rscale>  0 0.24388249E+04</rscale>
<asrwt>0</asrwt>
<pdfrwt beam="1">  1        2 0.25318280E+00 0.24388249E+04</pdfrwt>
<pdfrwt beam="2">  1       -2 0.13900818E+00 0.24388249E+04</pdfrwt>
<totfact> 0.34488739E+00</totfact>
</mgrwt>
</event>
<event>
 6    1  0.6091287E-004  0.1303876E+04  0.7818608E-02  0.9026497E-01
         -2   -1    0    0    0  501 -0.00000000000E+00  0.00000000000E+00  0.87874454887E+03  0.87874454887E+03  0.00000000000E+00 0.  1.
          2   -1    0    0  501    0  0.00000000000E+00 -0.00000000000E+00 -0.48367087550E+03  0.48367087550E+03  0.00000000000E+00 0. -1.
         23    2    1    2    0    0 -0.46170880655E+03 -0.29567545605E+03 -0.16386282506E+03  0.57946650737E+03  0.91276559851E+02 0.  0.
         13    1    3    3    0    0 -0.22827294736E+03 -0.19984749938E+03 -0.84499590344E+02  0.31494085520E+03  0.00000000000E+00 0. -1.
        -13    1    3    3    0    0 -0.23343585918E+03 -0.95827956664E+02 -0.79363234717E+02  0.26452565217E+03  0.00000000000E+00 0.  1.
         22    1    1    2    0    0  0.46170880655E+03  0.29567545605E+03  0.55893649843E+03  0.78294891700E+03  0.00000000000E+00 0.  1.
<mgrwt>
<rscale>  0 0.13038760E+04</rscale>
<asrwt>0</asrwt>
<pdfrwt beam="1">  1        2 0.74410904E-01 0.13038760E+04</pdfrwt>
<pdfrwt beam="2">  1       -2 0.13519147E+00 0.13038760E+04</pdfrwt>
<totfact> 0.24636276E+01</totfact>
</mgrwt>
</event>
<event>
 6    1  0.6091287E-004  0.1859302E+04  0.7818608E-02  0.8675384E-01
         -2   -1    0    0    0  501 -0.00000000000E+00  0.00000000000E+00  0.10195896418E+04  0.10195896418E+04  0.00000000000E+00 0. -1.
          2   -1    0    0  501    0  0.00000000000E+00 -0.00000000000E+00 -0.84764606147E+03  0.84764606147E+03  0.00000000000E+00 0.  1.
         23    2    1    2    0    0 -0.15673687201E+03 -0.10691733282E+03  0.99780054482E+03  0.10198647756E+04  0.92306393244E+02 0.  0.
         11    1    3    3    0    0 -0.14374276013E+03 -0.54280431177E+02  0.65339254892E+03  0.67121544178E+03  0.00000000000E+00 0. -1.
        -11    1    3    3    0    0 -0.12994111880E+02 -0.52636901647E+02  0.34440799590E+03  0.34864933386E+03  0.00000000000E+00 0.  1.
         22    1    1    2    0    0  0.15673687201E+03  0.10691733282E+03 -0.82585696452E+03  0.84737092760E+03  0.00000000000E+00 0.  1.
<mgrwt>
<rscale>  0 0.18593022E+04</rscale>
<asrwt>0</asrwt>
<pdfrwt beam="1">  1        2 0.13040709E+00 0.18593022E+04</pdfrwt>
<pdfrwt beam="2">  1       -2 0.15685995E+00 0.18593022E+04</pdfrwt>
<totfact> 0.79546998E+00</totfact>
</mgrwt>
</event>
<event>
 6    1  0.6091287E-004  0.1833730E+04  0.7818608E-02  0.8688565E-01
          2   -1    0    0  501    0  0.00000000000E+00  0.00000000000E+00  0.38694134339E+04  0.38694134339E+04  0.00000000000E+00 0.  1.
         -2   -1    0    0    0  501 -0.00000000000E+00 -0.00000000000E+00 -0.21725297219E+03  0.21725297219E+03  0.00000000000E+00 0. -1.
         23    2    1    2    0    0  0.53183569766E+03 -0.24239866436E+03  0.26240802165E+03  0.64689491270E+03  0.89491544074E+02 0.  0.
         13    1    3    3    0    0  0.12998861847E+03 -0.49880791738E+02  0.10477967585E+03  0.17425244557E+03  0.00000000000E+00 0. -1.
        -13    1    3    3    0    0  0.40184707919E+03 -0.19251787262E+03  0.15762834580E+03  0.47264246713E+03  0.00000000000E+00 0.  1.
         22    1    1    2    0    0 -0.53183569766E+03  0.24239866436E+03  0.33897524400E+04  0.34397714933E+04  0.00000000000E+00 0.  1.
<mgrwt>
<rscale>  0 0.18337302E+04</rscale>
<asrwt>0</asrwt>
<pdfrwt beam="1">  1        2 0.59529433E+00 0.18337302E+04</pdfrwt>
<pdfrwt beam="2">  1       -2 0.33423537E-01 0.18337302E+04</pdfrwt>
<totfact> 0.34620947E+00</totfact>
</mgrwt>
</event>
<event>
 6    1  0.6091287E-004  0.9283297E+03  0.7818608E-02  0.9390845E-01
         -2   -1    0    0    0  501 -0.00000000000E+00  0.00000000000E+00  0.27109988867E+03  0.27109988867E+03  0.00000000000E+00 0. -1.
          2   -1    0    0  501    0  0.00000000000E+00 -0.00000000000E+00 -0.79472185586E+03  0.79472185586E+03  0.00000000000E+00 0.  1.
         23    2    1    2    0    0  0.19386767629E+03  0.38843530412E+02  0.21257768115E+03  0.30353346706E+03  0.88599093317E+02 0.  0.
         11    1    3    3    0    0  0.11966187210E+03 -0.14993524028E+02  0.15030601086E+03  0.19270616570E+03  0.00000000000E+00 0.  1.
        -11    1    3    3    0    0  0.74205804190E+02  0.53837054440E+02  0.62271670289E+02  0.11082730136E+03  0.00000000000E+00 0. -1.
         22    1    1    2    0    0 -0.19386767629E+03 -0.38843530412E+02 -0.73619964834E+03  0.76228827748E+03  0.00000000000E+00 0.  1.
<mgrwt>
<rscale>  0 0.92832970E+03</rscale>
<asrwt>0</asrwt>
<pdfrwt beam="1">  1        2 0.12226490E+00 0.92832970E+03</pdfrwt>
<pdfrwt beam="2">  1       -2 0.41707676E-01 0.92832970E+03</pdfrwt>
<totfact> 0.18952493E+02</totfact>
</mgrwt>
</event>
<event>
 6    1  0.6091287E-004  0.2061557E+04  0.7818608E-02  0.8578370E-01
          2   -1    0    0  501    0  0.00000000000E+00  0.00000000000E+00  0.14325263558E+04  0.14325263558E+04  0.00000000000E+00 0. -1.
         -2   -1    0    0    0  501 -0.00000000000E+00 -0.00000000000E+00 -0.74169957936E+03  0.74169957936E+03  0.00000000000E+00 0.  1.
         23    2    1    2    0    0 -0.68420896124E+03 -0.14310986278E+02 -0.46395970738E+03  0.83188524436E+03  0.91802738249E+02 0.  0.
         13    1    3    3    0    0 -0.38331767992E+03  0.17909967442E+02 -0.21390028510E+03  0.43932509904E+03  0.00000000000E+00 0. -1.
        -13    1    3    3    0    0 -0.30089128131E+03 -0.32220953720E+02 -0.25005942228E+03  0.39256014533E+03  0.00000000000E+00 0.  1.
         22    1    1    2    0    0  0.68420896124E+03  0.14310986278E+02  0.11547864838E+04  0.13423406908E+04  0.00000000000E+00 0. -1.
<mgrwt>
<rscale>  0 0.20615569E+04</rscale>
<asrwt>0</asrwt>
<pdfrwt beam="1">  1        2 0.22038867E+00 0.20615569E+04</pdfrwt>
<pdfrwt beam="2">  1       -2 0.11410763E+00 0.20615569E+04</pdfrwt>
<totfact> 0.77037094E+00</totfact>
</mgrwt>
</event>
<event>
 6    1  0.6091287E-004  0.1245718E+04  0.7818608E-02  0.9073755E-01
          2   -1    0    0  501    0  0.00000000000E+00  0.00000000000E+00  0.11935770263E+04  0.11935770263E+04  0.00000000000E+00 0.  1.
         -2   -1    0    0    0  501 -0.00000000000E+00 -0.00000000000E+00 -0.32503410070E+03  0.32503410070E+03  0.00000000000E+00 0. -1.
         23    2    1    2    0    0  0.52802654801E+03 -0.24022926794E+02  0.83044716458E+03  0.98866733429E+03  0.91823027166E+02 0.  0.
         11    1    3    3    0    0  0.15017891573E+03 -0.41340213745E+02  0.20062733504E+03  0.25399615660E+03  0.00000000000E+00 0.  1.
        -11    1    3    3    0    0  0.37784763228E+03  0.17317286951E+02  0.62981982954E+03  0.73467117769E+03  0.00000000000E+00 0. -1.
         22    1    1    2    0    0 -0.52802654801E+03  0.24022926794E+02  0.38095761017E+02  0.52994379270E+03  0.00000000000E+00 0. -1.
<mgrwt>
<rscale>  0 0.12457178E+04</rscale>
<asrwt>0</asrwt>
<pdfrwt beam="1">  1        2 0.18362723E+00 0.12457178E+04</pdfrwt>
<pdfrwt beam="2">  1       -2 0.50005247E-01 0.12457178E+04</pdfrwt>
<totfact> 0.71108171E+01</totfact>
</mgrwt>
</event>
<event>
 6    1  0.6091287E-004  0.3642513E+04  0.7818608E-02  0.8080823E-01
          2   -1    0    0  501    0  0.00000000000E+00  0.00000000000E+00  0.30090148220E+04  0.30090148220E+04  0.00000000000E+00 0.  1.
         -2   -1    0    0    0  501 -0.00000000000E+00 -0.00000000000E+00 -0.11023456645E+04  0.11023456645E+04  0.00000000000E+00 0. -1.
         23    2    1    2    0    0  0.39692644671E+03  0.91518176697E+03  0.26722410730E+04  0.28538993027E+04  0.93598116682E+02 0.  0.
         13    1    3    3    0    0  0.21883379568E+03  0.46666076961E+03  0.12536229574E+04  0.13554449540E+04  0.00000000000E+00 0. -1.
        -13    1    3    3    0    0  0.17809265103E+03  0.44852099736E+03  0.14186181156E+04  0.14984543488E+04  0.00000000000E+00 0.  1.
         22    1    1    2    0    0 -0.39692644671E+03 -0.91518176697E+03 -0.76557191548E+03  0.12574611837E+04  0.00000000000E+00 0. -1.
<mgrwt>
<rscale>  0 0.36425126E+04</rscale>
<asrwt>0</asrwt>
<pdfrwt beam="1">  1        2 0.46292535E+00 0.36425126E+04</pdfrwt>
<pdfrwt beam="2">  1       -2 0.16959164E+00 0.36425126E+04</pdfrwt>
<totfact> 0.29929596E-01</totfact>
</mgrwt>
</event>
<event>
 6    1  0.6091287E-004  0.1686103E+04  0.7818608E-02  0.8769330E-01
         -2   -1    0    0    0  501 -0.00000000000E+00  0.00000000000E+00  0.39268020997E+03  0.39268020997E+03  0.00000000000E+00 0. -1.
          2   -1    0    0  501    0  0.00000000000E+00 -0.00000000000E+00 -0.18099602015E+04  0.18099602015E+04  0.00000000000E+00 0.  1.
         23    2    1    2    0    0 -0.73420898276E+03  0.32408778041E+03 -0.10373144680E+04  0.13146823500E+04  0.90954143315E+02 0.  0.
         11    1    3    3    0    0 -0.37717266532E+03  0.15304060375E+03 -0.59702747738E+03  0.72258041394E+03  0.00000000000E+00 0. -1.
        -11    1    3    3    0    0 -0.35703631745E+03  0.17104717666E+03 -0.44028699060E+03  0.59210193608E+03  0.00000000000E+00 0.  1.
         22    1    1    2    0    0  0.73420898276E+03 -0.32408778041E+03 -0.37996552353E+03  0.88795806142E+03  0.00000000000E+00 0. -1.
<mgrwt>
<rscale>  0 0.16861027E+04</rscale>
<asrwt>0</asrwt>
<pdfrwt beam="1">  1        2 0.27845541E+00 0.16861027E+04</pdfrwt>
<pdfrwt beam="2">  1       -2 0.60412340E-01 0.16861027E+04</pdfrwt>
<totfact> 0.20714654E+01</totfact>
</mgrwt>
</event>
<event>
 6    1  0.6091287E-004  0.4361852E+04  0.7818608E-02  0.7935279E-01
         -2   -1    0    0    0  501 -0.00000000000E+00  0.00000000000E+00  0.14428253499E+04  0.14428253499E+04  0.00000000000E+00 0. -1.
          2   -1    0    0  501    0  0.00000000000E+00 -0.00000000000E+00 -0.32966137124E+04  0.32966137124E+04  0.00000000000E+00 0.  1.
         23    2    1    2    0    0 -0.12691710671E+04  0.21006642531E+03  0.98485852332E+03  0.16228962272E+04  0.94460322976E+02 0.  0.
         11    1    3    3    0    0 -0.54146362448E+03  0.10484635392E+03  0.36675156677E+03  0.66233097942E+03  0.00000000000E+00 0.  1.
        -11    1    3    3    0    0 -0.72770744262E+03  0.10522007139E+03  0.61810695655E+03  0.96056524776E+03  0.00000000000E+00 0. -1.
         22    1    1    2    0    0  0.12691710671E+04 -0.21006642531E+03 -0.28386468858E+04  0.31165428351E+04  0.00000000000E+00 0.  1.
<mgrwt>
<rscale>  0 0.43618518E+04</rscale>
<asrwt>0</asrwt>
<pdfrwt beam="1">  1        2 0.50717134E+00 0.43618518E+04</pdfrwt>
<pdfrwt beam="2">  1       -2 0.22197313E+00 0.43618518E+04</pdfrwt>
<totfact> 0.82283493E-02</totfact>
</mgrwt>
</event>
<event>
 6    1  0.6091287E-004  0.1886703E+04  0.7818608E-02  0.8661504E-01
          2   -1    0    0  501    0  0.00000000000E+00  0.00000000000E+00  0.13257340131E+04  0.13257340131E+04  0.00000000000E+00 0.  1.
         -2   -1    0    0    0  501 -0.00000000000E+00 -0.00000000000E+00 -0.67125972724E+03  0.67125972724E+03  0.00000000000E+00 0. -1.
         23    2    1    2    0    0  0.74902463107E+03  0.46266423803E+03 -0.24353637060E+02  0.88528179740E+03  0.89636298847E+02 0.  0.
         11    1    3    3    0    0  0.10390159415E+03  0.81397887476E+02  0.24830473192E+02  0.13430454107E+03  0.00000000000E+00 0.  1.
        -11    1    3    3    0    0  0.64512303692E+03  0.38126635056E+03 -0.49184110252E+02  0.75097725633E+03  0.00000000000E+00 0. -1.
         22    1    1    2    0    0 -0.74902463107E+03 -0.46266423803E+03  0.67882792287E+03  0.11117119429E+04  0.00000000000E+00 0.  1.
<mgrwt>
<rscale>  0 0.18867028E+04</rscale>
<asrwt>0</asrwt>
<pdfrwt beam="1">  1        2 0.20395908E+00 0.18867028E+04</pdfrwt>
<pdfrwt beam="2">  1       -2 0.10327073E+00 0.18867028E+04</pdfrwt>
<totfact> 0.11455904E+01</totfact>
</mgrwt>
</event>
<event>
 6    1  0.6091287E-004  0.2948175E+04  0.7818608E-02  0.8258687E-01
          1   -1    0    0  501    0  0.00000000000E+00  0.00000000000E+00  0.10340080346E+04  0.10340080346E+04  0.00000000000E+00 0.  1.
         -1   -1    0    0    0  501 -0.00000000000E+00 -0.00000000000E+00 -0.21014670944E+04  0.21014670944E+04  0.00000000000E+00 0. -1.
         23    2    1    2    0    0  0.18602322082E+03 -0.33245202369E+03 -0.20471028518E+04  0.20843657408E+04  0.93922675246E+02 0.  0.
         13    1    3    3    0    0  0.53333244256E+02 -0.40113783933E+02 -0.24689294681E+03  0.25575315793E+03  0.00000000000E+00 0.  1.
        -13    1    3    3    0    0  0.13268997657E+03 -0.29233823975E+03 -0.18002099049E+04  0.18286125828E+04  0.00000000000E+00 0. -1.
         22    1    1    2    0    0 -0.18602322082E+03  0.33245202369E+03  0.97964379195E+03  0.10511093881E+04  0.00000000000E+00 0.  1.
<mgrwt>
<rscale>  0 0.29481749E+04</rscale>
<asrwt>0</asrwt>
<pdfrwt beam="1">  1        1 0.15907816E+00 0.29481749E+04</pdfrwt>
<pdfrwt beam="2">  1       -1 0.32330262E+00 0.29481749E+04</pdfrwt>
<totfact> 0.28339009E-01</totfact>
</mgrwt>
</event>
<event>
 6    1  0.6091287E-004  0.3681825E+04  0.7818608E-02  0.8072002E-01
         -2   -1    0    0    0  501 -0.00000000000E+00  0.00000000000E+00  0.13274877730E+04  0.13274877730E+04  0.00000000000E+00 0. -1.
          2   -1    0    0  501    0  0.00000000000E+00 -0.00000000000E+00 -0.25529116965E+04  0.25529116965E+04  0.00000000000E+00 0.  1.
         23    2    1    2    0    0  0.13471746592E+03 -0.23320468597E+03 -0.25312295085E+04  0.25471097609E+04  0.90067131414E+02 0.  0.
         13    1    3    3    0    0  0.73079484046E+02 -0.66108908283E+02 -0.11962792627E+04  0.12003312348E+04  0.00000000000E+00 0.  1.
        -13    1    3    3    0    0  0.61637981873E+02 -0.16709577769E+03 -0.13349502458E+04  0.13467785261E+04  0.00000000000E+00 0. -1.
         22    1    1    2    0    0 -0.13471746592E+03  0.23320468597E+03  0.13058055850E+04  0.13332897086E+04  0.00000000000E+00 0. -1.
<mgrwt>
<rscale>  0 0.36818251E+04</rscale>
<asrwt>0</asrwt>
<pdfrwt beam="1">  1        2 0.39275565E+00 0.36818251E+04</pdfrwt>
<pdfrwt beam="2">  1       -2 0.20422889E+00 0.36818251E+04</pdfrwt>
<totfact> 0.32759422E-01</totfact>
</mgrwt>
</event>
<event>
 6    1  0.6091287E-004  0.2009265E+04  0.7818608E-02  0.8602301E-01
         -2   -1    0    0    0  501 -0.00000000000E+00  0.00000000000E+00  0.45806071785E+03  0.45806071785E+03  0.00000000000E+00 0. -1.
          2   -1    0    0  501    0  0.00000000000E+00 -0.00000000000E+00 -0.22033907383E+04  0.22033907383E+04  0.00000000000E+00 0.  1.
         23    2    1    2    0    0 -0.30996892645E+03  0.57289710421E+03 -0.18839703178E+04  0.19954837697E+04  0.91211236748E+02 0.  0.
         11    1    3    3    0    0 -0.17318050013E+03  0.38417250206E+03 -0.11155046150E+04  0.11924472915E+04  0.00000000000E+00 0.  1.
        -11    1    3    3    0    0 -0.13678842632E+03  0.18872460215E+03 -0.76846570275E+03  0.80303647821E+03  0.00000000000E+00 0. -1.
         22    1    1    2    0    0  0.30996892645E+03 -0.57289710421E+03  0.13864029726E+03  0.66596768645E+03  0.00000000000E+00 0. -1.
<mgrwt>
<rscale>  0 0.20092653E+04</rscale>
<asrwt>0</asrwt>
<pdfrwt beam="1">  1        2 0.33898319E+00 0.20092653E+04</pdfrwt>
<pdfrwt beam="2">  1       -2 0.70470879E-01 0.20092653E+04</pdfrwt>
<totfact> 0.87433745E+00</totfact>
</mgrwt>
</event>
<event>
 6    1  0.6091287E-004  0.2412501E+04  0.7818608E-02  0.8434838E-01
         -2   -1    0    0    0  501 -0.00000000000E+00  0.00000000000E+00  0.25088222904E+04  0.25088222904E+04  0.00000000000E+00 0. -1.
          2   -1    0    0  501    0  0.00000000000E+00 -0.00000000000E+00 -0.57996922541E+03  0.57996922541E+03  0.00000000000E+00 0.  1.
         23    2    1    2    0    0  0.63526484015E+03  0.67653229685E+03  0.19489097703E+04  0.21605352811E+04  0.91684471710E+02 0.  0.
         11    1    3    3    0    0  0.42985195840E+03  0.48545775320E+03  0.14445135220E+04  0.15833702194E+04  0.00000000000E+00 0.  1.
        -11    1    3    3    0    0  0.20541288174E+03  0.19107454365E+03  0.50439624825E+03  0.57716506172E+03  0.00000000000E+00 0. -1.
         22    1    1    2    0    0 -0.63526484015E+03 -0.67653229685E+03 -0.20056705305E+02  0.92825623469E+03  0.00000000000E+00 0.  1.
<mgrwt>
<rscale>  0 0.24125005E+04</rscale>
<asrwt>0</asrwt>
<pdfrwt beam="1">  1        2 0.89226036E-01 0.24125005E+04</pdfrwt>
<pdfrwt beam="2">  1       -2 0.38597265E+00 0.24125005E+04</pdfrwt>
<totfact> 0.42549938E-01</totfact>
</mgrwt>
</event>
<event>
 6    1  0.6091287E-004  0.1589624E+04  0.7818608E-02  0.8826948E-01
          2   -1    0    0  501    0  0.00000000000E+00  0.00000000000E+00  0.15748283056E+04  0.15748283056E+04  0.00000000000E+00 0. -1.
         -2   -1    0    0    0  501 -0.00000000000E+00 -0.00000000000E+00 -0.40113987484E+03  0.40113987484E+03  0.00000000000E+00 0.  1.
         23    2    1    2    0    0  0.78282049717E+03  0.10288368614E+03  0.50394292181E+03  0.94061701759E+03  0.86075093190E+02 0.  0.
         13    1    3    3    0    0  0.52921331182E+03  0.72193228822E+02  0.29222883129E+03  0.60883189924E+03  0.00000000000E+00 0.  1.
        -13    1    3    3    0    0  0.25360718535E+03  0.30690457315E+02  0.21171409052E+03  0.33178511835E+03  0.00000000000E+00 0. -1.
         22    1    1    2    0    0 -0.78282049717E+03 -0.10288368614E+03  0.66974550896E+03  0.10353511629E+04  0.00000000000E+00 0. -1.
<mgrwt>
<rscale>  0 0.15896244E+04</rscale>
<asrwt>0</asrwt>
<pdfrwt beam="1">  1        2 0.24228127E+00 0.15896244E+04</pdfrwt>
<pdfrwt beam="2">  1       -2 0.61713828E-01 0.15896244E+04</pdfrwt>
<totfact> 0.26968419E+01</totfact>
</mgrwt>
</event>
<event>
 6    1  0.6091287E-004  0.5013966E+04  0.7818608E-02  0.7826356E-01
          2   -1    0    0  501    0  0.00000000000E+00  0.00000000000E+00  0.35619130137E+04  0.35619130137E+04  0.00000000000E+00 0.  1.
         -2   -1    0    0    0  501 -0.00000000000E+00 -0.00000000000E+00 -0.17644913360E+04  0.17644913360E+04  0.00000000000E+00 0. -1.
         23    2    1    2    0    0 -0.21293700935E+04  0.78714562604E+03 -0.22865909549E+03  0.22835736724E+04  0.92782020728E+02 0.  0.
         13    1    3    3    0    0 -0.12284322155E+04  0.42915001069E+03 -0.17068975313E+03  0.13123834926E+04  0.00000000000E+00 0. -1.
        -13    1    3    3    0    0 -0.90093787802E+03  0.35799561535E+03 -0.57969342365E+02  0.97119017979E+03  0.00000000000E+00 0.  1.
         22    1    1    2    0    0  0.21293700935E+04 -0.78714562604E+03  0.20260807732E+04  0.30428306774E+04  0.00000000000E+00 0.  1.
<mgrwt>
<rscale>  0 0.50139664E+04</rscale>
<asrwt>0</asrwt>
<pdfrwt beam="1">  1        2 0.54798662E+00 0.50139664E+04</pdfrwt>
<pdfrwt beam="2">  1       -2 0.27146021E+00 0.50139664E+04</pdfrwt>
<totfact> 0.25326045E-02</totfact>
</mgrwt>
</event>
<event>
 6    1  0.6091287E-004  0.6210882E+04  0.7818608E-02  0.7664791E-01
          2   -1    0    0  501    0  0.00000000000E+00  0.00000000000E+00  0.29662725720E+04  0.29662725720E+04  0.00000000000E+00 0.  1.
         -2   -1    0    0    0  501 -0.00000000000E+00 -0.00000000000E+00 -0.32511392010E+04  0.32511392010E+04  0.00000000000E+00 0. -1.
         23    2    1    2    0    0  0.22392957705E+04 -0.28231955137E+03  0.19917959660E+04  0.30115823251E+04  0.90703108814E+02 0.  0.
         13    1    3    3    0    0  0.49450361767E+03 -0.89012260428E+02  0.40782637127E+03  0.64713164001E+03  0.00000000000E+00 0. -1.
        -13    1    3    3    0    0  0.17447921528E+04 -0.19330729094E+03  0.15839695948E+04  0.23644506851E+04  0.00000000000E+00 0.  1.
         22    1    1    2    0    0 -0.22392957705E+04  0.28231955137E+03 -0.22766625951E+04  0.32058294478E+04  0.00000000000E+00 0. -1.
<mgrwt>
<rscale>  0 0.62108824E+04</rscale>
<asrwt>0</asrwt>
<pdfrwt beam="1">  1        2 0.45634963E+00 0.62108824E+04</pdfrwt>
<pdfrwt beam="2">  1       -2 0.50017526E+00 0.62108824E+04</pdfrwt>
<totfact> 0.20156692E-03</totfact>
</mgrwt>
</event>
<event>
 6    1  0.6091287E-004  0.2552626E+04  0.7818608E-02  0.8384473E-01
         -2   -1    0    0    0  501 -0.00000000000E+00  0.00000000000E+00  0.90992165141E+03  0.90992165141E+03  0.00000000000E+00 0. -1.
          2   -1    0    0  501    0  0.00000000000E+00 -0.00000000000E+00 -0.17902367874E+04  0.17902367874E+04  0.00000000000E+00 0.  1.
         23    2    1    2    0    0 -0.65624420614E+03  0.10742938933E+04 -0.65253333341E+03  0.14208428496E+04  0.90723892411E+02 0.  0.
         11    1    3    3    0    0 -0.29285280300E+03  0.55757863389E+03 -0.30334026150E+03  0.69905079318E+03  0.00000000000E+00 0.  1.
        -11    1    3    3    0    0 -0.36339140314E+03  0.51671525941E+03 -0.34919307191E+03  0.72179205638E+03  0.00000000000E+00 0. -1.
         22    1    1    2    0    0  0.65624420614E+03 -0.10742938933E+04 -0.22778180256E+03  0.12793155892E+04  0.00000000000E+00 0.  1.
<mgrwt>
<rscale>  0 0.25526263E+04</rscale>
<asrwt>0</asrwt>
<pdfrwt beam="1">  1        2 0.27542105E+00 0.25526263E+04</pdfrwt>
<pdfrwt beam="2">  1       -2 0.13998795E+00 0.25526263E+04</pdfrwt>
<totfact> 0.27876485E+00</totfact>
</mgrwt>
</event>
<event>
 6    1  0.6091287E-004  0.1322134E+04  0.7818608E-02  0.9012194E-01
         -2   -1    0    0    0  501 -0.00000000000E+00  0.00000000000E+00  0.84536599042E+03  0.84536599042E+03  0.00000000000E+00 0. -1.
          2   -1    0    0  501    0  0.00000000000E+00 -0.00000000000E+00 -0.51694749637E+03  0.51694749637E+03  0.00000000000E+00 0.  1.
         23    2    1    2    0    0 -0.54241893837E+03 -0.11657547690E+03  0.52940391609E+03  0.77222596245E+03  0.90864097389E+02 0.  0.
         13    1    3    3    0    0 -0.14964885638E+03 -0.52389508729E+02  0.20256172438E+03  0.25723664790E+03  0.00000000000E+00 0. -1.
        -13    1    3    3    0    0 -0.39277008199E+03 -0.64185968170E+02  0.32684219171E+03  0.51498931455E+03  0.00000000000E+00 0.  1.
         22    1    1    2    0    0  0.54241893837E+03  0.11657547690E+03 -0.20098542204E+03  0.59008752435E+03  0.00000000000E+00 0.  1.
<mgrwt>
<rscale>  0 0.13221344E+04</rscale>
<asrwt>0</asrwt>
<pdfrwt beam="1">  1        2 0.79530384E-01 0.13221344E+04</pdfrwt>
<pdfrwt beam="2">  1       -2 0.13005631E+00 0.13221344E+04</pdfrwt>
<totfact> 0.25133596E+01</totfact>
</mgrwt>
</event>
<event>
 6    1  0.6091287E-004  0.9088526E+03  0.7818608E-02  0.9414582E-01
         -2   -1    0    0    0  501 -0.00000000000E+00  0.00000000000E+00  0.14783005678E+03  0.14783005678E+03  0.00000000000E+00 0. -1.
          2   -1    0    0  501    0  0.00000000000E+00 -0.00000000000E+00 -0.13968963134E+04  0.13968963134E+04  0.00000000000E+00 0.  1.
         23    2    1    2    0    0 -0.43194546428E+03 -0.64820971698E+02 -0.82795871725E+03  0.93800550997E+03  0.59666211400E+02 0.  0.
         13    1    3    3    0    0 -0.17845054855E+03 -0.12784277330E+01 -0.36804384745E+03  0.40902629047E+03  0.00000000000E+00 0. -1.
        -13    1    3    3    0    0 -0.25349491573E+03 -0.63542543965E+02 -0.45991486980E+03  0.52897921950E+03  0.00000000000E+00 0.  1.
         22    1    1    2    0    0  0.43194546428E+03  0.64820971698E+02 -0.42110753933E+03  0.60672086017E+03  0.00000000000E+00 0. -1.
<mgrwt>
<rscale>  0 0.90885260E+03</rscale>
<asrwt>0</asrwt>
<pdfrwt beam="1">  1        2 0.21490712E+00 0.90885260E+03</pdfrwt>
<pdfrwt beam="2">  1       -2 0.22743087E-01 0.90885260E+03</pdfrwt>
<totfact> 0.24758954E+02</totfact>
</mgrwt>
</event>
<event>
 6    1  0.6091287E-004  0.1849329E+04  0.7818608E-02  0.8680498E-01
          2   -1    0    0  501    0  0.00000000000E+00  0.00000000000E+00  0.15412853666E+04  0.15412853666E+04  0.00000000000E+00 0.  1.
         -2   -1    0    0    0  501 -0.00000000000E+00 -0.00000000000E+00 -0.55473468908E+03  0.55473468908E+03  0.00000000000E+00 0. -1.
         23    2    1    2    0    0 -0.68839464501E+03  0.23186245041E+03  0.11381656262E+04  0.13539725667E+04  0.10086295436E+03 0.  0.
         11    1    3    3    0    0 -0.24866754538E+03  0.33421818126E+02  0.39516106288E+03  0.46808635065E+03  0.00000000000E+00 0. -1.
        -11    1    3    3    0    0 -0.43972709962E+03  0.19844063228E+03  0.74300456329E+03  0.88588621603E+03  0.00000000000E+00 0.  1.
         22    1    1    2    0    0  0.68839464501E+03 -0.23186245041E+03 -0.15161494869E+03  0.74204748894E+03  0.00000000000E+00 0. -1.
<mgrwt>
<rscale>  0 0.18493290E+04</rscale>
<asrwt>0</asrwt>
<pdfrwt beam="1">  1        2 0.23712082E+00 0.18493290E+04</pdfrwt>
<pdfrwt beam="2">  1       -2 0.85343799E-01 0.18493290E+04</pdfrwt>
<totfact> 0.13507004E+01</totfact>
</mgrwt>
</event>
<event>
 6    1  0.6091287E-004  0.3089011E+04  0.7818608E-02  0.8218760E-01
          2   -1    0    0  501    0  0.00000000000E+00  0.00000000000E+00  0.29125295922E+04  0.29125295922E+04  0.00000000000E+00 0.  1.
         -2   -1    0    0    0  501 -0.00000000000E+00 -0.00000000000E+00 -0.81904653672E+03  0.81904653672E+03  0.00000000000E+00 0. -1.
         23    2    1    2    0    0 -0.27893463349E+03 -0.10615125487E+04 -0.26271584904E+03  0.11322903235E+04  0.91914843858E+02 0.  0.
         11    1    3    3    0    0 -0.10528566639E+03 -0.26854460273E+03 -0.45901497791E+02  0.29207571399E+03  0.00000000000E+00 0.  1.
        -11    1    3    3    0    0 -0.17364896710E+03 -0.79296794595E+03 -0.21681435125E+03  0.84021460948E+03  0.00000000000E+00 0. -1.
         22    1    1    2    0    0  0.27893463349E+03  0.10615125487E+04  0.23561989045E+04  0.25992858054E+04  0.00000000000E+00 0.  1.
<mgrwt>
<rscale>  0 0.30890110E+04</rscale>
<asrwt>0</asrwt>
<pdfrwt beam="1">  1        2 0.44808147E+00 0.30890110E+04</pdfrwt>
<pdfrwt beam="2">  1       -2 0.12600716E+00 0.30890110E+04</pdfrwt>
<totfact> 0.78765000E-01</totfact>
</mgrwt>
</event>
<event>
 6    1  0.6091287E-004  0.3136846E+04  0.7818608E-02  0.8205698E-01
         -2   -1    0    0    0  501 -0.00000000000E+00  0.00000000000E+00  0.93985660299E+03  0.93985660299E+03  0.00000000000E+00 0. -1.
          2   -1    0    0  501    0  0.00000000000E+00 -0.00000000000E+00 -0.26173687980E+04  0.26173687980E+04  0.00000000000E+00 0.  1.
         23    2    1    2    0    0 -0.24012935610E+03 -0.88032909958E+03 -0.22842349487E+04  0.24614362191E+04  0.91090772098E+02 0.  0.
         13    1    3    3    0    0 -0.10426067516E+03 -0.48650163450E+03 -0.11456416601E+04  0.12490191921E+04  0.00000000000E+00 0. -1.
        -13    1    3    3    0    0 -0.13586868094E+03 -0.39382746508E+03 -0.11385932885E+04  0.12124170270E+04  0.00000000000E+00 0.  1.
         22    1    1    2    0    0  0.24012935610E+03  0.88032909958E+03  0.60672275370E+03  0.10957891819E+04  0.00000000000E+00 0. -1.
<mgrwt>
<rscale>  0 0.31368464E+04</rscale>
<asrwt>0</asrwt>
<pdfrwt beam="1">  1        2 0.40267212E+00 0.31368464E+04</pdfrwt>
<pdfrwt beam="2">  1       -2 0.14459333E+00 0.31368464E+04</pdfrwt>
<totfact> 0.83029999E-01</totfact>
</mgrwt>
</event>
<event>
 6    1  0.6091287E-004  0.1115759E+04  0.7818608E-02  0.9189967E-01
          1   -1    0    0  501    0  0.00000000000E+00  0.00000000000E+00  0.10149312666E+04  0.10149312666E+04  0.00000000000E+00 0.  1.
         -1   -1    0    0    0  501 -0.00000000000E+00 -0.00000000000E+00 -0.30665060523E+03  0.30665060523E+03  0.00000000000E+00 0. -1.
         23    2    1    2    0    0 -0.15028548717E+03 -0.29101995122E+03  0.88618435077E+03  0.94885132259E+03  0.87850948671E+02 0.  0.
         11    1    3    3    0    0 -0.42084875782E+02 -0.18892643747E+02  0.11181418770E+03  0.12095652661E+03  0.00000000000E+00 0.  1.
        -11    1    3    3    0    0 -0.10820061138E+03 -0.27212730748E+03  0.77437016306E+03  0.82789479599E+03  0.00000000000E+00 0. -1.
         22    1    1    2    0    0  0.15028548717E+03  0.29101995122E+03 -0.17790368937E+03  0.37273054926E+03  0.00000000000E+00 0. -1.
<mgrwt>
<rscale>  0 0.11157586E+04</rscale>
<asrwt>0</asrwt>
<pdfrwt beam="1">  1        1 0.15614327E+00 0.11157586E+04</pdfrwt>
<pdfrwt beam="2">  1       -1 0.47177017E-01 0.11157586E+04</pdfrwt>
<totfact> 0.65685058E+01</totfact>
</mgrwt>
</event>
<event>
 6    1  0.6091287E-004  0.2211675E+04  0.7818608E-02  0.8513584E-01
         -2   -1    0    0    0  501 -0.00000000000E+00  0.00000000000E+00  0.46760835499E+03  0.46760835499E+03  0.00000000000E+00 0. -1.
          2   -1    0    0  501    0  0.00000000000E+00 -0.00000000000E+00 -0.26151723153E+04  0.26151723153E+04  0.00000000000E+00 0.  1.
         23    2    1    2    0    0 -0.97316595239E+03 -0.49884079934E+03 -0.12843932808E+04  0.16895980778E+04  0.95819887156E+02 0.  0.
         11    1    3    3    0    0 -0.17980888781E+03 -0.66723917157E+02 -0.18292477429E+03  0.26503733757E+03  0.00000000000E+00 0. -1.
        -11    1    3    3    0    0 -0.79335706458E+03 -0.43211688219E+03 -0.11014685065E+04  0.14245607402E+04  0.00000000000E+00 0.  1.
         22    1    1    2    0    0  0.97316595239E+03  0.49884079934E+03 -0.86317067950E+03  0.13931825925E+04  0.00000000000E+00 0. -1.
<mgrwt>
<rscale>  0 0.22116749E+04</rscale>
<asrwt>0</asrwt>
<pdfrwt beam="1">  1        2 0.40233420E+00 0.22116749E+04</pdfrwt>
<pdfrwt beam="2">  1       -2 0.71939748E-01 0.22116749E+04</pdfrwt>
<totfact> 0.47675014E+00</totfact>
</mgrwt>
</event>
<event>
 6    1  0.6091287E-004  0.2371577E+04  0.7818608E-02  0.8450222E-01
          2   -1    0    0  501    0  0.00000000000E+00  0.00000000000E+00  0.22360694392E+04  0.22360694392E+04  0.00000000000E+00 0. -1.
         -2   -1    0    0    0  501 -0.00000000000E+00 -0.00000000000E+00 -0.62882423316E+03  0.62882423316E+03  0.00000000000E+00 0.  1.
         23    2    1    2    0    0 -0.81869278451E+03  0.57419866948E+03  0.15706954168E+04  0.18642449455E+04  0.91450189180E+02 0.  0.
         11    1    3    3    0    0 -0.63645926289E+03  0.44801297042E+03  0.12895213423E+04  0.15062075910E+04  0.00000000000E+00 0. -1.
        -11    1    3    3    0    0 -0.18223352162E+03  0.12618569906E+03  0.28117407446E+03  0.35803735447E+03  0.00000000000E+00 0.  1.
         22    1    1    2    0    0  0.81869278451E+03 -0.57419866948E+03  0.36549789246E+02  0.10006487268E+04  0.00000000000E+00 0.  1.
<mgrwt>
<rscale>  0 0.23715772E+04</rscale>
<asrwt>0</asrwt>
<pdfrwt beam="1">  1        2 0.34401068E+00 0.23715772E+04</pdfrwt>
<pdfrwt beam="2">  1       -2 0.96742191E-01 0.23715772E+04</pdfrwt>
<totfact> 0.39662297E+00</totfact>
</mgrwt>
</event>
<event>
 6    1  0.6091287E-004  0.1717988E+04  0.7818608E-02  0.8751171E-01
         -2   -1    0    0    0  501 -0.00000000000E+00  0.00000000000E+00  0.41185340547E+03  0.41185340547E+03  0.00000000000E+00 0. -1.
          2   -1    0    0  501    0  0.00000000000E+00 -0.00000000000E+00 -0.17915858809E+04  0.17915858809E+04  0.00000000000E+00 0.  1.
         23    2    1    2    0    0 -0.79655523666E+03 -0.16740186904E+03 -0.10339018144E+04  0.13190624001E+04  0.91918566227E+02 0.  0.
         13    1    3    3    0    0 -0.18265285912E+03 -0.31366690401E+01 -0.20504382201E+03  0.27461768804E+03  0.00000000000E+00 0. -1.
        -13    1    3    3    0    0 -0.61390237754E+03 -0.16426520000E+03 -0.82885799239E+03  0.10444447121E+04  0.00000000000E+00 0.  1.
         22    1    1    2    0    0  0.79655523666E+03  0.16740186904E+03 -0.34583066104E+03  0.88437688625E+03  0.00000000000E+00 0.  1.
<mgrwt>
<rscale>  0 0.17179881E+04</rscale>
<asrwt>0</asrwt>
<pdfrwt beam="1">  1        2 0.27562859E+00 0.17179881E+04</pdfrwt>
<pdfrwt beam="2">  1       -2 0.63362063E-01 0.17179881E+04</pdfrwt>
<totfact> 0.19110823E+01</totfact>
</mgrwt>
</event>
<event>
 6    1  0.6091287E-004  0.3183592E+04  0.7818608E-02  0.8193164E-01
          2   -1    0    0  501    0  0.00000000000E+00  0.00000000000E+00  0.26661402614E+04  0.26661402614E+04  0.00000000000E+00 0.  1.
         -2   -1    0    0    0  501 -0.00000000000E+00 -0.00000000000E+00 -0.95036800431E+03  0.95036800431E+03  0.00000000000E+00 0. -1.
         23    2    1    2    0    0  0.97056032112E+03 -0.44399550559E+03 -0.48103835236E+03  0.11741536232E+04  0.90108204788E+02 0.  0.
         11    1    3    3    0    0  0.44846206230E+03 -0.19965236093E+03 -0.17245089789E+03  0.52030625475E+03  0.00000000000E+00 0.  1.
        -11    1    3    3    0    0  0.52209825881E+03 -0.24434314466E+03 -0.30858745447E+03  0.65384736847E+03  0.00000000000E+00 0. -1.
         22    1    1    2    0    0 -0.97056032112E+03  0.44399550559E+03  0.21968106094E+04  0.24423546425E+04  0.00000000000E+00 0.  1.
<mgrwt>
<rscale>  0 0.31835919E+04</rscale>
<asrwt>0</asrwt>
<pdfrwt beam="1">  1        2 0.41017542E+00 0.31835919E+04</pdfrwt>
<pdfrwt beam="2">  1       -2 0.14621046E+00 0.31835919E+04</pdfrwt>
<totfact> 0.75164387E-01</totfact>
</mgrwt>
</event>
<event>
 6    1  0.6091287E-004  0.1251224E+04  0.7818608E-02  0.9069165E-01
          2   -1    0    0  501    0  0.00000000000E+00  0.00000000000E+00  0.10215792632E+04  0.10215792632E+04  0.00000000000E+00 0.  1.
         -2   -1    0    0    0  501 -0.00000000000E+00 -0.00000000000E+00 -0.38312271873E+03  0.38312271873E+03  0.00000000000E+00 0. -1.
         23    2    1    2    0    0  0.35507675705E+03 -0.46936220258E+03  0.54782958578E+03  0.80922433645E+03  0.91358584923E+02 0.  0.
         13    1    3    3    0    0  0.87801667609E+02 -0.10746211089E+03  0.18493561532E+03  0.23121076948E+03  0.00000000000E+00 0. -1.
        -13    1    3    3    0    0  0.26727508944E+03 -0.36190009169E+03  0.36289397046E+03  0.57801356697E+03  0.00000000000E+00 0.  1.
         22    1    1    2    0    0 -0.35507675705E+03  0.46936220258E+03  0.90626958683E+02  0.59547764546E+03  0.00000000000E+00 0. -1.
<mgrwt>
<rscale>  0 0.12512238E+04</rscale>
<asrwt>0</asrwt>
<pdfrwt beam="1">  1        2 0.15716604E+00 0.12512238E+04</pdfrwt>
<pdfrwt beam="2">  1       -2 0.58941957E-01 0.12512238E+04</pdfrwt>
<totfact> 0.64531721E+01</totfact>
</mgrwt>
</event>
<event>
 6    1  0.6091287E-004  0.1397871E+04  0.7818608E-02  0.8955361E-01
         -2   -1    0    0    0  501 -0.00000000000E+00  0.00000000000E+00  0.45930277196E+03  0.45930277196E+03  0.00000000000E+00 0. -1.
          2   -1    0    0  501    0  0.00000000000E+00 -0.00000000000E+00 -0.10635927947E+04  0.10635927947E+04  0.00000000000E+00 0.  1.
         23    2    1    2    0    0 -0.60082386614E+03 -0.34559246243E+03 -0.36793273638E+03  0.79057853487E+03  0.96002359804E+02 0.  0.
         11    1    3    3    0    0 -0.48318827397E+03 -0.23542966808E+03 -0.30131088886E+03  0.61618689410E+03  0.00000000000E+00 0.  1.
        -11    1    3    3    0    0 -0.11763559217E+03 -0.11016279435E+03 -0.66621847519E+02  0.17439164077E+03  0.00000000000E+00 0. -1.
         22    1    1    2    0    0  0.60082386614E+03  0.34559246243E+03 -0.23635728632E+03  0.73231703176E+03  0.00000000000E+00 0.  1.
<mgrwt>
<rscale>  0 0.13978714E+04</rscale>
<asrwt>0</asrwt>
<pdfrwt beam="1">  1        2 0.16362966E+00 0.13978714E+04</pdfrwt>
<pdfrwt beam="2">  1       -2 0.70661965E-01 0.13978714E+04</pdfrwt>
<totfact> 0.40695311E+01</totfact>
</mgrwt>
</event>
<event>
 6    1  0.6091287E-004  0.9530285E+03  0.7818608E-02  0.9361618E-01
          2   -1    0    0  501    0  0.00000000000E+00  0.00000000000E+00  0.51121026265E+03  0.51121026265E+03  0.00000000000E+00 0.  1.
         -2   -1    0    0    0  501 -0.00000000000E+00 -0.00000000000E+00 -0.44417302468E+03  0.44417302468E+03  0.00000000000E+00 0. -1.
         23    2    1    2    0    0 -0.26217497366E+03  0.25358397100E+03 -0.26798873331E+03  0.46012280174E+03  0.82791813229E+02 0.  0.
         11    1    3    3    0    0 -0.17753224415E+03  0.15616299232E+03 -0.12479522063E+03  0.26735449309E+03  0.00000000000E+00 0.  1.
        -11    1    3    3    0    0 -0.84642729503E+02  0.97420978683E+02 -0.14319351268E+03  0.19276830864E+03  0.00000000000E+00 0. -1.
         22    1    1    2    0    0  0.26217497366E+03 -0.25358397100E+03  0.33502597127E+03  0.49526048559E+03  0.00000000000E+00 0.  1.
<mgrwt>
<rscale>  0 0.95302845E+03</rscale>
<asrwt>0</asrwt>
<pdfrwt beam="1">  1        2 0.78647732E-01 0.95302845E+03</pdfrwt>
<pdfrwt beam="2">  1       -2 0.68334312E-01 0.95302845E+03</pdfrwt>
<totfact> 0.11774643E+02</totfact>
</mgrwt>
</event>
<event>
 6    1  0.6091287E-004  0.2682884E+04  0.7818608E-02  0.8340580E-01
         -2   -1    0    0    0  501 -0.00000000000E+00  0.00000000000E+00  0.95948778535E+03  0.95948778535E+03  0.00000000000E+00 0. -1.
          2   -1    0    0  501    0  0.00000000000E+00 -0.00000000000E+00 -0.18754456127E+04  0.18754456127E+04  0.00000000000E+00 0.  1.
         23    2    1    2    0    0  0.36902977521E+03 -0.94440399291E+03  0.46613490690E+03  0.11207974049E+04  0.10403458397E+03 0.  0.
         11    1    3    3    0    0  0.29115637659E+03 -0.83390581403E+03  0.41918378256E+03  0.97769421900E+03  0.00000000000E+00 0. -1.
        -11    1    3    3    0    0  0.77873398619E+02 -0.11049817888E+03  0.46951124345E+02  0.14310318594E+03  0.00000000000E+00 0.  1.
         22    1    1    2    0    0 -0.36902977521E+03  0.94440399291E+03 -0.13820927342E+04  0.17141359931E+04  0.00000000000E+00 0.  1.
<mgrwt>
<rscale>  0 0.26828844E+04</rscale>
<asrwt>0</asrwt>
<pdfrwt beam="1">  1        2 0.28853009E+00 0.26828844E+04</pdfrwt>
<pdfrwt beam="2">  1       -2 0.14761351E+00 0.26828844E+04</pdfrwt>
<totfact> 0.21522024E+00</totfact>
</mgrwt>
</event>
<event>
 6    1  0.6091287E-004  0.4061523E+04  0.7818608E-02  0.7992249E-01
         -1   -1    0    0    0  501 -0.00000000000E+00  0.00000000000E+00  0.14445365801E+04  0.14445365801E+04  0.00000000000E+00 0. -1.
          1   -1    0    0  501    0  0.00000000000E+00 -0.00000000000E+00 -0.28548898162E+04  0.28548898162E+04  0.00000000000E+00 0.  1.
         23    2    1    2    0    0 -0.14763183984E+04  0.47104664901E+03  0.68215346593E+03  0.16955859141E+04  0.90979568566E+02 0.  0.
         11    1    3    3    0    0 -0.67230919269E+03  0.16728276637E+03  0.30944150348E+03  0.75877349622E+03  0.00000000000E+00 0.  1.
        -11    1    3    3    0    0 -0.80400920574E+03  0.30376388264E+03  0.37271196245E+03  0.93681241787E+03  0.00000000000E+00 0. -1.
         22    1    1    2    0    0  0.14763183984E+04 -0.47104664901E+03 -0.20925067020E+04  0.26038404822E+04  0.00000000000E+00 0.  1.
<mgrwt>
<rscale>  0 0.40615232E+04</rscale>
<asrwt>0</asrwt>
<pdfrwt beam="1">  1        1 0.43921381E+00 0.40615232E+04</pdfrwt>
<pdfrwt beam="2">  1       -1 0.22223640E+00 0.40615232E+04</pdfrwt>
<totfact> 0.63015915E-02</totfact>
</mgrwt>
</event>
<event>
 6    1  0.6091287E-004  0.1683897E+04  0.7818608E-02  0.8770602E-01
         -2   -1    0    0    0  501 -0.00000000000E+00  0.00000000000E+00  0.62425579801E+03  0.62425579801E+03  0.00000000000E+00 0. -1.
          2   -1    0    0  501    0  0.00000000000E+00 -0.00000000000E+00 -0.11355562683E+04  0.11355562683E+04  0.00000000000E+00 0.  1.
         23    2    1    2    0    0 -0.77851207401E+03  0.27514922868E+03 -0.41473390007E+03  0.92847985240E+03  0.91008137104E+02 0.  0.
         11    1    3    3    0    0 -0.67875567584E+03  0.20711571127E+03 -0.36319875372E+03  0.79719478174E+03  0.00000000000E+00 0. -1.
        -11    1    3    3    0    0 -0.99756398172E+02  0.68033517407E+02 -0.51535146354E+02  0.13128507065E+03  0.00000000000E+00 0.  1.
         22    1    1    2    0    0  0.77851207401E+03 -0.27514922868E+03 -0.96566570233E+02  0.83133221392E+03  0.00000000000E+00 0. -1.
<mgrwt>
<rscale>  0 0.16838974E+04</rscale>
<asrwt>0</asrwt>
<pdfrwt beam="1">  1        2 0.17470096E+00 0.16838974E+04</pdfrwt>
<pdfrwt beam="2">  1       -2 0.96039355E-01 0.16838974E+04</pdfrwt>
<totfact> 0.17937062E+01</totfact>
</mgrwt>
</event>
<event>
 6    1  0.6091287E-004  0.3718214E+04  0.7818608E-02  0.8063937E-01
         -2   -1    0    0    0  501 -0.00000000000E+00  0.00000000000E+00  0.16648796120E+04  0.16648796120E+04  0.00000000000E+00 0.  1.
          2   -1    0    0  501    0  0.00000000000E+00 -0.00000000000E+00 -0.20759937133E+04  0.20759937133E+04  0.00000000000E+00 0. -1.
         23    2    1    2    0    0 -0.11630340001E+04 -0.12567509747E+04 -0.93154284198E+03  0.19512037547E+04  0.85749214434E+02 0.  0.
         11    1    3    3    0    0 -0.10562703051E+04 -0.11228292856E+04 -0.81212793116E+03  0.17424133662E+04  0.00000000000E+00 0.  1.
        -11    1    3    3    0    0 -0.10676369502E+03 -0.13392168914E+03 -0.11941491081E+03  0.20879038848E+03  0.00000000000E+00 0. -1.
         22    1    1    2    0    0  0.11630340001E+04  0.12567509747E+04  0.52042874068E+03  0.17896695706E+04  0.00000000000E+00 0.  1.
<mgrwt>
<rscale>  0 0.37182144E+04</rscale>
<asrwt>0</asrwt>
<pdfrwt beam="1">  1        2 0.31938365E+00 0.37182144E+04</pdfrwt>
<pdfrwt beam="2">  1       -2 0.25613533E+00 0.37182144E+04</pdfrwt>
<totfact> 0.28823988E-01</totfact>
</mgrwt>
</event>
<event>
 6    1  0.6091287E-004  0.4224893E+03  0.7818608E-02  0.1036259E+00
         -2   -1    0    0    0  501 -0.00000000000E+00  0.00000000000E+00  0.87191390326E+02  0.87191390326E+02  0.00000000000E+00 0. -1.
          2   -1    0    0  501    0  0.00000000000E+00 -0.00000000000E+00 -0.51179711406E+03  0.51179711406E+03  0.00000000000E+00 0.  1.
         23    2    1    2    0    0  0.73619585557E+02  0.38168858059E+02 -0.48260339919E+03  0.49779346764E+03  0.89529829704E+02 0.  0.
         11    1    3    3    0    0  0.52881821609E+02  0.81245630777E+01 -0.99654374773E+02  0.11310831089E+03  0.00000000000E+00 0.  1.
        -11    1    3    3    0    0  0.20737763947E+02  0.30044294981E+02 -0.38294902442E+03  0.38468515674E+03  0.00000000000E+00 0. -1.
         22    1    1    2    0    0 -0.73619585557E+02 -0.38168858059E+02  0.57997675462E+02  0.10119503675E+03  0.00000000000E+00 0. -1.
<mgrwt>
<rscale>  0 0.42248930E+03</rscale>
<asrwt>0</asrwt>
<pdfrwt beam="1">  1        2 0.78738018E-01 0.42248930E+03</pdfrwt>
<pdfrwt beam="2">  1       -2 0.13414060E-01 0.42248930E+03</pdfrwt>
<totfact> 0.25128571E+03</totfact>
</mgrwt>
</event>
<event>
 6    1  0.6091287E-004  0.2040063E+04  0.7818608E-02  0.8588115E-01
         -2   -1    0    0    0  501 -0.00000000000E+00  0.00000000000E+00  0.12161671127E+04  0.12161671127E+04  0.00000000000E+00 0. -1.
          2   -1    0    0  501    0  0.00000000000E+00 -0.00000000000E+00 -0.85552767348E+03  0.85552767348E+03  0.00000000000E+00 0.  1.
         23    2    1    2    0    0 -0.23538683020E+03 -0.87896063013E+03  0.64396844617E+03  0.11186711373E+04  0.93546804137E+02 0.  0.
         13    1    3    3    0    0 -0.15576729649E+03 -0.64018242582E+03  0.41690138338E+03  0.77968182770E+03  0.00000000000E+00 0.  1.
        -13    1    3    3    0    0 -0.79619533707E+02 -0.23877820431E+03  0.22706706279E+03  0.33898930958E+03  0.00000000000E+00 0. -1.
         22    1    1    2    0    0  0.23538683020E+03  0.87896063013E+03 -0.28332900696E+03  0.95302364888E+03  0.00000000000E+00 0. -1.
<mgrwt>
<rscale>  0 0.20400634E+04</rscale>
<asrwt>0</asrwt>
<pdfrwt beam="1">  1        2 0.13161964E+00 0.20400634E+04</pdfrwt>
<pdfrwt beam="2">  1       -2 0.18710263E+00 0.20400634E+04</pdfrwt>
<totfact> 0.47211940E+00</totfact>
</mgrwt>
</event>
<event>
 6    1  0.6091287E-004  0.1927536E+04  0.7818608E-02  0.8641270E-01
         -2   -1    0    0    0  501 -0.00000000000E+00  0.00000000000E+00  0.13673913803E+04  0.13673913803E+04  0.00000000000E+00 0. -1.
          2   -1    0    0  501    0  0.00000000000E+00 -0.00000000000E+00 -0.67928548184E+03  0.67928548184E+03  0.00000000000E+00 0.  1.
         23    2    1    2    0    0  0.39703657630E+03 -0.66603394169E+03 -0.25909210714E+03  0.82257583844E+03  0.90901240917E+02 0.  0.
         11    1    3    3    0    0  0.71611862897E+02 -0.16850442496E+03 -0.92721812862E+02  0.20522995570E+03  0.00000000000E+00 0. -1.
        -11    1    3    3    0    0  0.32542471340E+03 -0.49752951673E+03 -0.16637029428E+03  0.61734588274E+03  0.00000000000E+00 0.  1.
         22    1    1    2    0    0 -0.39703657630E+03  0.66603394169E+03  0.94719800562E+03  0.12241010237E+04  0.00000000000E+00 0.  1.
<mgrwt>
<rscale>  0 0.19275364E+04</rscale>
<asrwt>0</asrwt>
<pdfrwt beam="1">  1        2 0.10450546E+00 0.19275364E+04</pdfrwt>
<pdfrwt beam="2">  1       -2 0.21036790E+00 0.19275364E+04</pdfrwt>
<totfact> 0.45262376E+00</totfact>
</mgrwt>
</event>
<event>
 6    1  0.6091287E-004  0.2402850E+04  0.7818608E-02  0.8438437E-01
          2   -1    0    0  501    0  0.00000000000E+00  0.00000000000E+00  0.17613958440E+04  0.17613958440E+04  0.00000000000E+00 0.  1.
         -2   -1    0    0    0  501 -0.00000000000E+00 -0.00000000000E+00 -0.81947629924E+03  0.81947629924E+03  0.00000000000E+00 0. -1.
         23    2    1    2    0    0 -0.10211886926E+04  0.31123256240E+02  0.11470743564E+04  0.15388148033E+04  0.91522766211E+02 0.  0.
         11    1    3    3    0    0 -0.25263790534E+03  0.25201052328E+02  0.33993418080E+03  0.42428322089E+03  0.00000000000E+00 0.  1.
        -11    1    3    3    0    0 -0.76855078723E+03  0.59222039127E+01  0.80714017563E+03  0.11145315824E+04  0.00000000000E+00 0. -1.
         22    1    1    2    0    0  0.10211886926E+04 -0.31123256240E+02 -0.20515481170E+03  0.10420573399E+04  0.00000000000E+00 0. -1.
<mgrwt>
<rscale>  0 0.24028501E+04</rscale>
<asrwt>0</asrwt>
<pdfrwt beam="1">  1        2 0.27098397E+00 0.24028501E+04</pdfrwt>
<pdfrwt beam="2">  1       -2 0.12607328E+00 0.24028501E+04</pdfrwt>
<totfact> 0.38250985E+00</totfact>
</mgrwt>
</event>
<event>
 6    1  0.6091287E-004  0.3988575E+04  0.7818608E-02  0.8006855E-01
          2   -1    0    0  501    0  0.00000000000E+00  0.00000000000E+00  0.22799911305E+04  0.22799911305E+04  0.00000000000E+00 0.  1.
         -2   -1    0    0    0  501 -0.00000000000E+00 -0.00000000000E+00 -0.17443854431E+04  0.17443854431E+04  0.00000000000E+00 0. -1.
         23    2    1    2    0    0  0.44628097978E+03 -0.84140727768E+03 -0.14987467082E+04  0.17781079812E+04  0.91067983470E+02 0.  0.
         11    1    3    3    0    0  0.14281559758E+03 -0.18594913020E+03 -0.36293061634E+03  0.43207870372E+03  0.00000000000E+00 0. -1.
        -11    1    3    3    0    0  0.30346538220E+03 -0.65545814748E+03 -0.11358160919E+04  0.13460292775E+04  0.00000000000E+00 0.  1.
         22    1    1    2    0    0 -0.44628097978E+03  0.84140727768E+03  0.20343523956E+04  0.22462685924E+04  0.00000000000E+00 0.  1.
<mgrwt>
<rscale>  0 0.39885754E+04</rscale>
<asrwt>0</asrwt>
<pdfrwt beam="1">  1        2 0.35076787E+00 0.39885754E+04</pdfrwt>
<pdfrwt beam="2">  1       -2 0.26836699E+00 0.39885754E+04</pdfrwt>
<totfact> 0.18224590E-01</totfact>
</mgrwt>
</event>
<event>
 6    1  0.6091287E-004  0.1301908E+04  0.7818608E-02  0.9028054E-01
          2   -1    0    0  501    0  0.00000000000E+00  0.00000000000E+00  0.22530823004E+04  0.22530823004E+04  0.00000000000E+00 0.  1.
         -2   -1    0    0    0  501 -0.00000000000E+00 -0.00000000000E+00 -0.18807164046E+03  0.18807164046E+03  0.00000000000E+00 0. -1.
         23    2    1    2    0    0 -0.39799909265E+03 -0.32557497560E+03  0.29959765452E+03  0.60238113756E+03  0.93284177617E+02 0.  0.
         13    1    3    3    0    0 -0.15672541399E+03 -0.10618143110E+03  0.15913831823E+03  0.24731024247E+03  0.00000000000E+00 0.  1.
        -13    1    3    3    0    0 -0.24127367866E+03 -0.21939354450E+03  0.14045933630E+03  0.35507089509E+03  0.00000000000E+00 0. -1.
         22    1    1    2    0    0  0.39799909265E+03  0.32557497560E+03  0.17654130054E+04  0.18387728033E+04  0.00000000000E+00 0.  1.
<mgrwt>
<rscale>  0 0.13019077E+04</rscale>
<asrwt>0</asrwt>
<pdfrwt beam="1">  1        2 0.34662803E+00 0.13019077E+04</pdfrwt>
<pdfrwt beam="2">  1       -2 0.28934100E-01 0.13019077E+04</pdfrwt>
<totfact> 0.51944323E+01</totfact>
</mgrwt>
</event>
<event>
 6    1  0.6091287E-004  0.7501441E+03  0.7818608E-02  0.9635124E-01
          2   -1    0    0  501    0  0.00000000000E+00  0.00000000000E+00  0.85155610334E+03  0.85155610334E+03  0.00000000000E+00 0.  1.
         -2   -1    0    0    0  501 -0.00000000000E+00 -0.00000000000E+00 -0.16520233143E+03  0.16520233143E+03  0.00000000000E+00 0. -1.
         23    2    1    2    0    0  0.30044065174E+02  0.30008471500E+03  0.63730257008E+03  0.71121056220E+03  0.93340323090E+02 0.  0.
         13    1    3    3    0    0 -0.31582642645E+02  0.14457339486E+03  0.28048957915E+03  0.31713299076E+03  0.00000000000E+00 0. -1.
        -13    1    3    3    0    0  0.61626707819E+02  0.15551132015E+03  0.35681299094E+03  0.39407757144E+03  0.00000000000E+00 0.  1.
         22    1    1    2    0    0 -0.30044065174E+02 -0.30008471500E+03  0.49051201832E+02  0.30554787257E+03  0.00000000000E+00 0. -1.
<mgrwt>
<rscale>  0 0.75014413E+03</rscale>
<asrwt>0</asrwt>
<pdfrwt beam="1">  1        2 0.13100863E+00 0.75014413E+03</pdfrwt>
<pdfrwt beam="2">  1       -2 0.25415744E-01 0.75014413E+03</pdfrwt>
<totfact> 0.44281791E+02</totfact>
</mgrwt>
</event>
<event>
 6    1  0.6091287E-004  0.2119929E+04  0.7818608E-02  0.8552515E-01
          2   -1    0    0  501    0  0.00000000000E+00  0.00000000000E+00  0.25298182735E+04  0.25298182735E+04  0.00000000000E+00 0.  1.
         -2   -1    0    0    0  501 -0.00000000000E+00 -0.00000000000E+00 -0.44411263019E+03  0.44411263019E+03  0.00000000000E+00 0. -1.
         23    2    1    2    0    0 -0.30118475100E+03 -0.36544892561E+03 -0.28234008544E+03  0.55899700295E+03  0.92176754100E+02 0.  0.
         13    1    3    3    0    0 -0.11282062835E+03 -0.19837033875E+03 -0.16245464832E+03  0.28012639689E+03  0.00000000000E+00 0.  1.
        -13    1    3    3    0    0 -0.18836412265E+03 -0.16707858687E+03 -0.11988543712E+03  0.27887060606E+03  0.00000000000E+00 0. -1.
         22    1    1    2    0    0  0.30118475100E+03  0.36544892561E+03  0.23680457288E+04  0.24149339008E+04  0.00000000000E+00 0.  1.
<mgrwt>
<rscale>  0 0.21199285E+04</rscale>
<asrwt>0</asrwt>
<pdfrwt beam="1">  1        2 0.38920280E+00 0.21199285E+04</pdfrwt>
<pdfrwt beam="2">  1       -2 0.68325022E-01 0.21199285E+04</pdfrwt>
<totfact> 0.60330675E+00</totfact>
</mgrwt>
</event>
<event>
 6    1  0.6091287E-004  0.1504682E+04  0.7818608E-02  0.8881346E-01
          2   -1    0    0  501    0  0.00000000000E+00  0.00000000000E+00  0.67765281866E+03  0.67765281866E+03  0.00000000000E+00 0.  1.
         -2   -1    0    0    0  501 -0.00000000000E+00 -0.00000000000E+00 -0.83526067098E+03  0.83526067098E+03  0.00000000000E+00 0. -1.
         23    2    1    2    0    0  0.26702137320E+03  0.43599266042E+03  0.47195446334E+03  0.70190256309E+03  0.92391444007E+02 0.  0.
         13    1    3    3    0    0  0.20696514004E+03  0.32121620927E+03  0.40219185945E+03  0.55477266885E+03  0.00000000000E+00 0. -1.
        -13    1    3    3    0    0  0.60056233152E+02  0.11477645115E+03  0.69762603885E+02  0.14712989424E+03  0.00000000000E+00 0.  1.
         22    1    1    2    0    0 -0.26702137320E+03 -0.43599266042E+03 -0.62956231566E+03  0.81101092655E+03  0.00000000000E+00 0. -1.
<mgrwt>
<rscale>  0 0.15046817E+04</rscale>
<asrwt>0</asrwt>
<pdfrwt beam="1">  1        2 0.10425428E+00 0.15046817E+04</pdfrwt>
<pdfrwt beam="2">  1       -2 0.12850164E+00 0.15046817E+04</pdfrwt>
<totfact> 0.18433194E+01</totfact>
</mgrwt>
</event>
<event>
 6    1  0.1248823E-003  0.2891743E+04  0.7818608E-02  0.8275338E-01
          2   -1    0    0  501    0  0.00000000000E+00  0.00000000000E+00  0.22095906230E+04  0.22095906230E+04  0.00000000000E+00 0.  1.
         -2   -1    0    0    0  501 -0.00000000000E+00 -0.00000000000E+00 -0.94612307966E+03  0.94612307966E+03  0.00000000000E+00 0. -1.
         23    2    1    2    0    0 -0.10280921705E+04 -0.22442988094E+03  0.17121354465E+04  0.20117534018E+04  0.91660678079E+02 0.  0.
         13    1    3    3    0    0 -0.36588603977E+03 -0.42294718711E+02  0.55315018480E+03  0.66455741984E+03  0.00000000000E+00 0. -1.
        -13    1    3    3    0    0 -0.66220613075E+03 -0.18213516223E+03  0.11589852617E+04  0.13471959820E+04  0.00000000000E+00 0.  1.
         22    1    1    2    0    0  0.10280921705E+04  0.22442988094E+03 -0.44866790319E+03  0.11439603008E+04  0.00000000000E+00 0. -1.
<mgrwt>
<rscale>  0 0.28917432E+04</rscale>
<asrwt>0</asrwt>
<pdfrwt beam="1">  1        2 0.33993702E+00 0.28917432E+04</pdfrwt>
<pdfrwt beam="2">  1       -2 0.14555740E+00 0.28917432E+04</pdfrwt>
<totfact> 0.14287434E+00</totfact>
</mgrwt>
</event>
<event>
 6    1  0.6091287E-004  0.2552962E+04  0.7818608E-02  0.8384357E-01
          2   -1    0    0  501    0  0.00000000000E+00  0.00000000000E+00  0.16878749338E+04  0.16878749338E+04  0.00000000000E+00 0.  1.
         -2   -1    0    0    0  501 -0.00000000000E+00 -0.00000000000E+00 -0.96535773104E+03  0.96535773104E+03  0.00000000000E+00 0. -1.
         23    2    1    2    0    0  0.11845042582E+04  0.45630554619E+03  0.23907639658E+03  0.12949322186E+04  0.91797811665E+02 0.  0.
         13    1    3    3    0    0  0.45403876147E+03  0.16434652386E+03  0.13530407718E+03  0.50146602090E+03  0.00000000000E+00 0. -1.
        -13    1    3    3    0    0  0.73046549674E+03  0.29195902233E+03  0.10377231941E+03  0.79346619772E+03  0.00000000000E+00 0.  1.
         22    1    1    2    0    0 -0.11845042582E+04 -0.45630554619E+03  0.48344080621E+03  0.13583004463E+04  0.00000000000E+00 0. -1.
<mgrwt>
<rscale>  0 0.25529615E+04</rscale>
<asrwt>0</asrwt>
<pdfrwt beam="1">  1        2 0.25967307E+00 0.25529615E+04</pdfrwt>
<pdfrwt beam="2">  1       -2 0.14851657E+00 0.25529615E+04</pdfrwt>
<totfact> 0.27212705E+00</totfact>
</mgrwt>
</event>
<event>
 6    1  0.6091287E-004  0.4517301E+04  0.7818608E-02  0.7907615E-01
          2   -1    0    0  501    0  0.00000000000E+00  0.00000000000E+00  0.40597149091E+04  0.40597149091E+04  0.00000000000E+00 0. -1.
         -2   -1    0    0    0  501 -0.00000000000E+00 -0.00000000000E+00 -0.12566160368E+04  0.12566160368E+04  0.00000000000E+00 0.  1.
         23    2    1    2    0    0 -0.16142282130E+03  0.22518912285E+04  0.13811288320E+04  0.26481723622E+04  0.90711504831E+02 0.  0.
         13    1    3    3    0    0 -0.48948632615E+02  0.10472155805E+04  0.68456232602E+03  0.12520710918E+04  0.00000000000E+00 0. -1.
        -13    1    3    3    0    0 -0.11247418869E+03  0.12046756480E+04  0.69656650597E+03  0.13961012704E+04  0.00000000000E+00 0.  1.
         22    1    1    2    0    0  0.16142282130E+03 -0.22518912285E+04  0.14219700403E+04  0.26681585837E+04  0.00000000000E+00 0. -1.
<mgrwt>
<rscale>  0 0.45173013E+04</rscale>
<asrwt>0</asrwt>
<pdfrwt beam="1">  1        2 0.62457152E+00 0.45173013E+04</pdfrwt>
<pdfrwt beam="2">  1       -2 0.19332555E+00 0.45173013E+04</pdfrwt>
<totfact> 0.33904875E-02</totfact>
</mgrwt>
</event>
<event>
 6    1  0.6698959E-004  0.2067701E+04  0.7818608E-02  0.8575606E-01
          2   -1    0    0  501    0  0.00000000000E+00  0.00000000000E+00  0.17659697629E+04  0.17659697629E+04  0.00000000000E+00 0. -1.
         -2   -1    0    0    0  501 -0.00000000000E+00 -0.00000000000E+00 -0.60524640540E+03  0.60524640540E+03  0.00000000000E+00 0.  1.
         23    2    1    2    0    0  0.91789658848E+03  0.33836825912E+03  0.95774362230E+03  0.13721025618E+04  0.91462385766E+02 0.  0.
         13    1    3    3    0    0  0.40387055481E+03  0.16021934944E+03  0.36400643350E+03  0.56681773844E+03  0.00000000000E+00 0.  1.
        -13    1    3    3    0    0  0.51402603367E+03  0.17814890968E+03  0.59373718879E+03  0.80528482332E+03  0.00000000000E+00 0. -1.
         22    1    1    2    0    0 -0.91789658848E+03 -0.33836825912E+03  0.20297973523E+03  0.99911360657E+03  0.00000000000E+00 0.  1.
<mgrwt>
<rscale>  0 0.20677010E+04</rscale>
<asrwt>0</asrwt>
<pdfrwt beam="1">  1        2 0.27168765E+00 0.20677010E+04</pdfrwt>
<pdfrwt beam="2">  1       -2 0.93114832E-01 0.20677010E+04</pdfrwt>
<totfact> 0.81327610E+00</totfact>
</mgrwt>
</event>
<event>
 6    1  0.6091287E-004  0.4767545E+04  0.7818608E-02  0.7865402E-01
          2   -1    0    0  501    0  0.00000000000E+00  0.00000000000E+00  0.47115226395E+04  0.47115226395E+04  0.00000000000E+00 0.  1.
         -2   -1    0    0    0  501 -0.00000000000E+00 -0.00000000000E+00 -0.12060581575E+04  0.12060581575E+04  0.00000000000E+00 0. -1.
         23    2    1    2    0    0 -0.10326830608E+04 -0.90184316391E+03  0.41724662636E+04  0.43929015609E+04  0.91400257332E+02 0.  0.
         13    1    3    3    0    0 -0.37292586784E+03 -0.26860316263E+03  0.13851797903E+04  0.14594329082E+04  0.00000000000E+00 0.  1.
        -13    1    3    3    0    0 -0.65975719294E+03 -0.63324000129E+03  0.27872864732E+04  0.29334686528E+04  0.00000000000E+00 0. -1.
         22    1    1    2    0    0  0.10326830608E+04  0.90184316391E+03 -0.66700178153E+03  0.15246792361E+04  0.00000000000E+00 0. -1.
<mgrwt>
<rscale>  0 0.47675446E+04</rscale>
<asrwt>0</asrwt>
<pdfrwt beam="1">  1        2 0.72484963E+00 0.47675446E+04</pdfrwt>
<pdfrwt beam="2">  1       -2 0.18554741E+00 0.47675446E+04</pdfrwt>
<totfact> 0.90775112E-03</totfact>
</mgrwt>
</event>
<event>
 6    1  0.6091287E-004  0.1099628E+04  0.7818608E-02  0.9205554E-01
         -2   -1    0    0    0  501 -0.00000000000E+00  0.00000000000E+00  0.23129317892E+03  0.23129317892E+03  0.00000000000E+00 0. -1.
          2   -1    0    0  501    0  0.00000000000E+00 -0.00000000000E+00 -0.13069797880E+04  0.13069797880E+04  0.00000000000E+00 0.  1.
         23    2    1    2    0    0  0.34818400722E+03  0.83467441720E+02 -0.11182178390E+04  0.11777069921E+04  0.91562584656E+02 0.  0.
         13    1    3    3    0    0  0.57337501428E+02 -0.16572189278E+02 -0.13762387875E+03  0.15000852819E+03  0.00000000000E+00 0. -1.
        -13    1    3    3    0    0  0.29084650579E+03  0.10003963100E+03 -0.98059396029E+03  0.10276984639E+04  0.00000000000E+00 0.  1.
         22    1    1    2    0    0 -0.34818400722E+03 -0.83467441720E+02  0.42531229952E+02  0.36056597486E+03  0.00000000000E+00 0. -1.
<mgrwt>
<rscale>  0 0.10996281E+04</rscale>
<asrwt>0</asrwt>
<pdfrwt beam="1">  1        2 0.20107382E+00 0.10996281E+04</pdfrwt>
<pdfrwt beam="2">  1       -2 0.35583565E-01 0.10996281E+04</pdfrwt>
<totfact> 0.12056515E+02</totfact>
</mgrwt>
</event>
<event>
 6    1  0.6091287E-004  0.4690075E+04  0.7818608E-02  0.7878180E-01
         -2   -1    0    0    0  501 -0.00000000000E+00  0.00000000000E+00  0.22050235007E+04  0.22050235007E+04  0.00000000000E+00 0. -1.
          2   -1    0    0  501    0  0.00000000000E+00 -0.00000000000E+00 -0.24939417198E+04  0.24939417198E+04  0.00000000000E+00 0.  1.
         23    2    1    2    0    0 -0.14673345280E+04  0.62380844753E+03 -0.18661608214E+04  0.24562209590E+04  0.90871293385E+02 0.  0.
         13    1    3    3    0    0 -0.64299804583E+03  0.29170137953E+03 -0.89089656319E+03  0.11367642095E+04  0.00000000000E+00 0.  1.
        -13    1    3    3    0    0 -0.82433648218E+03  0.33210706800E+03 -0.97526425818E+03  0.13194567495E+04  0.00000000000E+00 0. -1.
         22    1    1    2    0    0  0.14673345280E+04 -0.62380844753E+03  0.15772426022E+04  0.22427442615E+04  0.00000000000E+00 0. -1.
<mgrwt>
<rscale>  0 0.46900747E+04</rscale>
<asrwt>0</asrwt>
<pdfrwt beam="1">  1        2 0.38368334E+00 0.46900747E+04</pdfrwt>
<pdfrwt beam="2">  1       -2 0.33923439E+00 0.46900747E+04</pdfrwt>
<totfact> 0.47608539E-02</totfact>
</mgrwt>
</event>
<event>
 6    1  0.6091287E-004  0.7313683E+03  0.7818608E-02  0.9665043E-01
          2   -1    0    0  501    0  0.00000000000E+00  0.00000000000E+00  0.98724799350E+03  0.98724799350E+03  0.00000000000E+00 0.  1.
         -2   -1    0    0    0  501 -0.00000000000E+00 -0.00000000000E+00 -0.13545218015E+03  0.13545218015E+03  0.00000000000E+00 0. -1.
         23    2    1    2    0    0 -0.87084048293E+02 -0.28949243237E+03  0.13261978258E+03  0.34256963131E+03  0.91522924446E+02 0.  0.
         13    1    3    3    0    0 -0.92681401457E+01 -0.17914495198E+03  0.59362925085E+02  0.18895176399E+03  0.00000000000E+00 0.  1.
        -13    1    3    3    0    0 -0.77815908147E+02 -0.11034748039E+03  0.73256857499E+02  0.15361786732E+03  0.00000000000E+00 0. -1.
         22    1    1    2    0    0  0.87084048293E+02  0.28949243237E+03  0.71917603077E+03  0.78013054234E+03  0.00000000000E+00 0.  1.
<mgrwt>
<rscale>  0 0.73136829E+03</rscale>
<asrwt>0</asrwt>
<pdfrwt beam="1">  1        2 0.15188430E+00 0.73136829E+03</pdfrwt>
<pdfrwt beam="2">  1       -2 0.20838798E-01 0.73136829E+03</pdfrwt>
<totfact> 0.51279241E+02</totfact>
</mgrwt>
</event>
<event>
 6    1  0.6091287E-004  0.1156377E+04  0.7818608E-02  0.9151920E-01
          1   -1    0    0  501    0  0.00000000000E+00  0.00000000000E+00  0.57348651035E+03  0.57348651035E+03  0.00000000000E+00 0.  1.
         -1   -1    0    0    0  501 -0.00000000000E+00 -0.00000000000E+00 -0.58292945539E+03  0.58292945539E+03  0.00000000000E+00 0. -1.
         23    2    1    2    0    0 -0.10708371781E+03 -0.37829561003E+02  0.55847983511E+03  0.57724907915E+03  0.91753881931E+02 0.  0.
         13    1    3    3    0    0 -0.61828619377E+02 -0.65208235228E+02  0.40695328214E+03  0.41675636283E+03  0.00000000000E+00 0.  1.
        -13    1    3    3    0    0 -0.45255098431E+02  0.27378674225E+02  0.15152655297E+03  0.16049271632E+03  0.00000000000E+00 0. -1.
         22    1    1    2    0    0  0.10708371781E+03  0.37829561003E+02 -0.56792278015E+03  0.57916688658E+03  0.00000000000E+00 0. -1.
<mgrwt>
<rscale>  0 0.11563774E+04</rscale>
<asrwt>0</asrwt>
<pdfrwt beam="1">  1        1 0.88228694E-01 0.11563774E+04</pdfrwt>
<pdfrwt beam="2">  1       -1 0.89681454E-01 0.11563774E+04</pdfrwt>
<totfact> 0.44200403E+01</totfact>
</mgrwt>
</event>
<event>
 6    1  0.6091287E-004  0.7550662E+03  0.7818608E-02  0.9627436E-01
          2   -1    0    0  501    0  0.00000000000E+00  0.00000000000E+00  0.18899255277E+04  0.18899255277E+04  0.00000000000E+00 0.  1.
         -2   -1    0    0    0  501 -0.00000000000E+00 -0.00000000000E+00 -0.75416334814E+02  0.75416334814E+02  0.00000000000E+00 0. -1.
         23    2    1    2    0    0 -0.66120146559E+02 -0.91548744405E+02  0.18431593020E+04  0.18488348879E+04  0.90560387208E+02 0.  0.
         11    1    3    3    0    0 -0.48658634257E+02 -0.64223376440E+02  0.17057099365E+04  0.17076119853E+04  0.00000000000E+00 0. -1.
        -11    1    3    3    0    0 -0.17461512302E+02 -0.27325367965E+02  0.13744936549E+03  0.14122290260E+03  0.00000000000E+00 0.  1.
         22    1    1    2    0    0  0.66120146559E+02  0.91548744405E+02 -0.28650109120E+02  0.11650697462E+03  0.00000000000E+00 0. -1.
<mgrwt>
<rscale>  0 0.75506624E+03</rscale>
<asrwt>0</asrwt>
<pdfrwt beam="1">  1        2 0.29075774E+00 0.75506624E+03</pdfrwt>
<pdfrwt beam="2">  1       -2 0.11602515E-01 0.75506624E+03</pdfrwt>
<totfact> 0.42233234E+02</totfact>
</mgrwt>
</event>
<event>
 6    1  0.6091287E-004  0.2808742E+04  0.7818608E-02  0.8300559E-01
          2   -1    0    0  501    0  0.00000000000E+00  0.00000000000E+00  0.23603372397E+04  0.23603372397E+04  0.00000000000E+00 0.  1.
         -2   -1    0    0    0  501 -0.00000000000E+00 -0.00000000000E+00 -0.83558315140E+03  0.83558315140E+03  0.00000000000E+00 0. -1.
         23    2    1    2    0    0  0.47515235897E+03 -0.49265589576E+03 -0.63019472769E+03  0.93488434641E+03  0.91562822682E+02 0.  0.
         13    1    3    3    0    0  0.14759673016E+03 -0.20241493351E+03 -0.26745562980E+03  0.36645479117E+03  0.00000000000E+00 0. -1.
        -13    1    3    3    0    0  0.32755562881E+03 -0.29024096225E+03 -0.36273909789E+03  0.56842955524E+03  0.00000000000E+00 0.  1.
         22    1    1    2    0    0 -0.47515235897E+03  0.49265589576E+03  0.21549488160E+04  0.22610360447E+04  0.00000000000E+00 0.  1.
<mgrwt>
<rscale>  0 0.28087421E+04</rscale>
<asrwt>0</asrwt>
<pdfrwt beam="1">  1        2 0.36312880E+00 0.28087421E+04</pdfrwt>
<pdfrwt beam="2">  1       -2 0.12855125E+00 0.28087421E+04</pdfrwt>
<totfact> 0.16271309E+00</totfact>
</mgrwt>
</event>
<event>
 6    1  0.6091287E-004  0.2223334E+04  0.7818608E-02  0.8508778E-01
          4   -1    0    0  501    0  0.00000000000E+00  0.00000000000E+00  0.13596902554E+04  0.13596902554E+04  0.00000000000E+00 0.  1.
         -4   -1    0    0    0  501 -0.00000000000E+00 -0.00000000000E+00 -0.90888635371E+03  0.90888635371E+03  0.00000000000E+00 0. -1.
         23    2    1    2    0    0 -0.10310437305E+04 -0.33922235430E+03  0.46194763886E+03  0.11831056685E+04  0.90666541983E+02 0.  0.
         11    1    3    3    0    0 -0.89075080463E+03 -0.25928583083E+03  0.39220724972E+03  0.10072202662E+04  0.00000000000E+00 0. -1.
        -11    1    3    3    0    0 -0.14029292592E+03 -0.79936523470E+02  0.69740389142E+02  0.17588540225E+03  0.00000000000E+00 0.  1.
         22    1    1    2    0    0  0.10310437305E+04  0.33922235430E+03 -0.11143737193E+02  0.10854709406E+04  0.00000000000E+00 0. -1.
<mgrwt>
<rscale>  0 0.22233344E+04</rscale>
<asrwt>0</asrwt>
<pdfrwt beam="1">  1        4 0.20918312E+00 0.22233344E+04</pdfrwt>
<pdfrwt beam="2">  1       -4 0.13982867E+00 0.22233344E+04</pdfrwt>
<totfact> 0.74878016E-02</totfact>
</mgrwt>
</event>
<event>
 6    1  0.6091287E-004  0.1662808E+04  0.7818608E-02  0.8782866E-01
          2   -1    0    0  501    0  0.00000000000E+00  0.00000000000E+00  0.14195116990E+04  0.14195116990E+04  0.00000000000E+00 0.  1.
         -2   -1    0    0    0  501 -0.00000000000E+00 -0.00000000000E+00 -0.48695074354E+03  0.48695074354E+03  0.00000000000E+00 0. -1.
         23    2    1    2    0    0  0.33409240362E+03  0.67126549432E+03  0.87263526614E+03  0.11542615476E+04  0.92802557288E+02 0.  0.
         13    1    3    3    0    0  0.31298578571E+03  0.65147016888E+03  0.85796356118E+03  0.11218177015E+04  0.00000000000E+00 0. -1.
        -13    1    3    3    0    0  0.21106617905E+02  0.19795325441E+02  0.14671704957E+02  0.32443846181E+02  0.00000000000E+00 0.  1.
         22    1    1    2    0    0 -0.33409240362E+03 -0.67126549432E+03  0.59925689305E+02  0.75220089488E+03  0.00000000000E+00 0. -1.
<mgrwt>
<rscale>  0 0.16628076E+04</rscale>
<asrwt>0</asrwt>
<pdfrwt beam="1">  1        2 0.21838641E+00 0.16628076E+04</pdfrwt>
<pdfrwt beam="2">  1       -2 0.74915500E-01 0.16628076E+04</pdfrwt>
<totfact> 0.21545097E+01</totfact>
</mgrwt>
</event>
<event>
 6    1  0.6091287E-004  0.2193317E+04  0.7818608E-02  0.8521215E-01
          2   -1    0    0  501    0  0.00000000000E+00  0.00000000000E+00  0.27298884220E+04  0.27298884220E+04  0.00000000000E+00 0.  1.
         -2   -1    0    0    0  501 -0.00000000000E+00 -0.00000000000E+00 -0.44055268836E+03  0.44055268836E+03  0.00000000000E+00 0. -1.
         23    2    1    2    0    0  0.49833051661E+03 -0.42456399404E+03 -0.12179304054E+03  0.67201563530E+03  0.90463144680E+02 0.  0.
         13    1    3    3    0    0  0.18887952648E+03 -0.20916324110E+03 -0.26139200806E+02  0.28303355767E+03  0.00000000000E+00 0. -1.
        -13    1    3    3    0    0  0.30945099013E+03 -0.21540075294E+03 -0.95653839732E+02  0.38898207762E+03  0.00000000000E+00 0.  1.
         22    1    1    2    0    0 -0.49833051661E+03  0.42456399404E+03  0.24111287742E+04  0.24984254751E+04  0.00000000000E+00 0.  1.
<mgrwt>
<rscale>  0 0.21933168E+04</rscale>
<asrwt>0</asrwt>
<pdfrwt beam="1">  1        2 0.41998282E+00 0.21933168E+04</pdfrwt>
<pdfrwt beam="2">  1       -2 0.67777338E-01 0.21933168E+04</pdfrwt>
<totfact> 0.46506450E+00</totfact>
</mgrwt>
</event>
<event>
 6    1  0.6091287E-004  0.1218214E+04  0.7818608E-02  0.9097061E-01
          2   -1    0    0  501    0  0.00000000000E+00  0.00000000000E+00  0.62218759862E+03  0.62218759862E+03  0.00000000000E+00 0.  1.
         -2   -1    0    0    0  501 -0.00000000000E+00 -0.00000000000E+00 -0.59630185723E+03  0.59630185723E+03  0.00000000000E+00 0. -1.
         23    2    1    2    0    0  0.39060487239E+03 -0.21034530171E+03 -0.39956194703E+03  0.60381633306E+03  0.90150442415E+02 0.  0.
         13    1    3    3    0    0  0.28805531526E+03 -0.18059209682E+03 -0.25954535576E+03  0.42773024417E+03  0.00000000000E+00 0. -1.
        -13    1    3    3    0    0  0.10254955713E+03 -0.29753204895E+02 -0.14001659127E+03  0.17608608889E+03  0.00000000000E+00 0.  1.
         22    1    1    2    0    0 -0.39060487239E+03  0.21034530171E+03  0.42544768842E+03  0.61467312278E+03  0.00000000000E+00 0.  1.
<mgrwt>
<rscale>  0 0.12182145E+04</rscale>
<asrwt>0</asrwt>
<pdfrwt beam="1">  1        2 0.95721169E-01 0.12182145E+04</pdfrwt>
<pdfrwt beam="2">  1       -2 0.91738747E-01 0.12182145E+04</pdfrwt>
<totfact> 0.47300348E+01</totfact>
</mgrwt>
</event>
<event>
 6    1  0.6091287E-004  0.1170855E+04  0.7818608E-02  0.9138756E-01
         -2   -1    0    0    0  501 -0.00000000000E+00  0.00000000000E+00  0.14407213289E+03  0.14407213289E+03  0.00000000000E+00 0. -1.
          2   -1    0    0  501    0  0.00000000000E+00 -0.00000000000E+00 -0.23788469899E+04  0.23788469899E+04  0.00000000000E+00 0.  1.
         23    2    1    2    0    0 -0.55132653527E+03 -0.60390729914E+02 -0.15036499233E+04  0.16052309092E+04  0.90527294649E+02 0.  0.
         11    1    3    3    0    0 -0.92480670399E+02 -0.37683081404E+02 -0.33342803579E+03  0.34806169579E+03  0.00000000000E+00 0.  1.
        -11    1    3    3    0    0 -0.45884586487E+03 -0.22707648511E+02 -0.11702218875E+04  0.12571692134E+04  0.00000000000E+00 0. -1.
         22    1    1    2    0    0  0.55132653527E+03  0.60390729914E+02 -0.73112493366E+03  0.91768821359E+03  0.00000000000E+00 0.  1.
<mgrwt>
<rscale>  0 0.11708553E+04</rscale>
<asrwt>0</asrwt>
<pdfrwt beam="1">  1        2 0.36597644E+00 0.11708553E+04</pdfrwt>
<pdfrwt beam="2">  1       -2 0.22164945E-01 0.11708553E+04</pdfrwt>
<totfact> 0.72391135E+01</totfact>
</mgrwt>
</event>
<event>
 6    1  0.6091287E-004  0.1254319E+04  0.7818608E-02  0.9066597E-01
         -2   -1    0    0    0  501 -0.00000000000E+00  0.00000000000E+00  0.66727904793E+03  0.66727904793E+03  0.00000000000E+00 0. -1.
          2   -1    0    0  501    0  0.00000000000E+00 -0.00000000000E+00 -0.58945171965E+03  0.58945171965E+03  0.00000000000E+00 0.  1.
         23    2    1    2    0    0 -0.13184084579E+03 -0.40722472671E+03 -0.41545816132E+03  0.60362697728E+03  0.92444887529E+02 0.  0.
         11    1    3    3    0    0 -0.95749609254E+02 -0.20754193776E+03 -0.27112592478E+03  0.35461374859E+03  0.00000000000E+00 0.  1.
        -11    1    3    3    0    0 -0.36091236536E+02 -0.19968278895E+03 -0.14433223654E+03  0.24901322869E+03  0.00000000000E+00 0. -1.
         22    1    1    2    0    0  0.13184084579E+03  0.40722472671E+03  0.49328548960E+03  0.65310379030E+03  0.00000000000E+00 0. -1.
<mgrwt>
<rscale>  0 0.12543186E+04</rscale>
<asrwt>0</asrwt>
<pdfrwt beam="1">  1        2 0.90684880E-01 0.12543186E+04</pdfrwt>
<pdfrwt beam="2">  1       -2 0.10265832E+00 0.12543186E+04</pdfrwt>
<totfact> 0.38664658E+01</totfact>
</mgrwt>
</event>
<event>
 6    1  0.6091287E-004  0.3509510E+04  0.7818608E-02  0.8111540E-01
         -2   -1    0    0    0  501 -0.00000000000E+00  0.00000000000E+00  0.68908743525E+03  0.68908743525E+03  0.00000000000E+00 0. -1.
          2   -1    0    0  501    0  0.00000000000E+00 -0.00000000000E+00 -0.44684683250E+04  0.44684683250E+04  0.00000000000E+00 0.  1.
         23    2    1    2    0    0  0.15165756002E+04 -0.15781466897E+03 -0.31638543468E+04  0.35132382891E+04  0.89229631220E+02 0.  0.
         13    1    3    3    0    0  0.13823738725E+04 -0.16771100545E+03 -0.28649033398E+04  0.31853972517E+04  0.00000000000E+00 0.  1.
        -13    1    3    3    0    0  0.13420172771E+03  0.98963364760E+01 -0.29895100701E+03  0.32784103738E+03  0.00000000000E+00 0. -1.
         22    1    1    2    0    0 -0.15165756002E+04  0.15781466897E+03 -0.61552654294E+03  0.16443174712E+04  0.00000000000E+00 0. -1.
<mgrwt>
<rscale>  0 0.35095102E+04</rscale>
<asrwt>0</asrwt>
<pdfrwt beam="1">  1        2 0.68745668E+00 0.35095102E+04</pdfrwt>
<pdfrwt beam="2">  1       -2 0.10601345E+00 0.35095102E+04</pdfrwt>
<totfact> 0.77534457E-02</totfact>
</mgrwt>
</event>
<event>
 6    1  0.6091287E-004  0.3067190E+04  0.7818608E-02  0.8224800E-01
         -2   -1    0    0    0  501 -0.00000000000E+00  0.00000000000E+00  0.18292174413E+04  0.18292174413E+04  0.00000000000E+00 0. -1.
          2   -1    0    0  501    0  0.00000000000E+00 -0.00000000000E+00 -0.12857483333E+04  0.12857483333E+04  0.00000000000E+00 0.  1.
         23    2    1    2    0    0 -0.25134841226E+03 -0.48458719545E+03 -0.11809594501E+04  0.13061941953E+04  0.11609168288E+03 0.  0.
         11    1    3    3    0    0 -0.22100749118E+03 -0.36252742514E+03 -0.81065744458E+03  0.91511525918E+03  0.00000000000E+00 0.  1.
        -11    1    3    3    0    0 -0.30340921089E+02 -0.12205977031E+03 -0.37030200549E+03  0.39107893614E+03  0.00000000000E+00 0. -1.
         22    1    1    2    0    0  0.25134841226E+03  0.48458719545E+03  0.17244285580E+04  0.18087715793E+04  0.00000000000E+00 0. -1.
<mgrwt>
<rscale>  0 0.30671898E+04</rscale>
<asrwt>0</asrwt>
<pdfrwt beam="1">  1        2 0.19780744E+00 0.30671898E+04</pdfrwt>
<pdfrwt beam="2">  1       -2 0.28141807E+00 0.30671898E+04</pdfrwt>
<totfact> 0.59220778E-01</totfact>
</mgrwt>
</event>
<event>
 6    1  0.7268568E-004  0.3179821E+04  0.7818608E-02  0.8194167E-01
         -2   -1    0    0    0  501 -0.00000000000E+00  0.00000000000E+00  0.16101622724E+04  0.16101622724E+04  0.00000000000E+00 0. -1.
          2   -1    0    0  501    0  0.00000000000E+00 -0.00000000000E+00 -0.15699132213E+04  0.15699132213E+04  0.00000000000E+00 0.  1.
         23    2    1    2    0    0  0.14241121468E+04 -0.64472290631E+03  0.30269083254E+03  0.15949449876E+04  0.92004024643E+02 0.  0.
         13    1    3    3    0    0  0.72781102405E+03 -0.29792701740E+03  0.18873957089E+03  0.80875955638E+03  0.00000000000E+00 0. -1.
        -13    1    3    3    0    0  0.69630112278E+03 -0.34679588891E+03  0.11395126165E+03  0.78618543117E+03  0.00000000000E+00 0.  1.
         22    1    1    2    0    0 -0.14241121468E+04  0.64472290631E+03 -0.26244178145E+03  0.15851305061E+04  0.00000000000E+00 0.  1.
<mgrwt>
<rscale>  0 0.31798208E+04</rscale>
<asrwt>0</asrwt>
<pdfrwt beam="1">  1        2 0.24152511E+00 0.31798208E+04</pdfrwt>
<pdfrwt beam="2">  1       -2 0.24771727E+00 0.31798208E+04</pdfrwt>
<totfact> 0.64910141E-01</totfact>
</mgrwt>
</event>
<event>
 6    1  0.6091287E-004  0.1693655E+04  0.7818608E-02  0.8764991E-01
          3   -1    0    0  501    0  0.00000000000E+00  0.00000000000E+00  0.58741264181E+03  0.58741264181E+03  0.00000000000E+00 0.  1.
         -3   -1    0    0    0  501 -0.00000000000E+00 -0.00000000000E+00 -0.12208063257E+04  0.12208063257E+04  0.00000000000E+00 0. -1.
         23    2    1    2    0    0 -0.45939999209E+03  0.43340900727E+03  0.28082653661E+03  0.69705276397E+03  0.90151493490E+02 0.  0.
         11    1    3    3    0    0 -0.18348638360E+03  0.13233553790E+03  0.66242281958E+02  0.23572863101E+03  0.00000000000E+00 0. -1.
        -11    1    3    3    0    0 -0.27591360849E+03  0.30107346937E+03  0.21458425465E+03  0.46132413296E+03  0.00000000000E+00 0.  1.
         22    1    1    2    0    0  0.45939999209E+03 -0.43340900727E+03 -0.91422022055E+03  0.11111662036E+04  0.00000000000E+00 0. -1.
<mgrwt>
<rscale>  0 0.16936553E+04</rscale>
<asrwt>0</asrwt>
<pdfrwt beam="1">  1        3 0.90371177E-01 0.16936553E+04</pdfrwt>
<pdfrwt beam="2">  1       -3 0.18781635E+00 0.16936553E+04</pdfrwt>
<totfact> 0.48307976E-01</totfact>
</mgrwt>
</event>
<event>
 6    1  0.6091287E-004  0.2957469E+04  0.7818608E-02  0.8255981E-01
         -2   -1    0    0    0  501 -0.00000000000E+00  0.00000000000E+00  0.48618295969E+03  0.48618295969E+03  0.00000000000E+00 0.  1.
          2   -1    0    0  501    0  0.00000000000E+00 -0.00000000000E+00 -0.44975998753E+04  0.44975998753E+04  0.00000000000E+00 0. -1.
         23    2    1    2    0    0 -0.13249682464E+04 -0.10519594336E+03 -0.30942852955E+04  0.33689337866E+04  0.92229754544E+02 0.  0.
         11    1    3    3    0    0 -0.83385877659E+03 -0.63074736251E+02 -0.18324821343E+04  0.20142714947E+04  0.00000000000E+00 0.  1.
        -11    1    3    3    0    0 -0.49110946985E+03 -0.42121207108E+02 -0.12618031612E+04  0.13546622919E+04  0.00000000000E+00 0. -1.
         22    1    1    2    0    0  0.13249682464E+04  0.10519594336E+03 -0.91713162005E+03  0.16148490484E+04  0.00000000000E+00 0. -1.
<mgrwt>
<rscale>  0 0.29574695E+04</rscale>
<asrwt>0</asrwt>
<pdfrwt beam="1">  1        2 0.69193848E+00 0.29574695E+04</pdfrwt>
<pdfrwt beam="2">  1       -2 0.74797374E-01 0.29574695E+04</pdfrwt>
<totfact> 0.17070309E-01</totfact>
</mgrwt>
</event>
<event>
 6    1  0.6091287E-004  0.1757691E+04  0.7818608E-02  0.8729128E-01
          2   -1    0    0  501    0  0.00000000000E+00  0.00000000000E+00  0.67119053926E+03  0.67119053926E+03  0.00000000000E+00 0.  1.
         -2   -1    0    0    0  501 -0.00000000000E+00 -0.00000000000E+00 -0.11507460158E+04  0.11507460158E+04  0.00000000000E+00 0. -1.
         23    2    1    2    0    0 -0.40062729407E+03 -0.47629980553E+03 -0.88014021961E+03  0.10817799027E+04  0.90759122186E+02 0.  0.
         11    1    3    3    0    0 -0.36148209656E+03 -0.40645147291E+03 -0.71629772775E+03  0.89941900176E+03  0.00000000000E+00 0. -1.
        -11    1    3    3    0    0 -0.39145197511E+02 -0.69848332622E+02 -0.16384249186E+03  0.18236090096E+03  0.00000000000E+00 0.  1.
         22    1    1    2    0    0  0.40062729407E+03  0.47629980553E+03  0.40058474312E+03  0.74015665228E+03  0.00000000000E+00 0.  1.
<mgrwt>
<rscale>  0 0.17576915E+04</rscale>
<asrwt>0</asrwt>
<pdfrwt beam="1">  1        2 0.10326009E+00 0.17576915E+04</pdfrwt>
<pdfrwt beam="2">  1       -2 0.17703784E+00 0.17576915E+04</pdfrwt>
<totfact> 0.77743924E+00</totfact>
</mgrwt>
</event>
<event>
 6    1  0.6091287E-004  0.2671504E+04  0.7818608E-02  0.8344311E-01
          2   -1    0    0  501    0  0.00000000000E+00  0.00000000000E+00  0.98482704477E+03  0.98482704477E+03  0.00000000000E+00 0.  1.
         -2   -1    0    0    0  501 -0.00000000000E+00 -0.00000000000E+00 -0.18117227083E+04  0.18117227083E+04  0.00000000000E+00 0. -1.
         23    2    1    2    0    0 -0.12435678286E+04 -0.48511890214E+02 -0.91739754622E+03  0.15487497136E+04  0.90515577244E+02 0.  0.
         13    1    3    3    0    0 -0.10316508446E+04 -0.54382216371E+02 -0.72139965102E+03  0.12600310897E+04  0.00000000000E+00 0. -1.
        -13    1    3    3    0    0 -0.21191698400E+03  0.58703261572E+01 -0.19599789520E+03  0.28871862385E+03  0.00000000000E+00 0.  1.
         22    1    1    2    0    0  0.12435678286E+04  0.48511890214E+02  0.90501882718E+02  0.12478000395E+04  0.00000000000E+00 0.  1.
<mgrwt>
<rscale>  0 0.26715041E+04</rscale>
<asrwt>0</asrwt>
<pdfrwt beam="1">  1        2 0.15151185E+00 0.26715041E+04</pdfrwt>
<pdfrwt beam="2">  1       -2 0.27872657E+00 0.26715041E+04</pdfrwt>
<totfact> 0.97125433E-01</totfact>
</mgrwt>
</event>
<event>
 6    1  0.6091287E-004  0.2722099E+04  0.7818608E-02  0.8327870E-01
          2   -1    0    0  501    0  0.00000000000E+00  0.00000000000E+00  0.19022588512E+04  0.19022588512E+04  0.00000000000E+00 0.  1.
         -2   -1    0    0    0  501 -0.00000000000E+00 -0.00000000000E+00 -0.97381915333E+03  0.97381915333E+03  0.00000000000E+00 0. -1.
         23    2    1    2    0    0  0.79947439630E+03  0.88092233753E+03  0.11600579693E+04  0.16641248294E+04  0.91615940209E+02 0.  0.
         13    1    3    3    0    0  0.25944482421E+03  0.34156605069E+03  0.38546219026E+03  0.57668022674E+03  0.00000000000E+00 0. -1.
        -13    1    3    3    0    0  0.54002957209E+03  0.53935628684E+03  0.77459577909E+03  0.10874446027E+04  0.00000000000E+00 0.  1.
         22    1    1    2    0    0 -0.79947439630E+03 -0.88092233753E+03 -0.23161827145E+03  0.12119531752E+04  0.00000000000E+00 0. -1.
<mgrwt>
<rscale>  0 0.27220993E+04</rscale>
<asrwt>0</asrwt>
<pdfrwt beam="1">  1        2 0.29265521E+00 0.27220993E+04</pdfrwt>
<pdfrwt beam="2">  1       -2 0.14981833E+00 0.27220993E+04</pdfrwt>
<totfact> 0.19932389E+00</totfact>
</mgrwt>
</event>
<event>
 6    1  0.6091287E-004  0.3698013E+04  0.7818608E-02  0.8068402E-01
          2   -1    0    0  501    0  0.00000000000E+00  0.00000000000E+00  0.29930483280E+04  0.29930483280E+04  0.00000000000E+00 0.  1.
         -2   -1    0    0    0  501 -0.00000000000E+00 -0.00000000000E+00 -0.11422555072E+04  0.11422555072E+04  0.00000000000E+00 0. -1.
         23    2    1    2    0    0  0.17564766702E+04  0.62555859799E+01  0.15669320313E+04  0.23560269110E+04  0.10167295255E+03 0.  0.
         13    1    3    3    0    0  0.14435206147E+04  0.42576605669E+02  0.12718008388E+04  0.19243289496E+04  0.00000000000E+00 0. -1.
        -13    1    3    3    0    0  0.31295605547E+03 -0.36321019689E+02  0.29513119242E+03  0.43169796139E+03  0.00000000000E+00 0.  1.
         22    1    1    2    0    0 -0.17564766702E+04 -0.62555859799E+01  0.28386078956E+03  0.17792769243E+04  0.00000000000E+00 0. -1.
<mgrwt>
<rscale>  0 0.36980135E+04</rscale>
<asrwt>0</asrwt>
<pdfrwt beam="1">  1        2 0.46046897E+00 0.36980135E+04</pdfrwt>
<pdfrwt beam="2">  1       -2 0.17573162E+00 0.36980135E+04</pdfrwt>
<totfact> 0.27592247E-01</totfact>
</mgrwt>
</event>
<event>
 6    1  0.6091287E-004  0.3940781E+04  0.7818608E-02  0.8016601E-01
          1   -1    0    0  501    0  0.00000000000E+00  0.00000000000E+00  0.20181350310E+04  0.20181350310E+04  0.00000000000E+00 0.  1.
         -1   -1    0    0    0  501 -0.00000000000E+00 -0.00000000000E+00 -0.19237751712E+04  0.19237751712E+04  0.00000000000E+00 0. -1.
         23    2    1    2    0    0 -0.40786353884E+03 -0.12449665113E+04  0.15179371642E+04  0.20072612361E+04  0.93113667234E+02 0.  0.
         11    1    3    3    0    0 -0.23830820608E+03 -0.86061156418E+03  0.10518560832E+04  0.13797986394E+04  0.00000000000E+00 0. -1.
        -11    1    3    3    0    0 -0.16955533276E+03 -0.38435494715E+03  0.46608108094E+03  0.62746259672E+03  0.00000000000E+00 0.  1.
         22    1    1    2    0    0  0.40786353884E+03  0.12449665113E+04 -0.14235773043E+04  0.19346489661E+04  0.00000000000E+00 0. -1.
<mgrwt>
<rscale>  0 0.39407807E+04</rscale>
<asrwt>0</asrwt>
<pdfrwt beam="1">  1        1 0.31048231E+00 0.39407807E+04</pdfrwt>
<pdfrwt beam="2">  1       -1 0.29596541E+00 0.39407807E+04</pdfrwt>
<totfact> 0.79903387E-02</totfact>
</mgrwt>
</event>
<event>
 6    1  0.6091287E-004  0.2097443E+04  0.7818608E-02  0.8562371E-01
         -2   -1    0    0    0  501 -0.00000000000E+00  0.00000000000E+00  0.80989875852E+03  0.80989875852E+03  0.00000000000E+00 0. -1.
          2   -1    0    0  501    0  0.00000000000E+00 -0.00000000000E+00 -0.13579677590E+04  0.13579677590E+04  0.00000000000E+00 0.  1.
         23    2    1    2    0    0 -0.20202988485E+02 -0.37674009332E+03  0.73466793044E+03  0.83079685120E+03  0.90250658014E+02 0.  0.
         13    1    3    3    0    0 -0.39982223419E+02 -0.28693503894E+03  0.61551313843E+03  0.68028429229E+03  0.00000000000E+00 0.  1.
        -13    1    3    3    0    0  0.19779234935E+02 -0.89805054381E+02  0.11915479201E+03  0.15051255890E+03  0.00000000000E+00 0. -1.
         22    1    1    2    0    0  0.20202988485E+02  0.37674009332E+03 -0.12827369309E+04  0.13370696663E+04  0.00000000000E+00 0.  1.
<mgrwt>
<rscale>  0 0.20974426E+04</rscale>
<asrwt>0</asrwt>
<pdfrwt beam="1">  1        2 0.20891812E+00 0.20974426E+04</pdfrwt>
<pdfrwt beam="2">  1       -2 0.12459981E+00 0.20974426E+04</pdfrwt>
<totfact> 0.68173646E+00</totfact>
</mgrwt>
</event>
<event>
 6    1  0.6091287E-004  0.1449085E+04  0.7818608E-02  0.8919035E-01
         -2   -1    0    0    0  501 -0.00000000000E+00  0.00000000000E+00  0.25015433222E+03  0.25015433222E+03  0.00000000000E+00 0. -1.
          2   -1    0    0  501    0  0.00000000000E+00 -0.00000000000E+00 -0.20985526884E+04  0.20985526884E+04  0.00000000000E+00 0.  1.
         23    2    1    2    0    0  0.68034814345E+02  0.31098312758E+03 -0.19776213986E+04  0.20051406714E+04  0.90903653339E+02 0.  0.
         11    1    3    3    0    0  0.63971469977E+02  0.14970068675E+03 -0.11971899168E+04  0.12082079049E+04  0.00000000000E+00 0.  1.
        -11    1    3    3    0    0  0.40633443682E+01  0.16128244083E+03 -0.78043148185E+03  0.79693276652E+03  0.00000000000E+00 0. -1.
         22    1    1    2    0    0 -0.68034814345E+02 -0.31098312758E+03  0.12922304247E+03  0.34356634921E+03  0.00000000000E+00 0. -1.
<mgrwt>
<rscale>  0 0.14490853E+04</rscale>
<asrwt>0</asrwt>
<pdfrwt beam="1">  1        2 0.32285425E+00 0.14490853E+04</pdfrwt>
<pdfrwt beam="2">  1       -2 0.38485283E-01 0.14490853E+04</pdfrwt>
<totfact> 0.36442490E+01</totfact>
</mgrwt>
</event>
<event>
 6    1  0.6091287E-004  0.1715204E+04  0.7818608E-02  0.8752740E-01
          2   -1    0    0  501    0  0.00000000000E+00  0.00000000000E+00  0.19319775477E+04  0.19319775477E+04  0.00000000000E+00 0.  1.
         -2   -1    0    0    0  501 -0.00000000000E+00 -0.00000000000E+00 -0.38068815428E+03  0.38068815428E+03  0.00000000000E+00 0. -1.
         23    2    1    2    0    0 -0.15058838530E+03 -0.42618489806E+03 -0.20105135920E+03  0.50296723472E+03  0.90796261178E+02 0.  0.
         13    1    3    3    0    0 -0.76860434523E+02 -0.22860281607E+03 -0.57745557105E+02  0.24799460332E+03  0.00000000000E+00 0. -1.
        -13    1    3    3    0    0 -0.73727950772E+02 -0.19758208199E+03 -0.14330580209E+03  0.25497263140E+03  0.00000000000E+00 0.  1.
         22    1    1    2    0    0  0.15058838530E+03  0.42618489806E+03  0.17523407526E+04  0.18096984672E+04  0.00000000000E+00 0.  1.
<mgrwt>
<rscale>  0 0.17152037E+04</rscale>
<asrwt>0</asrwt>
<pdfrwt beam="1">  1        2 0.29722731E+00 0.17152037E+04</pdfrwt>
<pdfrwt beam="2">  1       -2 0.58567409E-01 0.17152037E+04</pdfrwt>
<totfact> 0.18882145E+01</totfact>
</mgrwt>
</event>
<event>
 6    1  0.6091287E-004  0.2322333E+04  0.7818608E-02  0.8469167E-01
         -2   -1    0    0    0  501 -0.00000000000E+00  0.00000000000E+00  0.19817817578E+04  0.19817817578E+04  0.00000000000E+00 0.  1.
          2   -1    0    0  501    0  0.00000000000E+00 -0.00000000000E+00 -0.68035122668E+03  0.68035122668E+03  0.00000000000E+00 0. -1.
         23    2    1    2    0    0 -0.43964340593E+02 -0.99357095041E+03  0.13357503777E+04  0.16669978436E+04  0.74408616293E+02 0.  0.
         13    1    3    3    0    0 -0.44481170009E+02 -0.71116981759E+03  0.90353628483E+03  0.11507036551E+04  0.00000000000E+00 0. -1.
        -13    1    3    3    0    0  0.51682941570E+00 -0.28240113282E+03  0.43221409286E+03  0.51629418842E+03  0.00000000000E+00 0.  1.
         22    1    1    2    0    0  0.43964340593E+02  0.99357095041E+03 -0.34319846623E+02  0.99513514088E+03  0.00000000000E+00 0. -1.
<mgrwt>
<rscale>  0 0.23223330E+04</rscale>
<asrwt>0</asrwt>
<pdfrwt beam="1">  1        2 0.10466942E+00 0.23223330E+04</pdfrwt>
<pdfrwt beam="2">  1       -2 0.30488950E+00 0.23223330E+04</pdfrwt>
<totfact> 0.11406748E+00</totfact>
</mgrwt>
</event>
<event>
 6    1  0.6091287E-004  0.1557746E+04  0.7818608E-02  0.8846935E-01
         -2   -1    0    0    0  501 -0.00000000000E+00  0.00000000000E+00  0.63081903192E+03  0.63081903192E+03  0.00000000000E+00 0. -1.
          2   -1    0    0  501    0  0.00000000000E+00 -0.00000000000E+00 -0.96167576989E+03  0.96167576989E+03  0.00000000000E+00 0.  1.
         23    2    1    2    0    0  0.22753757657E+03 -0.60048929229E+02 -0.92226586683E+03  0.95598558714E+03  0.89190195844E+02 0.  0.
         13    1    3    3    0    0  0.16491513511E+03 -0.34164469148E+02 -0.48291974617E+03  0.51144471254E+03  0.00000000000E+00 0. -1.
        -13    1    3    3    0    0  0.62622441458E+02 -0.25884460082E+02 -0.43934612067E+03  0.44454087460E+03  0.00000000000E+00 0.  1.
         22    1    1    2    0    0 -0.22753757657E+03  0.60048929229E+02  0.59140912886E+03  0.63650921467E+03  0.00000000000E+00 0. -1.
<mgrwt>
<rscale>  0 0.15577463E+04</rscale>
<asrwt>0</asrwt>
<pdfrwt beam="1">  1        2 0.14795012E+00 0.15577463E+04</pdfrwt>
<pdfrwt beam="2">  1       -2 0.97049081E-01 0.15577463E+04</pdfrwt>
<totfact> 0.22753686E+01</totfact>
</mgrwt>
</event>
<event>
 6    1  0.6091287E-004  0.2014344E+03  0.7818608E-02  0.1148534E+00
          2   -1    0    0  501    0  0.00000000000E+00  0.00000000000E+00  0.89156107135E+02  0.89156107135E+02  0.00000000000E+00 0.  1.
         -2   -1    0    0    0  501 -0.00000000000E+00 -0.00000000000E+00 -0.11377748430E+03  0.11377748430E+03  0.00000000000E+00 0. -1.
         23    2    1    2    0    0 -0.56426664420E+02  0.29225672435E+02  0.30346498837E+02  0.11891230973E+03  0.95818156042E+02 0.  0.
         13    1    3    3    0    0 -0.40437355139E+02 -0.31782480689E+02  0.82799287980E+01  0.52094750122E+02  0.00000000000E+00 0.  1.
        -13    1    3    3    0    0 -0.15989309281E+02  0.61008153124E+02  0.22066570039E+02  0.66817559610E+02  0.00000000000E+00 0. -1.
         22    1    1    2    0    0  0.56426664420E+02 -0.29225672435E+02 -0.54967876001E+02  0.84021281702E+02  0.00000000000E+00 0. -1.
<mgrwt>
<rscale>  0 0.20143443E+03</rscale>
<asrwt>0</asrwt>
<pdfrwt beam="1">  1        2 0.13716324E-01 0.20143443E+03</pdfrwt>
<pdfrwt beam="2">  1       -2 0.17504228E-01 0.20143443E+03</pdfrwt>
<totfact> 0.11091296E+04</totfact>
</mgrwt>
</event>
<event>
 6    1  0.6091287E-004  0.1787022E+04  0.7818608E-02  0.8713231E-01
         -2   -1    0    0    0  501 -0.00000000000E+00  0.00000000000E+00  0.50418850979E+03  0.50418850979E+03  0.00000000000E+00 0. -1.
          2   -1    0    0  501    0  0.00000000000E+00 -0.00000000000E+00 -0.15834597539E+04  0.15834597539E+04  0.00000000000E+00 0.  1.
         23    2    1    2    0    0  0.11759820421E+03  0.83908898184E+03 -0.86390475104E+03  0.12134158098E+04  0.90259910822E+02 0.  0.
         13    1    3    3    0    0  0.49899240736E+02  0.63636079256E+03 -0.65203272940E+03  0.91246461451E+03  0.00000000000E+00 0. -1.
        -13    1    3    3    0    0  0.67698963470E+02  0.20272818928E+03 -0.21187202164E+03  0.30095119527E+03  0.00000000000E+00 0.  1.
         22    1    1    2    0    0 -0.11759820421E+03 -0.83908898184E+03 -0.21536649303E+03  0.87423245387E+03  0.00000000000E+00 0. -1.
<mgrwt>
<rscale>  0 0.17870223E+04</rscale>
<asrwt>0</asrwt>
<pdfrwt beam="1">  1        2 0.24360919E+00 0.17870223E+04</pdfrwt>
<pdfrwt beam="2">  1       -2 0.77567464E-01 0.17870223E+04</pdfrwt>
<totfact> 0.15949034E+01</totfact>
</mgrwt>
</event>
<event>
 6    1  0.6513309E-004  0.4008611E+04  0.7818608E-02  0.8002812E-01
          2   -1    0    0  501    0  0.00000000000E+00  0.00000000000E+00  0.17064239147E+04  0.17064239147E+04  0.00000000000E+00 0.  1.
         -2   -1    0    0    0  501 -0.00000000000E+00 -0.00000000000E+00 -0.23541865773E+04  0.23541865773E+04  0.00000000000E+00 0. -1.
         23    2    1    2    0    0  0.16644327524E+04  0.11142383624E+04 -0.28929747153E+03  0.20258228351E+04  0.91660334147E+02 0.  0.
         11    1    3    3    0    0  0.74927717213E+03  0.45821339725E+03 -0.98772846827E+02  0.88381665144E+03  0.00000000000E+00 0.  1.
        -11    1    3    3    0    0  0.91515558026E+03  0.65602496515E+03 -0.19052462470E+03  0.11420061837E+04  0.00000000000E+00 0. -1.
         22    1    1    2    0    0 -0.16644327524E+04 -0.11142383624E+04 -0.35846519108E+03  0.20347876569E+04  0.00000000000E+00 0. -1.
<mgrwt>
<rscale>  0 0.40086109E+04</rscale>
<asrwt>0</asrwt>
<pdfrwt beam="1">  1        2 0.26252676E+00 0.40086109E+04</pdfrwt>
<pdfrwt beam="2">  1       -2 0.36218255E+00 0.40086109E+04</pdfrwt>
<totfact> 0.99834503E-02</totfact>
</mgrwt>
</event>
<event>
 6    1  0.6091287E-004  0.7182625E+03  0.7818608E-02  0.9686501E-01
          2   -1    0    0  501    0  0.00000000000E+00  0.00000000000E+00  0.53426629498E+03  0.53426629498E+03  0.00000000000E+00 0.  1.
         -2   -1    0    0    0  501 -0.00000000000E+00 -0.00000000000E+00 -0.24140632595E+03  0.24140632595E+03  0.00000000000E+00 0. -1.
         23    2    1    2    0    0  0.28881770659E+03 -0.42895617169E+02 -0.66101910970E+02  0.31295312392E+03  0.91183844647E+02 0.  0.
         13    1    3    3    0    0  0.12033540579E+03 -0.54182723924E+02 -0.57271484166E+02  0.14386243553E+03  0.00000000000E+00 0. -1.
        -13    1    3    3    0    0  0.16848230080E+03  0.11287106755E+02 -0.88304268045E+01  0.16909068839E+03  0.00000000000E+00 0.  1.
         22    1    1    2    0    0 -0.28881770659E+03  0.42895617169E+02  0.35896188000E+03  0.46271949701E+03  0.00000000000E+00 0.  1.
<mgrwt>
<rscale>  0 0.71826252E+03</rscale>
<asrwt>0</asrwt>
<pdfrwt beam="1">  1        2 0.82194814E-01 0.71826252E+03</pdfrwt>
<pdfrwt beam="2">  1       -2 0.37139435E-01 0.71826252E+03</pdfrwt>
<totfact> 0.39218823E+02</totfact>
</mgrwt>
</event>
<event>
 6    1  0.7411526E-004  0.3529979E+04  0.7818608E-02  0.8106722E-01
         -1   -1    0    0    0  501 -0.00000000000E+00  0.00000000000E+00  0.11461421184E+04  0.11461421184E+04  0.00000000000E+00 0. -1.
          1   -1    0    0  501    0  0.00000000000E+00 -0.00000000000E+00 -0.27179764362E+04  0.27179764362E+04  0.00000000000E+00 0.  1.
         23    2    1    2    0    0 -0.15335015615E+04 -0.74914741461E+03 -0.12740316444E+04  0.21316245950E+04  0.88418860954E+02 0.  0.
         11    1    3    3    0    0 -0.59738698604E+03 -0.32528854318E+03 -0.46876725573E+03  0.82609114961E+03  0.00000000000E+00 0. -1.
        -11    1    3    3    0    0 -0.93611457546E+03 -0.42385887143E+03 -0.80526438870E+03  0.13055334454E+04  0.00000000000E+00 0.  1.
         22    1    1    2    0    0  0.15335015615E+04  0.74914741461E+03 -0.29780267338E+03  0.17324939596E+04  0.00000000000E+00 0. -1.
<mgrwt>
<rscale>  0 0.35299786E+04</rscale>
<asrwt>0</asrwt>
<pdfrwt beam="1">  1        1 0.41815022E+00 0.35299786E+04</pdfrwt>
<pdfrwt beam="2">  1       -1 0.17632956E+00 0.35299786E+04</pdfrwt>
<totfact> 0.17150993E-01</totfact>
</mgrwt>
</event>
<event>
 6    1  0.6091287E-004  0.1601317E+04  0.7818608E-02  0.8819739E-01
         -2   -1    0    0    0  501 -0.00000000000E+00  0.00000000000E+00  0.16842193956E+04  0.16842193956E+04  0.00000000000E+00 0. -1.
          2   -1    0    0  501    0  0.00000000000E+00 -0.00000000000E+00 -0.38062400404E+03  0.38062400404E+03  0.00000000000E+00 0.  1.
         23    2    1    2    0    0  0.23269693103E+03 -0.28661379900E+03 -0.25833462077E+03  0.45987589377E+03  0.91944167272E+02 0.  0.
         13    1    3    3    0    0  0.58472626386E+02 -0.14355186817E+03 -0.10759928946E+03  0.18868967641E+03  0.00000000000E+00 0. -1.
        -13    1    3    3    0    0  0.17422430464E+03 -0.14306193083E+03 -0.15073533131E+03  0.27118621736E+03  0.00000000000E+00 0.  1.
         22    1    1    2    0    0 -0.23269693103E+03  0.28661379900E+03  0.15619300123E+04  0.16049675059E+04  0.00000000000E+00 0. -1.
<mgrwt>
<rscale>  0 0.16013174E+04</rscale>
<asrwt>0</asrwt>
<pdfrwt beam="1">  1        2 0.58557540E-01 0.16013174E+04</pdfrwt>
<pdfrwt beam="2">  1       -2 0.25911067E+00 0.16013174E+04</pdfrwt>
<totfact> 0.45588792E+00</totfact>
</mgrwt>
</event>
<event>
 6    1  0.6091287E-004  0.4828234E+04  0.7818608E-02  0.7855564E-01
          2   -1    0    0  501    0  0.00000000000E+00  0.00000000000E+00  0.22514403845E+04  0.22514403845E+04  0.00000000000E+00 0.  1.
         -2   -1    0    0    0  501 -0.00000000000E+00 -0.00000000000E+00 -0.25885477197E+04  0.25885477197E+04  0.00000000000E+00 0. -1.
         23    2    1    2    0    0 -0.11913473380E+04  0.23589946027E+02 -0.22722916577E+04  0.25673677383E+04  0.90569093539E+02 0.  0.
         13    1    3    3    0    0 -0.11728189460E+04  0.15616954526E+02 -0.22495370091E+04  0.25369597798E+04  0.00000000000E+00 0. -1.
        -13    1    3    3    0    0 -0.18528392019E+02  0.79729915009E+01 -0.22754648680E+02  0.30407958511E+02  0.00000000000E+00 0.  1.
         22    1    1    2    0    0  0.11913473380E+04 -0.23589946027E+02  0.19351843225E+04  0.22726203659E+04  0.00000000000E+00 0.  1.
<mgrwt>
<rscale>  0 0.48282340E+04</rscale>
<asrwt>0</asrwt>
<pdfrwt beam="1">  1        2 0.34637545E+00 0.48282340E+04</pdfrwt>
<pdfrwt beam="2">  1       -2 0.39823811E+00 0.48282340E+04</pdfrwt>
<totfact> 0.27182955E-02</totfact>
</mgrwt>
</event>
<event>
 6    1  0.6091287E-004  0.7752189E+03  0.7818608E-02  0.9596596E-01
         -1   -1    0    0    0  501 -0.00000000000E+00  0.00000000000E+00  0.10180187728E+03  0.10180187728E+03  0.00000000000E+00 0. -1.
          1   -1    0    0  501    0  0.00000000000E+00 -0.00000000000E+00 -0.14758185395E+04  0.14758185395E+04  0.00000000000E+00 0.  1.
         23    2    1    2    0    0  0.29333595832E+03 -0.19258398469E+03 -0.10053284834E+04  0.10686355950E+04  0.90344339766E+02 0.  0.
         13    1    3    3    0    0  0.10458539241E+03 -0.67596612137E+02 -0.23800760380E+03  0.26861687539E+03  0.00000000000E+00 0. -1.
        -13    1    3    3    0    0  0.18875056591E+03 -0.12498737255E+03 -0.76732087959E+03  0.80001871959E+03  0.00000000000E+00 0.  1.
         22    1    1    2    0    0 -0.29333595832E+03  0.19258398469E+03 -0.36868817881E+03  0.50898482177E+03  0.00000000000E+00 0. -1.
<mgrwt>
<rscale>  0 0.77521893E+03</rscale>
<asrwt>0</asrwt>
<pdfrwt beam="1">  1        1 0.22704899E+00 0.77521893E+03</pdfrwt>
<pdfrwt beam="2">  1       -1 0.15661829E-01 0.77521893E+03</pdfrwt>
<totfact> 0.21186175E+02</totfact>
</mgrwt>
</event>
<event>
 6    1  0.6091287E-004  0.3420000E+04  0.7818608E-02  0.8133015E-01
         -2   -1    0    0    0  501 -0.00000000000E+00  0.00000000000E+00  0.12249162177E+04  0.12249162177E+04  0.00000000000E+00 0. -1.
          2   -1    0    0  501    0  0.00000000000E+00 -0.00000000000E+00 -0.23871838531E+04  0.23871838531E+04  0.00000000000E+00 0.  1.
         23    2    1    2    0    0  0.13839538714E+04  0.20240379476E+03 -0.16183418486E+04  0.21409442999E+04  0.91195075790E+02 0.  0.
         13    1    3    3    0    0  0.43982544512E+03  0.39257943755E+02 -0.56387920196E+03  0.71620343669E+03  0.00000000000E+00 0. -1.
        -13    1    3    3    0    0  0.94412842628E+03  0.16314585101E+03 -0.10544626466E+04  0.14247408632E+04  0.00000000000E+00 0.  1.
         22    1    1    2    0    0 -0.13839538714E+04 -0.20240379476E+03  0.45607421320E+03  0.14711557709E+04  0.00000000000E+00 0. -1.
<mgrwt>
<rscale>  0 0.34200001E+04</rscale>
<asrwt>0</asrwt>
<pdfrwt beam="1">  1        2 0.36725906E+00 0.34200001E+04</pdfrwt>
<pdfrwt beam="2">  1       -2 0.18844865E+00 0.34200001E+04</pdfrwt>
<totfact> 0.53092918E-01</totfact>
</mgrwt>
</event>
<event>
 6    1  0.6091287E-004  0.3023344E+04  0.7818608E-02  0.8237096E-01
         -2   -1    0    0    0  501 -0.00000000000E+00  0.00000000000E+00  0.18646643411E+04  0.18646643411E+04  0.00000000000E+00 0. -1.
          2   -1    0    0  501    0  0.00000000000E+00 -0.00000000000E+00 -0.12255032783E+04  0.12255032783E+04  0.00000000000E+00 0.  1.
         23    2    1    2    0    0  0.20862147146E+03 -0.40872413816E+03  0.17905699152E+04  0.18506835796E+04  0.91163320634E+02 0.  0.
         13    1    3    3    0    0  0.79459825188E+02 -0.11974928539E+03  0.72448836412E+03  0.73860486386E+03  0.00000000000E+00 0.  1.
        -13    1    3    3    0    0  0.12916164627E+03 -0.28897485277E+03  0.10660815511E+04  0.11120787157E+04  0.00000000000E+00 0. -1.
         22    1    1    2    0    0 -0.20862147146E+03  0.40872413816E+03 -0.11514088524E+04  0.12394840398E+04  0.00000000000E+00 0.  1.
<mgrwt>
<rscale>  0 0.30233440E+04</rscale>
<asrwt>0</asrwt>
<pdfrwt beam="1">  1        2 0.18853897E+00 0.30233440E+04</pdfrwt>
<pdfrwt beam="2">  1       -2 0.28687144E+00 0.30233440E+04</pdfrwt>
<totfact> 0.59743190E-01</totfact>
</mgrwt>
</event>
<event>
 6    1  0.6091287E-004  0.2372165E+04  0.7818608E-02  0.8449999E-01
          2   -1    0    0  501    0  0.00000000000E+00  0.00000000000E+00  0.42453421746E+04  0.42453421746E+04  0.00000000000E+00 0.  1.
         -2   -1    0    0    0  501 -0.00000000000E+00 -0.00000000000E+00 -0.33137297593E+03  0.33137297593E+03  0.00000000000E+00 0. -1.
         23    2    1    2    0    0 -0.78273885081E+03 -0.34471588440E+03  0.35404226815E+04  0.36434166184E+04  0.91557318073E+02 0.  0.
         11    1    3    3    0    0 -0.64198334376E+03 -0.25991244553E+03  0.29779553086E+04  0.30574360031E+04  0.00000000000E+00 0. -1.
        -11    1    3    3    0    0 -0.14075550705E+03 -0.84803438869E+02  0.56246737283E+03  0.58598061530E+03  0.00000000000E+00 0.  1.
         22    1    1    2    0    0  0.78273885081E+03  0.34471588440E+03  0.37354651723E+03  0.93329853212E+03  0.00000000000E+00 0. -1.
<mgrwt>
<rscale>  0 0.23721650E+04</rscale>
<asrwt>0</asrwt>
<pdfrwt beam="1">  1        2 0.65312953E+00 0.23721650E+04</pdfrwt>
<pdfrwt beam="2">  1       -2 0.50980461E-01 0.23721650E+04</pdfrwt>
<totfact> 0.70010849E-01</totfact>
</mgrwt>
</event>
<event>
 6    1  0.6091287E-004  0.2493495E+04  0.7818608E-02  0.8405307E-01
         -2   -1    0    0    0  501 -0.00000000000E+00  0.00000000000E+00  0.93839559159E+03  0.93839559159E+03  0.00000000000E+00 0. -1.
          2   -1    0    0  501    0  0.00000000000E+00 -0.00000000000E+00 -0.16564221479E+04  0.16564221479E+04  0.00000000000E+00 0.  1.
         23    2    1    2    0    0  0.83570596873E+03  0.44413083172E+03 -0.12014562819E+04  0.15321037792E+04  0.90488291993E+02 0.  0.
         13    1    3    3    0    0  0.29144072476E+03  0.14241594861E+03 -0.34635054151E+03  0.47452997384E+03  0.00000000000E+00 0. -1.
        -13    1    3    3    0    0  0.54426524397E+03  0.30171488311E+03 -0.85510574040E+03  0.10575738053E+04  0.00000000000E+00 0.  1.
         22    1    1    2    0    0 -0.83570596873E+03 -0.44413083172E+03  0.48342972560E+03  0.10627139603E+04  0.00000000000E+00 0. -1.
<mgrwt>
<rscale>  0 0.24934949E+04</rscale>
<asrwt>0</asrwt>
<pdfrwt beam="1">  1        2 0.25483418E+00 0.24934949E+04</pdfrwt>
<pdfrwt beam="2">  1       -2 0.14436855E+00 0.24934949E+04</pdfrwt>
<totfact> 0.30679537E+00</totfact>
</mgrwt>
</event>
<event>
 6    1  0.6091287E-004  0.2840276E+04  0.7818608E-02  0.8290872E-01
         -2   -1    0    0    0  501 -0.00000000000E+00  0.00000000000E+00  0.25979800845E+04  0.25979800845E+04  0.00000000000E+00 0. -1.
          2   -1    0    0  501    0  0.00000000000E+00 -0.00000000000E+00 -0.77629233935E+03  0.77629233935E+03  0.00000000000E+00 0.  1.
         23    2    1    2    0    0 -0.81975286151E+03  0.52044674383E+03 -0.31705038194E+03  0.10254300827E+04  0.90146229940E+02 0.  0.
         11    1    3    3    0    0 -0.48974828599E+03  0.25815875485E+03 -0.17683858447E+03  0.58118087657E+03  0.00000000000E+00 0.  1.
        -11    1    3    3    0    0 -0.33000457552E+03  0.26228798897E+03 -0.14021179748E+03  0.44424920616E+03  0.00000000000E+00 0. -1.
         22    1    1    2    0    0  0.81975286151E+03 -0.52044674383E+03  0.21387381271E+04  0.23488423411E+04  0.00000000000E+00 0. -1.
<mgrwt>
<rscale>  0 0.28402761E+04</rscale>
<asrwt>0</asrwt>
<pdfrwt beam="1">  1        2 0.11942959E+00 0.28402761E+04</pdfrwt>
<pdfrwt beam="2">  1       -2 0.39968924E+00 0.28402761E+04</pdfrwt>
<totfact> 0.23173058E-01</totfact>
</mgrwt>
</event>
<event>
 6    1  0.6091287E-004  0.2455404E+04  0.7818608E-02  0.8419047E-01
          2   -1    0    0  501    0  0.00000000000E+00  0.00000000000E+00  0.13408628518E+04  0.13408628518E+04  0.00000000000E+00 0.  1.
         -2   -1    0    0    0  501 -0.00000000000E+00 -0.00000000000E+00 -0.11240915208E+04  0.11240915208E+04  0.00000000000E+00 0. -1.
         23    2    1    2    0    0 -0.57811166886E+03 -0.99379970151E+03  0.53802943413E+03  0.12711965591E+04  0.67926957783E+02 0.  0.
         13    1    3    3    0    0 -0.17464383339E+03 -0.24644511923E+03  0.12721637172E+03  0.32774940209E+03  0.00000000000E+00 0. -1.
        -13    1    3    3    0    0 -0.40346783547E+03 -0.74735458228E+03  0.41081306242E+03  0.94344715706E+03  0.00000000000E+00 0.  1.
         22    1    1    2    0    0  0.57811166886E+03  0.99379970151E+03 -0.32125810318E+03  0.11937578135E+04  0.00000000000E+00 0. -1.
<mgrwt>
<rscale>  0 0.24554043E+04</rscale>
<asrwt>0</asrwt>
<pdfrwt beam="1">  1        2 0.20628659E+00 0.24554043E+04</pdfrwt>
<pdfrwt beam="2">  1       -2 0.17293716E+00 0.24554043E+04</pdfrwt>
<totfact> 0.28466563E+00</totfact>
</mgrwt>
</event>
<event>
 6    1  0.6091287E-004  0.2420757E+04  0.7818608E-02  0.8431773E-01
         -2   -1    0    0    0  501 -0.00000000000E+00  0.00000000000E+00  0.10161852779E+04  0.10161852779E+04  0.00000000000E+00 0. -1.
          2   -1    0    0  501    0  0.00000000000E+00 -0.00000000000E+00 -0.14416822556E+04  0.14416822556E+04  0.00000000000E+00 0.  1.
         23    2    1    2    0    0 -0.80757010881E+03 -0.44371148844E+02  0.69888673772E+03  0.10728126541E+04  0.91356658537E+02 0.  0.
         11    1    3    3    0    0 -0.52227297884E+03 -0.50230726109E+02  0.50177378203E+03  0.72599526073E+03  0.00000000000E+00 0. -1.
        -11    1    3    3    0    0 -0.28529712997E+03  0.58595772649E+01  0.19711295569E+03  0.34681739333E+03  0.00000000000E+00 0.  1.
         22    1    1    2    0    0  0.80757010881E+03  0.44371148844E+02 -0.11243837154E+04  0.13850548794E+04  0.00000000000E+00 0.  1.
<mgrwt>
<rscale>  0 0.24207571E+04</rscale>
<asrwt>0</asrwt>
<pdfrwt beam="1">  1        2 0.22179727E+00 0.24207571E+04</pdfrwt>
<pdfrwt beam="2">  1       -2 0.15633620E+00 0.24207571E+04</pdfrwt>
<totfact> 0.32991371E+00</totfact>
</mgrwt>
</event>
<event>
 6    1  0.6091287E-004  0.2001546E+04  0.7818608E-02  0.8605898E-01
          2   -1    0    0  501    0  0.00000000000E+00  0.00000000000E+00  0.14593738224E+04  0.14593738224E+04  0.00000000000E+00 0.  1.
         -2   -1    0    0    0  501 -0.00000000000E+00 -0.00000000000E+00 -0.68628482907E+03  0.68628482907E+03  0.00000000000E+00 0. -1.
         23    2    1    2    0    0  0.39604878638E+03  0.59270696763E+02 -0.59338111256E+03  0.72171756879E+03  0.91692135283E+02 0.  0.
         13    1    3    3    0    0  0.19021681075E+03  0.39611978500E+02 -0.36603795730E+03  0.41440961635E+03  0.00000000000E+00 0. -1.
        -13    1    3    3    0    0  0.20583197563E+03  0.19658718262E+02 -0.22734315525E+03  0.30730795244E+03  0.00000000000E+00 0.  1.
         22    1    1    2    0    0 -0.39604878638E+03 -0.59270696763E+02  0.13664701059E+04  0.14239410827E+04  0.00000000000E+00 0.  1.
<mgrwt>
<rscale>  0 0.20015455E+04</rscale>
<asrwt>0</asrwt>
<pdfrwt beam="1">  1        2 0.22451905E+00 0.20015455E+04</pdfrwt>
<pdfrwt beam="2">  1       -2 0.10558228E+00 0.20015455E+04</pdfrwt>
<totfact> 0.90204342E+00</totfact>
</mgrwt>
</event>
<event>
 6    1  0.6091287E-004  0.1246734E+04  0.7818608E-02  0.9072906E-01
          1   -1    0    0  501    0  0.00000000000E+00  0.00000000000E+00  0.56997578023E+03  0.56997578023E+03  0.00000000000E+00 0.  1.
         -1   -1    0    0    0  501 -0.00000000000E+00 -0.00000000000E+00 -0.68175922679E+03  0.68175922679E+03  0.00000000000E+00 0. -1.
         23    2    1    2    0    0 -0.25205085193E+03  0.20101059616E+03  0.47551833425E+03  0.58176614695E+03  0.91647541149E+02 0.  0.
         11    1    3    3    0    0 -0.22845281618E+03  0.15537900991E+03  0.34835025014E+03  0.44461356560E+03  0.00000000000E+00 0.  1.
        -11    1    3    3    0    0 -0.23598035753E+02  0.45631586253E+02  0.12716808411E+03  0.13715258135E+03  0.00000000000E+00 0. -1.
         22    1    1    2    0    0  0.25205085193E+03 -0.20101059616E+03 -0.58730178081E+03  0.66996886008E+03  0.00000000000E+00 0. -1.
<mgrwt>
<rscale>  0 0.12467337E+04</rscale>
<asrwt>0</asrwt>
<pdfrwt beam="1">  1        1 0.87688582E-01 0.12467337E+04</pdfrwt>
<pdfrwt beam="2">  1       -1 0.10488603E+00 0.12467337E+04</pdfrwt>
<totfact> 0.31059564E+01</totfact>
</mgrwt>
</event>
<event>
 6    1  0.6091287E-004  0.1084093E+04  0.7818608E-02  0.9220836E-01
          2   -1    0    0  501    0  0.00000000000E+00  0.00000000000E+00  0.63673197560E+03  0.63673197560E+03  0.00000000000E+00 0.  1.
         -2   -1    0    0    0  501 -0.00000000000E+00 -0.00000000000E+00 -0.46144107857E+03  0.46144107857E+03  0.00000000000E+00 0. -1.
         23    2    1    2    0    0 -0.29671502078E+03  0.17169693523E+02 -0.36655655968E+03  0.48016555560E+03  0.88660292171E+02 0.  0.
         11    1    3    3    0    0 -0.24532976898E+03  0.90763248185E+01 -0.23993505209E+03  0.34327526046E+03  0.00000000000E+00 0. -1.
        -11    1    3    3    0    0 -0.51385251799E+02  0.80933687046E+01 -0.12662150760E+03  0.13689029515E+03  0.00000000000E+00 0.  1.
         22    1    1    2    0    0  0.29671502078E+03 -0.17169693523E+02  0.54184745672E+03  0.61800749857E+03  0.00000000000E+00 0.  1.
<mgrwt>
<rscale>  0 0.10840928E+04</rscale>
<asrwt>0</asrwt>
<pdfrwt beam="1">  1        2 0.97958766E-01 0.10840928E+04</pdfrwt>
<pdfrwt beam="2">  1       -2 0.70990935E-01 0.10840928E+04</pdfrwt>
<totfact> 0.82677404E+01</totfact>
</mgrwt>
</event>
<event>
 6    1  0.6091287E-004  0.1489871E+04  0.7818608E-02  0.8891217E-01
         -2   -1    0    0    0  501 -0.00000000000E+00  0.00000000000E+00  0.29757877591E+04  0.29757877591E+04  0.00000000000E+00 0. -1.
          2   -1    0    0  501    0  0.00000000000E+00 -0.00000000000E+00 -0.18648139221E+03  0.18648139221E+03  0.00000000000E+00 0.  1.
         23    2    1    2    0    0  0.26522877831E+01  0.41945115454E+03  0.26991520986E+04  0.27332305775E+04  0.95817707900E+02 0.  0.
         13    1    3    3    0    0  0.17663553915E+02  0.18173247273E+03  0.89606434484E+03  0.91447799475E+03  0.00000000000E+00 0. -1.
        -13    1    3    3    0    0 -0.15011266132E+02  0.23771868180E+03  0.18030877537E+04  0.18187525828E+04  0.00000000000E+00 0.  1.
         22    1    1    2    0    0 -0.26522877831E+01 -0.41945115454E+03  0.90154268319E+02  0.42903857375E+03  0.00000000000E+00 0.  1.
<mgrwt>
<rscale>  0 0.14898712E+04</rscale>
<asrwt>0</asrwt>
<pdfrwt beam="1">  1        2 0.28689447E-01 0.14898712E+04</pdfrwt>
<pdfrwt beam="2">  1       -2 0.45781347E+00 0.14898712E+04</pdfrwt>
<totfact> 0.56317043E-01</totfact>
</mgrwt>
</event>
<event>
 6    1  0.6091287E-004  0.6841141E+04  0.7818608E-02  0.7594044E-01
          1   -1    0    0  501    0  0.00000000000E+00  0.00000000000E+00  0.38044001025E+04  0.38044001025E+04  0.00000000000E+00 0.  1.
         -1   -1    0    0    0  501 -0.00000000000E+00 -0.00000000000E+00 -0.30754655618E+04  0.30754655618E+04  0.00000000000E+00 0. -1.
         23    2    1    2    0    0 -0.11709999995E+04 -0.26310878164E+04 -0.14902303579E+04  0.32441323211E+04  0.98711198504E+02 0.  0.
         13    1    3    3    0    0 -0.20889099454E+03 -0.45785515452E+03 -0.30286130726E+03  0.58735999315E+03  0.00000000000E+00 0.  1.
        -13    1    3    3    0    0 -0.96210900500E+03 -0.21732326619E+04 -0.11873690506E+04  0.26567723279E+04  0.00000000000E+00 0. -1.
         22    1    1    2    0    0  0.11709999995E+04  0.26310878164E+04  0.22191648985E+04  0.36357333433E+04  0.00000000000E+00 0.  1.
<mgrwt>
<rscale>  0 0.68411407E+04</rscale>
<asrwt>0</asrwt>
<pdfrwt beam="1">  1        1 0.58529232E+00 0.68411407E+04</pdfrwt>
<pdfrwt beam="2">  1       -1 0.47314855E+00 0.68411407E+04</pdfrwt>
<totfact> 0.20020187E-04</totfact>
</mgrwt>
</event>
<event>
 6    1  0.6091287E-004  0.1770321E+04  0.7818608E-02  0.8722244E-01
         -2   -1    0    0    0  501 -0.00000000000E+00  0.00000000000E+00  0.10822400662E+04  0.10822400662E+04  0.00000000000E+00 0. -1.
          2   -1    0    0  501    0  0.00000000000E+00 -0.00000000000E+00 -0.72396950384E+03  0.72396950384E+03  0.00000000000E+00 0.  1.
         23    2    1    2    0    0 -0.77311960897E+03  0.13887280251E+03 -0.23135136025E+03  0.82404176530E+03  0.92313563634E+02 0.  0.
         11    1    3    3    0    0 -0.32633714949E+03  0.19556066884E+02 -0.70605546377E+02  0.33446003957E+03  0.00000000000E+00 0. -1.
        -11    1    3    3    0    0 -0.44678245947E+03  0.11931673563E+03 -0.16074581387E+03  0.48958172573E+03  0.00000000000E+00 0.  1.
         22    1    1    2    0    0  0.77311960897E+03 -0.13887280251E+03  0.58962192263E+03  0.98216780475E+03  0.00000000000E+00 0. -1.
<mgrwt>
<rscale>  0 0.17703207E+04</rscale>
<asrwt>0</asrwt>
<pdfrwt beam="1">  1        2 0.11137992E+00 0.17703207E+04</pdfrwt>
<pdfrwt beam="2">  1       -2 0.16649847E+00 0.17703207E+04</pdfrwt>
<totfact> 0.83818482E+00</totfact>
</mgrwt>
</event>
<event>
 6    1  0.6091287E-004  0.1529916E+04  0.7818608E-02  0.8864799E-01
         -2   -1    0    0    0  501 -0.00000000000E+00  0.00000000000E+00  0.19301449714E+03  0.19301449714E+03  0.00000000000E+00 0.  1.
          2   -1    0    0  501    0  0.00000000000E+00 -0.00000000000E+00 -0.30316923901E+04  0.30316923901E+04  0.00000000000E+00 0. -1.
         23    2    1    2    0    0 -0.33290665335E+03  0.67775290872E+03 -0.12049518003E+04  0.14249189022E+04  0.91154768170E+02 0.  0.
         11    1    3    3    0    0 -0.11986610027E+03  0.15874777888E+03 -0.29028414936E+03  0.35190002367E+03  0.00000000000E+00 0.  1.
        -11    1    3    3    0    0 -0.21304055308E+03  0.51900512984E+03 -0.91466765095E+03  0.10730188786E+04  0.00000000000E+00 0. -1.
         22    1    1    2    0    0  0.33290665335E+03 -0.67775290872E+03 -0.16337260927E+04  0.17997879850E+04  0.00000000000E+00 0. -1.
<mgrwt>
<rscale>  0 0.15299158E+04</rscale>
<asrwt>0</asrwt>
<pdfrwt beam="1">  1        2 0.46641418E+00 0.15299158E+04</pdfrwt>
<pdfrwt beam="2">  1       -2 0.29694540E-01 0.15299158E+04</pdfrwt>
<totfact> 0.16878309E+01</totfact>
</mgrwt>
</event>
<event>
 6    1  0.6091287E-004  0.1396019E+04  0.7818608E-02  0.8956705E-01
         -2   -1    0    0    0  501 -0.00000000000E+00  0.00000000000E+00  0.33986139708E+03  0.33986139708E+03  0.00000000000E+00 0. -1.
          2   -1    0    0  501    0  0.00000000000E+00 -0.00000000000E+00 -0.14335770861E+04  0.14335770861E+04  0.00000000000E+00 0.  1.
         23    2    1    2    0    0 -0.58755261193E+02 -0.56713285599E+03 -0.44390832029E+02  0.57921299671E+03  0.91789392193E+02 0.  0.
         11    1    3    3    0    0 -0.52121830894E+02 -0.24601982268E+03 -0.56709603641E+02  0.25779530165E+03  0.00000000000E+00 0. -1.
        -11    1    3    3    0    0 -0.66334302990E+01 -0.32111303331E+03  0.12318771613E+02  0.32141769506E+03  0.00000000000E+00 0.  1.
         22    1    1    2    0    0  0.58755261193E+02  0.56713285599E+03 -0.10493248570E+04  0.11942254865E+04  0.00000000000E+00 0.  1.
<mgrwt>
<rscale>  0 0.13960194E+04</rscale>
<asrwt>0</asrwt>
<pdfrwt beam="1">  1        2 0.22055032E+00 0.13960194E+04</pdfrwt>
<pdfrwt beam="2">  1       -2 0.52286369E-01 0.13960194E+04</pdfrwt>
<totfact> 0.46527686E+01</totfact>
</mgrwt>
</event>
<event>
 6    1  0.6091287E-004  0.3307090E+04  0.7818608E-02  0.8161094E-01
         -2   -1    0    0    0  501 -0.00000000000E+00  0.00000000000E+00  0.23366898387E+04  0.23366898387E+04  0.00000000000E+00 0. -1.
          2   -1    0    0  501    0  0.00000000000E+00 -0.00000000000E+00 -0.11701212869E+04  0.11701212869E+04  0.00000000000E+00 0.  1.
         23    2    1    2    0    0  0.12858533848E+04  0.11361309543E+03  0.16773734831E+04  0.21185573518E+04  0.91523705106E+02 0.  0.
         11    1    3    3    0    0  0.61416479265E+03  0.77811653899E+02  0.86828699190E+03  0.10663842395E+04  0.00000000000E+00 0.  1.
        -11    1    3    3    0    0  0.67168859212E+03  0.35801441529E+02  0.80908649119E+03  0.10521731123E+04  0.00000000000E+00 0. -1.
         22    1    1    2    0    0 -0.12858533848E+04 -0.11361309543E+03 -0.51080493127E+03  0.13882537738E+04  0.00000000000E+00 0.  1.
<mgrwt>
<rscale>  0 0.33070897E+04</rscale>
<asrwt>0</asrwt>
<pdfrwt beam="1">  1        2 0.18001866E+00 0.33070897E+04</pdfrwt>
<pdfrwt beam="2">  1       -2 0.35949074E+00 0.33070897E+04</pdfrwt>
<totfact> 0.22313319E-01</totfact>
</mgrwt>
</event>
<event>
 6    1  0.6091287E-004  0.1225585E+04  0.7818608E-02  0.9090753E-01
          2   -1    0    0  501    0  0.00000000000E+00  0.00000000000E+00  0.72397553195E+03  0.72397553195E+03  0.00000000000E+00 0.  1.
         -2   -1    0    0    0  501 -0.00000000000E+00 -0.00000000000E+00 -0.51868381463E+03  0.51868381463E+03  0.00000000000E+00 0. -1.
         23    2    1    2    0    0  0.18371145176E+03 -0.57093467222E+03  0.20860937133E+03  0.64288663607E+03  0.10034470379E+03 0.  0.
         11    1    3    3    0    0  0.95223034838E+02 -0.15391812276E+03  0.47145484338E+02  0.18703184641E+03  0.00000000000E+00 0.  1.
        -11    1    3    3    0    0  0.88488416921E+02 -0.41701654946E+03  0.16146388699E+03  0.45585478966E+03  0.00000000000E+00 0. -1.
         22    1    1    2    0    0 -0.18371145176E+03  0.57093467222E+03 -0.33176540090E+01  0.59977271052E+03  0.00000000000E+00 0. -1.
<mgrwt>
<rscale>  0 0.12255846E+04</rscale>
<asrwt>0</asrwt>
<pdfrwt beam="1">  1        2 0.11138085E+00 0.12255846E+04</pdfrwt>
<pdfrwt beam="2">  1       -2 0.79797510E-01 0.12255846E+04</pdfrwt>
<totfact> 0.53778360E+01</totfact>
</mgrwt>
</event>
<event>
 6    1  0.6091287E-004  0.4627610E+04  0.7818608E-02  0.7888669E-01
         -2   -1    0    0    0  501 -0.00000000000E+00  0.00000000000E+00  0.13609120741E+04  0.13609120741E+04  0.00000000000E+00 0. -1.
          2   -1    0    0  501    0  0.00000000000E+00 -0.00000000000E+00 -0.39339017631E+04  0.39339017631E+04  0.00000000000E+00 0.  1.
         23    2    1    2    0    0 -0.13337099866E+04  0.14616016594E+04  0.83294621510E+02  0.19825777229E+04  0.92815376247E+02 0.  0.
         11    1    3    3    0    0 -0.36810996212E+03  0.35679126428E+03  0.47402309924E+02  0.51483194293E+03  0.00000000000E+00 0.  1.
        -11    1    3    3    0    0 -0.96560002446E+03  0.11048103952E+04  0.35892311586E+02  0.14677457799E+04  0.00000000000E+00 0. -1.
         22    1    1    2    0    0  0.13337099866E+04 -0.14616016594E+04 -0.26562843105E+04  0.33122361144E+04  0.00000000000E+00 0.  1.
<mgrwt>
<rscale>  0 0.46276104E+04</rscale>
<asrwt>0</asrwt>
<pdfrwt beam="1">  1        2 0.60521566E+00 0.46276104E+04</pdfrwt>
<pdfrwt beam="2">  1       -2 0.20937109E+00 0.46276104E+04</pdfrwt>
<totfact> 0.33371415E-02</totfact>
</mgrwt>
</event>
<event>
 6    1  0.6091287E-004  0.2148683E+04  0.7818608E-02  0.8540096E-01
         -2   -1    0    0    0  501 -0.00000000000E+00  0.00000000000E+00  0.50222630771E+03  0.50222630771E+03  0.00000000000E+00 0. -1.
          2   -1    0    0  501    0  0.00000000000E+00 -0.00000000000E+00 -0.22981862966E+04  0.22981862966E+04  0.00000000000E+00 0.  1.
         23    2    1    2    0    0  0.81978062669E+03  0.22099658365E+02  0.83640134136E+00  0.82531616647E+03  0.92829975061E+02 0.  0.
         11    1    3    3    0    0  0.33020691863E+03 -0.34194443568E+02  0.15022595258E+02  0.33231242446E+03  0.00000000000E+00 0. -1.
        -11    1    3    3    0    0  0.48957370806E+03  0.56294101933E+02 -0.14186193917E+02  0.49300374201E+03  0.00000000000E+00 0.  1.
         22    1    1    2    0    0 -0.81978062669E+03 -0.22099658365E+02 -0.17967963902E+04  0.19750964378E+04  0.00000000000E+00 0.  1.
<mgrwt>
<rscale>  0 0.21486830E+04</rscale>
<asrwt>0</asrwt>
<pdfrwt beam="1">  1        2 0.35356711E+00 0.21486830E+04</pdfrwt>
<pdfrwt beam="2">  1       -2 0.77265587E-01 0.21486830E+04</pdfrwt>
<totfact> 0.62333769E+00</totfact>
</mgrwt>
</event>
<event>
 6    1  0.6091287E-004  0.3505109E+04  0.7818608E-02  0.8112580E-01
          2   -1    0    0  501    0  0.00000000000E+00  0.00000000000E+00  0.15562279387E+04  0.15562279387E+04  0.00000000000E+00 0.  1.
         -2   -1    0    0    0  501 -0.00000000000E+00 -0.00000000000E+00 -0.19736483288E+04  0.19736483288E+04  0.00000000000E+00 0. -1.
         23    2    1    2    0    0  0.13761125101E+04  0.21352017231E+03 -0.12784797822E+04  0.18925919974E+04  0.90096673532E+02 0.  0.
         11    1    3    3    0    0  0.92059048017E+03  0.10011319452E+03 -0.84114581907E+03  0.12510138979E+04  0.00000000000E+00 0. -1.
        -11    1    3    3    0    0  0.45552202990E+03  0.11340697779E+03 -0.43733396315E+03  0.64157809942E+03  0.00000000000E+00 0.  1.
         22    1    1    2    0    0 -0.13761125101E+04 -0.21352017231E+03  0.86105939213E+03  0.16372842701E+04  0.00000000000E+00 0.  1.
<mgrwt>
<rscale>  0 0.35051087E+04</rscale>
<asrwt>0</asrwt>
<pdfrwt beam="1">  1        2 0.23941969E+00 0.35051087E+04</pdfrwt>
<pdfrwt beam="2">  1       -2 0.30363820E+00 0.35051087E+04</pdfrwt>
<totfact> 0.29261830E-01</totfact>
</mgrwt>
</event>
<event>
 6    1  0.6091287E-004  0.8332371E+03  0.7818608E-02  0.9513116E-01
         -2   -1    0    0    0  501 -0.00000000000E+00  0.00000000000E+00  0.13343267096E+03  0.13343267096E+03  0.00000000000E+00 0. -1.
          2   -1    0    0  501    0  0.00000000000E+00 -0.00000000000E+00 -0.13008135764E+04  0.13008135764E+04  0.00000000000E+00 0.  1.
         23    2    1    2    0    0 -0.37147212459E+01 -0.39932385061E+03 -0.41937646792E+03  0.58631701955E+03  0.91747963173E+02 0.  0.
         11    1    3    3    0    0 -0.12950002782E+01 -0.47316951065E+02 -0.13849760727E+02  0.49319233124E+02  0.00000000000E+00 0. -1.
        -11    1    3    3    0    0 -0.24197209677E+01 -0.35200689955E+03 -0.40552670719E+03  0.53699778642E+03  0.00000000000E+00 0.  1.
         22    1    1    2    0    0  0.37147212459E+01  0.39932385061E+03 -0.74800443755E+03  0.84792922783E+03  0.00000000000E+00 0. -1.
<mgrwt>
<rscale>  0 0.83323713E+03</rscale>
<asrwt>0</asrwt>
<pdfrwt beam="1">  1        2 0.20012516E+00 0.83323713E+03</pdfrwt>
<pdfrwt beam="2">  1       -2 0.20528103E-01 0.83323713E+03</pdfrwt>
<totfact> 0.33846422E+02</totfact>
</mgrwt>
</event>
<event>
 6    1  0.6091287E-004  0.7994551E+03  0.7818608E-02  0.9560806E-01
         -2   -1    0    0    0  501 -0.00000000000E+00  0.00000000000E+00  0.81519717021E+02  0.81519717021E+02  0.00000000000E+00 0. -1.
          2   -1    0    0  501    0  0.00000000000E+00 -0.00000000000E+00 -0.19600424453E+04  0.19600424453E+04  0.00000000000E+00 0.  1.
         23    2    1    2    0    0  0.18373926624E+03 -0.28823415983E+03 -0.44895907476E+03  0.57170118647E+03  0.91863741230E+02 0.  0.
         11    1    3    3    0    0  0.17980311685E+03 -0.24002765867E+03 -0.34558244596E+03  0.45756930045E+03  0.00000000000E+00 0. -1.
        -11    1    3    3    0    0  0.39361493942E+01 -0.48206501161E+02 -0.10337662880E+03  0.11413188602E+03  0.00000000000E+00 0.  1.
         22    1    1    2    0    0 -0.18373926624E+03  0.28823415983E+03 -0.14295636535E+04  0.14698609758E+04  0.00000000000E+00 0.  1.
<mgrwt>
<rscale>  0 0.79945508E+03</rscale>
<asrwt>0</asrwt>
<pdfrwt beam="1">  1        2 0.30154497E+00 0.79945508E+03</pdfrwt>
<pdfrwt beam="2">  1       -2 0.12541496E-01 0.79945508E+03</pdfrwt>
<totfact> 0.33890703E+02</totfact>
</mgrwt>
</event>
<event>
 6    1  0.6091287E-004  0.3522557E+04  0.7818608E-02  0.8108465E-01
         -2   -1    0    0    0  501 -0.00000000000E+00  0.00000000000E+00  0.15992557641E+04  0.15992557641E+04  0.00000000000E+00 0. -1.
          2   -1    0    0  501    0  0.00000000000E+00 -0.00000000000E+00 -0.19397155890E+04  0.19397155890E+04  0.00000000000E+00 0.  1.
         23    2    1    2    0    0 -0.56089950342E+02  0.82575397057E+03  0.13902737997E+04  0.16205202638E+04  0.90603448548E+02 0.  0.
         11    1    3    3    0    0 -0.73603941755E+02  0.55155980542E+03  0.88574742050E+03  0.10460326248E+04  0.00000000000E+00 0.  1.
        -11    1    3    3    0    0  0.17513991413E+02  0.27419416515E+03  0.50452637918E+03  0.57448763902E+03  0.00000000000E+00 0. -1.
         22    1    1    2    0    0  0.56089950342E+02 -0.82575397057E+03 -0.17307336247E+04  0.19184510893E+04  0.00000000000E+00 0.  1.
<mgrwt>
<rscale>  0 0.35225566E+04</rscale>
<asrwt>0</asrwt>
<pdfrwt beam="1">  1        2 0.29841778E+00 0.35225566E+04</pdfrwt>
<pdfrwt beam="2">  1       -2 0.24603935E+00 0.35225566E+04</pdfrwt>
<totfact> 0.40242546E-01</totfact>
</mgrwt>
</event>
<event>
 6    1  0.6091287E-004  0.3897958E+04  0.7818608E-02  0.8025454E-01
         -2   -1    0    0    0  501 -0.00000000000E+00  0.00000000000E+00  0.12107843045E+04  0.12107843045E+04  0.00000000000E+00 0. -1.
          2   -1    0    0  501    0  0.00000000000E+00 -0.00000000000E+00 -0.31372382683E+04  0.31372382683E+04  0.00000000000E+00 0.  1.
         23    2    1    2    0    0  0.11761654051E+04  0.89101534206E+03  0.45472031502E+03  0.15467256685E+04  0.91193907969E+02 0.  0.
         11    1    3    3    0    0  0.90239045263E+03  0.73048064729E+03  0.35502344739E+03  0.12140643118E+04  0.00000000000E+00 0. -1.
        -11    1    3    3    0    0  0.27377495246E+03  0.16053469477E+03  0.99696867622E+02  0.33266135669E+03  0.00000000000E+00 0.  1.
         22    1    1    2    0    0 -0.11761654051E+04 -0.89101534206E+03 -0.23811742788E+04  0.28012969043E+04  0.00000000000E+00 0.  1.
<mgrwt>
<rscale>  0 0.38979579E+04</rscale>
<asrwt>0</asrwt>
<pdfrwt beam="1">  1        2 0.48265204E+00 0.38979579E+04</pdfrwt>
<pdfrwt beam="2">  1       -2 0.18627451E+00 0.38979579E+04</pdfrwt>
<totfact> 0.18589513E-01</totfact>
</mgrwt>
</event>
<event>
 6    1  0.6091287E-004  0.1683113E+04  0.7818608E-02  0.8771054E-01
         -2   -1    0    0    0  501 -0.00000000000E+00  0.00000000000E+00  0.83988565544E+03  0.83988565544E+03  0.00000000000E+00 0. -1.
          2   -1    0    0  501    0  0.00000000000E+00 -0.00000000000E+00 -0.84323106862E+03  0.84323106862E+03  0.00000000000E+00 0.  1.
         23    2    1    2    0    0  0.19186611143E+03 -0.70206661736E+03 -0.41946209647E+03  0.84474733410E+03  0.89103693355E+02 0.  0.
         11    1    3    3    0    0  0.14926766066E+03 -0.60788310349E+03 -0.32774450754E+03  0.70655443120E+03  0.00000000000E+00 0.  1.
        -11    1    3    3    0    0  0.42598450766E+02 -0.94183513867E+02 -0.91717588926E+02  0.13819290289E+03  0.00000000000E+00 0. -1.
         22    1    1    2    0    0 -0.19186611143E+03  0.70206661736E+03  0.41611668328E+03  0.83836938996E+03  0.00000000000E+00 0. -1.
<mgrwt>
<rscale>  0 0.16831134E+04</rscale>
<asrwt>0</asrwt>
<pdfrwt beam="1">  1        2 0.12972786E+00 0.16831134E+04</pdfrwt>
<pdfrwt beam="2">  1       -2 0.12921318E+00 0.16831134E+04</pdfrwt>
<totfact> 0.13481737E+01</totfact>
</mgrwt>
</event>
<event>
 6    1  0.6091287E-004  0.2493927E+04  0.7818608E-02  0.8405152E-01
          2   -1    0    0  501    0  0.00000000000E+00  0.00000000000E+00  0.99384208953E+03  0.99384208953E+03  0.00000000000E+00 0. -1.
         -2   -1    0    0    0  501 -0.00000000000E+00 -0.00000000000E+00 -0.15645518989E+04  0.15645518989E+04  0.00000000000E+00 0.  1.
         23    2    1    2    0    0  0.78491950728E+03 -0.44582877630E+03 -0.11656499690E+04  0.14772761761E+04  0.93504649500E+02 0.  0.
         11    1    3    3    0    0  0.19702877178E+02 -0.27619587432E+02 -0.62101200888E+02  0.70764427015E+02  0.00000000000E+00 0.  1.
        -11    1    3    3    0    0  0.76521663010E+03 -0.41820918887E+03 -0.11035487681E+04  0.14065117491E+04  0.00000000000E+00 0. -1.
         22    1    1    2    0    0 -0.78491950728E+03  0.44582877630E+03  0.59494015963E+03  0.10811178124E+04  0.00000000000E+00 0. -1.
<mgrwt>
<rscale>  0 0.24939266E+04</rscale>
<asrwt>0</asrwt>
<pdfrwt beam="1">  1        2 0.15289878E+00 0.24939266E+04</pdfrwt>
<pdfrwt beam="2">  1       -2 0.24070029E+00 0.24939266E+04</pdfrwt>
<totfact> 0.16632933E+00</totfact>
</mgrwt>
</event>
<event>
 6    1  0.6091287E-004  0.3742470E+04  0.7818608E-02  0.8058615E-01
         -1   -1    0    0    0  501 -0.00000000000E+00  0.00000000000E+00  0.19995584490E+04  0.19995584490E+04  0.00000000000E+00 0.  1.
          1   -1    0    0  501    0  0.00000000000E+00 -0.00000000000E+00 -0.17511466220E+04  0.17511466220E+04  0.00000000000E+00 0. -1.
         23    2    1    2    0    0 -0.14748209957E+04  0.77130735206E+03  0.97892007704E+03  0.19331093228E+04  0.92817757297E+02 0.  0.
         11    1    3    3    0    0 -0.10040689264E+03  0.62835850078E+02  0.45114106942E+02  0.12674845478E+03  0.00000000000E+00 0. -1.
        -11    1    3    3    0    0 -0.13744141030E+04  0.70847150198E+03  0.93380597010E+03  0.18063608680E+04  0.00000000000E+00 0.  1.
         22    1    1    2    0    0  0.14748209957E+04 -0.77130735206E+03 -0.73050824998E+03  0.18175957482E+04  0.00000000000E+00 0. -1.
<mgrwt>
<rscale>  0 0.37424698E+04</rscale>
<asrwt>0</asrwt>
<pdfrwt beam="1">  1        1 0.26940717E+00 0.37424698E+04</pdfrwt>
<pdfrwt beam="2">  1       -1 0.30762438E+00 0.37424698E+04</pdfrwt>
<totfact> 0.10360066E-01</totfact>
</mgrwt>
</event>
<event>
 6    1  0.6091287E-004  0.5202905E+03  0.7818608E-02  0.1008614E+00
          2   -1    0    0  501    0  0.00000000000E+00  0.00000000000E+00  0.76864932096E+03  0.76864932096E+03  0.00000000000E+00 0.  1.
         -2   -1    0    0    0  501 -0.00000000000E+00 -0.00000000000E+00 -0.88044764628E+02  0.88044764628E+02  0.00000000000E+00 0. -1.
         23    2    1    2    0    0 -0.70861385754E+02 -0.24206124375E+03  0.34506996991E+03  0.43693410607E+03  0.90681570324E+02 0.  0.
         11    1    3    3    0    0  0.54516989667E+01 -0.10701558628E+03  0.98018522385E+02  0.14522288890E+03  0.00000000000E+00 0. -1.
        -11    1    3    3    0    0 -0.76313084721E+02 -0.13504565747E+03  0.24705144753E+03  0.29171121717E+03  0.00000000000E+00 0.  1.
         22    1    1    2    0    0  0.70861385754E+02  0.24206124375E+03  0.33553458642E+03  0.41975997952E+03  0.00000000000E+00 0. -1.
<mgrwt>
<rscale>  0 0.52029049E+03</rscale>
<asrwt>0</asrwt>
<pdfrwt beam="1">  1        2 0.11825374E+00 0.52029049E+03</pdfrwt>
<pdfrwt beam="2">  1       -2 0.13545349E-01 0.52029049E+03</pdfrwt>
<totfact> 0.15151285E+03</totfact>
</mgrwt>
</event>
<event>
 6    1  0.6091287E-004  0.3465879E+04  0.7818608E-02  0.8121924E-01
         -2   -1    0    0    0  501 -0.00000000000E+00  0.00000000000E+00  0.12826078882E+04  0.12826078882E+04  0.00000000000E+00 0. -1.
          2   -1    0    0  501    0  0.00000000000E+00 -0.00000000000E+00 -0.23413853634E+04  0.23413853634E+04  0.00000000000E+00 0.  1.
         23    2    1    2    0    0 -0.11678684917E+04 -0.84006874515E+03 -0.15377584467E+04  0.21077297252E+04  0.90505488929E+02 0.  0.
         11    1    3    3    0    0 -0.73192698368E+03 -0.47242313021E+03 -0.93762474408E+03  0.12798597127E+04  0.00000000000E+00 0. -1.
        -11    1    3    3    0    0 -0.43594150806E+03 -0.36764561494E+03 -0.60013370262E+03  0.82787001253E+03  0.00000000000E+00 0.  1.
         22    1    1    2    0    0  0.11678684917E+04  0.84006874515E+03  0.47898097144E+03  0.15162635264E+04  0.00000000000E+00 0. -1.
<mgrwt>
<rscale>  0 0.34658790E+04</rscale>
<asrwt>0</asrwt>
<pdfrwt beam="1">  1        2 0.36021313E+00 0.34658790E+04</pdfrwt>
<pdfrwt beam="2">  1       -2 0.19732429E+00 0.34658790E+04</pdfrwt>
<totfact> 0.49012762E-01</totfact>
</mgrwt>
</event>
<event>
 6    1  0.6091287E-004  0.2377134E+04  0.7818608E-02  0.8448114E-01
         -2   -1    0    0    0  501 -0.00000000000E+00  0.00000000000E+00  0.69935558068E+03  0.69935558068E+03  0.00000000000E+00 0. -1.
          2   -1    0    0  501    0  0.00000000000E+00 -0.00000000000E+00 -0.20199898214E+04  0.20199898214E+04  0.00000000000E+00 0.  1.
         23    2    1    2    0    0  0.40289002816E+03 -0.10682121927E+04 -0.29043758541E+03  0.11815863793E+04  0.91622690334E+02 0.  0.
         11    1    3    3    0    0  0.13609444291E+03 -0.25505584144E+03 -0.59230636038E+02  0.29509904759E+03  0.00000000000E+00 0.  1.
        -11    1    3    3    0    0  0.26679558525E+03 -0.81315635126E+03 -0.23120694938E+03  0.88648733174E+03  0.00000000000E+00 0. -1.
         22    1    1    2    0    0 -0.40289002816E+03  0.10682121927E+04 -0.10301966553E+04  0.15377590228E+04  0.00000000000E+00 0.  1.
<mgrwt>
<rscale>  0 0.23771337E+04</rscale>
<asrwt>0</asrwt>
<pdfrwt beam="1">  1        2 0.31076766E+00 0.23771337E+04</pdfrwt>
<pdfrwt beam="2">  1       -2 0.10759317E+00 0.23771337E+04</pdfrwt>
<totfact> 0.40663603E+00</totfact>
</mgrwt>
</event>
<event>
 6    1  0.6091287E-004  0.2139810E+04  0.7818608E-02  0.8543907E-01
         -2   -1    0    0    0  501 -0.00000000000E+00  0.00000000000E+00  0.64995864523E+03  0.64995864523E+03  0.00000000000E+00 0. -1.
          2   -1    0    0  501    0  0.00000000000E+00 -0.00000000000E+00 -0.17611832574E+04  0.17611832574E+04  0.00000000000E+00 0.  1.
         23    2    1    2    0    0  0.52539524898E+03  0.39448927052E+03 -0.15053493984E+04  0.16449850654E+04  0.90758482446E+02 0.  0.
         11    1    3    3    0    0  0.25654192310E+03  0.24394531605E+03 -0.75727596505E+03  0.83593657820E+03  0.00000000000E+00 0. -1.
        -11    1    3    3    0    0  0.26885332588E+03  0.15054395448E+03 -0.74807343330E+03  0.80904848722E+03  0.00000000000E+00 0.  1.
         22    1    1    2    0    0 -0.52539524898E+03 -0.39448927052E+03  0.39412478614E+03  0.76615683725E+03  0.00000000000E+00 0. -1.
<mgrwt>
<rscale>  0 0.21398096E+04</rscale>
<asrwt>0</asrwt>
<pdfrwt beam="1">  1        2 0.27095127E+00 0.21398096E+04</pdfrwt>
<pdfrwt beam="2">  1       -2 0.99993640E-01 0.21398096E+04</pdfrwt>
<totfact> 0.68814534E+00</totfact>
</mgrwt>
</event>
<event>
 6    1  0.6091287E-004  0.7995534E+03  0.7818608E-02  0.9560664E-01
          2   -1    0    0  501    0  0.00000000000E+00  0.00000000000E+00  0.17566685216E+03  0.17566685216E+03  0.00000000000E+00 0. -1.
         -2   -1    0    0    0  501 -0.00000000000E+00 -0.00000000000E+00 -0.90979825914E+03  0.90979825914E+03  0.00000000000E+00 0.  1.
         23    2    1    2    0    0 -0.22898125505E+02 -0.70747007318E+02 -0.89812471968E+03  0.90540048456E+03  0.87135309392E+02 0.  0.
         11    1    3    3    0    0  0.23363889171E+02 -0.63501139053E+02 -0.54540480274E+03  0.54958590305E+03  0.00000000000E+00 0.  1.
        -11    1    3    3    0    0 -0.46262014677E+02 -0.72458682645E+01 -0.35271991694E+03  0.35581458151E+03  0.00000000000E+00 0. -1.
         22    1    1    2    0    0  0.22898125505E+02  0.70747007318E+02  0.16399331270E+03  0.18006462675E+03  0.00000000000E+00 0. -1.
<mgrwt>
<rscale>  0 0.79955337E+03</rscale>
<asrwt>0</asrwt>
<pdfrwt beam="1">  1        2 0.27025669E-01 0.79955337E+03</pdfrwt>
<pdfrwt beam="2">  1       -2 0.13996896E+00 0.79955337E+03</pdfrwt>
<totfact> 0.72589517E+01</totfact>
</mgrwt>
</event>
<event>
 6    1  0.6091287E-004  0.1508686E+04  0.7818608E-02  0.8878697E-01
          2   -1    0    0  501    0  0.00000000000E+00  0.00000000000E+00  0.42996854291E+03  0.42996854291E+03  0.00000000000E+00 0.  1.
         -2   -1    0    0    0  501 -0.00000000000E+00 -0.00000000000E+00 -0.13234300022E+04  0.13234300022E+04  0.00000000000E+00 0. -1.
         23    2    1    2    0    0  0.55789254984E+03 -0.49492950464E+03 -0.34005105660E+03  0.82471001524E+03  0.91173331672E+02 0.  0.
         13    1    3    3    0    0  0.14676429090E+03 -0.10132516840E+03 -0.11754598725E+03  0.21359683039E+03  0.00000000000E+00 0. -1.
        -13    1    3    3    0    0  0.41112825894E+03 -0.39360433624E+03 -0.22250506934E+03  0.61111318484E+03  0.00000000000E+00 0.  1.
         22    1    1    2    0    0 -0.55789254984E+03  0.49492950464E+03 -0.55341040274E+03  0.92868852991E+03  0.00000000000E+00 0. -1.
<mgrwt>
<rscale>  0 0.15086859E+04</rscale>
<asrwt>0</asrwt>
<pdfrwt beam="1">  1        2 0.66149008E-01 0.15086859E+04</pdfrwt>
<pdfrwt beam="2">  1       -2 0.20360461E+00 0.15086859E+04</pdfrwt>
<totfact> 0.89021905E+00</totfact>
</mgrwt>
</event>
<event>
 6    1  0.6091287E-004  0.2951041E+04  0.7818608E-02  0.8257851E-01
          2   -1    0    0  501    0  0.00000000000E+00  0.00000000000E+00  0.20557499183E+04  0.20557499183E+04  0.00000000000E+00 0.  1.
         -2   -1    0    0    0  501 -0.00000000000E+00 -0.00000000000E+00 -0.10590593995E+04  0.10590593995E+04  0.00000000000E+00 0. -1.
         23    2    1    2    0    0  0.94359718982E+03 -0.71991525176E+03  0.14215549425E+04  0.18541890717E+04  0.92439346087E+02 0.  0.
         13    1    3    3    0    0  0.60959544420E+03 -0.51556715111E+03  0.92774543150E+03  0.12239802607E+04  0.00000000000E+00 0. -1.
        -13    1    3    3    0    0  0.33400174562E+03 -0.20434810065E+03  0.49380951097E+03  0.63020881098E+03  0.00000000000E+00 0.  1.
         22    1    1    2    0    0 -0.94359718982E+03  0.71991525176E+03 -0.42486442366E+03  0.12606202461E+04  0.00000000000E+00 0. -1.
<mgrwt>
<rscale>  0 0.29510414E+04</rscale>
<asrwt>0</asrwt>
<pdfrwt beam="1">  1        2 0.31626922E+00 0.29510414E+04</pdfrwt>
<pdfrwt beam="2">  1       -2 0.16293222E+00 0.29510414E+04</pdfrwt>
<totfact> 0.12814017E+00</totfact>
</mgrwt>
</event>
<event>
 6    1  0.6091287E-004  0.3148913E+04  0.7818608E-02  0.8202441E-01
         -2   -1    0    0    0  501 -0.00000000000E+00  0.00000000000E+00  0.10750410682E+04  0.10750410682E+04  0.00000000000E+00 0. -1.
          2   -1    0    0  501    0  0.00000000000E+00 -0.00000000000E+00 -0.23058782752E+04  0.23058782752E+04  0.00000000000E+00 0.  1.
         23    2    1    2    0    0 -0.12376093516E+04  0.26575342996E+03 -0.16187909575E+04  0.20569820695E+04  0.91592998453E+02 0.  0.
         13    1    3    3    0    0 -0.49781936547E+03  0.62785152056E+02 -0.62066835111E+03  0.79811985192E+03  0.00000000000E+00 0. -1.
        -13    1    3    3    0    0 -0.73978998615E+03  0.20296827790E+03 -0.99812260644E+03  0.12588622176E+04  0.00000000000E+00 0.  1.
         22    1    1    2    0    0  0.12376093516E+04 -0.26575342996E+03  0.38795375055E+03  0.13239372739E+04  0.00000000000E+00 0. -1.
<mgrwt>
<rscale>  0 0.31489134E+04</rscale>
<asrwt>0</asrwt>
<pdfrwt beam="1">  1        2 0.35475051E+00 0.31489134E+04</pdfrwt>
<pdfrwt beam="2">  1       -2 0.16539093E+00 0.31489134E+04</pdfrwt>
<totfact> 0.87498078E-01</totfact>
</mgrwt>
</event>
<event>
 6    1  0.6091287E-004  0.1305682E+04  0.7818608E-02  0.9025071E-01
         -3   -1    0    0    0  501 -0.00000000000E+00  0.00000000000E+00  0.17595768165E+04  0.17595768165E+04  0.00000000000E+00 0. -1.
          3   -1    0    0  501    0  0.00000000000E+00 -0.00000000000E+00 -0.24221828298E+03  0.24221828298E+03  0.00000000000E+00 0.  1.
         23    2    1    2    0    0 -0.27671238779E+03 -0.23068396136E+03 -0.69579185124E+02  0.37447946986E+03  0.74891753604E+02 0.  0.
         13    1    3    3    0    0 -0.17900370959E+03 -0.16178046008E+03 -0.11482878601E+02  0.24155144754E+03  0.00000000000E+00 0. -1.
        -13    1    3    3    0    0 -0.97708678206E+02 -0.68903501277E+02 -0.58096306523E+02  0.13292802231E+03  0.00000000000E+00 0.  1.
         22    1    1    2    0    0  0.27671238779E+03  0.23068396136E+03  0.15869377186E+04  0.16273156296E+04  0.00000000000E+00 0. -1.
<mgrwt>
<rscale>  0 0.13056825E+04</rscale>
<asrwt>0</asrwt>
<pdfrwt beam="1">  1        3 0.37264352E-01 0.13056825E+04</pdfrwt>
<pdfrwt beam="2">  1       -3 0.27070412E+00 0.13056825E+04</pdfrwt>
<totfact> 0.10251203E+00</totfact>
</mgrwt>
</event>
<event>
 6    1  0.6091287E-004  0.8670473E+03  0.7818608E-02  0.9467738E-01
         -2   -1    0    0    0  501 -0.00000000000E+00  0.00000000000E+00  0.37632745405E+03  0.37632745405E+03  0.00000000000E+00 0. -1.
          2   -1    0    0  501    0  0.00000000000E+00 -0.00000000000E+00 -0.49941279949E+03  0.49941279949E+03  0.00000000000E+00 0.  1.
         23    2    1    2    0    0  0.14813089971E+03 -0.19093772617E+02 -0.46827171896E+03  0.49962728106E+03  0.89675423628E+02 0.  0.
         11    1    3    3    0    0  0.24486437190E+02 -0.37748799588E+02 -0.17738705876E+03  0.18300471604E+03  0.00000000000E+00 0.  1.
        -11    1    3    3    0    0  0.12364446252E+03  0.18655026971E+02 -0.29088466019E+03  0.31662256502E+03  0.00000000000E+00 0. -1.
         22    1    1    2    0    0 -0.14813089971E+03  0.19093772617E+02  0.34518637352E+03  0.37611297248E+03  0.00000000000E+00 0. -1.
<mgrwt>
<rscale>  0 0.86704728E+03</rscale>
<asrwt>0</asrwt>
<pdfrwt beam="1">  1        2 0.76832738E-01 0.86704728E+03</pdfrwt>
<pdfrwt beam="2">  1       -2 0.57896532E-01 0.86704728E+03</pdfrwt>
<totfact> 0.17308836E+02</totfact>
</mgrwt>
</event>
<event>
 6    1  0.6091287E-004  0.1288482E+04  0.7818608E-02  0.9038749E-01
         -4   -1    0    0    0  501 -0.00000000000E+00  0.00000000000E+00  0.89928157721E+03  0.89928157721E+03  0.00000000000E+00 0. -1.
          4   -1    0    0  501    0  0.00000000000E+00 -0.00000000000E+00 -0.46153141517E+03  0.46153141517E+03  0.00000000000E+00 0.  1.
         23    2    1    2    0    0  0.36126426923E+03 -0.52109464841E+03  0.31928240897E+03  0.71576561943E+03  0.91256015973E+02 0.  0.
         11    1    3    3    0    0  0.12142532222E+02 -0.54624125885E+02  0.44888351344E+02  0.71737021850E+02  0.00000000000E+00 0. -1.
        -11    1    3    3    0    0  0.34912173701E+03 -0.46647052253E+03  0.27439405763E+03  0.64402859758E+03  0.00000000000E+00 0.  1.
         22    1    1    2    0    0 -0.36126426923E+03  0.52109464841E+03  0.11846775307E+03  0.64504737295E+03  0.00000000000E+00 0.  1.
<mgrwt>
<rscale>  0 0.12884824E+04</rscale>
<asrwt>0</asrwt>
<pdfrwt beam="1">  1        4 0.71004833E-01 0.12884824E+04</pdfrwt>
<pdfrwt beam="2">  1       -4 0.13835101E+00 0.12884824E+04</pdfrwt>
<totfact> 0.13094298E+00</totfact>
</mgrwt>
</event>
<event>
 6    1  0.6091287E-004  0.4478117E+04  0.7818608E-02  0.7914479E-01
          2   -1    0    0  501    0  0.00000000000E+00  0.00000000000E+00  0.32939013819E+04  0.32939013819E+04  0.00000000000E+00 0.  1.
         -2   -1    0    0    0  501 -0.00000000000E+00 -0.00000000000E+00 -0.15220194713E+04  0.15220194713E+04  0.00000000000E+00 0. -1.
         23    2    1    2    0    0  0.20920808452E+03 -0.72212853197E+03 -0.13806708012E+04  0.15749601562E+04  0.94920982732E+02 0.  0.
         11    1    3    3    0    0  0.13732330803E+03 -0.52806282548E+03 -0.10792319930E+04  0.12093178793E+04  0.00000000000E+00 0. -1.
        -11    1    3    3    0    0  0.71884776492E+02 -0.19406570649E+03 -0.30143880826E+03  0.36564227689E+03  0.00000000000E+00 0.  1.
         22    1    1    2    0    0 -0.20920808452E+03  0.72212853197E+03  0.31525527117E+04  0.32409606970E+04  0.00000000000E+00 0.  1.
<mgrwt>
<rscale>  0 0.44781166E+04</rscale>
<asrwt>0</asrwt>
<pdfrwt beam="1">  1        2 0.50675406E+00 0.44781166E+04</pdfrwt>
<pdfrwt beam="2">  1       -2 0.23415684E+00 0.44781166E+04</pdfrwt>
<totfact> 0.68646006E-02</totfact>
</mgrwt>
</event>
<event>
 6    1  0.6091287E-004  0.1590960E+04  0.7818608E-02  0.8826121E-01
          2   -1    0    0  501    0  0.00000000000E+00  0.00000000000E+00  0.20457751610E+04  0.20457751610E+04  0.00000000000E+00 0.  1.
         -2   -1    0    0    0  501 -0.00000000000E+00 -0.00000000000E+00 -0.30931475244E+03  0.30931475244E+03  0.00000000000E+00 0. -1.
         23    2    1    2    0    0 -0.55757648196E+03 -0.66971563168E+02  0.41379917549E+02  0.56940388434E+03  0.84449762704E+02 0.  0.
         11    1    3    3    0    0 -0.41611614558E+03 -0.14794296355E+02  0.43221697934E+02  0.41861633149E+03  0.00000000000E+00 0.  1.
        -11    1    3    3    0    0 -0.14146033638E+03 -0.52177266813E+02 -0.18417803847E+01  0.15078755285E+03  0.00000000000E+00 0. -1.
         22    1    1    2    0    0  0.55757648196E+03  0.66971563168E+02  0.16950804910E+04  0.17856860291E+04  0.00000000000E+00 0.  1.
<mgrwt>
<rscale>  0 0.15909600E+04</rscale>
<asrwt>0</asrwt>
<pdfrwt beam="1">  1        2 0.31473463E+00 0.15909600E+04</pdfrwt>
<pdfrwt beam="2">  1       -2 0.47586886E-01 0.15909600E+04</pdfrwt>
<totfact> 0.25307778E+01</totfact>
</mgrwt>
</event>
<event>
 6    1  0.6091287E-004  0.1413054E+04  0.7818608E-02  0.8944423E-01
         -2   -1    0    0    0  501 -0.00000000000E+00  0.00000000000E+00  0.17651007490E+03  0.17651007490E+03  0.00000000000E+00 0. -1.
          2   -1    0    0  501    0  0.00000000000E+00 -0.00000000000E+00 -0.28280550500E+04  0.28280550500E+04  0.00000000000E+00 0.  1.
         23    2    1    2    0    0 -0.66894510405E+03  0.29211166811E+02 -0.17840645609E+04  0.19087261251E+04  0.10958201765E+03 0.  0.
         13    1    3    3    0    0 -0.15514071228E+03  0.20167351971E+02 -0.55318143973E+03  0.57487830708E+03  0.00000000000E+00 0. -1.
        -13    1    3    3    0    0 -0.51380439177E+03  0.90438148398E+01 -0.12308831212E+04  0.13338478180E+04  0.00000000000E+00 0.  1.
         22    1    1    2    0    0  0.66894510405E+03 -0.29211166811E+02 -0.86748041411E+03  0.10958389997E+04  0.00000000000E+00 0. -1.
<mgrwt>
<rscale>  0 0.14130537E+04</rscale>
<asrwt>0</asrwt>
<pdfrwt beam="1">  1        2 0.43508535E+00 0.14130537E+04</pdfrwt>
<pdfrwt beam="2">  1       -2 0.27155398E-01 0.14130537E+04</pdfrwt>
<totfact> 0.26849566E+01</totfact>
</mgrwt>
</event>
<event>
 6    1  0.6091287E-004  0.1271133E+04  0.7818608E-02  0.9052776E-01
          3   -1    0    0  501    0  0.00000000000E+00  0.00000000000E+00  0.26187814661E+04  0.26187814661E+04  0.00000000000E+00 0.  1.
         -3   -1    0    0    0  501 -0.00000000000E+00 -0.00000000000E+00 -0.15424903363E+03  0.15424903363E+03  0.00000000000E+00 0. -1.
         23    2    1    2    0    0 -0.55133140785E+03  0.13090717313E+03  0.62425414242E+03  0.84748455270E+03  0.86219623569E+02 0.  0.
         13    1    3    3    0    0 -0.41227541872E+03  0.61946048113E+02  0.43143245208E+03  0.59995191013E+03  0.00000000000E+00 0. -1.
        -13    1    3    3    0    0 -0.13905598913E+03  0.68961125016E+02  0.19282169034E+03  0.24753264257E+03  0.00000000000E+00 0.  1.
         22    1    1    2    0    0  0.55133140785E+03 -0.13090717313E+03  0.18402782900E+04  0.19255459470E+04  0.00000000000E+00 0.  1.
<mgrwt>
<rscale>  0 0.12711326E+04</rscale>
<asrwt>0</asrwt>
<pdfrwt beam="1">  1        3 0.40288942E+00 0.12711326E+04</pdfrwt>
<pdfrwt beam="2">  1       -3 0.23730623E-01 0.12711326E+04</pdfrwt>
<totfact> 0.47262792E-01</totfact>
</mgrwt>
</event>
<event>
 6    1  0.6091287E-004  0.6289090E+03  0.7818608E-02  0.9847180E-01
          2   -1    0    0  501    0  0.00000000000E+00  0.00000000000E+00  0.14383085198E+04  0.14383085198E+04  0.00000000000E+00 0.  1.
         -2   -1    0    0    0  501 -0.00000000000E+00 -0.00000000000E+00 -0.68748545798E+02  0.68748545798E+02  0.00000000000E+00 0. -1.
         23    2    1    2    0    0 -0.17273763994E+03  0.73999648365E+02  0.12830921182E+04  0.13001973782E+04  0.94199777756E+02 0.  0.
         11    1    3    3    0    0 -0.17375097360E+03  0.81287863780E+02  0.10753767439E+04  0.10923517103E+04  0.00000000000E+00 0. -1.
        -11    1    3    3    0    0  0.10133336612E+01 -0.72882154150E+01  0.20771537434E+03  0.20784566791E+03  0.00000000000E+00 0.  1.
         22    1    1    2    0    0  0.17273763994E+03 -0.73999648365E+02  0.86467855812E+02  0.20685968747E+03  0.00000000000E+00 0. -1.
<mgrwt>
<rscale>  0 0.62890896E+03</rscale>
<asrwt>0</asrwt>
<pdfrwt beam="1">  1        2 0.22127821E+00 0.62890896E+03</pdfrwt>
<pdfrwt beam="2">  1       -2 0.10576700E-01 0.62890896E+03</pdfrwt>
<totfact> 0.87598254E+02</totfact>
</mgrwt>
</event>
<event>
 6    1  0.6091287E-004  0.2495894E+04  0.7818608E-02  0.8404450E-01
          2   -1    0    0  501    0  0.00000000000E+00  0.00000000000E+00  0.13294815318E+04  0.13294815318E+04  0.00000000000E+00 0.  1.
         -2   -1    0    0    0  501 -0.00000000000E+00 -0.00000000000E+00 -0.11714131335E+04  0.11714131335E+04  0.00000000000E+00 0. -1.
         23    2    1    2    0    0  0.24660959331E+03 -0.11424878832E+04 -0.35408206116E+03  0.12248096572E+04  0.93218750268E+02 0.  0.
         13    1    3    3    0    0  0.84024850498E+02 -0.27315829606E+03 -0.53723409897E+02  0.29079517702E+03  0.00000000000E+00 0. -1.
        -13    1    3    3    0    0  0.16258474281E+03 -0.86932958718E+03 -0.30035865126E+03  0.93401448015E+03  0.00000000000E+00 0.  1.
         22    1    1    2    0    0 -0.24660959331E+03  0.11424878832E+04  0.51215045941E+03  0.12760850081E+04  0.00000000000E+00 0.  1.
<mgrwt>
<rscale>  0 0.24958943E+04</rscale>
<asrwt>0</asrwt>
<pdfrwt beam="1">  1        2 0.20453562E+00 0.24958943E+04</pdfrwt>
<pdfrwt beam="2">  1       -2 0.18021741E+00 0.24958943E+04</pdfrwt>
<totfact> 0.25621060E+00</totfact>
</mgrwt>
</event>
<event>
 6    1  0.6091287E-004  0.1478361E+04  0.7818608E-02  0.8898972E-01
          2   -1    0    0  501    0  0.00000000000E+00  0.00000000000E+00  0.71194030103E+03  0.71194030103E+03  0.00000000000E+00 0.  1.
         -2   -1    0    0    0  501 -0.00000000000E+00 -0.00000000000E+00 -0.76746266824E+03  0.76746266824E+03  0.00000000000E+00 0. -1.
         23    2    1    2    0    0 -0.61778362197E+03 -0.34608479897E+02 -0.42719488567E+03  0.75760326615E+03  0.92805646790E+02 0.  0.
         13    1    3    3    0    0 -0.19395918377E+03  0.28531372507E+01 -0.18483746575E+03  0.26794252016E+03  0.00000000000E+00 0. -1.
        -13    1    3    3    0    0 -0.42382443820E+03 -0.37461617147E+02 -0.24235741991E+03  0.48966074599E+03  0.00000000000E+00 0.  1.
         22    1    1    2    0    0  0.61778362197E+03  0.34608479897E+02  0.37167251845E+03  0.72179970312E+03  0.00000000000E+00 0.  1.
<mgrwt>
<rscale>  0 0.14783607E+04</rscale>
<asrwt>0</asrwt>
<pdfrwt beam="1">  1        2 0.10952928E+00 0.14783607E+04</pdfrwt>
<pdfrwt beam="2">  1       -2 0.11807118E+00 0.14783607E+04</pdfrwt>
<totfact> 0.21449839E+01</totfact>
</mgrwt>
</event>
<event>
 6    1  0.6091287E-004  0.3461433E+04  0.7818608E-02  0.8122991E-01
         -2   -1    0    0    0  501 -0.00000000000E+00  0.00000000000E+00  0.10059445501E+04  0.10059445501E+04  0.00000000000E+00 0. -1.
          2   -1    0    0  501    0  0.00000000000E+00 -0.00000000000E+00 -0.29776791391E+04  0.29776791391E+04  0.00000000000E+00 0.  1.
         23    2    1    2    0    0  0.34319271966E+03  0.15839242309E+04 -0.29161813065E+03  0.16492311502E+04  0.91241662083E+02 0.  0.
         11    1    3    3    0    0  0.20494147821E+03  0.85507631419E+03 -0.19999080929E+03  0.90174987462E+03  0.00000000000E+00 0.  1.
        -11    1    3    3    0    0  0.13825124145E+03  0.72884791667E+03 -0.91627321367E+02  0.74748127563E+03  0.00000000000E+00 0. -1.
         22    1    1    2    0    0 -0.34319271966E+03 -0.15839242309E+04 -0.16801164584E+04  0.23343925389E+04  0.00000000000E+00 0.  1.
<mgrwt>
<rscale>  0 0.34614333E+04</rscale>
<asrwt>0</asrwt>
<pdfrwt beam="1">  1        2 0.45810448E+00 0.34614333E+04</pdfrwt>
<pdfrwt beam="2">  1       -2 0.15476070E+00 0.34614333E+04</pdfrwt>
<totfact> 0.40829994E-01</totfact>
</mgrwt>
</event>
<event>
 6    1  0.6091287E-004  0.2062259E+04  0.7818608E-02  0.8578053E-01
         -2   -1    0    0    0  501 -0.00000000000E+00  0.00000000000E+00  0.43628769903E+03  0.43628769903E+03  0.00000000000E+00 0. -1.
          2   -1    0    0  501    0  0.00000000000E+00 -0.00000000000E+00 -0.24369883768E+04  0.24369883768E+04  0.00000000000E+00 0.  1.
         23    2    1    2    0    0 -0.33631236698E+03 -0.96662244832E+03 -0.11540815722E+04  0.15450332984E+04  0.88083211671E+02 0.  0.
         13    1    3    3    0    0 -0.94658883041E+02 -0.19685691481E+03 -0.28669079996E+03  0.36042275709E+03  0.00000000000E+00 0. -1.
        -13    1    3    3    0    0 -0.24165348394E+03 -0.76976553351E+03 -0.86739077225E+03  0.11846105413E+04  0.00000000000E+00 0.  1.
         22    1    1    2    0    0  0.33631236698E+03  0.96662244832E+03 -0.84661910554E+03  0.13282427774E+04  0.00000000000E+00 0. -1.
<mgrwt>
<rscale>  0 0.20622590E+04</rscale>
<asrwt>0</asrwt>
<pdfrwt beam="1">  1        2 0.37492129E+00 0.20622590E+04</pdfrwt>
<pdfrwt beam="2">  1       -2 0.67121185E-01 0.20622590E+04</pdfrwt>
<totfact> 0.71296598E+00</totfact>
</mgrwt>
</event>
<event>
 6    1  0.6091287E-004  0.2535786E+04  0.7818608E-02  0.8390346E-01
         -2   -1    0    0    0  501 -0.00000000000E+00  0.00000000000E+00  0.21526795778E+04  0.21526795778E+04  0.00000000000E+00 0. -1.
          2   -1    0    0  501    0  0.00000000000E+00 -0.00000000000E+00 -0.74676825103E+03  0.74676825103E+03  0.00000000000E+00 0.  1.
         23    2    1    2    0    0  0.23137756219E+03  0.12439365852E+04  0.66456016200E+03  0.14329842753E+04  0.10435477877E+03 0.  0.
         11    1    3    3    0    0  0.10992836565E+03  0.33871645463E+03  0.19563725220E+03  0.40630901622E+03  0.00000000000E+00 0. -1.
        -11    1    3    3    0    0  0.12144919654E+03  0.90522013062E+03  0.46892290980E+03  0.10266752591E+04  0.00000000000E+00 0.  1.
         22    1    1    2    0    0 -0.23137756219E+03 -0.12439365852E+04  0.74135116477E+03  0.14664635536E+04  0.00000000000E+00 0. -1.
<mgrwt>
<rscale>  0 0.25357861E+04</rscale>
<asrwt>0</asrwt>
<pdfrwt beam="1">  1        2 0.11488742E+00 0.25357861E+04</pdfrwt>
<pdfrwt beam="2">  1       -2 0.33118147E+00 0.25357861E+04</pdfrwt>
<totfact> 0.68468495E-01</totfact>
</mgrwt>
</event>
<event>
 6    1  0.6091287E-004  0.2285649E+04  0.7818608E-02  0.8483601E-01
         -2   -1    0    0    0  501 -0.00000000000E+00  0.00000000000E+00  0.10277114826E+04  0.10277114826E+04  0.00000000000E+00 0.  1.
          2   -1    0    0  501    0  0.00000000000E+00 -0.00000000000E+00 -0.12708308004E+04  0.12708308004E+04  0.00000000000E+00 0. -1.
         23    2    1    2    0    0  0.73593300130E+03  0.48395771471E+03 -0.85120073915E+03  0.12282266908E+04  0.90474602090E+02 0.  0.
         11    1    3    3    0    0  0.27018751275E+03  0.22999610774E+03 -0.33096244775E+03  0.48521710960E+03  0.00000000000E+00 0. -1.
        -11    1    3    3    0    0  0.46574548855E+03  0.25396160697E+03 -0.52023829140E+03  0.74300958120E+03  0.00000000000E+00 0.  1.
         22    1    1    2    0    0 -0.73593300130E+03 -0.48395771471E+03  0.60808142127E+03  0.10703155922E+04  0.00000000000E+00 0.  1.
<mgrwt>
<rscale>  0 0.22856486E+04</rscale>
<asrwt>0</asrwt>
<pdfrwt beam="1">  1        2 0.19551243E+00 0.22856486E+04</pdfrwt>
<pdfrwt beam="2">  1       -2 0.15810946E+00 0.22856486E+04</pdfrwt>
<totfact> 0.40609428E+00</totfact>
</mgrwt>
</event>
<event>
 6    1  0.6091287E-004  0.3137540E+04  0.7818608E-02  0.8205510E-01
         -2   -1    0    0    0  501 -0.00000000000E+00  0.00000000000E+00  0.91453915461E+03  0.91453915461E+03  0.00000000000E+00 0. -1.
          2   -1    0    0  501    0  0.00000000000E+00 -0.00000000000E+00 -0.26910162282E+04  0.26910162282E+04  0.00000000000E+00 0.  1.
         23    2    1    2    0    0  0.92369693516E+03  0.10724871797E+04 -0.11465832078E+03  0.14226476097E+04  0.85644101601E+02 0.  0.
         13    1    3    3    0    0  0.13604298132E+03  0.19650650069E+03  0.54529715688E+00  0.23900375505E+03  0.00000000000E+00 0. -1.
        -13    1    3    3    0    0  0.78765395384E+03  0.87598067905E+03 -0.11520361793E+03  0.11836438547E+04  0.00000000000E+00 0.  1.
         22    1    1    2    0    0 -0.92369693516E+03 -0.10724871797E+04 -0.16618187528E+04  0.21829077731E+04  0.00000000000E+00 0.  1.
<mgrwt>
<rscale>  0 0.31375403E+04</rscale>
<asrwt>0</asrwt>
<pdfrwt beam="1">  1        2 0.41400249E+00 0.31375403E+04</pdfrwt>
<pdfrwt beam="2">  1       -2 0.14069833E+00 0.31375403E+04</pdfrwt>
<totfact> 0.80645493E-01</totfact>
</mgrwt>
</event>
<event>
 6    1  0.6091287E-004  0.2593149E+04  0.7818608E-02  0.8370532E-01
         -2   -1    0    0    0  501 -0.00000000000E+00  0.00000000000E+00  0.58304713155E+03  0.58304713155E+03  0.00000000000E+00 0.  1.
          2   -1    0    0  501    0  0.00000000000E+00 -0.00000000000E+00 -0.28833107396E+04  0.28833107396E+04  0.00000000000E+00 0. -1.
         23    2    1    2    0    0 -0.49039446750E+03  0.24939902509E+03 -0.27186070841E+04  0.27752009631E+04  0.90715493756E+02 0.  0.
         13    1    3    3    0    0 -0.24067229525E+03  0.10308884049E+03 -0.10842105617E+04  0.11153757236E+04  0.00000000000E+00 0. -1.
        -13    1    3    3    0    0 -0.24972217225E+03  0.14631018461E+03 -0.16343965224E+04  0.16598252395E+04  0.00000000000E+00 0.  1.
         22    1    1    2    0    0  0.49039446750E+03 -0.24939902509E+03  0.41834347606E+03  0.69115690797E+03  0.00000000000E+00 0.  1.
<mgrwt>
<rscale>  0 0.25931495E+04</rscale>
<asrwt>0</asrwt>
<pdfrwt beam="1">  1        2 0.44358627E+00 0.25931495E+04</pdfrwt>
<pdfrwt beam="2">  1       -2 0.89699557E-01 0.25931495E+04</pdfrwt>
<totfact> 0.19387248E+00</totfact>
</mgrwt>
</event>
<event>
 6    1  0.6091287E-004  0.1782897E+04  0.7818608E-02  0.8715448E-01
         -2   -1    0    0    0  501 -0.00000000000E+00  0.00000000000E+00  0.96755817656E+03  0.96755817656E+03  0.00000000000E+00 0. -1.
          2   -1    0    0  501    0  0.00000000000E+00 -0.00000000000E+00 -0.82132590382E+03  0.82132590382E+03  0.00000000000E+00 0.  1.
         23    2    1    2    0    0 -0.31442910061E+03  0.80228461133E+03  0.29353597385E+03  0.91468465391E+03  0.89209815997E+02 0.  0.
         11    1    3    3    0    0 -0.17589171054E+03  0.33752660564E+03  0.11045516037E+03  0.39631104678E+03  0.00000000000E+00 0. -1.
        -11    1    3    3    0    0 -0.13853739007E+03  0.46475800569E+03  0.18308081348E+03  0.51837360712E+03  0.00000000000E+00 0.  1.
         22    1    1    2    0    0  0.31442910061E+03 -0.80228461133E+03 -0.14730370110E+03  0.87419942647E+03  0.00000000000E+00 0. -1.
<mgrwt>
<rscale>  0 0.17828972E+04</rscale>
<asrwt>0</asrwt>
<pdfrwt beam="1">  1        2 0.12635783E+00 0.17828972E+04</pdfrwt>
<pdfrwt beam="2">  1       -2 0.14885510E+00 0.17828972E+04</pdfrwt>
<totfact> 0.96085573E+00</totfact>
</mgrwt>
</event>
<event>
 6    1  0.6091287E-004  0.2526055E+04  0.7818608E-02  0.8393762E-01
         -2   -1    0    0    0  501 -0.00000000000E+00  0.00000000000E+00  0.16940285585E+04  0.16940285585E+04  0.00000000000E+00 0. -1.
          2   -1    0    0  501    0  0.00000000000E+00 -0.00000000000E+00 -0.94168324259E+03  0.94168324259E+03  0.00000000000E+00 0.  1.
         23    2    1    2    0    0  0.96823164809E+03 -0.30468950945E+03  0.11579288102E+04  0.15426398948E+04  0.92900451793E+02 0.  0.
         13    1    3    3    0    0  0.57671373600E+03 -0.22860047689E+03  0.71373090663E+03  0.94565782310E+03  0.00000000000E+00 0. -1.
        -13    1    3    3    0    0  0.39151791209E+03 -0.76089032567E+02  0.44419790361E+03  0.59698207170E+03  0.00000000000E+00 0.  1.
         22    1    1    2    0    0 -0.96823164809E+03  0.30468950945E+03 -0.40558349429E+03  0.10930719063E+04  0.00000000000E+00 0.  1.
<mgrwt>
<rscale>  0 0.25260549E+04</rscale>
<asrwt>0</asrwt>
<pdfrwt beam="1">  1        2 0.14487435E+00 0.25260549E+04</pdfrwt>
<pdfrwt beam="2">  1       -2 0.26061978E+00 0.25260549E+04</pdfrwt>
<totfact> 0.13532863E+00</totfact>
</mgrwt>
</event>
<event>
 6    1  0.6091287E-004  0.1679120E+04  0.7818608E-02  0.8773363E-01
         -2   -1    0    0    0  501 -0.00000000000E+00  0.00000000000E+00  0.24050663373E+04  0.24050663373E+04  0.00000000000E+00 0. -1.
          2   -1    0    0  501    0  0.00000000000E+00 -0.00000000000E+00 -0.29307344634E+03  0.29307344634E+03  0.00000000000E+00 0.  1.
         23    2    1    2    0    0 -0.65399474162E+03 -0.51444618281E+03  0.91127201922E+03  0.12372857153E+04  0.89973614536E+02 0.  0.
         11    1    3    3    0    0 -0.16613324442E+03 -0.16179595027E+03  0.20749175371E+03  0.31117681835E+03  0.00000000000E+00 0.  1.
        -11    1    3    3    0    0 -0.48786149720E+03 -0.35265023254E+03  0.70378026552E+03  0.92610889699E+03  0.00000000000E+00 0. -1.
         22    1    1    2    0    0  0.65399474162E+03  0.51444618281E+03  0.12007208718E+04  0.14608540683E+04  0.00000000000E+00 0. -1.
<mgrwt>
<rscale>  0 0.16791201E+04</rscale>
<asrwt>0</asrwt>
<pdfrwt beam="1">  1        2 0.45088224E-01 0.16791201E+04</pdfrwt>
<pdfrwt beam="2">  1       -2 0.37001019E+00 0.16791201E+04</pdfrwt>
<totfact> 0.12538561E+00</totfact>
</mgrwt>
</event>
<event>
 6    1  0.6091287E-004  0.1772639E+04  0.7818608E-02  0.8720987E-01
          2   -1    0    0  501    0  0.00000000000E+00  0.00000000000E+00  0.25722561892E+04  0.25722561892E+04  0.00000000000E+00 0.  1.
         -2   -1    0    0    0  501 -0.00000000000E+00 -0.00000000000E+00 -0.30539811058E+03  0.30539811058E+03  0.00000000000E+00 0. -1.
         23    2    1    2    0    0 -0.79695573016E+03 -0.19426794128E+03  0.16716946831E+04  0.18641958960E+04  0.88231265868E+02 0.  0.
         13    1    3    3    0    0 -0.16098532875E+03 -0.49331407771E+01  0.30380195360E+03  0.34385496792E+03  0.00000000000E+00 0. -1.
        -13    1    3    3    0    0 -0.63597040140E+03 -0.18933480050E+03  0.13678927295E+04  0.15203409281E+04  0.00000000000E+00 0.  1.
         22    1    1    2    0    0  0.79695573016E+03  0.19426794128E+03  0.59516339550E+03  0.10134584038E+04  0.00000000000E+00 0. -1.
<mgrwt>
<rscale>  0 0.17726389E+04</rscale>
<asrwt>0</asrwt>
<pdfrwt beam="1">  1        2 0.39573171E+00 0.17726389E+04</pdfrwt>
<pdfrwt beam="2">  1       -2 0.46984326E-01 0.17726389E+04</pdfrwt>
<totfact> 0.12856118E+01</totfact>
</mgrwt>
</event>
<event>
 6    1  0.6091287E-004  0.2588441E+04  0.7818608E-02  0.8372138E-01
          1   -1    0    0  501    0  0.00000000000E+00  0.00000000000E+00  0.13955544156E+04  0.13955544156E+04  0.00000000000E+00 0.  1.
         -1   -1    0    0    0  501 -0.00000000000E+00 -0.00000000000E+00 -0.12002449557E+04  0.12002449557E+04  0.00000000000E+00 0. -1.
         23    2    1    2    0    0  0.59026267717E+03 -0.80155968979E+01  0.12510132021E+04  0.13862603397E+04  0.90605848456E+02 0.  0.
         11    1    3    3    0    0  0.40869081752E+03 -0.26100129665E+02  0.94593241026E+03  0.10307752063E+04  0.00000000000E+00 0. -1.
        -11    1    3    3    0    0  0.18157185964E+03  0.18084532767E+02  0.30508079179E+03  0.35548513338E+03  0.00000000000E+00 0.  1.
         22    1    1    2    0    0 -0.59026267717E+03  0.80155968979E+01 -0.10557037422E+04  0.12095390317E+04  0.00000000000E+00 0. -1.
<mgrwt>
<rscale>  0 0.25884413E+04</rscale>
<asrwt>0</asrwt>
<pdfrwt beam="1">  1        1 0.21470068E+00 0.25884413E+04</pdfrwt>
<pdfrwt beam="2">  1       -1 0.18465307E+00 0.25884413E+04</pdfrwt>
<totfact> 0.13151720E+00</totfact>
</mgrwt>
</event>
<event>
 6    1  0.6091287E-004  0.3891340E+04  0.7818608E-02  0.8026833E-01
          2   -1    0    0  501    0  0.00000000000E+00  0.00000000000E+00  0.40374557144E+04  0.40374557144E+04  0.00000000000E+00 0. -1.
         -2   -1    0    0    0  501 -0.00000000000E+00 -0.00000000000E+00 -0.93762803407E+03  0.93762803407E+03  0.00000000000E+00 0.  1.
         23    2    1    2    0    0 -0.14058525133E+04  0.23925499949E+03  0.32411231460E+04  0.35420350219E+04  0.86421090008E+02 0.  0.
         11    1    3    3    0    0 -0.75221910374E+03  0.86936220879E+02  0.16813853996E+04  0.18440304630E+04  0.00000000000E+00 0.  1.
        -11    1    3    3    0    0 -0.65363340959E+03  0.15231877861E+03  0.15597377464E+04  0.16980045589E+04  0.00000000000E+00 0. -1.
         22    1    1    2    0    0  0.14058525133E+04 -0.23925499949E+03 -0.14129546571E+03  0.14330487265E+04  0.00000000000E+00 0.  1.
<mgrwt>
<rscale>  0 0.38913400E+04</rscale>
<asrwt>0</asrwt>
<pdfrwt beam="1">  1        2 0.62114702E+00 0.38913400E+04</pdfrwt>
<pdfrwt beam="2">  1       -2 0.14425047E+00 0.38913400E+04</pdfrwt>
<totfact> 0.83986796E-02</totfact>
</mgrwt>
</event>
<event>
 6    1  0.6091287E-004  0.3337514E+04  0.7818608E-02  0.8153415E-01
         -2   -1    0    0    0  501 -0.00000000000E+00  0.00000000000E+00  0.85359344699E+03  0.85359344699E+03  0.00000000000E+00 0. -1.
          2   -1    0    0  501    0  0.00000000000E+00 -0.00000000000E+00 -0.32623837216E+04  0.32623837216E+04  0.00000000000E+00 0.  1.
         23    2    1    2    0    0 -0.47054374016E+03 -0.44351520415E+03  0.69051647957E+03  0.94993555417E+03  0.86298324457E+02 0.  0.
         11    1    3    3    0    0 -0.13744388230E+03 -0.13111902371E+03  0.26265598787E+03  0.32414686042E+03  0.00000000000E+00 0. -1.
        -11    1    3    3    0    0 -0.33309985786E+03 -0.31239618044E+03  0.42786049170E+03  0.62578869374E+03  0.00000000000E+00 0.  1.
         22    1    1    2    0    0  0.47054374016E+03  0.44351520415E+03 -0.30993067541E+04  0.31660416144E+04  0.00000000000E+00 0.  1.
<mgrwt>
<rscale>  0 0.33375137E+04</rscale>
<asrwt>0</asrwt>
<pdfrwt beam="1">  1        2 0.50190518E+00 0.33375137E+04</pdfrwt>
<pdfrwt beam="2">  1       -2 0.13132207E+00 0.33375137E+04</pdfrwt>
<totfact> 0.41540155E-01</totfact>
</mgrwt>
</event>
<event>
 6    1  0.6091287E-004  0.1951348E+04  0.7818608E-02  0.8629711E-01
          2   -1    0    0  501    0  0.00000000000E+00  0.00000000000E+00  0.13966962720E+04  0.13966962720E+04  0.00000000000E+00 0.  1.
         -2   -1    0    0    0  501 -0.00000000000E+00 -0.00000000000E+00 -0.68156522995E+03  0.68156522995E+03  0.00000000000E+00 0. -1.
         23    2    1    2    0    0 -0.73583233220E+03 -0.63516686835E+03  0.30230260060E+03  0.10221774646E+04  0.92594465886E+02 0.  0.
         11    1    3    3    0    0 -0.62286942979E+03 -0.49049964745E+03  0.23999976189E+03  0.82834540889E+03  0.00000000000E+00 0. -1.
        -11    1    3    3    0    0 -0.11296290241E+03 -0.14466722090E+03  0.62302838713E+02  0.19383205575E+03  0.00000000000E+00 0.  1.
         22    1    1    2    0    0  0.73583233220E+03  0.63516686835E+03  0.41282844142E+03  0.10560840373E+04  0.00000000000E+00 0. -1.
<mgrwt>
<rscale>  0 0.19513479E+04</rscale>
<asrwt>0</asrwt>
<pdfrwt beam="1">  1        2 0.21487635E+00 0.19513479E+04</pdfrwt>
<pdfrwt beam="2">  1       -2 0.10485619E+00 0.19513479E+04</pdfrwt>
<totfact> 0.99991343E+00</totfact>
</mgrwt>
</event>
<event>
 6    1  0.6091287E-004  0.6601805E+04  0.7818608E-02  0.7619956E-01
         -2   -1    0    0    0  501 -0.00000000000E+00  0.00000000000E+00  0.43102981680E+04  0.43102981680E+04  0.00000000000E+00 0. -1.
          2   -1    0    0  501    0  0.00000000000E+00 -0.00000000000E+00 -0.25278896373E+04  0.25278896373E+04  0.00000000000E+00 0.  1.
         23    2    1    2    0    0 -0.39478597300E+03  0.44591373228E+03  0.42536831003E+04  0.42961624279E+04  0.92177374283E+02 0.  0.
         13    1    3    3    0    0 -0.28142467600E+03  0.34971479760E+03  0.34189064115E+04  0.34482490250E+04  0.00000000000E+00 0. -1.
        -13    1    3    3    0    0 -0.11336129700E+03  0.96198934679E+02  0.83477668877E+03  0.84791340289E+03  0.00000000000E+00 0.  1.
         22    1    1    2    0    0  0.39478597300E+03 -0.44591373228E+03 -0.24712745695E+04  0.25420253774E+04  0.00000000000E+00 0.  1.
<mgrwt>
<rscale>  0 0.66018052E+04</rscale>
<asrwt>0</asrwt>
<pdfrwt beam="1">  1        2 0.38890610E+00 0.66018052E+04</pdfrwt>
<pdfrwt beam="2">  1       -2 0.66312279E+00 0.66018052E+04</pdfrwt>
<totfact> 0.67201975E-04</totfact>
</mgrwt>
</event>
<event>
 6    1  0.6091287E-004  0.5421088E+04  0.7818608E-02  0.7766642E-01
          2   -1    0    0  501    0  0.00000000000E+00  0.00000000000E+00  0.41189940441E+04  0.41189940441E+04  0.00000000000E+00 0.  1.
         -2   -1    0    0    0  501 -0.00000000000E+00 -0.00000000000E+00 -0.17836995219E+04  0.17836995219E+04  0.00000000000E+00 0. -1.
         23    2    1    2    0    0 -0.94256518306E+03 -0.15843054330E+02  0.39341861736E+04  0.40465861769E+04  0.91425992540E+02 0.  0.
         13    1    3    3    0    0 -0.56260669851E+03 -0.25276142708E+02  0.21665113401E+04  0.22385121325E+04  0.00000000000E+00 0.  1.
        -13    1    3    3    0    0 -0.37995848455E+03  0.94330883786E+01  0.17676748335E+04  0.18080740444E+04  0.00000000000E+00 0. -1.
         22    1    1    2    0    0  0.94256518306E+03  0.15843054330E+02 -0.15988916514E+04  0.18561073890E+04  0.00000000000E+00 0. -1.
<mgrwt>
<rscale>  0 0.54210876E+04</rscale>
<asrwt>0</asrwt>
<pdfrwt beam="1">  1        2 0.63369139E+00 0.54210876E+04</pdfrwt>
<pdfrwt beam="2">  1       -2 0.27441531E+00 0.54210876E+04</pdfrwt>
<totfact> 0.86965161E-03</totfact>
</mgrwt>
</event>
<event>
 6    1  0.6091287E-004  0.1077689E+04  0.7818608E-02  0.9227215E-01
          2   -1    0    0  501    0  0.00000000000E+00  0.00000000000E+00  0.17008487910E+04  0.17008487910E+04  0.00000000000E+00 0. -1.
         -2   -1    0    0    0  501 -0.00000000000E+00 -0.00000000000E+00 -0.17071085266E+03  0.17071085266E+03  0.00000000000E+00 0.  1.
         23    2    1    2    0    0  0.23088421726E+03 -0.45065059356E+03  0.47361609011E+03  0.69996590219E+03  0.96159160542E+02 0.  0.
         13    1    3    3    0    0  0.14465959921E+03 -0.24498982583E+03  0.20407712045E+03  0.35013409644E+03  0.00000000000E+00 0. -1.
        -13    1    3    3    0    0  0.86224618058E+02 -0.20566076773E+03  0.26953896967E+03  0.34983180575E+03  0.00000000000E+00 0.  1.
         22    1    1    2    0    0 -0.23088421726E+03  0.45065059356E+03  0.10565218482E+04  0.11715937414E+04  0.00000000000E+00 0. -1.
<mgrwt>
<rscale>  0 0.10776889E+04</rscale>
<asrwt>0</asrwt>
<pdfrwt beam="1">  1        2 0.26166903E+00 0.10776889E+04</pdfrwt>
<pdfrwt beam="2">  1       -2 0.26263209E-01 0.10776889E+04</pdfrwt>
<totfact> 0.12771664E+02</totfact>
</mgrwt>
</event>
<event>
 6    1  0.6091287E-004  0.6976561E+04  0.7818608E-02  0.7579857E-01
          2   -1    0    0  501    0  0.00000000000E+00  0.00000000000E+00  0.25759768273E+04  0.25759768273E+04  0.00000000000E+00 0.  1.
         -2   -1    0    0    0  501 -0.00000000000E+00 -0.00000000000E+00 -0.47236842398E+04  0.47236842398E+04  0.00000000000E+00 0. -1.
         23    2    1    2    0    0 -0.20954296060E+03  0.16782703206E+04 -0.42655687231E+04  0.45893407813E+04  0.80453429118E+02 0.  0.
         11    1    3    3    0    0 -0.71066160225E+01  0.11435160499E+03 -0.24112768091E+03  0.26696320357E+03  0.00000000000E+00 0. -1.
        -11    1    3    3    0    0 -0.20243634457E+03  0.15639187156E+04 -0.40244410422E+04  0.43223775777E+04  0.00000000000E+00 0.  1.
         22    1    1    2    0    0  0.20954296060E+03 -0.16782703206E+04  0.21178613106E+04  0.27103202859E+04  0.00000000000E+00 0.  1.
<mgrwt>
<rscale>  0 0.69765611E+04</rscale>
<asrwt>0</asrwt>
<pdfrwt beam="1">  1        2 0.39630413E+00 0.69765611E+04</pdfrwt>
<pdfrwt beam="2">  1       -2 0.72672065E+00 0.69765611E+04</pdfrwt>
<totfact> 0.36185140E-04</totfact>
</mgrwt>
</event>
<event>
 6    1  0.6091287E-004  0.3590728E+04  0.7818608E-02  0.8092619E-01
          2   -1    0    0  501    0  0.00000000000E+00  0.00000000000E+00  0.24789939077E+04  0.24789939077E+04  0.00000000000E+00 0.  1.
         -2   -1    0    0    0  501 -0.00000000000E+00 -0.00000000000E+00 -0.13002579050E+04  0.13002579050E+04  0.00000000000E+00 0. -1.
         23    2    1    2    0    0  0.19221779422E+03  0.93226606604E+03 -0.10109653238E+04  0.13916045194E+04  0.91894256222E+02 0.  0.
         13    1    3    3    0    0  0.10252328484E+03  0.61275187947E+03 -0.60402493239E+03  0.86649986075E+03  0.00000000000E+00 0.  1.
        -13    1    3    3    0    0  0.89694509380E+02  0.31951418657E+03 -0.40694039137E+03  0.52510465867E+03  0.00000000000E+00 0. -1.
         22    1    1    2    0    0 -0.19221779422E+03 -0.93226606604E+03  0.21897013264E+04  0.23876472933E+04  0.00000000000E+00 0.  1.
<mgrwt>
<rscale>  0 0.35907277E+04</rscale>
<asrwt>0</asrwt>
<pdfrwt beam="1">  1        2 0.38138368E+00 0.35907277E+04</pdfrwt>
<pdfrwt beam="2">  1       -2 0.20003968E+00 0.35907277E+04</pdfrwt>
<totfact> 0.38810573E-01</totfact>
</mgrwt>
</event>
<event>
 6    1  0.6091287E-004  0.2203435E+04  0.7818608E-02  0.8517000E-01
          2   -1    0    0  501    0  0.00000000000E+00  0.00000000000E+00  0.16902511137E+04  0.16902511137E+04  0.00000000000E+00 0.  1.
         -2   -1    0    0    0  501 -0.00000000000E+00 -0.00000000000E+00 -0.71810689196E+03  0.71810689196E+03  0.00000000000E+00 0. -1.
         23    2    1    2    0    0 -0.58390316758E+03 -0.57328855212E+03  0.12901128349E+04  0.15304589726E+04  0.91163956378E+02 0.  0.
         13    1    3    3    0    0 -0.10507778601E+03 -0.97788800897E+02  0.29569079527E+03  0.32868987983E+03  0.00000000000E+00 0. -1.
        -13    1    3    3    0    0 -0.47882538156E+03 -0.47549975123E+03  0.99442203967E+03  0.12017690928E+04  0.00000000000E+00 0.  1.
         22    1    1    2    0    0  0.58390316758E+03  0.57328855212E+03 -0.31796861324E+03  0.87789903298E+03  0.00000000000E+00 0. -1.
<mgrwt>
<rscale>  0 0.22034346E+04</rscale>
<asrwt>0</asrwt>
<pdfrwt beam="1">  1        2 0.26003863E+00 0.22034346E+04</pdfrwt>
<pdfrwt beam="2">  1       -2 0.11047798E+00 0.22034346E+04</pdfrwt>
<totfact> 0.59000045E+00</totfact>
</mgrwt>
</event>
<event>
 6    1  0.6091287E-004  0.2087772E+04  0.7818608E-02  0.8566649E-01
          2   -1    0    0  501    0  0.00000000000E+00  0.00000000000E+00  0.12419275212E+04  0.12419275212E+04  0.00000000000E+00 0.  1.
         -2   -1    0    0    0  501 -0.00000000000E+00 -0.00000000000E+00 -0.87742509041E+03  0.87742509041E+03  0.00000000000E+00 0. -1.
         23    2    1    2    0    0  0.89705348144E+03 -0.14051623435E+03  0.70136887302E+03  0.11508853893E+04  0.90383199185E+02 0.  0.
         11    1    3    3    0    0  0.15676501758E+03 -0.51698009085E+02  0.10005051646E+03  0.19302347195E+03  0.00000000000E+00 0.  1.
        -11    1    3    3    0    0  0.74028846386E+03 -0.88818225263E+02  0.60131835656E+03  0.95786191740E+03  0.00000000000E+00 0. -1.
         22    1    1    2    0    0 -0.89705348144E+03  0.14051623435E+03 -0.33686644224E+03  0.96846722226E+03  0.00000000000E+00 0. -1.
<mgrwt>
<rscale>  0 0.20877724E+04</rscale>
<asrwt>0</asrwt>
<pdfrwt beam="1">  1        2 0.19106577E+00 0.20877724E+04</pdfrwt>
<pdfrwt beam="2">  1       -2 0.13498848E+00 0.20877724E+04</pdfrwt>
<totfact> 0.65105138E+00</totfact>
</mgrwt>
</event>
<event>
 6    1  0.6091287E-004  0.2036775E+04  0.7818608E-02  0.8589617E-01
         -2   -1    0    0    0  501 -0.00000000000E+00  0.00000000000E+00  0.52159889846E+03  0.52159889846E+03  0.00000000000E+00 0. -1.
          2   -1    0    0  501    0  0.00000000000E+00 -0.00000000000E+00 -0.19883350141E+04  0.19883350141E+04  0.00000000000E+00 0.  1.
         23    2    1    2    0    0  0.41270066032E+02  0.35823888213E+03  0.43606209632E+03  0.57326683986E+03  0.91904313387E+02 0.  0.
         13    1    3    3    0    0  0.80623390231E+01  0.59980003430E+02  0.27868357260E+02  0.66627677870E+02  0.00000000000E+00 0.  1.
        -13    1    3    3    0    0  0.33207727009E+02  0.29825887870E+03  0.40819373906E+03  0.50663916199E+03  0.00000000000E+00 0. -1.
         22    1    1    2    0    0 -0.41270066032E+02 -0.35823888213E+03 -0.19027982120E+04  0.19366670727E+04  0.00000000000E+00 0.  1.
<mgrwt>
<rscale>  0 0.20367752E+04</rscale>
<asrwt>0</asrwt>
<pdfrwt beam="1">  1        2 0.30589769E+00 0.20367752E+04</pdfrwt>
<pdfrwt beam="2">  1       -2 0.80245985E-01 0.20367752E+04</pdfrwt>
<totfact> 0.86230173E+00</totfact>
</mgrwt>
</event>
<event>
 6    1  0.6091287E-004  0.3285772E+04  0.7818608E-02  0.8166525E-01
          2   -1    0    0  501    0  0.00000000000E+00  0.00000000000E+00  0.21477374178E+04  0.21477374178E+04  0.00000000000E+00 0. -1.
         -2   -1    0    0    0  501 -0.00000000000E+00 -0.00000000000E+00 -0.12567060242E+04  0.12567060242E+04  0.00000000000E+00 0.  1.
         23    2    1    2    0    0  0.37690816363E+03 -0.50518151658E+03  0.20164064816E+04  0.21145840633E+04  0.91118237897E+02 0.  0.
         11    1    3    3    0    0  0.27439180785E+03 -0.37832320919E+03  0.13538143105E+04  0.14322124501E+04  0.00000000000E+00 0.  1.
        -11    1    3    3    0    0  0.10251635578E+03 -0.12685830739E+03  0.66259217105E+03  0.68237161320E+03  0.00000000000E+00 0. -1.
         22    1    1    2    0    0 -0.37690816363E+03  0.50518151658E+03 -0.11253750880E+04  0.12898593788E+04  0.00000000000E+00 0.  1.
<mgrwt>
<rscale>  0 0.32857721E+04</rscale>
<asrwt>0</asrwt>
<pdfrwt beam="1">  1        2 0.33042114E+00 0.32857721E+04</pdfrwt>
<pdfrwt beam="2">  1       -2 0.19333939E+00 0.32857721E+04</pdfrwt>
<totfact> 0.68017926E-01</totfact>
</mgrwt>
</event>
<event>
 6    1  0.6091287E-004  0.1085149E+04  0.7818608E-02  0.9219789E-01
         -2   -1    0    0    0  501 -0.00000000000E+00  0.00000000000E+00  0.24957040651E+03  0.24957040651E+03  0.00000000000E+00 0. -1.
          2   -1    0    0  501    0  0.00000000000E+00 -0.00000000000E+00 -0.11795750558E+04  0.11795750558E+04  0.00000000000E+00 0.  1.
         23    2    1    2    0    0  0.42087238312E+03  0.25169666557E+03 -0.76241392794E+03  0.91090669088E+03  0.89393666729E+02 0.  0.
         13    1    3    3    0    0  0.17320856856E+03  0.56713285970E+02 -0.30765422680E+03  0.35758737156E+03  0.00000000000E+00 0. -1.
        -13    1    3    3    0    0  0.24766381456E+03  0.19498337960E+03 -0.45475970113E+03  0.55331931932E+03  0.00000000000E+00 0.  1.
         22    1    1    2    0    0 -0.42087238312E+03 -0.25169666557E+03 -0.16759072137E+03  0.51823877144E+03  0.00000000000E+00 0. -1.
<mgrwt>
<rscale>  0 0.10851489E+04</rscale>
<asrwt>0</asrwt>
<pdfrwt beam="1">  1        2 0.18147308E+00 0.10851489E+04</pdfrwt>
<pdfrwt beam="2">  1       -2 0.38395448E-01 0.10851489E+04</pdfrwt>
<totfact> 0.12392786E+02</totfact>
</mgrwt>
</event>
<event>
 6    1  0.6091287E-004  0.9403719E+03  0.7818608E-02  0.9376476E-01
          2   -1    0    0  501    0  0.00000000000E+00  0.00000000000E+00  0.13153810468E+04  0.13153810468E+04  0.00000000000E+00 0.  1.
         -2   -1    0    0    0  501 -0.00000000000E+00 -0.00000000000E+00 -0.16806903925E+03  0.16806903925E+03  0.00000000000E+00 0. -1.
         23    2    1    2    0    0  0.32206306847E+02  0.57799503742E+02  0.13063476988E+04  0.13111991647E+04  0.91219024843E+02 0.  0.
         11    1    3    3    0    0  0.48351537863E+02  0.20235667266E+02  0.10742286777E+04  0.10755066739E+04  0.00000000000E+00 0.  1.
        -11    1    3    3    0    0 -0.16145231015E+02  0.37563836476E+02  0.23211902108E+03  0.23569249085E+03  0.00000000000E+00 0. -1.
         22    1    1    2    0    0 -0.32206306847E+02 -0.57799503742E+02 -0.15903569123E+03  0.17225092138E+03  0.00000000000E+00 0. -1.
<mgrwt>
<rscale>  0 0.94037190E+03</rscale>
<asrwt>0</asrwt>
<pdfrwt beam="1">  1        2 0.20236631E+00 0.94037190E+03</pdfrwt>
<pdfrwt beam="2">  1       -2 0.25856776E-01 0.94037190E+03</pdfrwt>
<totfact> 0.21843230E+02</totfact>
</mgrwt>
</event>
<event>
 6    1  0.6091287E-004  0.3520912E+04  0.7818608E-02  0.8108852E-01
         -2   -1    0    0    0  501 -0.00000000000E+00  0.00000000000E+00  0.22089298551E+04  0.22089298551E+04  0.00000000000E+00 0. -1.
          2   -1    0    0  501    0  0.00000000000E+00 -0.00000000000E+00 -0.14030349307E+04  0.14030349307E+04  0.00000000000E+00 0.  1.
         23    2    1    2    0    0 -0.36118656477E+03  0.17171877318E+04  0.53480164864E+03  0.18363857239E+04  0.84322492823E+02 0.  0.
         13    1    3    3    0    0 -0.14495832438E+03  0.89317077626E+03  0.27170771780E+03  0.94477089037E+03  0.00000000000E+00 0. -1.
        -13    1    3    3    0    0 -0.21622824038E+03  0.82401695556E+03  0.26309393084E+03  0.89161483356E+03  0.00000000000E+00 0.  1.
         22    1    1    2    0    0  0.36118656477E+03 -0.17171877318E+04  0.27109327582E+03  0.17755790619E+04  0.00000000000E+00 0. -1.
<mgrwt>
<rscale>  0 0.35209122E+04</rscale>
<asrwt>0</asrwt>
<pdfrwt beam="1">  1        2 0.21585153E+00 0.35209122E+04</pdfrwt>
<pdfrwt beam="2">  1       -2 0.33983536E+00 0.35209122E+04</pdfrwt>
<totfact> 0.21301964E-01</totfact>
</mgrwt>
</event>
<event>
 6    1  0.6091287E-004  0.3623950E+04  0.7818608E-02  0.8085028E-01
          2   -1    0    0  501    0  0.00000000000E+00  0.00000000000E+00  0.18471420984E+04  0.18471420984E+04  0.00000000000E+00 0.  1.
         -2   -1    0    0    0  501 -0.00000000000E+00 -0.00000000000E+00 -0.17774776099E+04  0.17774776099E+04  0.00000000000E+00 0. -1.
         23    2    1    2    0    0 -0.80720956180E+02 -0.17684582478E+04  0.41598354417E+03  0.18207634680E+04  0.90425939733E+02 0.  0.
         13    1    3    3    0    0 -0.62960308049E+02 -0.10174642020E+04  0.28208958731E+03  0.10577201605E+04  0.00000000000E+00 0. -1.
        -13    1    3    3    0    0 -0.17760648131E+02 -0.75099404582E+03  0.13389395686E+03  0.76304330753E+03  0.00000000000E+00 0.  1.
         22    1    1    2    0    0  0.80720956180E+02  0.17684582478E+04 -0.34631905566E+03  0.18038562402E+04  0.00000000000E+00 0.  1.
<mgrwt>
<rscale>  0 0.36239502E+04</rscale>
<asrwt>0</asrwt>
<pdfrwt beam="1">  1        2 0.28417571E+00 0.36239502E+04</pdfrwt>
<pdfrwt beam="2">  1       -2 0.27345809E+00 0.36239502E+04</pdfrwt>
<totfact> 0.30510407E-01</totfact>
</mgrwt>
</event>
<event>
 6    1  0.6091287E-004  0.5407963E+04  0.7818608E-02  0.7768482E-01
         -2   -1    0    0    0  501 -0.00000000000E+00  0.00000000000E+00  0.25335796695E+04  0.25335796695E+04  0.00000000000E+00 0. -1.
          2   -1    0    0  501    0  0.00000000000E+00 -0.00000000000E+00 -0.28858437916E+04  0.28858437916E+04  0.00000000000E+00 0.  1.
         23    2    1    2    0    0  0.11272699392E+04  0.21473296464E+04 -0.13727154787E+04  0.27882482300E+04  0.90654732307E+02 0.  0.
         11    1    3    3    0    0  0.30289060203E+03  0.64398674707E+03 -0.37170965989E+03  0.80288835990E+03  0.00000000000E+00 0. -1.
        -11    1    3    3    0    0  0.82437933713E+03  0.15033428993E+04 -0.10010058188E+04  0.19853598701E+04  0.00000000000E+00 0.  1.
         22    1    1    2    0    0 -0.11272699392E+04 -0.21473296464E+04  0.10204513566E+04  0.26311752312E+04  0.00000000000E+00 0. -1.
<mgrwt>
<rscale>  0 0.54079627E+04</rscale>
<asrwt>0</asrwt>
<pdfrwt beam="1">  1        2 0.44397597E+00 0.54079627E+04</pdfrwt>
<pdfrwt beam="2">  1       -2 0.38978149E+00 0.54079627E+04</pdfrwt>
<totfact> 0.12508399E-02</totfact>
</mgrwt>
</event>
<event>
 6    1  0.6091287E-004  0.2235413E+04  0.7818608E-02  0.8503832E-01
         -2   -1    0    0    0  501 -0.00000000000E+00  0.00000000000E+00  0.10734180211E+04  0.10734180211E+04  0.00000000000E+00 0. -1.
          2   -1    0    0  501    0  0.00000000000E+00 -0.00000000000E+00 -0.11638218852E+04  0.11638218852E+04  0.00000000000E+00 0.  1.
         23    2    1    2    0    0 -0.80392661954E+03  0.75977052654E+03  0.10079154904E+03  0.11146959435E+04  0.94015144497E+02 0.  0.
         13    1    3    3    0    0 -0.41625463133E+03  0.38419367056E+03  0.98310553185E+02  0.57492404670E+03  0.00000000000E+00 0.  1.
        -13    1    3    3    0    0 -0.38767198821E+03  0.37557685598E+03  0.24809958502E+01  0.53977189676E+03  0.00000000000E+00 0. -1.
         22    1    1    2    0    0  0.80392661954E+03 -0.75977052654E+03 -0.19119541312E+03  0.11225439629E+04  0.00000000000E+00 0.  1.
<mgrwt>
<rscale>  0 0.22354126E+04</rscale>
<asrwt>0</asrwt>
<pdfrwt beam="1">  1        2 0.17904952E+00 0.22354126E+04</pdfrwt>
<pdfrwt beam="2">  1       -2 0.16514123E+00 0.22354126E+04</pdfrwt>
<totfact> 0.41921871E+00</totfact>
</mgrwt>
</event>
<event>
 6    1  0.6091287E-004  0.9641974E+03  0.7818608E-02  0.9348708E-01
          2   -1    0    0  501    0  0.00000000000E+00  0.00000000000E+00  0.19484763170E+04  0.19484763170E+04  0.00000000000E+00 0.  1.
         -2   -1    0    0    0  501 -0.00000000000E+00 -0.00000000000E+00 -0.11928251353E+03  0.11928251353E+03  0.00000000000E+00 0. -1.
         23    2    1    2    0    0  0.63725825271E+02 -0.46382145767E+03  0.11261196101E+04  0.12230667880E+04  0.92496843833E+02 0.  0.
         11    1    3    3    0    0  0.88501917705E+01 -0.19949778993E+03  0.58881216076E+03  0.62175353215E+03  0.00000000000E+00 0.  1.
        -11    1    3    3    0    0  0.54875633501E+02 -0.26432366774E+03  0.53730744939E+03  0.60131325584E+03  0.00000000000E+00 0. -1.
         22    1    1    2    0    0 -0.63725825271E+02  0.46382145767E+03  0.70307419330E+03  0.84469204251E+03  0.00000000000E+00 0. -1.
<mgrwt>
<rscale>  0 0.96419739E+03</rscale>
<asrwt>0</asrwt>
<pdfrwt beam="1">  1        2 0.29976556E+00 0.96419739E+03</pdfrwt>
<pdfrwt beam="2">  1       -2 0.18351157E-01 0.96419739E+03</pdfrwt>
<totfact> 0.17801804E+02</totfact>
</mgrwt>
</event>
<event>
 6    1  0.6091287E-004  0.1616697E+04  0.7818608E-02  0.8810356E-01
         -2   -1    0    0    0  501 -0.00000000000E+00  0.00000000000E+00  0.50584448507E+03  0.50584448507E+03  0.00000000000E+00 0. -1.
          2   -1    0    0  501    0  0.00000000000E+00 -0.00000000000E+00 -0.12917546208E+04  0.12917546208E+04  0.00000000000E+00 0.  1.
         23    2    1    2    0    0  0.72543554103E+03 -0.41674026257E+02 -0.78166315506E+03  0.10709551177E+04  0.89185915316E+02 0.  0.
         13    1    3    3    0    0  0.57899113034E+03 -0.60791206990E+02 -0.65564819165E+03  0.87681289399E+03  0.00000000000E+00 0. -1.
        -13    1    3    3    0    0  0.14644441069E+03  0.19117180733E+02 -0.12601496341E+03  0.19414222370E+03  0.00000000000E+00 0.  1.
         22    1    1    2    0    0 -0.72543554103E+03  0.41674026257E+02 -0.42469806377E+01  0.72664398814E+03  0.00000000000E+00 0. -1.
<mgrwt>
<rscale>  0 0.16166966E+04</rscale>
<asrwt>0</asrwt>
<pdfrwt beam="1">  1        2 0.19873148E+00 0.16166966E+04</pdfrwt>
<pdfrwt beam="2">  1       -2 0.77822229E-01 0.16166966E+04</pdfrwt>
<totfact> 0.23544860E+01</totfact>
</mgrwt>
</event>
<event>
 6    1  0.6091287E-004  0.2831347E+04  0.7818608E-02  0.8293602E-01
          2   -1    0    0  501    0  0.00000000000E+00  0.00000000000E+00  0.10552869879E+04  0.10552869879E+04  0.00000000000E+00 0.  1.
         -2   -1    0    0    0  501 -0.00000000000E+00 -0.00000000000E+00 -0.18991339684E+04  0.18991339684E+04  0.00000000000E+00 0. -1.
         23    2    1    2    0    0  0.63464298328E+03  0.89749895081E+03 -0.13515881557E+04  0.17436042138E+04  0.71337430489E+02 0.  0.
         13    1    3    3    0    0  0.15970401568E+03  0.23214943195E+03 -0.39682054532E+03  0.48668806906E+03  0.00000000000E+00 0.  1.
        -13    1    3    3    0    0  0.47493896760E+03  0.66534951886E+03 -0.95476761035E+03  0.12569161448E+04  0.00000000000E+00 0. -1.
         22    1    1    2    0    0 -0.63464298328E+03 -0.89749895081E+03  0.50774117509E+03  0.12108167425E+04  0.00000000000E+00 0.  1.
<mgrwt>
<rscale>  0 0.28313469E+04</rscale>
<asrwt>0</asrwt>
<pdfrwt beam="1">  1        2 0.16235184E+00 0.28313469E+04</pdfrwt>
<pdfrwt beam="2">  1       -2 0.29217446E+00 0.28313469E+04</pdfrwt>
<totfact> 0.71546464E-01</totfact>
</mgrwt>
</event>
<event>
 6    1  0.6091287E-004  0.3394974E+03  0.7818608E-02  0.1067010E+00
         -2   -1    0    0    0  501 -0.00000000000E+00  0.00000000000E+00  0.29340408462E+03  0.29340408462E+03  0.00000000000E+00 0. -1.
          2   -1    0    0  501    0  0.00000000000E+00 -0.00000000000E+00 -0.98207981365E+02  0.98207981365E+02  0.00000000000E+00 0.  1.
         23    2    1    2    0    0 -0.10374707204E+03  0.92735014554E+02  0.16355006737E+02  0.16501247268E+03  0.87168755957E+02 0.  0.
         13    1    3    3    0    0 -0.49785867595E+02  0.95723065287E+02 -0.20650712867E+01  0.10791571878E+03  0.00000000000E+00 0. -1.
        -13    1    3    3    0    0 -0.53961204443E+02 -0.29880507329E+01  0.18420078024E+02  0.57096753905E+02  0.00000000000E+00 0.  1.
         22    1    1    2    0    0  0.10374707204E+03 -0.92735014554E+02  0.17884109652E+03  0.22659959330E+03  0.00000000000E+00 0. -1.
<mgrwt>
<rscale>  0 0.33949741E+03</rscale>
<asrwt>0</asrwt>
<pdfrwt beam="1">  1        2 0.15108920E-01 0.33949741E+03</pdfrwt>
<pdfrwt beam="2">  1       -2 0.45139089E-01 0.33949741E+03</pdfrwt>
<totfact> 0.18268782E+03</totfact>
</mgrwt>
</event>
<event>
 6    1  0.6091287E-004  0.2861357E+03  0.7818608E-02  0.1092384E+00
          2   -1    0    0  501    0  0.00000000000E+00  0.00000000000E+00  0.32386705925E+03  0.32386705925E+03  0.00000000000E+00 0.  1.
         -2   -1    0    0    0  501 -0.00000000000E+00 -0.00000000000E+00 -0.63200015501E+02  0.63200015501E+02  0.00000000000E+00 0. -1.
         23    2    1    2    0    0  0.11193003093E+02 -0.81182225466E+02  0.27748443626E+03  0.30340907011E+03  0.91343387349E+02 0.  0.
         11    1    3    3    0    0  0.17434926838E+02  0.97186188570E+01  0.13382533159E+02  0.24031654543E+02  0.00000000000E+00 0. -1.
        -11    1    3    3    0    0 -0.62419237452E+01 -0.90900844323E+02  0.26410190310E+03  0.27937741557E+03  0.00000000000E+00 0.  1.
         22    1    1    2    0    0 -0.11193003093E+02  0.81182225466E+02 -0.16817392505E+02  0.83658004641E+02  0.00000000000E+00 0. -1.
<mgrwt>
<rscale>  0 0.28613565E+03</rscale>
<asrwt>0</asrwt>
<pdfrwt beam="1">  1        2 0.49825700E-01 0.28613565E+03</pdfrwt>
<pdfrwt beam="2">  1       -2 0.97230795E-02 0.28613565E+03</pdfrwt>
<totfact> 0.69462471E+03</totfact>
</mgrwt>
</event>
<event>
 6    1  0.6091287E-004  0.6976368E+03  0.7818608E-02  0.9721282E-01
         -2   -1    0    0    0  501 -0.00000000000E+00  0.00000000000E+00  0.63674564727E+02  0.63674564727E+02  0.00000000000E+00 0. -1.
          2   -1    0    0  501    0  0.00000000000E+00 -0.00000000000E+00 -0.19108771879E+04  0.19108771879E+04  0.00000000000E+00 0.  1.
         23    2    1    2    0    0 -0.20031270356E+02  0.34844183982E+02 -0.19030902758E+04  0.19057128198E+04  0.91506199663E+02 0.  0.
         11    1    3    3    0    0  0.10765231618E+02 -0.13457910458E+02 -0.85475307455E+02  0.87195376885E+02  0.00000000000E+00 0. -1.
        -11    1    3    3    0    0 -0.30796501974E+02  0.48302094440E+02 -0.18176149684E+04  0.18185174429E+04  0.00000000000E+00 0.  1.
         22    1    1    2    0    0  0.20031270356E+02 -0.34844183982E+02  0.55887652682E+02  0.68838932819E+02  0.00000000000E+00 0. -1.
<mgrwt>
<rscale>  0 0.69763679E+03</rscale>
<asrwt>0</asrwt>
<pdfrwt beam="1">  1        2 0.29398113E+00 0.69763679E+03</pdfrwt>
<pdfrwt beam="2">  1       -2 0.97960862E-02 0.69763679E+03</pdfrwt>
<totfact> 0.54477224E+02</totfact>
</mgrwt>
</event>
<event>
 6    1  0.6091287E-004  0.1899090E+04  0.7818608E-02  0.8655310E-01
         -2   -1    0    0    0  501 -0.00000000000E+00  0.00000000000E+00  0.58312386450E+03  0.58312386450E+03  0.00000000000E+00 0. -1.
          2   -1    0    0  501    0  0.00000000000E+00 -0.00000000000E+00 -0.15462163023E+04  0.15462163023E+04  0.00000000000E+00 0.  1.
         23    2    1    2    0    0 -0.28215230302E+03  0.36183960770E+03 -0.14120191170E+04  0.14874110530E+04  0.89754275939E+02 0.  0.
         13    1    3    3    0    0 -0.20505281635E+03  0.20196219766E+03 -0.80126424001E+03  0.85138696789E+03  0.00000000000E+00 0.  1.
        -13    1    3    3    0    0 -0.77099486666E+02  0.15987741005E+03 -0.61075487698E+03  0.63602408511E+03  0.00000000000E+00 0. -1.
         22    1    1    2    0    0  0.28215230302E+03 -0.36183960770E+03  0.44892667921E+03  0.64192911377E+03  0.00000000000E+00 0. -1.
<mgrwt>
<rscale>  0 0.18990899E+04</rscale>
<asrwt>0</asrwt>
<pdfrwt beam="1">  1        2 0.23787943E+00 0.18990899E+04</pdfrwt>
<pdfrwt beam="2">  1       -2 0.89711363E-01 0.18990899E+04</pdfrwt>
<totfact> 0.11921607E+01</totfact>
</mgrwt>
</event>
<event>
 6    1  0.6091287E-004  0.2081376E+04  0.7818608E-02  0.8569492E-01
         -2   -1    0    0    0  501 -0.00000000000E+00  0.00000000000E+00  0.18823347360E+04  0.18823347360E+04  0.00000000000E+00 0. -1.
          2   -1    0    0  501    0  0.00000000000E+00 -0.00000000000E+00 -0.57536589652E+03  0.57536589652E+03  0.00000000000E+00 0.  1.
         23    2    1    2    0    0  0.64802641077E+03  0.42616436348E+03 -0.16122735913E+03  0.79723251437E+03  0.89616554676E+02 0.  0.
         13    1    3    3    0    0  0.19002558243E+03  0.85513341919E+02 -0.65746178907E+02  0.21850586643E+03  0.00000000000E+00 0. -1.
        -13    1    3    3    0    0  0.45800082834E+03  0.34065102156E+03 -0.95481180225E+02  0.57872664793E+03  0.00000000000E+00 0.  1.
         22    1    1    2    0    0 -0.64802641077E+03 -0.42616436348E+03  0.14681961986E+04  0.16604681182E+04  0.00000000000E+00 0.  1.
<mgrwt>
<rscale>  0 0.20813757E+04</rscale>
<asrwt>0</asrwt>
<pdfrwt beam="1">  1        2 0.88517831E-01 0.20813757E+04</pdfrwt>
<pdfrwt beam="2">  1       -2 0.28958996E+00 0.20813757E+04</pdfrwt>
<totfact> 0.17729430E+00</totfact>
</mgrwt>
</event>
<event>
 6    1  0.8240559E-004  0.2816404E+04  0.7818608E-02  0.8298194E-01
          2   -1    0    0  501    0  0.00000000000E+00  0.00000000000E+00  0.13769936754E+04  0.13769936754E+04  0.00000000000E+00 0.  1.
         -2   -1    0    0    0  501 -0.00000000000E+00 -0.00000000000E+00 -0.14401171301E+04  0.14401171301E+04  0.00000000000E+00 0. -1.
         23    2    1    2    0    0  0.11914338177E+03  0.10646758964E+04  0.88017725702E+03  0.13896844002E+04  0.93706021526E+02 0.  0.
         13    1    3    3    0    0  0.61291053806E+02  0.59332890205E+03  0.42986628960E+03  0.73524200521E+03  0.00000000000E+00 0. -1.
        -13    1    3    3    0    0  0.57852327961E+02  0.47134699439E+03  0.45031096742E+03  0.65444239498E+03  0.00000000000E+00 0.  1.
         22    1    1    2    0    0 -0.11914338177E+03 -0.10646758964E+04 -0.94330071173E+03  0.14274264053E+04  0.00000000000E+00 0. -1.
<mgrwt>
<rscale>  0 0.28164035E+04</rscale>
<asrwt>0</asrwt>
<pdfrwt beam="1">  1        2 0.21184518E+00 0.28164035E+04</pdfrwt>
<pdfrwt beam="2">  1       -2 0.22155648E+00 0.28164035E+04</pdfrwt>
<totfact> 0.12525273E+00</totfact>
</mgrwt>
</event>
<event>
 6    1  0.6091287E-004  0.2880646E+04  0.7818608E-02  0.8278659E-01
          2   -1    0    0  501    0  0.00000000000E+00  0.00000000000E+00  0.12378460183E+04  0.12378460183E+04  0.00000000000E+00 0.  1.
         -2   -1    0    0    0  501 -0.00000000000E+00 -0.00000000000E+00 -0.16759190329E+04  0.16759190329E+04  0.00000000000E+00 0. -1.
         23    2    1    2    0    0 -0.10003803025E+04  0.57029714869E+02  0.82523992975E+03  0.13013219566E+04  0.91677451676E+02 0.  0.
         11    1    3    3    0    0 -0.98258842900E+03  0.68387567228E+02  0.80499553385E+03  0.12720749544E+04  0.00000000000E+00 0.  1.
        -11    1    3    3    0    0 -0.17791873520E+02 -0.11357852359E+02  0.20244395898E+02  0.29247002220E+02  0.00000000000E+00 0. -1.
         22    1    1    2    0    0  0.10003803025E+04 -0.57029714869E+02 -0.12633129443E+04  0.16124430946E+04  0.00000000000E+00 0. -1.
<mgrwt>
<rscale>  0 0.28806456E+04</rscale>
<asrwt>0</asrwt>
<pdfrwt beam="1">  1        2 0.19043785E+00 0.28806456E+04</pdfrwt>
<pdfrwt beam="2">  1       -2 0.25783370E+00 0.28806456E+04</pdfrwt>
<totfact> 0.89419649E-01</totfact>
</mgrwt>
</event>
<event>
 6    1  0.6091287E-004  0.1982798E+04  0.7818608E-02  0.8614706E-01
          1   -1    0    0  501    0  0.00000000000E+00  0.00000000000E+00  0.25366104965E+04  0.25366104965E+04  0.00000000000E+00 0.  1.
         -1   -1    0    0    0  501 -0.00000000000E+00 -0.00000000000E+00 -0.38747459725E+03  0.38747459725E+03  0.00000000000E+00 0. -1.
         23    2    1    2    0    0  0.97492219616E+03 -0.12490775521E+03  0.93062287074E+03  0.13585662543E+04  0.11648220472E+03 0.  0.
         11    1    3    3    0    0  0.70729591989E+03 -0.52478667067E+02  0.71740378707E+03  0.10088060877E+04  0.00000000000E+00 0.  1.
        -11    1    3    3    0    0  0.26762627627E+03 -0.72429088140E+02  0.21321908367E+03  0.34976016668E+03  0.00000000000E+00 0. -1.
         22    1    1    2    0    0 -0.97492219616E+03  0.12490775521E+03  0.12185130285E+04  0.15655188394E+04  0.00000000000E+00 0. -1.
<mgrwt>
<rscale>  0 0.19827982E+04</rscale>
<asrwt>0</asrwt>
<pdfrwt beam="1">  1        1 0.39024776E+00 0.19827982E+04</pdfrwt>
<pdfrwt beam="2">  1       -1 0.59611478E-01 0.19827982E+04</pdfrwt>
<totfact> 0.33883706E+00</totfact>
</mgrwt>
</event>
<event>
 6    1  0.6091287E-004  0.4689193E+04  0.7818608E-02  0.7878327E-01
         -2   -1    0    0    0  501 -0.00000000000E+00  0.00000000000E+00  0.33474448441E+04  0.33474448441E+04  0.00000000000E+00 0. -1.
          2   -1    0    0  501    0  0.00000000000E+00 -0.00000000000E+00 -0.16421876525E+04  0.16421876525E+04  0.00000000000E+00 0.  1.
         23    2    1    2    0    0  0.19503718357E+04  0.20424090494E+03 -0.51279478945E+03  0.20289874258E+04  0.90370531663E+02 0.  0.
         11    1    3    3    0    0  0.14350214567E+04  0.18892445875E+03 -0.36759653774E+03  0.14933540260E+04  0.00000000000E+00 0. -1.
        -11    1    3    3    0    0  0.51535037900E+03  0.15316446190E+02 -0.14519825171E+03  0.53563339978E+03  0.00000000000E+00 0.  1.
         22    1    1    2    0    0 -0.19503718357E+04 -0.20424090494E+03  0.22180519811E+04  0.29606450709E+04  0.00000000000E+00 0. -1.
<mgrwt>
<rscale>  0 0.46891929E+04</rscale>
<asrwt>0</asrwt>
<pdfrwt beam="1">  1        2 0.25264425E+00 0.46891929E+04</pdfrwt>
<pdfrwt beam="2">  1       -2 0.51499151E+00 0.46891929E+04</pdfrwt>
<totfact> 0.10602581E-02</totfact>
</mgrwt>
</event>
<event>
 6    1  0.6091287E-004  0.2183258E+04  0.7818608E-02  0.8525429E-01
          2   -1    0    0  501    0  0.00000000000E+00  0.00000000000E+00  0.12042635000E+04  0.12042635000E+04  0.00000000000E+00 0.  1.
         -2   -1    0    0    0  501 -0.00000000000E+00 -0.00000000000E+00 -0.98952923072E+03  0.98952923072E+03  0.00000000000E+00 0. -1.
         23    2    1    2    0    0 -0.61877886080E+03  0.80962968533E+03 -0.28033408194E+03  0.10608848888E+04  0.92206527857E+02 0.  0.
         11    1    3    3    0    0 -0.55030582977E+03  0.67234529740E+03 -0.25418315844E+03  0.90525895922E+03  0.00000000000E+00 0.  1.
        -11    1    3    3    0    0 -0.68473031033E+02  0.13728438793E+03 -0.26150923495E+02  0.15562592955E+03  0.00000000000E+00 0. -1.
         22    1    1    2    0    0  0.61877886080E+03 -0.80962968533E+03  0.49506835120E+03  0.11329078419E+04  0.00000000000E+00 0.  1.
<mgrwt>
<rscale>  0 0.21832581E+04</rscale>
<asrwt>0</asrwt>
<pdfrwt beam="1">  1        2 0.18527131E+00 0.21832581E+04</pdfrwt>
<pdfrwt beam="2">  1       -2 0.15223527E+00 0.21832581E+04</pdfrwt>
<totfact> 0.49650777E+00</totfact>
</mgrwt>
</event>
<event>
 6    1  0.6091287E-004  0.1377676E+04  0.7818608E-02  0.8970138E-01
         -2   -1    0    0    0  501 -0.00000000000E+00  0.00000000000E+00  0.51165293829E+03  0.51165293829E+03  0.00000000000E+00 0. -1.
          2   -1    0    0  501    0  0.00000000000E+00 -0.00000000000E+00 -0.92738252211E+03  0.92738252211E+03  0.00000000000E+00 0.  1.
         23    2    1    2    0    0  0.22750000207E+03  0.25210264592E+03  0.41337883143E+03  0.54308191290E+03  0.93508880993E+02 0.  0.
         13    1    3    3    0    0  0.94201921609E+01  0.59449359058E+02  0.87374948222E+02  0.10610064981E+03  0.00000000000E+00 0. -1.
        -13    1    3    3    0    0  0.21807980991E+03  0.19265328686E+03  0.32600388321E+03  0.43698126309E+03  0.00000000000E+00 0.  1.
         22    1    1    2    0    0 -0.22750000207E+03 -0.25210264592E+03 -0.82910841526E+03  0.89595354750E+03  0.00000000000E+00 0.  1.
<mgrwt>
<rscale>  0 0.13776763E+04</rscale>
<asrwt>0</asrwt>
<pdfrwt beam="1">  1        2 0.14267424E+00 0.13776763E+04</pdfrwt>
<pdfrwt beam="2">  1       -2 0.78715836E-01 0.13776763E+04</pdfrwt>
<totfact> 0.39286825E+01</totfact>
</mgrwt>
</event>
<event>
 6    1  0.6091287E-004  0.3278122E+04  0.7818608E-02  0.8168485E-01
          2   -1    0    0  501    0  0.00000000000E+00  0.00000000000E+00  0.19199946126E+04  0.19199946126E+04  0.00000000000E+00 0.  1.
         -2   -1    0    0    0  501 -0.00000000000E+00 -0.00000000000E+00 -0.13992339853E+04  0.13992339853E+04  0.00000000000E+00 0. -1.
         23    2    1    2    0    0  0.74471254633E+03  0.12930760259E+04  0.94398617118E+03  0.17681766173E+04  0.93253808930E+02 0.  0.
         11    1    3    3    0    0  0.59030265324E+03  0.97625822393E+03  0.75756395151E+03  0.13694672259E+04  0.00000000000E+00 0. -1.
        -11    1    3    3    0    0  0.15440989309E+03  0.31681780201E+03  0.18642221967E+03  0.39870939134E+03  0.00000000000E+00 0.  1.
         22    1    1    2    0    0 -0.74471254633E+03 -0.12930760259E+04 -0.42322554389E+03  0.15510519806E+04  0.00000000000E+00 0. -1.
<mgrwt>
<rscale>  0 0.32781225E+04</rscale>
<asrwt>0</asrwt>
<pdfrwt beam="1">  1        2 0.29538379E+00 0.32781225E+04</pdfrwt>
<pdfrwt beam="2">  1       -2 0.21526677E+00 0.32781225E+04</pdfrwt>
<totfact> 0.65610647E-01</totfact>
</mgrwt>
</event>
<event>
 6    1  0.6091287E-004  0.7668717E+03  0.7818608E-02  0.9609247E-01
          2   -1    0    0  501    0  0.00000000000E+00  0.00000000000E+00  0.54071663674E+03  0.54071663674E+03  0.00000000000E+00 0.  1.
         -2   -1    0    0    0  501 -0.00000000000E+00 -0.00000000000E+00 -0.27190404250E+03  0.27190404250E+03  0.00000000000E+00 0. -1.
         23    2    1    2    0    0 -0.26987499847E+03  0.88331721636E+02  0.40079538707E+03  0.49948418272E+03  0.90622837291E+02 0.  0.
         13    1    3    3    0    0 -0.16179124933E+03  0.90226609439E+02  0.29421891401E+03  0.34768091517E+03  0.00000000000E+00 0. -1.
        -13    1    3    3    0    0 -0.10808374914E+03 -0.18948878028E+01  0.10657647306E+03  0.15180326755E+03  0.00000000000E+00 0.  1.
         22    1    1    2    0    0  0.26987499847E+03 -0.88331721636E+02 -0.13198279284E+03  0.31313649652E+03  0.00000000000E+00 0. -1.
<mgrwt>
<rscale>  0 0.76687167E+03</rscale>
<asrwt>0</asrwt>
<pdfrwt beam="1">  1        2 0.83187175E-01 0.76687167E+03</pdfrwt>
<pdfrwt beam="2">  1       -2 0.41831391E-01 0.76687167E+03</pdfrwt>
<totfact> 0.30635296E+02</totfact>
</mgrwt>
</event>
<event>
 6    1  0.6091287E-004  0.1531798E+04  0.7818608E-02  0.8863579E-01
         -2   -1    0    0    0  501 -0.00000000000E+00  0.00000000000E+00  0.29869056126E+03  0.29869056126E+03  0.00000000000E+00 0. -1.
          2   -1    0    0  501    0  0.00000000000E+00 -0.00000000000E+00 -0.19639096924E+04  0.19639096924E+04  0.00000000000E+00 0.  1.
         23    2    1    2    0    0  0.82493313288E+02  0.72184575864E+03 -0.11805917978E+04  0.13892560499E+04  0.91481873508E+02 0.  0.
         11    1    3    3    0    0  0.69101440826E+02  0.25095428846E+03 -0.45364937763E+03  0.52302086177E+03  0.00000000000E+00 0. -1.
        -11    1    3    3    0    0  0.13391872463E+02  0.47089147017E+03 -0.72694242016E+03  0.86623518813E+03  0.00000000000E+00 0.  1.
         22    1    1    2    0    0 -0.82493313288E+02 -0.72184575864E+03 -0.48462733334E+03  0.87334420375E+03  0.00000000000E+00 0. -1.
<mgrwt>
<rscale>  0 0.15317980E+04</rscale>
<asrwt>0</asrwt>
<pdfrwt beam="1">  1        2 0.30213995E+00 0.15317980E+04</pdfrwt>
<pdfrwt beam="2">  1       -2 0.45952395E-01 0.15317980E+04</pdfrwt>
<totfact> 0.30293359E+01</totfact>
</mgrwt>
</event>
<event>
 6    1  0.6091287E-004  0.9502664E+03  0.7818608E-02  0.9364839E-01
          2   -1    0    0  501    0  0.00000000000E+00  0.00000000000E+00  0.10775274941E+04  0.10775274941E+04  0.00000000000E+00 0.  1.
         -2   -1    0    0    0  501 -0.00000000000E+00 -0.00000000000E+00 -0.20950885511E+03  0.20950885511E+03  0.00000000000E+00 0. -1.
         23    2    1    2    0    0 -0.31360931797E+03  0.20359503347E+03  0.82541536032E+03  0.91071629753E+03  0.91059955850E+02 0.  0.
         13    1    3    3    0    0 -0.46063987008E+02  0.74875898645E+02  0.19244124645E+03  0.21157014069E+03  0.00000000000E+00 0. -1.
        -13    1    3    3    0    0 -0.26754533096E+03  0.12871913482E+03  0.63297411387E+03  0.69914615684E+03  0.00000000000E+00 0.  1.
         22    1    1    2    0    0  0.31360931797E+03 -0.20359503347E+03  0.42603278699E+02  0.37632005172E+03  0.00000000000E+00 0.  1.
<mgrwt>
<rscale>  0 0.95026639E+03</rscale>
<asrwt>0</asrwt>
<pdfrwt beam="1">  1        2 0.16577346E+00 0.95026639E+03</pdfrwt>
<pdfrwt beam="2">  1       -2 0.32232132E-01 0.95026639E+03</pdfrwt>
<totfact> 0.20143825E+02</totfact>
</mgrwt>
</event>
<event>
 6    1  0.6091287E-004  0.1398058E+04  0.7818608E-02  0.8955225E-01
          2   -1    0    0  501    0  0.00000000000E+00  0.00000000000E+00  0.90508544335E+03  0.90508544335E+03  0.00000000000E+00 0.  1.
         -2   -1    0    0    0  501 -0.00000000000E+00 -0.00000000000E+00 -0.53988454773E+03  0.53988454773E+03  0.00000000000E+00 0. -1.
         23    2    1    2    0    0  0.25056234635E+03 -0.16200589610E+03  0.83298191768E+03  0.89013083927E+03  0.97193806685E+02 0.  0.
         13    1    3    3    0    0  0.15680661242E+03 -0.44514193591E+02  0.40849516117E+03  0.43981601133E+03  0.00000000000E+00 0. -1.
        -13    1    3    3    0    0  0.93755733929E+02 -0.11749170251E+03  0.42448675651E+03  0.45031482793E+03  0.00000000000E+00 0.  1.
         22    1    1    2    0    0 -0.25056234635E+03  0.16200589610E+03 -0.46778102206E+03  0.55483915181E+03  0.00000000000E+00 0. -1.
<mgrwt>
<rscale>  0 0.13980581E+04</rscale>
<asrwt>0</asrwt>
<pdfrwt beam="1">  1        2 0.13924391E+00 0.13980581E+04</pdfrwt>
<pdfrwt beam="2">  1       -2 0.83059161E-01 0.13980581E+04</pdfrwt>
<totfact> 0.35971245E+01</totfact>
</mgrwt>
</event>
<event>
 6    1  0.6091287E-004  0.2272425E+04  0.7818608E-02  0.8488873E-01
         -1   -1    0    0    0  501 -0.00000000000E+00  0.00000000000E+00  0.76491979639E+03  0.76491979639E+03  0.00000000000E+00 0. -1.
          1   -1    0    0  501    0  0.00000000000E+00 -0.00000000000E+00 -0.16877316132E+04  0.16877316132E+04  0.00000000000E+00 0.  1.
         23    2    1    2    0    0 -0.19574956364E+03 -0.23286632640E+03 -0.16416453719E+04  0.16720962882E+04  0.91443164778E+02 0.  0.
         13    1    3    3    0    0 -0.46597398646E+02 -0.68160632516E+02 -0.68637347547E+03  0.69132173206E+03  0.00000000000E+00 0.  1.
        -13    1    3    3    0    0 -0.14915216500E+03 -0.16470569388E+03 -0.95527189641E+03  0.98077455615E+03  0.00000000000E+00 0. -1.
         22    1    1    2    0    0  0.19574956364E+03  0.23286632640E+03  0.71883355506E+03  0.78055512138E+03  0.00000000000E+00 0. -1.
<mgrwt>
<rscale>  0 0.22724254E+04</rscale>
<asrwt>0</asrwt>
<pdfrwt beam="1">  1        1 0.25965102E+00 0.22724254E+04</pdfrwt>
<pdfrwt beam="2">  1       -1 0.11767997E+00 0.22724254E+04</pdfrwt>
<totfact> 0.28581983E+00</totfact>
</mgrwt>
</event>
<event>
 6    1  0.6091287E-004  0.3063896E+04  0.7818608E-02  0.8225717E-01
         -2   -1    0    0    0  501 -0.00000000000E+00  0.00000000000E+00  0.15031982667E+04  0.15031982667E+04  0.00000000000E+00 0. -1.
          2   -1    0    0  501    0  0.00000000000E+00 -0.00000000000E+00 -0.15612471775E+04  0.15612471775E+04  0.00000000000E+00 0.  1.
         23    2    1    2    0    0  0.13535338911E+04  0.69462861956E+03 -0.19742023106E+03  0.15367061738E+04  0.89040459532E+02 0.  0.
         13    1    3    3    0    0  0.75007424803E+03  0.38715272182E+03 -0.15407491411E+03  0.85804293991E+03  0.00000000000E+00 0.  1.
        -13    1    3    3    0    0  0.60345964308E+03  0.30747589774E+03 -0.43345316943E+02  0.67866323388E+03  0.00000000000E+00 0. -1.
         22    1    1    2    0    0 -0.13535338911E+04 -0.69462861956E+03  0.13937132025E+03  0.15277392704E+04  0.00000000000E+00 0. -1.
<mgrwt>
<rscale>  0 0.30638956E+04</rscale>
<asrwt>0</asrwt>
<pdfrwt beam="1">  1        2 0.24019187E+00 0.30638956E+04</pdfrwt>
<pdfrwt beam="2">  1       -2 0.23126127E+00 0.30638956E+04</pdfrwt>
<totfact> 0.83826263E-01</totfact>
</mgrwt>
</event>
<event>
 6    1  0.6091287E-004  0.2094863E+04  0.7818608E-02  0.8563510E-01
         -2   -1    0    0    0  501 -0.00000000000E+00  0.00000000000E+00  0.64375533392E+03  0.64375533392E+03  0.00000000000E+00 0. -1.
          2   -1    0    0  501    0  0.00000000000E+00 -0.00000000000E+00 -0.17042385615E+04  0.17042385615E+04  0.00000000000E+00 0.  1.
         23    2    1    2    0    0 -0.35783389640E+03  0.83912499715E+03 -0.11036159801E+04  0.14347380207E+04  0.91263893286E+02 0.  0.
         11    1    3    3    0    0 -0.76698017944E+02  0.19890973661E+03 -0.20125862487E+03  0.29317691478E+03  0.00000000000E+00 0.  1.
        -11    1    3    3    0    0 -0.28113587846E+03  0.64021526054E+03 -0.90235735526E+03  0.11415611059E+04  0.00000000000E+00 0. -1.
         22    1    1    2    0    0  0.35783389640E+03 -0.83912499715E+03  0.43132752605E+02  0.91325587466E+03  0.00000000000E+00 0. -1.
<mgrwt>
<rscale>  0 0.20948629E+04</rscale>
<asrwt>0</asrwt>
<pdfrwt beam="1">  1        2 0.26219055E+00 0.20948629E+04</pdfrwt>
<pdfrwt beam="2">  1       -2 0.99039282E-01 0.20948629E+04</pdfrwt>
<totfact> 0.75996971E+00</totfact>
</mgrwt>
</event>
<event>
 6    1  0.6091287E-004  0.2073608E+04  0.7818608E-02  0.8572959E-01
         -2   -1    0    0    0  501 -0.00000000000E+00  0.00000000000E+00  0.37959780796E+03  0.37959780796E+03  0.00000000000E+00 0. -1.
          2   -1    0    0  501    0  0.00000000000E+00 -0.00000000000E+00 -0.28318471106E+04  0.28318471106E+04  0.00000000000E+00 0.  1.
         23    2    1    2    0    0 -0.52305555372E+03  0.19910946419E+03  0.11960440036E+03  0.57939948569E+03  0.90370683439E+02 0.  0.
         11    1    3    3    0    0 -0.14051987697E+03  0.88777422804E+02  0.60624873079E+02  0.17692552631E+03  0.00000000000E+00 0. -1.
        -11    1    3    3    0    0 -0.38253567675E+03  0.11033204139E+03  0.58979527283E+02  0.40247395939E+03  0.00000000000E+00 0.  1.
         22    1    1    2    0    0  0.52305555372E+03 -0.19910946419E+03 -0.25718537030E+04  0.26320454329E+04  0.00000000000E+00 0.  1.
<mgrwt>
<rscale>  0 0.20736084E+04</rscale>
<asrwt>0</asrwt>
<pdfrwt beam="1">  1        2 0.43566877E+00 0.20736084E+04</pdfrwt>
<pdfrwt beam="2">  1       -2 0.58399665E-01 0.20736084E+04</pdfrwt>
<totfact> 0.56080914E+00</totfact>
</mgrwt>
</event>
<event>
 6    1  0.6091287E-004  0.4143988E+04  0.7818608E-02  0.7976113E-01
          2   -1    0    0  501    0  0.00000000000E+00  0.00000000000E+00  0.34464263552E+04  0.34464263552E+04  0.00000000000E+00 0.  1.
         -2   -1    0    0    0  501 -0.00000000000E+00 -0.00000000000E+00 -0.12456842073E+04  0.12456842073E+04  0.00000000000E+00 0. -1.
         23    2    1    2    0    0  0.16738626838E+04  0.27429719143E+02  0.24813531304E+04  0.29946680164E+04  0.91402935491E+02 0.  0.
         13    1    3    3    0    0  0.99509188697E+03  0.47231990236E+02  0.15332769556E+04  0.18284903464E+04  0.00000000000E+00 0. -1.
        -13    1    3    3    0    0  0.67877079682E+03 -0.19802271092E+02  0.94807617487E+03  0.11661776700E+04  0.00000000000E+00 0.  1.
         22    1    1    2    0    0 -0.16738626838E+04 -0.27429719143E+02 -0.28061098253E+03  0.16974425461E+04  0.00000000000E+00 0. -1.
<mgrwt>
<rscale>  0 0.41439879E+04</rscale>
<asrwt>0</asrwt>
<pdfrwt beam="1">  1        2 0.53021944E+00 0.41439879E+04</pdfrwt>
<pdfrwt beam="2">  1       -2 0.19164373E+00 0.41439879E+04</pdfrwt>
<totfact> 0.10421395E-01</totfact>
</mgrwt>
</event>
<event>
 6    1  0.6091287E-004  0.1267902E+04  0.7818608E-02  0.9055413E-01
         -1   -1    0    0    0  501 -0.00000000000E+00  0.00000000000E+00  0.68976619697E+03  0.68976619697E+03  0.00000000000E+00 0. -1.
          1   -1    0    0  501    0  0.00000000000E+00 -0.00000000000E+00 -0.58265269768E+03  0.58265269768E+03  0.00000000000E+00 0.  1.
         23    2    1    2    0    0  0.28050051983E+03  0.56481548616E+03  0.44641410455E+02  0.63869984260E+03  0.90816068929E+02 0.  0.
         13    1    3    3    0    0  0.47004472174E+02  0.16657949579E+03 -0.12504824469E+02  0.17353535506E+03  0.00000000000E+00 0.  1.
        -13    1    3    3    0    0  0.23349604766E+03  0.39823599038E+03  0.57146234925E+02  0.46516448754E+03  0.00000000000E+00 0. -1.
         22    1    1    2    0    0 -0.28050051983E+03 -0.56481548616E+03  0.62472088839E+02  0.63371905204E+03  0.00000000000E+00 0.  1.
<mgrwt>
<rscale>  0 0.12679024E+04</rscale>
<asrwt>0</asrwt>
<pdfrwt beam="1">  1        1 0.89638877E-01 0.12679024E+04</pdfrwt>
<pdfrwt beam="2">  1       -1 0.10611788E+00 0.12679024E+04</pdfrwt>
<totfact> 0.29240361E+01</totfact>
</mgrwt>
</event>
<event>
 6    1  0.6091287E-004  0.3444252E+04  0.7818608E-02  0.8127130E-01
          2   -1    0    0  501    0  0.00000000000E+00  0.00000000000E+00  0.26453316118E+04  0.26453316118E+04  0.00000000000E+00 0.  1.
         -2   -1    0    0    0  501 -0.00000000000E+00 -0.00000000000E+00 -0.11211139818E+04  0.11211139818E+04  0.00000000000E+00 0. -1.
         23    2    1    2    0    0  0.18951768923E+03 -0.11232790543E+04 -0.64803634539E+03  0.13136186282E+04  0.89274896480E+02 0.  0.
         11    1    3    3    0    0  0.60536917372E+02 -0.21252325315E+03 -0.96788051146E+02  0.24124422965E+03  0.00000000000E+00 0. -1.
        -11    1    3    3    0    0  0.12898077185E+03 -0.91075580116E+03 -0.55124829425E+03  0.10723743986E+04  0.00000000000E+00 0.  1.
         22    1    1    2    0    0 -0.18951768923E+03  0.11232790543E+04  0.21722539754E+04  0.24528269653E+04  0.00000000000E+00 0.  1.
<mgrwt>
<rscale>  0 0.34442522E+04</rscale>
<asrwt>0</asrwt>
<pdfrwt beam="1">  1        2 0.40697409E+00 0.34442522E+04</pdfrwt>
<pdfrwt beam="2">  1       -2 0.17247908E+00 0.34442522E+04</pdfrwt>
<totfact> 0.48335410E-01</totfact>
</mgrwt>
</event>
<event>
 6    1  0.6091287E-004  0.2404960E+04  0.7818608E-02  0.8437649E-01
          2   -1    0    0  501    0  0.00000000000E+00  0.00000000000E+00  0.14542993659E+04  0.14542993659E+04  0.00000000000E+00 0.  1.
         -2   -1    0    0    0  501 -0.00000000000E+00 -0.00000000000E+00 -0.99426452487E+03  0.99426452487E+03  0.00000000000E+00 0. -1.
         23    2    1    2    0    0  0.34241356019E+03  0.81113074027E+03 -0.60070591657E+03  0.10700316718E+04  0.94551871305E+02 0.  0.
         11    1    3    3    0    0  0.27370478677E+03  0.57673361004E+03 -0.39512724860E+03  0.75077394057E+03  0.00000000000E+00 0.  1.
        -11    1    3    3    0    0  0.68708773418E+02  0.23439713022E+03 -0.20557866797E+03  0.31925773119E+03  0.00000000000E+00 0. -1.
         22    1    1    2    0    0 -0.34241356019E+03 -0.81113074027E+03  0.10607407576E+04  0.13785322190E+04  0.00000000000E+00 0.  1.
<mgrwt>
<rscale>  0 0.24049601E+04</rscale>
<asrwt>0</asrwt>
<pdfrwt beam="1">  1        2 0.22373836E+00 0.24049601E+04</pdfrwt>
<pdfrwt beam="2">  1       -2 0.15296377E+00 0.24049601E+04</pdfrwt>
<totfact> 0.34451810E+00</totfact>
</mgrwt>
</event>
<event>
 6    1  0.6091287E-004  0.2166665E+04  0.7818608E-02  0.8532432E-01
         -2   -1    0    0    0  501 -0.00000000000E+00  0.00000000000E+00  0.19517594545E+04  0.19517594545E+04  0.00000000000E+00 0. -1.
          2   -1    0    0  501    0  0.00000000000E+00 -0.00000000000E+00 -0.60130829133E+03  0.60130829133E+03  0.00000000000E+00 0.  1.
         23    2    1    2    0    0  0.64424075936E+03 -0.75702010301E+03  0.17463605015E+03  0.10133707716E+04  0.91087751199E+02 0.  0.
         11    1    3    3    0    0  0.48498589584E+03 -0.51545919750E+03  0.10202641334E+03  0.71506565606E+03  0.00000000000E+00 0. -1.
        -11    1    3    3    0    0  0.15925486352E+03 -0.24156090550E+03  0.72609636811E+02  0.29830511558E+03  0.00000000000E+00 0.  1.
         22    1    1    2    0    0 -0.64424075936E+03  0.75702010301E+03  0.11758151131E+04  0.15396969742E+04  0.00000000000E+00 0. -1.
<mgrwt>
<rscale>  0 0.21666648E+04</rscale>
<asrwt>0</asrwt>
<pdfrwt beam="1">  1        2 0.92508969E-01 0.21666648E+04</pdfrwt>
<pdfrwt beam="2">  1       -2 0.30027068E+00 0.21666648E+04</pdfrwt>
<totfact> 0.14364002E+00</totfact>
</mgrwt>
</event>
<event>
 6    1  0.6091287E-004  0.3440192E+04  0.7818608E-02  0.8128112E-01
          2   -1    0    0  501    0  0.00000000000E+00  0.00000000000E+00  0.29578098463E+04  0.29578098463E+04  0.00000000000E+00 0.  1.
         -2   -1    0    0    0  501 -0.00000000000E+00 -0.00000000000E+00 -0.10003109217E+04  0.10003109217E+04  0.00000000000E+00 0. -1.
         23    2    1    2    0    0 -0.74934139236E+03  0.13476875117E+04  0.10560241368E+03  0.15482878197E+04  0.90934875322E+02 0.  0.
         11    1    3    3    0    0 -0.62231498101E+03  0.11112194409E+04  0.52719363803E+02  0.12747014994E+04  0.00000000000E+00 0.  1.
        -11    1    3    3    0    0 -0.12702641135E+03  0.23646807082E+03  0.52883049872E+02  0.27358632032E+03  0.00000000000E+00 0. -1.
         22    1    1    2    0    0  0.74934139236E+03 -0.13476875117E+04  0.18518965109E+04  0.24098329482E+04  0.00000000000E+00 0.  1.
<mgrwt>
<rscale>  0 0.34401916E+04</rscale>
<asrwt>0</asrwt>
<pdfrwt beam="1">  1        2 0.45504766E+00 0.34401916E+04</pdfrwt>
<pdfrwt beam="2">  1       -2 0.15389399E+00 0.34401916E+04</pdfrwt>
<totfact> 0.42723162E-01</totfact>
</mgrwt>
</event>
<event>
 6    1  0.6091287E-004  0.2104629E+04  0.7818608E-02  0.8559207E-01
          2   -1    0    0  501    0  0.00000000000E+00  0.00000000000E+00  0.52419800565E+03  0.52419800565E+03  0.00000000000E+00 0.  1.
         -2   -1    0    0    0  501 -0.00000000000E+00 -0.00000000000E+00 -0.21124944707E+04  0.21124944707E+04  0.00000000000E+00 0. -1.
         23    2    1    2    0    0  0.36496552691E+03  0.36492205145E+03 -0.19417447497E+04  0.20111578015E+04  0.89527036253E+02 0.  0.
         13    1    3    3    0    0  0.28727195226E+03  0.24699841253E+03 -0.15150909939E+04  0.15617407307E+04  0.00000000000E+00 0.  1.
        -13    1    3    3    0    0  0.77693574647E+02  0.11792363891E+03 -0.42665375581E+03  0.44941707078E+03  0.00000000000E+00 0. -1.
         22    1    1    2    0    0 -0.36496552691E+03 -0.36492205145E+03  0.35344828465E+03  0.62553467481E+03  0.00000000000E+00 0.  1.
<mgrwt>
<rscale>  0 0.21046286E+04</rscale>
<asrwt>0</asrwt>
<pdfrwt beam="1">  1        2 0.80645847E-01 0.21046286E+04</pdfrwt>
<pdfrwt beam="2">  1       -2 0.32499915E+00 0.21046286E+04</pdfrwt>
<totfact> 0.11984205E+00</totfact>
</mgrwt>
</event>
<event>
 6    1  0.6091287E-004  0.4789442E+04  0.7818608E-02  0.7861835E-01
          2   -1    0    0  501    0  0.00000000000E+00  0.00000000000E+00  0.26896947393E+04  0.26896947393E+04  0.00000000000E+00 0.  1.
         -2   -1    0    0    0  501 -0.00000000000E+00 -0.00000000000E+00 -0.21320961101E+04  0.21320961101E+04  0.00000000000E+00 0. -1.
         23    2    1    2    0    0  0.14207055222E+04 -0.18786992341E+04 -0.15122070092E+03  0.23620469937E+04  0.92104868734E+02 0.  0.
         13    1    3    3    0    0  0.12164046890E+04 -0.15923204034E+04 -0.97140750207E+02  0.20061308432E+04  0.00000000000E+00 0.  1.
        -13    1    3    3    0    0  0.20430083316E+03 -0.28637883065E+03 -0.54079950715E+02  0.35591615044E+03  0.00000000000E+00 0. -1.
         22    1    1    2    0    0 -0.14207055222E+04  0.18786992341E+04  0.70881933008E+03  0.24597438557E+04  0.00000000000E+00 0. -1.
<mgrwt>
<rscale>  0 0.47894416E+04</rscale>
<asrwt>0</asrwt>
<pdfrwt beam="1">  1        2 0.41379919E+00 0.47894416E+04</pdfrwt>
<pdfrwt beam="2">  1       -2 0.32801479E+00 0.47894416E+04</pdfrwt>
<totfact> 0.42578253E-02</totfact>
</mgrwt>
</event>
<event>
 6    1  0.6091287E-004  0.2409586E+04  0.7818608E-02  0.8435923E-01
         -2   -1    0    0    0  501 -0.00000000000E+00  0.00000000000E+00  0.16275345209E+04  0.16275345209E+04  0.00000000000E+00 0. -1.
          2   -1    0    0  501    0  0.00000000000E+00 -0.00000000000E+00 -0.89185600429E+03  0.89185600429E+03  0.00000000000E+00 0.  1.
         23    2    1    2    0    0  0.10900854686E+04  0.37918915562E+03  0.13336394501E+02  0.11578293309E+04  0.91214886502E+02 0.  0.
         11    1    3    3    0    0  0.67546712365E+03  0.28148630605E+03  0.66307142511E+01  0.73180211943E+03  0.00000000000E+00 0. -1.
        -11    1    3    3    0    0  0.41461834491E+03  0.97702849570E+02  0.67056802501E+01  0.42602721146E+03  0.00000000000E+00 0.  1.
         22    1    1    2    0    0 -0.10900854686E+04 -0.37918915562E+03  0.72234212215E+03  0.13615611943E+04  0.00000000000E+00 0. -1.
<mgrwt>
<rscale>  0 0.24095862E+04</rscale>
<asrwt>0</asrwt>
<pdfrwt beam="1">  1        2 0.13720862E+00 0.24095862E+04</pdfrwt>
<pdfrwt beam="2">  1       -2 0.25038993E+00 0.24095862E+04</pdfrwt>
<totfact> 0.17050518E+00</totfact>
</mgrwt>
</event>
<event>
 6    1  0.6091287E-004  0.2215752E+04  0.7818608E-02  0.8511900E-01
          2   -1    0    0  501    0  0.00000000000E+00  0.00000000000E+00  0.28249507552E+04  0.28249507552E+04  0.00000000000E+00 0. -1.
         -2   -1    0    0    0  501 -0.00000000000E+00 -0.00000000000E+00 -0.43448158235E+03  0.43448158235E+03  0.00000000000E+00 0.  1.
         23    2    1    2    0    0  0.71594251006E+03 -0.24929368375E+02  0.24367884957E+04  0.25415600434E+04  0.91619485561E+02 0.  0.
         11    1    3    3    0    0  0.48120893604E+03 -0.10950897610E+02  0.14802495125E+04  0.15565412238E+04  0.00000000000E+00 0.  1.
        -11    1    3    3    0    0  0.23473357401E+03 -0.13978470765E+02  0.95653898327E+03  0.98501881958E+03  0.00000000000E+00 0. -1.
         22    1    1    2    0    0 -0.71594251006E+03  0.24929368375E+02 -0.46319322836E+02  0.71787229420E+03  0.00000000000E+00 0.  1.
<mgrwt>
<rscale>  0 0.22157519E+04</rscale>
<asrwt>0</asrwt>
<pdfrwt beam="1">  1        2 0.43460780E+00 0.22157519E+04</pdfrwt>
<pdfrwt beam="2">  1       -2 0.66843322E-01 0.22157519E+04</pdfrwt>
<totfact> 0.41925460E+00</totfact>
</mgrwt>
</event>
<event>
 6    1  0.6091287E-004  0.1432013E+04  0.7818608E-02  0.8930967E-01
          2   -1    0    0  501    0  0.00000000000E+00  0.00000000000E+00  0.23492885188E+04  0.23492885188E+04  0.00000000000E+00 0.  1.
         -2   -1    0    0    0  501 -0.00000000000E+00 -0.00000000000E+00 -0.21822145892E+03  0.21822145892E+03  0.00000000000E+00 0. -1.
         23    2    1    2    0    0 -0.65707233176E+03  0.18987737221E+03  0.14304466754E+04  0.15883948727E+04  0.94990078029E+02 0.  0.
         11    1    3    3    0    0 -0.39048178822E+03  0.10442820833E+03  0.94858374428E+03  0.10311122138E+04  0.00000000000E+00 0. -1.
        -11    1    3    3    0    0 -0.26659054354E+03  0.85449163886E+02  0.48186293114E+03  0.55728265891E+03  0.00000000000E+00 0.  1.
         22    1    1    2    0    0  0.65707233176E+03 -0.18987737221E+03  0.70062038447E+03  0.97911510497E+03  0.00000000000E+00 0.  1.
<mgrwt>
<rscale>  0 0.14320128E+04</rscale>
<asrwt>0</asrwt>
<pdfrwt beam="1">  1        2 0.36142898E+00 0.14320128E+04</pdfrwt>
<pdfrwt beam="2">  1       -2 0.33572534E-01 0.14320128E+04</pdfrwt>
<totfact> 0.34310179E+01</totfact>
</mgrwt>
</event>
<event>
 6    1  0.6091287E-004  0.2003087E+04  0.7818608E-02  0.8605179E-01
         -2   -1    0    0    0  501 -0.00000000000E+00  0.00000000000E+00  0.55048692392E+03  0.55048692392E+03  0.00000000000E+00 0. -1.
          2   -1    0    0  501    0  0.00000000000E+00 -0.00000000000E+00 -0.18221862562E+04  0.18221862562E+04  0.00000000000E+00 0.  1.
         23    2    1    2    0    0  0.14657646843E+03  0.70569539518E+03  0.18017915169E+03  0.75173462974E+03  0.11467246824E+03 0.  0.
         11    1    3    3    0    0  0.13999174220E+03  0.51111714244E+03  0.17092673726E+03  0.55682526047E+03  0.00000000000E+00 0.  1.
        -11    1    3    3    0    0  0.65847262310E+01  0.19457825274E+03  0.92524144283E+01  0.19490936927E+03  0.00000000000E+00 0. -1.
         22    1    1    2    0    0 -0.14657646843E+03 -0.70569539518E+03 -0.14518784840E+04  0.16209385504E+04  0.00000000000E+00 0.  1.
<mgrwt>
<rscale>  0 0.20030873E+04</rscale>
<asrwt>0</asrwt>
<pdfrwt beam="1">  1        2 0.28033635E+00 0.20030873E+04</pdfrwt>
<pdfrwt beam="2">  1       -2 0.84690296E-01 0.20030873E+04</pdfrwt>
<totfact> 0.94647355E+00</totfact>
</mgrwt>
</event>
<event>
 6    1  0.6091287E-004  0.2349226E+04  0.7818608E-02  0.8458761E-01
          2   -1    0    0  501    0  0.00000000000E+00  0.00000000000E+00  0.16108409888E+04  0.16108409888E+04  0.00000000000E+00 0.  1.
         -2   -1    0    0    0  501 -0.00000000000E+00 -0.00000000000E+00 -0.85651866961E+03  0.85651866961E+03  0.00000000000E+00 0. -1.
         23    2    1    2    0    0 -0.56857510513E+03  0.47478178524E+03 -0.57720009106E+03  0.94366437300E+03  0.92989838022E+02 0.  0.
         11    1    3    3    0    0 -0.31936431177E+03  0.32461842675E+03 -0.34100650476E+03  0.56890783340E+03  0.00000000000E+00 0.  1.
        -11    1    3    3    0    0 -0.24921079336E+03  0.15016335850E+03 -0.23619358630E+03  0.37475653960E+03  0.00000000000E+00 0. -1.
         22    1    1    2    0    0  0.56857510513E+03 -0.47478178524E+03  0.13315224102E+04  0.15236952854E+04  0.00000000000E+00 0.  1.
<mgrwt>
<rscale>  0 0.23492257E+04</rscale>
<asrwt>0</asrwt>
<pdfrwt beam="1">  1        2 0.24782169E+00 0.23492257E+04</pdfrwt>
<pdfrwt beam="2">  1       -2 0.13177210E+00 0.23492257E+04</pdfrwt>
<totfact> 0.41676431E+00</totfact>
</mgrwt>
</event>
<event>
 6    1  0.6091287E-004  0.1630114E+04  0.7818608E-02  0.8802258E-01
         -2   -1    0    0    0  501 -0.00000000000E+00  0.00000000000E+00  0.22330774124E+03  0.22330774124E+03  0.00000000000E+00 0. -1.
          2   -1    0    0  501    0  0.00000000000E+00 -0.00000000000E+00 -0.29748986809E+04  0.29748986809E+04  0.00000000000E+00 0.  1.
         23    2    1    2    0    0 -0.41324010087E+03  0.50693763492E+03 -0.43412754099E+03  0.79022183938E+03  0.90723133365E+02 0.  0.
         13    1    3    3    0    0 -0.21818466254E+03  0.28739959798E+03 -0.29085101386E+03  0.46346239130E+03  0.00000000000E+00 0.  1.
        -13    1    3    3    0    0 -0.19505543833E+03  0.21953803694E+03 -0.14327652714E+03  0.32675944809E+03  0.00000000000E+00 0. -1.
         22    1    1    2    0    0  0.41324010087E+03 -0.50693763492E+03 -0.23174633987E+04  0.24079845828E+04  0.00000000000E+00 0.  1.
<mgrwt>
<rscale>  0 0.16301140E+04</rscale>
<asrwt>0</asrwt>
<pdfrwt beam="1">  1        2 0.45767672E+00 0.16301140E+04</pdfrwt>
<pdfrwt beam="2">  1       -2 0.34355037E-01 0.16301140E+04</pdfrwt>
<totfact> 0.13784709E+01</totfact>
</mgrwt>
</event>
<event>
 6    1  0.6091287E-004  0.1800304E+04  0.7818608E-02  0.8706138E-01
          2   -1    0    0  501    0  0.00000000000E+00  0.00000000000E+00  0.13833812372E+04  0.13833812372E+04  0.00000000000E+00 0.  1.
         -2   -1    0    0    0  501 -0.00000000000E+00 -0.00000000000E+00 -0.58571949637E+03  0.58571949637E+03  0.00000000000E+00 0. -1.
         23    2    1    2    0    0  0.47827292805E+03  0.23489422718E+03 -0.39131401164E+03  0.66618721701E+03  0.82209857919E+02 0.  0.
         11    1    3    3    0    0  0.31989847912E+03  0.15657764167E+03 -0.21213977353E+03  0.41455383043E+03  0.00000000000E+00 0.  1.
        -11    1    3    3    0    0  0.15837444894E+03  0.78316585512E+02 -0.17917423811E+03  0.25163338658E+03  0.00000000000E+00 0. -1.
         22    1    1    2    0    0 -0.47827292805E+03 -0.23489422718E+03  0.11889757525E+04  0.13029135166E+04  0.00000000000E+00 0.  1.
<mgrwt>
<rscale>  0 0.18003037E+04</rscale>
<asrwt>0</asrwt>
<pdfrwt beam="1">  1        2 0.21282788E+00 0.18003037E+04</pdfrwt>
<pdfrwt beam="2">  1       -2 0.90110692E-01 0.18003037E+04</pdfrwt>
<totfact> 0.14717066E+01</totfact>
</mgrwt>
</event>
<event>
 6    1  0.6091287E-004  0.1778928E+04  0.7818608E-02  0.8717586E-01
          2   -1    0    0  501    0  0.00000000000E+00  0.00000000000E+00  0.14997689952E+04  0.14997689952E+04  0.00000000000E+00 0.  1.
         -2   -1    0    0    0  501 -0.00000000000E+00 -0.00000000000E+00 -0.52751198556E+03  0.52751198556E+03  0.00000000000E+00 0. -1.
         23    2    1    2    0    0  0.18790453339E+03  0.22254166743E+02  0.14751180691E+04  0.14899983672E+04  0.91205563555E+02 0.  0.
         13    1    3    3    0    0  0.77115515085E+02  0.54543051620E+02  0.69631630436E+03  0.70269349141E+03  0.00000000000E+00 0. -1.
        -13    1    3    3    0    0  0.11078901831E+03 -0.32288884877E+02  0.77880176476E+03  0.78730487580E+03  0.00000000000E+00 0.  1.
         22    1    1    2    0    0 -0.18790453339E+03 -0.22254166743E+02 -0.50286105952E+03  0.53728261352E+03  0.00000000000E+00 0. -1.
<mgrwt>
<rscale>  0 0.17789279E+04</rscale>
<asrwt>0</asrwt>
<pdfrwt beam="1">  1        2 0.23073369E+00 0.17789279E+04</pdfrwt>
<pdfrwt beam="2">  1       -2 0.81155691E-01 0.17789279E+04</pdfrwt>
<totfact> 0.16069765E+01</totfact>
</mgrwt>
</event>
<event>
 6    1  0.6091287E-004  0.2913233E+04  0.7818608E-02  0.8268951E-01
          2   -1    0    0  501    0  0.00000000000E+00  0.00000000000E+00  0.30349470054E+04  0.30349470054E+04  0.00000000000E+00 0.  1.
         -2   -1    0    0    0  501 -0.00000000000E+00 -0.00000000000E+00 -0.69909983753E+03  0.69909983753E+03  0.00000000000E+00 0. -1.
         23    2    1    2    0    0 -0.67389071782E+03 -0.36154089287E+03 -0.41776142664E+03  0.87621535585E+03  0.91587245140E+02 0.  0.
         13    1    3    3    0    0 -0.30712644824E+03 -0.11518783646E+03 -0.19156540040E+03  0.37985812550E+03  0.00000000000E+00 0. -1.
        -13    1    3    3    0    0 -0.36676426958E+03 -0.24635305641E+03 -0.22619602624E+03  0.49635723036E+03  0.00000000000E+00 0.  1.
         22    1    1    2    0    0  0.67389071782E+03  0.36154089287E+03  0.27536085945E+04  0.28578314871E+04  0.00000000000E+00 0.  1.
<mgrwt>
<rscale>  0 0.29132325E+04</rscale>
<asrwt>0</asrwt>
<pdfrwt beam="1">  1        2 0.46691492E+00 0.29132325E+04</pdfrwt>
<pdfrwt beam="2">  1       -2 0.10755382E+00 0.29132325E+04</pdfrwt>
<totfact> 0.98940785E-01</totfact>
</mgrwt>
</event>
<event>
 6    1  0.6091287E-004  0.2765848E+04  0.7818608E-02  0.8313950E-01
         -2   -1    0    0    0  501 -0.00000000000E+00  0.00000000000E+00  0.78558584593E+03  0.78558584593E+03  0.00000000000E+00 0. -1.
          2   -1    0    0  501    0  0.00000000000E+00 -0.00000000000E+00 -0.24344617123E+04  0.24344617123E+04  0.00000000000E+00 0.  1.
         23    2    1    2    0    0 -0.46760299379E+03  0.12701509309E+04 -0.11481671536E+04  0.17769102945E+04  0.84772843223E+02 0.  0.
         13    1    3    3    0    0 -0.31558534872E+03  0.93337274028E+03 -0.86997916911E+03  0.13143981662E+04  0.00000000000E+00 0.  1.
        -13    1    3    3    0    0 -0.15201764507E+03  0.33677819059E+03 -0.27818798449E+03  0.46251212826E+03  0.00000000000E+00 0. -1.
         22    1    1    2    0    0  0.46760299379E+03 -0.12701509309E+04 -0.50070871274E+03  0.14431372637E+04  0.00000000000E+00 0. -1.
<mgrwt>
<rscale>  0 0.27658479E+04</rscale>
<asrwt>0</asrwt>
<pdfrwt beam="1">  1        2 0.37453257E+00 0.27658479E+04</pdfrwt>
<pdfrwt beam="2">  1       -2 0.12085936E+00 0.27658479E+04</pdfrwt>
<totfact> 0.17286020E+00</totfact>
</mgrwt>
</event>
<event>
 6    1  0.6091287E-004  0.1787938E+04  0.7818608E-02  0.8712740E-01
         -2   -1    0    0    0  501 -0.00000000000E+00  0.00000000000E+00  0.71156300293E+03  0.71156300293E+03  0.00000000000E+00 0. -1.
          2   -1    0    0  501    0  0.00000000000E+00 -0.00000000000E+00 -0.11231335583E+04  0.11231335583E+04  0.00000000000E+00 0.  1.
         23    2    1    2    0    0  0.69627174568E+03  0.25304657332E+03  0.30297829239E+03  0.80542158927E+03  0.89895376459E+02 0.  0.
         13    1    3    3    0    0  0.35144027693E+03  0.10063708970E+03  0.10920457834E+03  0.38152815361E+03  0.00000000000E+00 0.  1.
        -13    1    3    3    0    0  0.34483146875E+03  0.15240948362E+03  0.19377371405E+03  0.42389343566E+03  0.00000000000E+00 0. -1.
         22    1    1    2    0    0 -0.69627174568E+03 -0.25304657332E+03 -0.71454884780E+03  0.10292749720E+04  0.00000000000E+00 0.  1.
<mgrwt>
<rscale>  0 0.17879377E+04</rscale>
<asrwt>0</asrwt>
<pdfrwt beam="1">  1        2 0.17278978E+00 0.17879377E+04</pdfrwt>
<pdfrwt beam="2">  1       -2 0.10947123E+00 0.17879377E+04</pdfrwt>
<totfact> 0.13245937E+01</totfact>
</mgrwt>
</event>
<event>
 6    1  0.6091287E-004  0.3047328E+04  0.7818608E-02  0.8230344E-01
          2   -1    0    0  501    0  0.00000000000E+00  0.00000000000E+00  0.15375563070E+04  0.15375563070E+04  0.00000000000E+00 0.  1.
         -2   -1    0    0    0  501 -0.00000000000E+00 -0.00000000000E+00 -0.15098967458E+04  0.15098967458E+04  0.00000000000E+00 0. -1.
         23    2    1    2    0    0 -0.89962917020E+03  0.56631292608E+03 -0.10759581812E+04  0.15151296224E+04  0.88818864975E+02 0.  0.
         13    1    3    3    0    0 -0.38650467942E+03  0.24192542613E+03 -0.52446609722E+03  0.69496652161E+03  0.00000000000E+00 0.  1.
        -13    1    3    3    0    0 -0.51312449078E+03  0.32438749994E+03 -0.55149208397E+03  0.82016310076E+03  0.00000000000E+00 0. -1.
         22    1    1    2    0    0  0.89962917020E+03 -0.56631292608E+03  0.11036177424E+04  0.15323234304E+04  0.00000000000E+00 0.  1.
<mgrwt>
<rscale>  0 0.30473275E+04</rscale>
<asrwt>0</asrwt>
<pdfrwt beam="1">  1        2 0.23654712E+00 0.30473275E+04</pdfrwt>
<pdfrwt beam="2">  1       -2 0.23229181E+00 0.30473275E+04</pdfrwt>
<totfact> 0.85280740E-01</totfact>
</mgrwt>
</event>
<event>
 6    1  0.6091287E-004  0.1950974E+04  0.7818608E-02  0.8629891E-01
         -2   -1    0    0    0  501 -0.00000000000E+00  0.00000000000E+00  0.25117622715E+03  0.25117622715E+03  0.00000000000E+00 0. -1.
          2   -1    0    0  501    0  0.00000000000E+00 -0.00000000000E+00 -0.37884737227E+04  0.37884737227E+04  0.00000000000E+00 0.  1.
         23    2    1    2    0    0  0.83461243753E+03 -0.43834483029E+03 -0.12725425568E+04  0.15865215301E+04  0.94667288660E+02 0.  0.
         11    1    3    3    0    0  0.36773294918E+03 -0.24256822638E+03 -0.62184703714E+03  0.76207650795E+03  0.00000000000E+00 0.  1.
        -11    1    3    3    0    0  0.46687948835E+03 -0.19577660390E+03 -0.65069551963E+03  0.82444502214E+03  0.00000000000E+00 0. -1.
         22    1    1    2    0    0 -0.83461243753E+03  0.43834483029E+03 -0.22647549388E+04  0.24531284198E+04  0.00000000000E+00 0.  1.
<mgrwt>
<rscale>  0 0.19509736E+04</rscale>
<asrwt>0</asrwt>
<pdfrwt beam="1">  1        2 0.58284207E+00 0.19509736E+04</pdfrwt>
<pdfrwt beam="2">  1       -2 0.38642499E-01 0.19509736E+04</pdfrwt>
<totfact> 0.29842431E+00</totfact>
</mgrwt>
</event>
<event>
 6    1  0.6091287E-004  0.2088486E+04  0.7818608E-02  0.8566332E-01
         -2   -1    0    0    0  501 -0.00000000000E+00  0.00000000000E+00  0.46407462348E+03  0.46407462348E+03  0.00000000000E+00 0. -1.
          2   -1    0    0  501    0  0.00000000000E+00 -0.00000000000E+00 -0.23497165661E+04  0.23497165661E+04  0.00000000000E+00 0.  1.
         23    2    1    2    0    0 -0.36328806168E+03  0.92080384640E+03 -0.13841866768E+04  0.17041447040E+04  0.90986134522E+02 0.  0.
         13    1    3    3    0    0 -0.84593231080E+02  0.28417997011E+03 -0.47175227348E+03  0.55719339344E+03  0.00000000000E+00 0.  1.
        -13    1    3    3    0    0 -0.27869483060E+03  0.63662387629E+03 -0.91243440328E+03  0.11469513105E+04  0.00000000000E+00 0. -1.
         22    1    1    2    0    0  0.36328806168E+03 -0.92080384640E+03 -0.50145526581E+03  0.11096464856E+04  0.00000000000E+00 0. -1.
<mgrwt>
<rscale>  0 0.20884864E+04</rscale>
<asrwt>0</asrwt>
<pdfrwt beam="1">  1        2 0.36149486E+00 0.20884864E+04</pdfrwt>
<pdfrwt beam="2">  1       -2 0.71396095E-01 0.20884864E+04</pdfrwt>
<totfact> 0.69756428E+00</totfact>
</mgrwt>
</event>
<event>
 6    1  0.6091287E-004  0.2677283E+04  0.7818608E-02  0.8342414E-01
         -2   -1    0    0    0  501 -0.00000000000E+00  0.00000000000E+00  0.20272948509E+04  0.20272948509E+04  0.00000000000E+00 0. -1.
          2   -1    0    0  501    0  0.00000000000E+00 -0.00000000000E+00 -0.88391744351E+03  0.88391744351E+03  0.00000000000E+00 0.  1.
         23    2    1    2    0    0 -0.62770788736E+03 -0.13847978747E+02 -0.71130935313E+03  0.95313366013E+03  0.91070411476E+02 0.  0.
         11    1    3    3    0    0 -0.21926466268E+03 -0.45077540544E+02 -0.22679479291E+03  0.31866103472E+03  0.00000000000E+00 0.  1.
        -11    1    3    3    0    0 -0.40844322469E+03  0.31229561797E+02 -0.48451456023E+03  0.63447262541E+03  0.00000000000E+00 0. -1.
         22    1    1    2    0    0  0.62770788736E+03  0.13847978747E+02  0.18546867605E+04  0.19580786343E+04  0.00000000000E+00 0. -1.
<mgrwt>
<rscale>  0 0.26772832E+04</rscale>
<asrwt>0</asrwt>
<pdfrwt beam="1">  1        2 0.13598730E+00 0.26772832E+04</pdfrwt>
<pdfrwt beam="2">  1       -2 0.31189152E+00 0.26772832E+04</pdfrwt>
<totfact> 0.71010525E-01</totfact>
</mgrwt>
</event>
<event>
 6    1  0.6091287E-004  0.2268595E+04  0.7818608E-02  0.8490408E-01
          2   -1    0    0  501    0  0.00000000000E+00  0.00000000000E+00  0.39509986207E+04  0.39509986207E+04  0.00000000000E+00 0.  1.
         -2   -1    0    0    0  501 -0.00000000000E+00 -0.00000000000E+00 -0.32564699646E+03  0.32564699646E+03  0.00000000000E+00 0. -1.
         23    2    1    2    0    0  0.49112213947E+03 -0.86627211636E+03  0.79894701366E+03  0.12799488760E+04  0.91238474362E+02 0.  0.
         13    1    3    3    0    0  0.33653499914E+02 -0.11989859074E+03  0.10276927527E+03  0.16146130823E+03  0.00000000000E+00 0.  1.
        -13    1    3    3    0    0  0.45746863955E+03 -0.74637352562E+03  0.69617773839E+03  0.11184875678E+04  0.00000000000E+00 0. -1.
         22    1    1    2    0    0 -0.49112213947E+03  0.86627211636E+03  0.28264046106E+04  0.29966967411E+04  0.00000000000E+00 0.  1.
<mgrwt>
<rscale>  0 0.22685950E+04</rscale>
<asrwt>0</asrwt>
<pdfrwt beam="1">  1        2 0.60784591E+00 0.22685950E+04</pdfrwt>
<pdfrwt beam="2">  1       -2 0.50099541E-01 0.22685950E+04</pdfrwt>
<totfact> 0.12907978E+00</totfact>
</mgrwt>
</event>
<event>
 6    1  0.6091287E-004  0.2326240E+04  0.7818608E-02  0.8467646E-01
         -2   -1    0    0    0  501 -0.00000000000E+00  0.00000000000E+00  0.59616534457E+03  0.59616534457E+03  0.00000000000E+00 0. -1.
          2   -1    0    0  501    0  0.00000000000E+00 -0.00000000000E+00 -0.22692494672E+04  0.22692494672E+04  0.00000000000E+00 0.  1.
         23    2    1    2    0    0 -0.52486782482E+03 -0.10149656888E+04 -0.58244378682E+03  0.12858142531E+04  0.91847403595E+02 0.  0.
         11    1    3    3    0    0 -0.22768483950E+03 -0.47452966885E+03 -0.22008853858E+03  0.57048905123E+03  0.00000000000E+00 0.  1.
        -11    1    3    3    0    0 -0.29718298532E+03 -0.54043601998E+03 -0.36235524825E+03  0.71532520184E+03  0.00000000000E+00 0. -1.
         22    1    1    2    0    0  0.52486782482E+03  0.10149656888E+04 -0.10906403358E+04  0.15796005587E+04  0.00000000000E+00 0.  1.
<mgrwt>
<rscale>  0 0.23262398E+04</rscale>
<asrwt>0</asrwt>
<pdfrwt beam="1">  1        2 0.34911530E+00 0.23262398E+04</pdfrwt>
<pdfrwt beam="2">  1       -2 0.91717746E-01 0.23262398E+04</pdfrwt>
<totfact> 0.43181936E+00</totfact>
</mgrwt>
</event>
<event>
 6    1  0.6091287E-004  0.5422171E+04  0.7818608E-02  0.7766490E-01
          2   -1    0    0  501    0  0.00000000000E+00  0.00000000000E+00  0.21822945260E+04  0.21822945260E+04  0.00000000000E+00 0.  1.
         -2   -1    0    0    0  501 -0.00000000000E+00 -0.00000000000E+00 -0.33680077866E+04  0.33680077866E+04  0.00000000000E+00 0. -1.
         23    2    1    2    0    0 -0.16405025045E+04 -0.13445960792E+04 -0.23200915671E+04  0.31448914899E+04  0.91271682253E+02 0.  0.
         11    1    3    3    0    0 -0.15161896303E+03 -0.15940849177E+03 -0.23197826972E+03  0.31970814006E+03  0.00000000000E+00 0.  1.
        -11    1    3    3    0    0 -0.14888835415E+04 -0.11851875875E+04 -0.20881132974E+04  0.28251833498E+04  0.00000000000E+00 0. -1.
         22    1    1    2    0    0  0.16405025045E+04  0.13445960792E+04  0.11343783065E+04  0.24054108226E+04  0.00000000000E+00 0.  1.
<mgrwt>
<rscale>  0 0.54221711E+04</rscale>
<asrwt>0</asrwt>
<pdfrwt beam="1">  1        2 0.33573762E+00 0.54221711E+04</pdfrwt>
<pdfrwt beam="2">  1       -2 0.51815504E+00 0.54221711E+04</pdfrwt>
<totfact> 0.48175706E-03</totfact>
</mgrwt>
</event>
<event>
 6    1  0.6091287E-004  0.3340150E+04  0.7818608E-02  0.8152754E-01
          2   -1    0    0  501    0  0.00000000000E+00  0.00000000000E+00  0.17226055925E+04  0.17226055925E+04  0.00000000000E+00 0.  1.
         -2   -1    0    0    0  501 -0.00000000000E+00 -0.00000000000E+00 -0.16191458826E+04  0.16191458826E+04  0.00000000000E+00 0. -1.
         23    2    1    2    0    0  0.46258881232E+03 -0.12383951303E+04  0.10708373719E+04  0.17036335158E+04  0.89797387760E+02 0.  0.
         11    1    3    3    0    0  0.13030724092E+03 -0.45540460858E+03  0.35557560354E+03  0.59228991582E+03  0.00000000000E+00 0. -1.
        -11    1    3    3    0    0  0.33228157140E+03 -0.78299052176E+03  0.71526176834E+03  0.11113435999E+04  0.00000000000E+00 0.  1.
         22    1    1    2    0    0 -0.46258881232E+03  0.12383951303E+04 -0.96737766198E+03  0.16381179594E+04  0.00000000000E+00 0. -1.
<mgrwt>
<rscale>  0 0.33401495E+04</rscale>
<asrwt>0</asrwt>
<pdfrwt beam="1">  1        2 0.26501625E+00 0.33401495E+04</pdfrwt>
<pdfrwt beam="2">  1       -2 0.24909937E+00 0.33401495E+04</pdfrwt>
<totfact> 0.51623377E-01</totfact>
</mgrwt>
</event>
<event>
 6    1  0.6091287E-004  0.4322847E+04  0.7818608E-02  0.7942407E-01
          2   -1    0    0  501    0  0.00000000000E+00  0.00000000000E+00  0.19184040045E+04  0.19184040045E+04  0.00000000000E+00 0.  1.
         -2   -1    0    0    0  501 -0.00000000000E+00 -0.00000000000E+00 -0.24352283897E+04  0.24352283897E+04  0.00000000000E+00 0. -1.
         23    2    1    2    0    0 -0.20436549277E+04 -0.65242229641E+03 -0.51633222824E+03  0.22083630501E+04  0.89933724192E+02 0.  0.
         13    1    3    3    0    0 -0.14276317659E+04 -0.49878958797E+03 -0.36561321824E+03  0.15558266412E+04  0.00000000000E+00 0.  1.
        -13    1    3    3    0    0 -0.61602316186E+03 -0.15363270845E+03 -0.15071901000E+03  0.65253640897E+03  0.00000000000E+00 0. -1.
         22    1    1    2    0    0  0.20436549277E+04  0.65242229641E+03 -0.49215693251E+00  0.21452693441E+04  0.00000000000E+00 0.  1.
<mgrwt>
<rscale>  0 0.43228472E+04</rscale>
<asrwt>0</asrwt>
<pdfrwt beam="1">  1        2 0.29513908E+00 0.43228472E+04</pdfrwt>
<pdfrwt beam="2">  1       -2 0.37465052E+00 0.43228472E+04</pdfrwt>
<totfact> 0.61780739E-02</totfact>
</mgrwt>
</event>
<event>
 6    1  0.6091287E-004  0.2367212E+04  0.7818608E-02  0.8451882E-01
          2   -1    0    0  501    0  0.00000000000E+00  0.00000000000E+00  0.11449396161E+04  0.11449396161E+04  0.00000000000E+00 0.  1.
         -2   -1    0    0    0  501 -0.00000000000E+00 -0.00000000000E+00 -0.12235782225E+04  0.12235782225E+04  0.00000000000E+00 0. -1.
         23    2    1    2    0    0 -0.67023806426E+02 -0.29435081308E+03  0.11039565125E+04  0.11479991754E+04  0.89708046322E+02 0.  0.
         11    1    3    3    0    0 -0.37703724286E+02 -0.15911300373E+03  0.43131936113E+03  0.46127530832E+03  0.00000000000E+00 0.  1.
        -11    1    3    3    0    0 -0.29320082140E+02 -0.13523780935E+03  0.67263715134E+03  0.68672386711E+03  0.00000000000E+00 0. -1.
         22    1    1    2    0    0  0.67023806426E+02  0.29435081308E+03 -0.11825951189E+04  0.12205186631E+04  0.00000000000E+00 0. -1.
<mgrwt>
<rscale>  0 0.23672120E+04</rscale>
<asrwt>0</asrwt>
<pdfrwt beam="1">  1        2 0.17614456E+00 0.23672120E+04</pdfrwt>
<pdfrwt beam="2">  1       -2 0.18824280E+00 0.23672120E+04</pdfrwt>
<totfact> 0.29362888E+00</totfact>
</mgrwt>
</event>
<event>
 6    1  0.6091287E-004  0.5675759E+04  0.7818608E-02  0.7731957E-01
          2   -1    0    0  501    0  0.00000000000E+00  0.00000000000E+00  0.38058284234E+04  0.38058284234E+04  0.00000000000E+00 0.  1.
         -2   -1    0    0    0  501 -0.00000000000E+00 -0.00000000000E+00 -0.21161122277E+04  0.21161122277E+04  0.00000000000E+00 0. -1.
         23    2    1    2    0    0 -0.15977098055E+04 -0.40403200810E+03 -0.15645957030E+04  0.22741379672E+04  0.88460690674E+02 0.  0.
         13    1    3    3    0    0 -0.97693100559E+03 -0.21139963594E+03 -0.98368108925E+03  0.14023952656E+04  0.00000000000E+00 0. -1.
        -13    1    3    3    0    0 -0.62077879996E+03 -0.19263237216E+03 -0.58091461379E+03  0.87174270160E+03  0.00000000000E+00 0.  1.
         22    1    1    2    0    0  0.15977098055E+04  0.40403200810E+03  0.32543118987E+04  0.36478026838E+04  0.00000000000E+00 0.  1.
<mgrwt>
<rscale>  0 0.56757590E+04</rscale>
<asrwt>0</asrwt>
<pdfrwt beam="1">  1        2 0.58551207E+00 0.56757590E+04</pdfrwt>
<pdfrwt beam="2">  1       -2 0.32555573E+00 0.56757590E+04</pdfrwt>
<totfact> 0.73937478E-03</totfact>
</mgrwt>
</event>
<event>
 6    1  0.6091287E-004  0.2253717E+04  0.7818608E-02  0.8496397E-01
         -2   -1    0    0    0  501 -0.00000000000E+00  0.00000000000E+00  0.56248131134E+03  0.56248131134E+03  0.00000000000E+00 0. -1.
          2   -1    0    0  501    0  0.00000000000E+00 -0.00000000000E+00 -0.22575155485E+04  0.22575155485E+04  0.00000000000E+00 0.  1.
         23    2    1    2    0    0 -0.46889005135E+03 -0.79342223148E+03 -0.16560351452E+04  0.18975557252E+04  0.94279427218E+02 0.  0.
         13    1    3    3    0    0 -0.39233038842E+03 -0.63696954928E+03 -0.12682952685E+04  0.14724898059E+04  0.00000000000E+00 0.  1.
        -13    1    3    3    0    0 -0.76559662934E+02 -0.15645268221E+03 -0.38773987670E+03  0.42506591929E+03  0.00000000000E+00 0. -1.
         22    1    1    2    0    0  0.46889005135E+03  0.79342223148E+03 -0.38999091927E+02  0.92244113462E+03  0.00000000000E+00 0. -1.
<mgrwt>
<rscale>  0 0.22537172E+04</rscale>
<asrwt>0</asrwt>
<pdfrwt beam="1">  1        2 0.34731007E+00 0.22537172E+04</pdfrwt>
<pdfrwt beam="2">  1       -2 0.86535590E-01 0.22537172E+04</pdfrwt>
<totfact> 0.50433298E+00</totfact>
</mgrwt>
</event>
<event>
 6    1  0.6091287E-004  0.3315629E+04  0.7818608E-02  0.8158930E-01
          2   -1    0    0  501    0  0.00000000000E+00  0.00000000000E+00  0.31277915239E+04  0.31277915239E+04  0.00000000000E+00 0.  1.
         -2   -1    0    0    0  501 -0.00000000000E+00 -0.00000000000E+00 -0.87868695418E+03  0.87868695418E+03  0.00000000000E+00 0. -1.
         23    2    1    2    0    0 -0.90925964714E+03 -0.12292521314E+04  0.18956615254E+04  0.24371678352E+04  0.91872354363E+02 0.  0.
         11    1    3    3    0    0 -0.70751728981E+03 -0.10114827763E+04  0.15528510293E+04  0.19836896031E+04  0.00000000000E+00 0. -1.
        -11    1    3    3    0    0 -0.20174235733E+03 -0.21776935506E+03  0.34281049610E+03  0.45347823209E+03  0.00000000000E+00 0.  1.
         22    1    1    2    0    0  0.90925964714E+03  0.12292521314E+04  0.35344304430E+03  0.15693106429E+04  0.00000000000E+00 0. -1.
<mgrwt>
<rscale>  0 0.33156294E+04</rscale>
<asrwt>0</asrwt>
<pdfrwt beam="1">  1        2 0.48119869E+00 0.33156294E+04</pdfrwt>
<pdfrwt beam="2">  1       -2 0.13518261E+00 0.33156294E+04</pdfrwt>
<totfact> 0.47323536E-01</totfact>
</mgrwt>
</event>
<event>
 6    1  0.6091287E-004  0.2106815E+04  0.7818608E-02  0.8558247E-01
         -2   -1    0    0    0  501 -0.00000000000E+00  0.00000000000E+00  0.86508442292E+03  0.86508442292E+03  0.00000000000E+00 0. -1.
          2   -1    0    0  501    0  0.00000000000E+00 -0.00000000000E+00 -0.12827277296E+04  0.12827277296E+04  0.00000000000E+00 0.  1.
         23    2    1    2    0    0  0.80921035016E+03  0.66188423101E+03 -0.94237175116E+02  0.10535070525E+04  0.89912948806E+02 0.  0.
         11    1    3    3    0    0 -0.99287848532E+00  0.59649478789E+01  0.26143377176E+01  0.65879566321E+01  0.00000000000E+00 0.  1.
        -11    1    3    3    0    0  0.81020322865E+03  0.65591928313E+03 -0.96851512834E+02  0.10469190958E+04  0.00000000000E+00 0. -1.
         22    1    1    2    0    0 -0.80921035016E+03 -0.66188423101E+03 -0.32340613157E+03  0.10943051001E+04  0.00000000000E+00 0.  1.
<mgrwt>
<rscale>  0 0.21068154E+04</rscale>
<asrwt>0</asrwt>
<pdfrwt beam="1">  1        2 0.19734273E+00 0.21068154E+04</pdfrwt>
<pdfrwt beam="2">  1       -2 0.13308991E+00 0.21068154E+04</pdfrwt>
<totfact> 0.63771261E+00</totfact>
</mgrwt>
</event>
<event>
 6    1  0.6091287E-004  0.1758414E+04  0.7818608E-02  0.8728732E-01
          2   -1    0    0  501    0  0.00000000000E+00  0.00000000000E+00  0.15826923256E+04  0.15826923256E+04  0.00000000000E+00 0.  1.
         -2   -1    0    0    0  501 -0.00000000000E+00 -0.00000000000E+00 -0.48841142262E+03  0.48841142262E+03  0.00000000000E+00 0. -1.
         23    2    1    2    0    0  0.52151133248E+03 -0.51630361470E+03 -0.16652090684E+02  0.73967008149E+03  0.91055174898E+02 0.  0.
         13    1    3    3    0    0  0.32876139723E+03 -0.38393366062E+03 -0.19340235165E+02  0.50582917745E+03  0.00000000000E+00 0.  1.
        -13    1    3    3    0    0  0.19274993525E+03 -0.13236995408E+03  0.26881444812E+01  0.23384090404E+03  0.00000000000E+00 0. -1.
         22    1    1    2    0    0 -0.52151133248E+03  0.51630361470E+03  0.11109329936E+04  0.13314336667E+04  0.00000000000E+00 0.  1.
<mgrwt>
<rscale>  0 0.17584141E+04</rscale>
<asrwt>0</asrwt>
<pdfrwt beam="1">  1        2 0.24349112E+00 0.17584141E+04</pdfrwt>
<pdfrwt beam="2">  1       -2 0.75140220E-01 0.17584141E+04</pdfrwt>
<totfact> 0.17175473E+01</totfact>
</mgrwt>
</event>
<event>
 6    1  0.6091287E-004  0.4875569E+04  0.7818608E-02  0.7847994E-01
         -2   -1    0    0    0  501 -0.00000000000E+00  0.00000000000E+00  0.25211797928E+04  0.25211797928E+04  0.00000000000E+00 0. -1.
          2   -1    0    0  501    0  0.00000000000E+00 -0.00000000000E+00 -0.23571475310E+04  0.23571475310E+04  0.00000000000E+00 0.  1.
         23    2    1    2    0    0  0.72611095865E+02 -0.21714110080E+04 -0.10223579251E+04  0.24028839671E+04  0.91309884817E+02 0.  0.
         13    1    3    3    0    0 -0.12863951982E+01 -0.12378113588E+04 -0.56542697956E+03  0.13608402860E+04  0.00000000000E+00 0.  1.
        -13    1    3    3    0    0  0.73897491063E+02 -0.93359964922E+03 -0.45693094555E+03  0.10420436810E+04  0.00000000000E+00 0. -1.
         22    1    1    2    0    0 -0.72611095865E+02  0.21714110080E+04  0.11863901869E+04  0.24754433568E+04  0.00000000000E+00 0. -1.
<mgrwt>
<rscale>  0 0.48755688E+04</rscale>
<asrwt>0</asrwt>
<pdfrwt beam="1">  1        2 0.36263808E+00 0.48755688E+04</pdfrwt>
<pdfrwt beam="2">  1       -2 0.38787381E+00 0.48755688E+04</pdfrwt>
<totfact> 0.27547093E-02</totfact>
</mgrwt>
</event>
<event>
 6    1  0.6091287E-004  0.2325397E+04  0.7818608E-02  0.8467974E-01
          2   -1    0    0  501    0  0.00000000000E+00  0.00000000000E+00  0.21682768902E+04  0.21682768902E+04  0.00000000000E+00 0.  1.
         -2   -1    0    0    0  501 -0.00000000000E+00 -0.00000000000E+00 -0.62347563952E+03  0.62347563952E+03  0.00000000000E+00 0. -1.
         23    2    1    2    0    0 -0.13175461084E+03  0.44441379810E+03  0.20513843030E+04  0.21051017521E+04  0.91722007988E+02 0.  0.
         13    1    3    3    0    0 -0.23226223879E+02  0.15010164521E+03  0.51068198162E+03  0.53279081047E+03  0.00000000000E+00 0.  1.
        -13    1    3    3    0    0 -0.10852838696E+03  0.29431215289E+03  0.15407023214E+04  0.15723109416E+04  0.00000000000E+00 0. -1.
         22    1    1    2    0    0  0.13175461084E+03 -0.44441379810E+03 -0.50658305234E+03  0.68665077757E+03  0.00000000000E+00 0. -1.
<mgrwt>
<rscale>  0 0.23253970E+04</rscale>
<asrwt>0</asrwt>
<pdfrwt beam="1">  1        2 0.33358106E+00 0.23253970E+04</pdfrwt>
<pdfrwt beam="2">  1       -2 0.95919330E-01 0.23253970E+04</pdfrwt>
<totfact> 0.44350909E+00</totfact>
</mgrwt>
</event>
<event>
 6    1  0.6091287E-004  0.4399035E+04  0.7818608E-02  0.7928555E-01
          2   -1    0    0  501    0  0.00000000000E+00  0.00000000000E+00  0.34979641935E+04  0.34979641935E+04  0.00000000000E+00 0.  1.
         -2   -1    0    0    0  501 -0.00000000000E+00 -0.00000000000E+00 -0.13830550686E+04  0.13830550686E+04  0.00000000000E+00 0. -1.
         23    2    1    2    0    0 -0.58974932704E+03  0.43119588916E+03  0.33586569156E+04  0.34385759423E+04  0.97437521780E+02 0.  0.
         11    1    3    3    0    0 -0.29468904689E+03  0.15554400885E+03  0.15024892132E+04  0.15389962342E+04  0.00000000000E+00 0. -1.
        -11    1    3    3    0    0 -0.29506028016E+03  0.27565188031E+03  0.18561677024E+04  0.18995797081E+04  0.00000000000E+00 0.  1.
         22    1    1    2    0    0  0.58974932704E+03 -0.43119588916E+03 -0.12437477908E+04  0.14424433197E+04  0.00000000000E+00 0. -1.
<mgrwt>
<rscale>  0 0.43990349E+04</rscale>
<asrwt>0</asrwt>
<pdfrwt beam="1">  1        2 0.53814833E+00 0.43990349E+04</pdfrwt>
<pdfrwt beam="2">  1       -2 0.21277770E+00 0.43990349E+04</pdfrwt>
<totfact> 0.68344261E-02</totfact>
</mgrwt>
</event>
<event>
 6    1  0.6091287E-004  0.4059897E+03  0.7818608E-02  0.1041725E+00
         -2   -1    0    0    0  501 -0.00000000000E+00  0.00000000000E+00  0.33420508613E+02  0.33420508613E+02  0.00000000000E+00 0. -1.
          2   -1    0    0  501    0  0.00000000000E+00 -0.00000000000E+00 -0.12329827054E+04  0.12329827054E+04  0.00000000000E+00 0.  1.
         23    2    1    2    0    0 -0.72350276631E+01  0.15820906381E+03 -0.28858960132E+03  0.34176624569E+03  0.91857254513E+02 0.  0.
         13    1    3    3    0    0  0.38010729199E+02  0.73808869504E+02 -0.17121993352E+03  0.19028618023E+03  0.00000000000E+00 0. -1.
        -13    1    3    3    0    0 -0.45245756862E+02  0.84400194305E+02 -0.11736966780E+03  0.15148006546E+03  0.00000000000E+00 0.  1.
         22    1    1    2    0    0  0.72350276631E+01 -0.15820906381E+03 -0.91097259544E+03  0.92463696830E+03  0.00000000000E+00 0.  1.
<mgrwt>
<rscale>  0 0.40598970E+03</rscale>
<asrwt>0</asrwt>
<pdfrwt beam="1">  1        2 0.18968966E+00 0.40598970E+03</pdfrwt>
<pdfrwt beam="2">  1       -2 0.51416165E-02 0.40598970E+03</pdfrwt>
<totfact> 0.36004551E+03</totfact>
</mgrwt>
</event>
<event>
 6    1  0.6091287E-004  0.3112175E+04  0.7818608E-02  0.8212404E-01
          2   -1    0    0  501    0  0.00000000000E+00  0.00000000000E+00  0.41060130564E+04  0.41060130564E+04  0.00000000000E+00 0. -1.
         -2   -1    0    0    0  501 -0.00000000000E+00 -0.00000000000E+00 -0.58972267317E+03  0.58972267317E+03  0.00000000000E+00 0.  1.
         23    2    1    2    0    0  0.38550171634E+03 -0.63409913602E+03 -0.30171281825E+03  0.80628310303E+03  0.91479669439E+02 0.  0.
         13    1    3    3    0    0  0.26449634230E+03 -0.40991956034E+03 -0.24225910143E+03  0.54468507715E+03  0.00000000000E+00 0. -1.
        -13    1    3    3    0    0  0.12100537404E+03 -0.22417957568E+03 -0.59453716818E+02  0.26159802587E+03  0.00000000000E+00 0.  1.
         22    1    1    2    0    0 -0.38550171634E+03  0.63409913602E+03  0.38180032015E+04  0.38894526265E+04  0.00000000000E+00 0. -1.
<mgrwt>
<rscale>  0 0.31121754E+04</rscale>
<asrwt>0</asrwt>
<pdfrwt beam="1">  1        2 0.63169430E+00 0.31121754E+04</pdfrwt>
<pdfrwt beam="2">  1       -2 0.90726568E-01 0.31121754E+04</pdfrwt>
<totfact> 0.24579849E-01</totfact>
</mgrwt>
</event>
<event>
 6    1  0.6091287E-004  0.2959675E+04  0.7818608E-02  0.8255341E-01
         -2   -1    0    0    0  501 -0.00000000000E+00  0.00000000000E+00  0.15012660663E+04  0.15012660663E+04  0.00000000000E+00 0. -1.
          2   -1    0    0  501    0  0.00000000000E+00 -0.00000000000E+00 -0.14587144100E+04  0.14587144100E+04  0.00000000000E+00 0.  1.
         23    2    1    2    0    0 -0.12111147613E+04 -0.76985085514E+03 -0.33421299900E+03  0.14762618676E+04  0.90451471275E+02 0.  0.
         13    1    3    3    0    0 -0.41780694809E+03 -0.31651870874E+03 -0.11482254324E+03  0.53659198214E+03  0.00000000000E+00 0. -1.
        -13    1    3    3    0    0 -0.79330781325E+03 -0.45333214640E+03 -0.21939045576E+03  0.93966988544E+03  0.00000000000E+00 0.  1.
         22    1    1    2    0    0  0.12111147613E+04  0.76985085514E+03  0.37676465537E+03  0.14837186087E+04  0.00000000000E+00 0. -1.
<mgrwt>
<rscale>  0 0.29596746E+04</rscale>
<asrwt>0</asrwt>
<pdfrwt beam="1">  1        2 0.22441760E+00 0.29596746E+04</pdfrwt>
<pdfrwt beam="2">  1       -2 0.23096401E+00 0.29596746E+04</pdfrwt>
<totfact> 0.97018381E-01</totfact>
</mgrwt>
</event>
<event>
 6    1  0.6091287E-004  0.2774791E+04  0.7818608E-02  0.8311138E-01
          2   -1    0    0  501    0  0.00000000000E+00  0.00000000000E+00  0.28944210609E+04  0.28944210609E+04  0.00000000000E+00 0.  1.
         -2   -1    0    0    0  501 -0.00000000000E+00 -0.00000000000E+00 -0.66502648872E+03  0.66502648872E+03  0.00000000000E+00 0. -1.
         23    2    1    2    0    0 -0.11802364710E+04 -0.70951368310E+03  0.13117293691E+04  0.19046130507E+04  0.10270901246E+03 0.  0.
         13    1    3    3    0    0 -0.45447389233E+03 -0.26664441083E+03  0.57115886930E+03  0.77708957954E+03  0.00000000000E+00 0. -1.
        -13    1    3    3    0    0 -0.72576257862E+03 -0.44286927227E+03  0.74057049983E+03  0.11275234712E+04  0.00000000000E+00 0.  1.
         22    1    1    2    0    0  0.11802364710E+04  0.70951368310E+03  0.91766520303E+03  0.16548344989E+04  0.00000000000E+00 0. -1.
<mgrwt>
<rscale>  0 0.27747913E+04</rscale>
<asrwt>0</asrwt>
<pdfrwt beam="1">  1        2 0.44529554E+00 0.27747913E+04</pdfrwt>
<pdfrwt beam="2">  1       -2 0.10231177E+00 0.27747913E+04</pdfrwt>
<totfact> 0.13806536E+00</totfact>
</mgrwt>
</event>
<event>
 6    1  0.6091287E-004  0.7003802E+04  0.7818608E-02  0.7577043E-01
         -2   -1    0    0    0  501 -0.00000000000E+00  0.00000000000E+00  0.42308084922E+04  0.42308084922E+04  0.00000000000E+00 0. -1.
          2   -1    0    0  501    0  0.00000000000E+00 -0.00000000000E+00 -0.28985739856E+04  0.28985739856E+04  0.00000000000E+00 0.  1.
         23    2    1    2    0    0  0.25251012364E+04 -0.24237557661E+04  0.57305020506E+03  0.35478899018E+04  0.91694871432E+02 0.  0.
         13    1    3    3    0    0  0.40551213792E+03 -0.38984826986E+03  0.12636176541E+03  0.57653192736E+03  0.00000000000E+00 0. -1.
        -13    1    3    3    0    0  0.21195890985E+04 -0.20339074963E+04  0.44668843965E+03  0.29713579744E+04  0.00000000000E+00 0.  1.
         22    1    1    2    0    0 -0.25251012364E+04  0.24237557661E+04  0.75918430154E+03  0.35814925760E+04  0.00000000000E+00 0.  1.
<mgrwt>
<rscale>  0 0.70038022E+04</rscale>
<asrwt>0</asrwt>
<pdfrwt beam="1">  1        2 0.44593446E+00 0.70038022E+04</pdfrwt>
<pdfrwt beam="2">  1       -2 0.65089362E+00 0.70038022E+04</pdfrwt>
<totfact> 0.43129755E-04</totfact>
</mgrwt>
</event>
<event>
 6    1  0.6091287E-004  0.3498201E+04  0.7818608E-02  0.8114216E-01
         -2   -1    0    0    0  501 -0.00000000000E+00  0.00000000000E+00  0.12959549730E+04  0.12959549730E+04  0.00000000000E+00 0. -1.
          2   -1    0    0  501    0  0.00000000000E+00 -0.00000000000E+00 -0.23606939297E+04  0.23606939297E+04  0.00000000000E+00 0.  1.
         23    2    1    2    0    0  0.24658548864E+03  0.92463441392E+03 -0.20616224254E+04  0.22747915103E+04  0.92931092364E+02 0.  0.
         11    1    3    3    0    0  0.16576231089E+03  0.71799634941E+03 -0.16531779493E+04  0.18099705062E+04  0.00000000000E+00 0.  1.
        -11    1    3    3    0    0  0.80823177757E+02  0.20663806451E+03 -0.40844447615E+03  0.46482100411E+03  0.00000000000E+00 0. -1.
         22    1    1    2    0    0 -0.24658548864E+03 -0.92463441392E+03  0.99688346870E+03  0.13818573923E+04  0.00000000000E+00 0. -1.
<mgrwt>
<rscale>  0 0.34982013E+04</rscale>
<asrwt>0</asrwt>
<pdfrwt beam="1">  1        2 0.36318368E+00 0.34982013E+04</pdfrwt>
<pdfrwt beam="2">  1       -2 0.19937769E+00 0.34982013E+04</pdfrwt>
<totfact> 0.46195448E-01</totfact>
</mgrwt>
</event>
<event>
 6    1  0.6091287E-004  0.2635016E+04  0.7818608E-02  0.8356403E-01
         -2   -1    0    0    0  501 -0.00000000000E+00  0.00000000000E+00  0.87439964080E+03  0.87439964080E+03  0.00000000000E+00 0. -1.
          2   -1    0    0  501    0  0.00000000000E+00 -0.00000000000E+00 -0.19851653174E+04  0.19851653174E+04  0.00000000000E+00 0.  1.
         23    2    1    2    0    0 -0.65816700368E+03 -0.63405935547E+03 -0.15835309663E+04  0.18306227392E+04  0.91619982130E+02 0.  0.
         11    1    3    3    0    0 -0.17980989299E+03 -0.19459630061E+03 -0.53864362508E+03  0.60028016182E+03  0.00000000000E+00 0. -1.
        -11    1    3    3    0    0 -0.47835711069E+03 -0.43946305486E+03 -0.10448873412E+04  0.12303425774E+04  0.00000000000E+00 0.  1.
         22    1    1    2    0    0  0.65816700368E+03  0.63405935547E+03  0.47276528965E+03  0.10289422190E+04  0.00000000000E+00 0. -1.
<mgrwt>
<rscale>  0 0.26350164E+04</rscale>
<asrwt>0</asrwt>
<pdfrwt beam="1">  1        2 0.30541005E+00 0.26350164E+04</pdfrwt>
<pdfrwt beam="2">  1       -2 0.13452302E+00 0.26350164E+04</pdfrwt>
<totfact> 0.23910952E+00</totfact>
</mgrwt>
</event>
<event>
 6    1  0.6091287E-004  0.1712942E+04  0.7818608E-02  0.8754017E-01
         -1   -1    0    0    0  501 -0.00000000000E+00  0.00000000000E+00  0.29173615081E+03  0.29173615081E+03  0.00000000000E+00 0. -1.
          1   -1    0    0  501    0  0.00000000000E+00 -0.00000000000E+00 -0.25144048664E+04  0.25144048664E+04  0.00000000000E+00 0.  1.
         23    2    1    2    0    0  0.17749968845E+03 -0.24234313710E+03 -0.24241621776E+04  0.24444284922E+04  0.91826221388E+02 0.  0.
         11    1    3    3    0    0  0.68065778572E+02 -0.14681957256E+03 -0.10179066789E+04  0.10306905181E+04  0.00000000000E+00 0.  1.
        -11    1    3    3    0    0  0.10943390988E+03 -0.95523564545E+02 -0.14062554986E+04  0.14137379741E+04  0.00000000000E+00 0. -1.
         22    1    1    2    0    0 -0.17749968845E+03  0.24234313710E+03  0.20149346199E+03  0.36171252497E+03  0.00000000000E+00 0. -1.
<mgrwt>
<rscale>  0 0.17129423E+04</rscale>
<asrwt>0</asrwt>
<pdfrwt beam="1">  1        1 0.38683151E+00 0.17129423E+04</pdfrwt>
<pdfrwt beam="2">  1       -1 0.44882486E-01 0.17129423E+04</pdfrwt>
<totfact> 0.62028586E+00</totfact>
</mgrwt>
</event>
<event>
 6    1  0.6091287E-004  0.1475137E+04  0.7818608E-02  0.8901157E-01
          2   -1    0    0  501    0  0.00000000000E+00  0.00000000000E+00  0.62148373348E+03  0.62148373348E+03  0.00000000000E+00 0.  1.
         -2   -1    0    0    0  501 -0.00000000000E+00 -0.00000000000E+00 -0.87533688871E+03  0.87533688871E+03  0.00000000000E+00 0. -1.
         23    2    1    2    0    0 -0.45878148200E+03 -0.52928293880E+03  0.97298591042E+02  0.71328477334E+03  0.93205549830E+02 0.  0.
         13    1    3    3    0    0 -0.22881500235E+03 -0.30607498607E+03  0.15170830142E+02  0.38245046278E+03  0.00000000000E+00 0. -1.
        -13    1    3    3    0    0 -0.22996647966E+03 -0.22320795274E+03  0.82127760901E+02  0.33083431056E+03  0.00000000000E+00 0.  1.
         22    1    1    2    0    0  0.45878148200E+03  0.52928293880E+03 -0.35115174627E+03  0.78353584886E+03  0.00000000000E+00 0. -1.
<mgrwt>
<rscale>  0 0.14751375E+04</rscale>
<asrwt>0</asrwt>
<pdfrwt beam="1">  1        2 0.95612882E-01 0.14751375E+04</pdfrwt>
<pdfrwt beam="2">  1       -2 0.13466721E+00 0.14751375E+04</pdfrwt>
<totfact> 0.18251918E+01</totfact>
</mgrwt>
</event>
<event>
 6    1  0.6091287E-004  0.2120616E+04  0.7818608E-02  0.8552216E-01
          2   -1    0    0  501    0  0.00000000000E+00  0.00000000000E+00  0.75507936641E+03  0.75507936641E+03  0.00000000000E+00 0.  1.
         -2   -1    0    0    0  501 -0.00000000000E+00 -0.00000000000E+00 -0.14889204930E+04  0.14889204930E+04  0.00000000000E+00 0. -1.
         23    2    1    2    0    0  0.41759407393E+03 -0.10673864767E+03 -0.13905680800E+04  0.14584629469E+04  0.87502189093E+02 0.  0.
         13    1    3    3    0    0  0.29514055539E+03 -0.10340898321E+03 -0.10875351149E+04  0.11316068183E+04  0.00000000000E+00 0. -1.
        -13    1    3    3    0    0  0.12245351854E+03 -0.33296644643E+01 -0.30303296508E+03  0.32685612858E+03  0.00000000000E+00 0.  1.
         22    1    1    2    0    0 -0.41759407393E+03  0.10673864767E+03  0.65672695340E+03  0.78553691244E+03  0.00000000000E+00 0.  1.
<mgrwt>
<rscale>  0 0.21206161E+04</rscale>
<asrwt>0</asrwt>
<pdfrwt beam="1">  1        2 0.11616606E+00 0.21206161E+04</pdfrwt>
<pdfrwt beam="2">  1       -2 0.22906469E+00 0.21206161E+04</pdfrwt>
<totfact> 0.29624769E+00</totfact>
</mgrwt>
</event>
<event>
 6    1  0.8032483E-004  0.2689619E+04  0.7818608E-02  0.8338381E-01
          2   -1    0    0  501    0  0.00000000000E+00  0.00000000000E+00  0.16422694544E+04  0.16422694544E+04  0.00000000000E+00 0.  1.
         -2   -1    0    0    0  501 -0.00000000000E+00 -0.00000000000E+00 -0.11012275657E+04  0.11012275657E+04  0.00000000000E+00 0. -1.
         23    2    1    2    0    0 -0.31519317497E+03 -0.57760331811E+03 -0.92379902625E+03  0.11376541769E+04  0.88769672314E+02 0.  0.
         13    1    3    3    0    0 -0.18527049996E+03 -0.32885507079E+03 -0.60338293315E+03  0.71171748592E+03  0.00000000000E+00 0. -1.
        -13    1    3    3    0    0 -0.12992267501E+03 -0.24874824732E+03 -0.32041609310E+03  0.42593669100E+03  0.00000000000E+00 0.  1.
         22    1    1    2    0    0  0.31519317497E+03  0.57760331811E+03  0.14648409150E+04  0.16058428431E+04  0.00000000000E+00 0.  1.
<mgrwt>
<rscale>  0 0.26896189E+04</rscale>
<asrwt>0</asrwt>
<pdfrwt beam="1">  1        2 0.25265684E+00 0.26896189E+04</pdfrwt>
<pdfrwt beam="2">  1       -2 0.16941963E+00 0.26896189E+04</pdfrwt>
<totfact> 0.19956799E+00</totfact>
</mgrwt>
</event>
<event>
 6    1  0.6091287E-004  0.4863209E+04  0.7818608E-02  0.7849962E-01
         -2   -1    0    0    0  501 -0.00000000000E+00  0.00000000000E+00  0.18200867663E+04  0.18200867663E+04  0.00000000000E+00 0. -1.
          2   -1    0    0  501    0  0.00000000000E+00 -0.00000000000E+00 -0.32485811215E+04  0.32485811215E+04  0.00000000000E+00 0.  1.
         23    2    1    2    0    0 -0.58102113552E+03 -0.48159353451E+03 -0.31225961835E+04  0.32140792820E+04  0.10090001640E+03 0.  0.
         13    1    3    3    0    0 -0.10829397636E+03 -0.12557844143E+03 -0.55983969293E+03  0.58388184768E+03  0.00000000000E+00 0. -1.
        -13    1    3    3    0    0 -0.47272715916E+03 -0.35601509309E+03 -0.25627564905E+04  0.26301974343E+04  0.00000000000E+00 0.  1.
         22    1    1    2    0    0  0.58102113552E+03  0.48159353451E+03  0.16941018283E+04  0.18545886059E+04  0.00000000000E+00 0. -1.
<mgrwt>
<rscale>  0 0.48632086E+04</rscale>
<asrwt>0</asrwt>
<pdfrwt beam="1">  1        2 0.49978170E+00 0.48632086E+04</pdfrwt>
<pdfrwt beam="2">  1       -2 0.28001335E+00 0.48632086E+04</pdfrwt>
<totfact> 0.37296708E-02</totfact>
</mgrwt>
</event>
<event>
 6    1  0.6091287E-004  0.3243758E+04  0.7818608E-02  0.8177355E-01
          2   -1    0    0  501    0  0.00000000000E+00  0.00000000000E+00  0.18966663430E+04  0.18966663430E+04  0.00000000000E+00 0.  1.
         -2   -1    0    0    0  501 -0.00000000000E+00 -0.00000000000E+00 -0.13869029905E+04  0.13869029905E+04  0.00000000000E+00 0. -1.
         23    2    1    2    0    0  0.85697326443E+03  0.81662525731E+03 -0.86536156339E+03  0.14691138997E+04  0.90360544844E+02 0.  0.
         13    1    3    3    0    0  0.10034756326E+03  0.13893173611E+03 -0.13046774825E+03  0.21539149028E+03  0.00000000000E+00 0.  1.
        -13    1    3    3    0    0  0.75662570117E+03  0.67769352120E+03 -0.73489381514E+03  0.12537224094E+04  0.00000000000E+00 0. -1.
         22    1    1    2    0    0 -0.85697326443E+03 -0.81662525731E+03  0.13751249159E+04  0.18144554337E+04  0.00000000000E+00 0.  1.
<mgrwt>
<rscale>  0 0.32437585E+04</rscale>
<asrwt>0</asrwt>
<pdfrwt beam="1">  1        2 0.29179482E+00 0.32437585E+04</pdfrwt>
<pdfrwt beam="2">  1       -2 0.21336969E+00 0.32437585E+04</pdfrwt>
<totfact> 0.69708561E-01</totfact>
</mgrwt>
</event>
<event>
 6    1  0.6091287E-004  0.2293759E+04  0.7818608E-02  0.8480386E-01
          2   -1    0    0  501    0  0.00000000000E+00  0.00000000000E+00  0.98591475511E+03  0.98591475511E+03  0.00000000000E+00 0.  1.
         -2   -1    0    0    0  501 -0.00000000000E+00 -0.00000000000E+00 -0.13341243504E+04  0.13341243504E+04  0.00000000000E+00 0. -1.
         23    2    1    2    0    0  0.68866558596E+03 -0.60785202677E+03  0.51515843510E+03  0.10594246793E+04  0.11510022618E+03 0.  0.
         11    1    3    3    0    0  0.33169484584E+03 -0.27906405447E+03  0.30796032008E+03  0.53173092444E+03  0.00000000000E+00 0.  1.
        -11    1    3    3    0    0  0.35697074012E+03 -0.32878797230E+03  0.20719811502E+03  0.52769375484E+03  0.00000000000E+00 0. -1.
         22    1    1    2    0    0 -0.68866558596E+03  0.60785202677E+03 -0.86336803044E+03  0.12606144263E+04  0.00000000000E+00 0. -1.
<mgrwt>
<rscale>  0 0.22937593E+04</rscale>
<asrwt>0</asrwt>
<pdfrwt beam="1">  1        2 0.15167919E+00 0.22937593E+04</pdfrwt>
<pdfrwt beam="2">  1       -2 0.20524990E+00 0.22937593E+04</pdfrwt>
<totfact> 0.28667212E+00</totfact>
</mgrwt>
</event>
<event>
 6    1  0.6091287E-004  0.1487551E+04  0.7818608E-02  0.8892774E-01
         -2   -1    0    0    0  501 -0.00000000000E+00  0.00000000000E+00  0.50890165268E+03  0.50890165268E+03  0.00000000000E+00 0. -1.
          2   -1    0    0  501    0  0.00000000000E+00 -0.00000000000E+00 -0.10870505654E+04  0.10870505654E+04  0.00000000000E+00 0.  1.
         23    2    1    2    0    0 -0.93784369026E+02 -0.36119841762E+03  0.39626135846E+03  0.55252748129E+03  0.94888084641E+02 0.  0.
         11    1    3    3    0    0 -0.46363484283E+02 -0.13046478249E+03  0.21314476780E+03  0.25416790550E+03  0.00000000000E+00 0. -1.
        -11    1    3    3    0    0 -0.47420884742E+02 -0.23073363514E+03  0.18311659065E+03  0.29835957579E+03  0.00000000000E+00 0.  1.
         22    1    1    2    0    0  0.93784369026E+02  0.36119841762E+03 -0.97441027119E+03  0.10434247368E+04  0.00000000000E+00 0.  1.
<mgrwt>
<rscale>  0 0.14875508E+04</rscale>
<asrwt>0</asrwt>
<pdfrwt beam="1">  1        2 0.16723855E+00 0.14875508E+04</pdfrwt>
<pdfrwt beam="2">  1       -2 0.78292562E-01 0.14875508E+04</pdfrwt>
<totfact> 0.31145695E+01</totfact>
</mgrwt>
</event>
<event>
 6    1  0.6091287E-004  0.1970229E+04  0.7818608E-02  0.8620668E-01
         -2   -1    0    0    0  501 -0.00000000000E+00  0.00000000000E+00  0.23024932331E+04  0.23024932331E+04  0.00000000000E+00 0. -1.
          2   -1    0    0  501    0  0.00000000000E+00 -0.00000000000E+00 -0.42147796711E+03  0.42147796711E+03  0.00000000000E+00 0.  1.
         23    2    1    2    0    0 -0.95468264998E+02  0.93859935895E+03  0.56115225606E+03  0.11015898297E+04  0.92332834236E+02 0.  0.
         13    1    3    3    0    0 -0.52930988023E+02  0.24369252096E+03  0.11434309306E+03  0.27433934679E+03  0.00000000000E+00 0. -1.
        -13    1    3    3    0    0 -0.42537276975E+02  0.69490683799E+03  0.44680916299E+03  0.82725048295E+03  0.00000000000E+00 0.  1.
         22    1    1    2    0    0  0.95468264998E+02 -0.93859935895E+03  0.13198630099E+04  0.16223813705E+04  0.00000000000E+00 0. -1.
<mgrwt>
<rscale>  0 0.19702286E+04</rscale>
<asrwt>0</asrwt>
<pdfrwt beam="1">  1        2 0.64842766E-01 0.19702286E+04</pdfrwt>
<pdfrwt beam="2">  1       -2 0.35422972E+00 0.19702286E+04</pdfrwt>
<totfact> 0.10237867E+00</totfact>
</mgrwt>
</event>
<event>
 6    1  0.6091287E-004  0.2022493E+04  0.7818608E-02  0.8596176E-01
          2   -1    0    0  501    0  0.00000000000E+00  0.00000000000E+00  0.10686216252E+04  0.10686216252E+04  0.00000000000E+00 0.  1.
         -2   -1    0    0    0  501 -0.00000000000E+00 -0.00000000000E+00 -0.95695173875E+03  0.95695173875E+03  0.00000000000E+00 0. -1.
         23    2    1    2    0    0  0.94977903564E+03  0.20466678003E+02  0.39716355661E+03  0.10336027308E+04  0.89981180742E+02 0.  0.
         11    1    3    3    0    0  0.74662278244E+03  0.15073650558E+02  0.35122988608E+03  0.82524858502E+03  0.00000000000E+00 0.  1.
        -11    1    3    3    0    0  0.20315625319E+03  0.53930274444E+01  0.45933670523E+02  0.20835414573E+03  0.00000000000E+00 0. -1.
         22    1    1    2    0    0 -0.94977903564E+03 -0.20466678003E+02 -0.28549367015E+03  0.99197063320E+03  0.00000000000E+00 0.  1.
<mgrwt>
<rscale>  0 0.20224928E+04</rscale>
<asrwt>0</asrwt>
<pdfrwt beam="1">  1        2 0.16440333E+00 0.20224928E+04</pdfrwt>
<pdfrwt beam="2">  1       -2 0.14722334E+00 0.20224928E+04</pdfrwt>
<totfact> 0.66523252E+00</totfact>
</mgrwt>
</event>
<event>
 6    1  0.6091287E-004  0.7427524E+03  0.7818608E-02  0.9646790E-01
         -2   -1    0    0    0  501 -0.00000000000E+00  0.00000000000E+00  0.20325829086E+03  0.20325829086E+03  0.00000000000E+00 0. -1.
          2   -1    0    0  501    0  0.00000000000E+00 -0.00000000000E+00 -0.67854695844E+03  0.67854695844E+03  0.00000000000E+00 0.  1.
         23    2    1    2    0    0  0.17488393590E+03 -0.30884086227E+02  0.13832197748E+03  0.24301244913E+03  0.91563437906E+02 0.  0.
         11    1    3    3    0    0  0.34156909660E+02 -0.46842656680E+02  0.45201435073E+02  0.73512575081E+02  0.00000000000E+00 0. -1.
        -11    1    3    3    0    0  0.14072702624E+03  0.15958570452E+02  0.93120542404E+02  0.16949987405E+03  0.00000000000E+00 0.  1.
         22    1    1    2    0    0 -0.17488393590E+03  0.30884086227E+02 -0.61361064505E+03  0.63879280016E+03  0.00000000000E+00 0. -1.
<mgrwt>
<rscale>  0 0.74275244E+03</rscale>
<asrwt>0</asrwt>
<pdfrwt beam="1">  1        2 0.10439184E+00 0.74275244E+03</pdfrwt>
<pdfrwt beam="2">  1       -2 0.31270506E-01 0.74275244E+03</pdfrwt>
<totfact> 0.40662878E+02</totfact>
</mgrwt>
</event>
<event>
 6    1  0.6091287E-004  0.2987523E+04  0.7818608E-02  0.8247303E-01
          2   -1    0    0  501    0  0.00000000000E+00  0.00000000000E+00  0.33748591348E+04  0.33748591348E+04  0.00000000000E+00 0.  1.
         -2   -1    0    0    0  501 -0.00000000000E+00 -0.00000000000E+00 -0.66116057110E+03  0.66116057110E+03  0.00000000000E+00 0. -1.
         23    2    1    2    0    0  0.89731263071E+02 -0.33583321017E+03  0.33187776776E+04  0.33381971076E+04  0.91864093039E+02 0.  0.
         13    1    3    3    0    0  0.55387957728E+02 -0.25087886786E+03  0.20351496576E+04  0.20513025523E+04  0.00000000000E+00 0.  1.
        -13    1    3    3    0    0  0.34343305343E+02 -0.84954342312E+02  0.12836280200E+04  0.12868945553E+04  0.00000000000E+00 0. -1.
         22    1    1    2    0    0 -0.89731263071E+02  0.33583321017E+03 -0.60507911387E+03  0.69782259827E+03  0.00000000000E+00 0. -1.
<mgrwt>
<rscale>  0 0.29875233E+04</rscale>
<asrwt>0</asrwt>
<pdfrwt beam="1">  1        2 0.51920909E+00 0.29875233E+04</pdfrwt>
<pdfrwt beam="2">  1       -2 0.10171701E+00 0.29875233E+04</pdfrwt>
<totfact> 0.67357384E-01</totfact>
</mgrwt>
</event>
<event>
 6    1  0.6091287E-004  0.2339045E+04  0.7818608E-02  0.8462683E-01
          2   -1    0    0  501    0  0.00000000000E+00  0.00000000000E+00  0.41955301611E+03  0.41955301611E+03  0.00000000000E+00 0.  1.
         -2   -1    0    0    0  501 -0.00000000000E+00 -0.00000000000E+00 -0.32600950640E+04  0.32600950640E+04  0.00000000000E+00 0. -1.
         23    2    1    2    0    0 -0.10955074621E+04  0.27930460021E+03 -0.18821344261E+04  0.21975236492E+04  0.92371702428E+02 0.  0.
         11    1    3    3    0    0 -0.55379779270E+03  0.14167153888E+03 -0.10410437556E+04  0.11876594298E+04  0.00000000000E+00 0. -1.
        -11    1    3    3    0    0 -0.54170966944E+03  0.13763306132E+03 -0.84109067051E+03  0.10098642194E+04  0.00000000000E+00 0.  1.
         22    1    1    2    0    0  0.10955074621E+04 -0.27930460021E+03 -0.95840762176E+03  0.14821244309E+04  0.00000000000E+00 0. -1.
<mgrwt>
<rscale>  0 0.23390449E+04</rscale>
<asrwt>0</asrwt>
<pdfrwt beam="1">  1        2 0.64546616E-01 0.23390449E+04</pdfrwt>
<pdfrwt beam="2">  1       -2 0.50155310E+00 0.23390449E+04</pdfrwt>
<totfact> 0.10937297E-01</totfact>
</mgrwt>
</event>
<event>
 6    1  0.6091287E-004  0.3857189E+03  0.7818608E-02  0.1048840E+00
         -2   -1    0    0    0  501 -0.00000000000E+00  0.00000000000E+00  0.14341476109E+04  0.14341476109E+04  0.00000000000E+00 0.  1.
          2   -1    0    0  501    0  0.00000000000E+00 -0.00000000000E+00 -0.25935108314E+02  0.25935108314E+02  0.00000000000E+00 0. -1.
         23    2    1    2    0    0 -0.44306115925E+02 -0.13737150959E+03  0.11544968410E+04  0.11681827355E+04  0.10466128266E+03 0.  0.
         13    1    3    3    0    0 -0.48258749222E+02 -0.51269902862E+02  0.81048002083E+03  0.81353265084E+03  0.00000000000E+00 0.  1.
        -13    1    3    3    0    0  0.39526332969E+01 -0.86101606732E+02  0.34401682017E+03  0.35465008467E+03  0.00000000000E+00 0. -1.
         22    1    1    2    0    0  0.44306115925E+02  0.13737150959E+03  0.25371566158E+03  0.29189998370E+03  0.00000000000E+00 0. -1.
<mgrwt>
<rscale>  0 0.38571893E+03</rscale>
<asrwt>0</asrwt>
<pdfrwt beam="1">  1        2 0.39900178E-02 0.38571893E+03</pdfrwt>
<pdfrwt beam="2">  1       -2 0.22063803E+00 0.38571893E+03</pdfrwt>
<totfact> 0.22795136E+02</totfact>
</mgrwt>
</event>
<event>
 6    1  0.6091287E-004  0.4289626E+04  0.7818608E-02  0.7948539E-01
          2   -1    0    0  501    0  0.00000000000E+00  0.00000000000E+00  0.27515906612E+04  0.27515906612E+04  0.00000000000E+00 0.  1.
         -2   -1    0    0    0  501 -0.00000000000E+00 -0.00000000000E+00 -0.16718409165E+04  0.16718409165E+04  0.00000000000E+00 0. -1.
         23    2    1    2    0    0 -0.16545410088E+04 -0.10155194494E+04 -0.39780054960E+03  0.19837716477E+04  0.91208392968E+02 0.  0.
         13    1    3    3    0    0 -0.76843535586E+03 -0.47081293629E+03 -0.13827148634E+03  0.91174378037E+03  0.00000000000E+00 0. -1.
        -13    1    3    3    0    0 -0.88610565292E+03 -0.54470651310E+03 -0.25952906326E+03  0.10720278673E+04  0.00000000000E+00 0.  1.
         22    1    1    2    0    0  0.16545410088E+04  0.10155194494E+04  0.14775502943E+04  0.24396599300E+04  0.00000000000E+00 0. -1.
<mgrwt>
<rscale>  0 0.42896256E+04</rscale>
<asrwt>0</asrwt>
<pdfrwt beam="1">  1        2 0.42332164E+00 0.42896256E+04</pdfrwt>
<pdfrwt beam="2">  1       -2 0.25720629E+00 0.42896256E+04</pdfrwt>
<totfact> 0.11059930E-01</totfact>
</mgrwt>
</event>
<event>
 6    1  0.6091287E-004  0.2184708E+04  0.7818608E-02  0.8524820E-01
          2   -1    0    0  501    0  0.00000000000E+00  0.00000000000E+00  0.14063362049E+04  0.14063362049E+04  0.00000000000E+00 0.  1.
         -2   -1    0    0    0  501 -0.00000000000E+00 -0.00000000000E+00 -0.84847243416E+03  0.84847243416E+03  0.00000000000E+00 0. -1.
         23    2    1    2    0    0  0.38317137148E+03  0.35753490069E+03 -0.70728360836E+03  0.88541118179E+03  0.95138599178E+02 0.  0.
         11    1    3    3    0    0  0.16951021021E+03  0.15127508612E+03 -0.38599290312E+03  0.44789327334E+03  0.00000000000E+00 0.  1.
        -11    1    3    3    0    0  0.21366116126E+03  0.20625981457E+03 -0.32129070524E+03  0.43751790845E+03  0.00000000000E+00 0. -1.
         22    1    1    2    0    0 -0.38317137148E+03 -0.35753490069E+03  0.12651473791E+04  0.13693974572E+04  0.00000000000E+00 0.  1.
<mgrwt>
<rscale>  0 0.21847082E+04</rscale>
<asrwt>0</asrwt>
<pdfrwt beam="1">  1        2 0.21635942E+00 0.21847082E+04</pdfrwt>
<pdfrwt beam="2">  1       -2 0.13053422E+00 0.21847082E+04</pdfrwt>
<totfact> 0.56457672E+00</totfact>
</mgrwt>
</event>
<event>
 6    1  0.6091287E-004  0.2787598E+04  0.7818608E-02  0.8307129E-01
         -2   -1    0    0    0  501 -0.00000000000E+00  0.00000000000E+00  0.10975107813E+04  0.10975107813E+04  0.00000000000E+00 0. -1.
          2   -1    0    0  501    0  0.00000000000E+00 -0.00000000000E+00 -0.17700745481E+04  0.17700745481E+04  0.00000000000E+00 0.  1.
         23    2    1    2    0    0  0.12763431282E+04 -0.25098347874E+03  0.17414772693E+03  0.13155012979E+04  0.90397712831E+02 0.  0.
         11    1    3    3    0    0  0.42430474722E+03 -0.72772349812E+02  0.16152687900E+02  0.43080302081E+03  0.00000000000E+00 0. -1.
        -11    1    3    3    0    0  0.85203838095E+03 -0.17821112892E+03  0.15799503903E+03  0.88469827707E+03  0.00000000000E+00 0.  1.
         22    1    1    2    0    0 -0.12763431282E+04  0.25098347874E+03 -0.84671149373E+03  0.15520840316E+04  0.00000000000E+00 0.  1.
<mgrwt>
<rscale>  0 0.27875982E+04</rscale>
<asrwt>0</asrwt>
<pdfrwt beam="1">  1        2 0.27231916E+00 0.27875982E+04</pdfrwt>
<pdfrwt beam="2">  1       -2 0.16884781E+00 0.27875982E+04</pdfrwt>
<totfact> 0.16964618E+00</totfact>
</mgrwt>
</event>
<event>
 6    1  0.6091287E-004  0.2673893E+04  0.7818608E-02  0.8343526E-01
          2   -1    0    0  501    0  0.00000000000E+00  0.00000000000E+00  0.23311173493E+04  0.23311173493E+04  0.00000000000E+00 0.  1.
         -2   -1    0    0    0  501 -0.00000000000E+00 -0.00000000000E+00 -0.76676764380E+03  0.76676764380E+03  0.00000000000E+00 0. -1.
         23    2    1    2    0    0  0.62146619224E+03 -0.11528837555E+04  0.10848626174E+04  0.17031559695E+04  0.91935716534E+02 0.  0.
         13    1    3    3    0    0  0.28982269499E+03 -0.44434485743E+03  0.44962537374E+03  0.69541536046E+03  0.00000000000E+00 0.  1.
        -13    1    3    3    0    0  0.33164349725E+03 -0.70853889805E+03  0.63523724364E+03  0.10077406090E+04  0.00000000000E+00 0. -1.
         22    1    1    2    0    0 -0.62146619224E+03  0.11528837555E+04  0.47948708813E+03  0.13947290236E+04  0.00000000000E+00 0.  1.
<mgrwt>
<rscale>  0 0.26738926E+04</rscale>
<asrwt>0</asrwt>
<pdfrwt beam="1">  1        2 0.35863344E+00 0.26738926E+04</pdfrwt>
<pdfrwt beam="2">  1       -2 0.11796425E+00 0.26738926E+04</pdfrwt>
<totfact> 0.21196980E+00</totfact>
</mgrwt>
</event>
<event>
 6    1  0.6091287E-004  0.2308328E+04  0.7818608E-02  0.8474645E-01
          2   -1    0    0  501    0  0.00000000000E+00  0.00000000000E+00  0.52864926999E+04  0.52864926999E+04  0.00000000000E+00 0.  1.
         -2   -1    0    0    0  501 -0.00000000000E+00 -0.00000000000E+00 -0.25198076043E+03  0.25198076043E+03  0.00000000000E+00 0. -1.
         23    2    1    2    0    0 -0.30544009678E+03  0.98773213007E+03  0.12981685739E+04  0.16617260919E+04  0.84755794105E+02 0.  0.
         13    1    3    3    0    0 -0.17273691508E+03  0.66290211256E+03  0.89900867435E+03  0.11302627346E+04  0.00000000000E+00 0. -1.
        -13    1    3    3    0    0 -0.13270318170E+03  0.32483001751E+03  0.39915989955E+03  0.53146335726E+03  0.00000000000E+00 0.  1.
         22    1    1    2    0    0  0.30544009678E+03 -0.98773213007E+03  0.37363433656E+04  0.38767473685E+04  0.00000000000E+00 0.  1.
<mgrwt>
<rscale>  0 0.23083279E+04</rscale>
<asrwt>0</asrwt>
<pdfrwt beam="1">  1        2 0.81330649E+00 0.23083279E+04</pdfrwt>
<pdfrwt beam="2">  1       -2 0.38766275E-01 0.23083279E+04</pdfrwt>
<totfact> 0.79509320E-02</totfact>
</mgrwt>
</event>
<event>
 6    1  0.6091287E-004  0.2649054E+04  0.7818608E-02  0.8351727E-01
         -2   -1    0    0    0  501 -0.00000000000E+00  0.00000000000E+00  0.83808446449E+03  0.83808446449E+03  0.00000000000E+00 0. -1.
          2   -1    0    0  501    0  0.00000000000E+00 -0.00000000000E+00 -0.20933120193E+04  0.20933120193E+04  0.00000000000E+00 0.  1.
         23    2    1    2    0    0  0.11407176218E+04  0.21248784886E+03  0.75264546608E+02  0.11660078550E+04  0.86728238441E+02 0.  0.
         11    1    3    3    0    0  0.37679374397E+03  0.95803886053E+02  0.57566593607E+02  0.39302140244E+03  0.00000000000E+00 0. -1.
        -11    1    3    3    0    0  0.76392387784E+03  0.11668396281E+03  0.17697953001E+02  0.77298645257E+03  0.00000000000E+00 0.  1.
         22    1    1    2    0    0 -0.11407176218E+04 -0.21248784886E+03 -0.13304921014E+04  0.17653886287E+04  0.00000000000E+00 0.  1.
<mgrwt>
<rscale>  0 0.26490544E+04</rscale>
<asrwt>0</asrwt>
<pdfrwt beam="1">  1        2 0.32204800E+00 0.26490544E+04</pdfrwt>
<pdfrwt beam="2">  1       -2 0.12893607E+00 0.26490544E+04</pdfrwt>
<totfact> 0.23152634E+00</totfact>
</mgrwt>
</event>
<event>
 6    1  0.6091287E-004  0.6692794E+03  0.7818608E-02  0.9771260E-01
         -2   -1    0    0    0  501 -0.00000000000E+00  0.00000000000E+00  0.19667263644E+03  0.19667263644E+03  0.00000000000E+00 0. -1.
          2   -1    0    0  501    0  0.00000000000E+00 -0.00000000000E+00 -0.56939151285E+03  0.56939151285E+03  0.00000000000E+00 0.  1.
         23    2    1    2    0    0  0.24608444040E+02  0.32299281232E+03 -0.26000213440E+03  0.42308456351E+03  0.80433237292E+02 0.  0.
         11    1    3    3    0    0 -0.16979417684E+02  0.10668225819E+03 -0.12291206835E+03  0.16363612493E+03  0.00000000000E+00 0.  1.
        -11    1    3    3    0    0  0.41587861723E+02  0.21631055414E+03 -0.13709006605E+03  0.25944843858E+03  0.00000000000E+00 0. -1.
         22    1    1    2    0    0 -0.24608444040E+02 -0.32299281232E+03 -0.11271674202E+03  0.34297958578E+03  0.00000000000E+00 0.  1.
<mgrwt>
<rscale>  0 0.66927940E+03</rscale>
<asrwt>0</asrwt>
<pdfrwt beam="1">  1        2 0.87598694E-01 0.66927940E+03</pdfrwt>
<pdfrwt beam="2">  1       -2 0.30257329E-01 0.66927940E+03</pdfrwt>
<totfact> 0.53637058E+02</totfact>
</mgrwt>
</event>
<event>
 6    1  0.6091287E-004  0.2646339E+04  0.7818608E-02  0.8352629E-01
         -2   -1    0    0    0  501 -0.00000000000E+00  0.00000000000E+00  0.18088685027E+04  0.18088685027E+04  0.00000000000E+00 0. -1.
          2   -1    0    0  501    0  0.00000000000E+00 -0.00000000000E+00 -0.96788577097E+03  0.96788577097E+03  0.00000000000E+00 0.  1.
         23    2    1    2    0    0 -0.24455371577E+03 -0.11942934168E+04 -0.11466793014E+03  0.12277508932E+04  0.89890133601E+02 0.  0.
         11    1    3    3    0    0 -0.17040995159E+03 -0.61128441644E+03 -0.66840857264E+02  0.63810335337E+03  0.00000000000E+00 0. -1.
        -11    1    3    3    0    0 -0.74143764184E+02 -0.58300900037E+03 -0.47827072872E+02  0.58964753979E+03  0.00000000000E+00 0.  1.
         22    1    1    2    0    0  0.24455371577E+03  0.11942934168E+04  0.95565066191E+03  0.15490033805E+04  0.00000000000E+00 0. -1.
<mgrwt>
<rscale>  0 0.26463394E+04</rscale>
<asrwt>0</asrwt>
<pdfrwt beam="1">  1        2 0.14890550E+00 0.26463394E+04</pdfrwt>
<pdfrwt beam="2">  1       -2 0.27828746E+00 0.26463394E+04</pdfrwt>
<totfact> 0.10044824E+00</totfact>
</mgrwt>
</event>
<event>
 6    1  0.6091287E-004  0.1114215E+04  0.7818608E-02  0.9191447E-01
          2   -1    0    0  501    0  0.00000000000E+00  0.00000000000E+00  0.12494060003E+04  0.12494060003E+04  0.00000000000E+00 0.  1.
         -2   -1    0    0    0  501 -0.00000000000E+00 -0.00000000000E+00 -0.24841296588E+03  0.24841296588E+03  0.00000000000E+00 0. -1.
         23    2    1    2    0    0 -0.99459681889E+02 -0.31720467047E+03 -0.91071858327E+02  0.35627756909E+03  0.90158702124E+02 0.  0.
         11    1    3    3    0    0  0.52076910420E+01 -0.52102199897E+02  0.11055111783E+02  0.53516116980E+02  0.00000000000E+00 0. -1.
        -11    1    3    3    0    0 -0.10466737293E+03 -0.26510247057E+03 -0.10212697011E+03  0.30276145211E+03  0.00000000000E+00 0.  1.
         22    1    1    2    0    0  0.99459681889E+02  0.31720467047E+03  0.10920648927E+04  0.11415413970E+04  0.00000000000E+00 0.  1.
<mgrwt>
<rscale>  0 0.11142148E+04</rscale>
<asrwt>0</asrwt>
<pdfrwt beam="1">  1        2 0.19221630E+00 0.11142148E+04</pdfrwt>
<pdfrwt beam="2">  1       -2 0.38217380E-01 0.11142148E+04</pdfrwt>
<totfact> 0.11343255E+02</totfact>
</mgrwt>
</event>
<event>
 6    1  0.6091287E-004  0.2482720E+04  0.7818608E-02  0.8409168E-01
          2   -1    0    0  501    0  0.00000000000E+00  0.00000000000E+00  0.16776738756E+04  0.16776738756E+04  0.00000000000E+00 0.  1.
         -2   -1    0    0    0  501 -0.00000000000E+00 -0.00000000000E+00 -0.91851859951E+03  0.91851859951E+03  0.00000000000E+00 0. -1.
         23    2    1    2    0    0 -0.60384517936E+03 -0.65722283751E+03  0.12798093876E+04  0.15629202154E+04  0.90756115086E+02 0.  0.
         13    1    3    3    0    0 -0.24866714315E+03 -0.33682046087E+03  0.60911114130E+03  0.73912093287E+03  0.00000000000E+00 0. -1.
        -13    1    3    3    0    0 -0.35517803621E+03 -0.32040237664E+03  0.67069824626E+03  0.82379928253E+03  0.00000000000E+00 0.  1.
         22    1    1    2    0    0  0.60384517936E+03  0.65722283751E+03 -0.52065411151E+03  0.10332722597E+04  0.00000000000E+00 0. -1.
<mgrwt>
<rscale>  0 0.24827200E+04</rscale>
<asrwt>0</asrwt>
<pdfrwt beam="1">  1        2 0.25810367E+00 0.24827200E+04</pdfrwt>
<pdfrwt beam="2">  1       -2 0.14131055E+00 0.24827200E+04</pdfrwt>
<totfact> 0.31601483E+00</totfact>
</mgrwt>
</event>
<event>
 6    1  0.6091287E-004  0.2116944E+04  0.7818608E-02  0.8553816E-01
          2   -1    0    0  501    0  0.00000000000E+00  0.00000000000E+00  0.34345035957E+04  0.34345035957E+04  0.00000000000E+00 0.  1.
         -2   -1    0    0    0  501 -0.00000000000E+00 -0.00000000000E+00 -0.32620801422E+03  0.32620801422E+03  0.00000000000E+00 0. -1.
         23    2    1    2    0    0 -0.67212296901E+03  0.30511328520E+03  0.28996565179E+04  0.29936564221E+04  0.95537687548E+02 0.  0.
         13    1    3    3    0    0 -0.49370898926E+03  0.24199758780E+03  0.19925562390E+04  0.20670248582E+04  0.00000000000E+00 0. -1.
        -13    1    3    3    0    0 -0.17841397976E+03  0.63115697396E+02  0.90710027881E+03  0.92663156392E+03  0.00000000000E+00 0.  1.
         22    1    1    2    0    0  0.67212296901E+03 -0.30511328520E+03  0.20863906360E+03  0.76705518780E+03  0.00000000000E+00 0. -1.
<mgrwt>
<rscale>  0 0.21169436E+04</rscale>
<asrwt>0</asrwt>
<pdfrwt beam="1">  1        2 0.52838514E+00 0.21169436E+04</pdfrwt>
<pdfrwt beam="2">  1       -2 0.50185851E-01 0.21169436E+04</pdfrwt>
<totfact> 0.31326045E+00</totfact>
</mgrwt>
</event>
<event>
 6    1  0.6091287E-004  0.1524924E+04  0.7818608E-02  0.8868046E-01
         -2   -1    0    0    0  501 -0.00000000000E+00  0.00000000000E+00  0.56399785675E+03  0.56399785675E+03  0.00000000000E+00 0. -1.
          2   -1    0    0  501    0  0.00000000000E+00 -0.00000000000E+00 -0.10307630487E+04  0.10307630487E+04  0.00000000000E+00 0.  1.
         23    2    1    2    0    0  0.67039563382E+03 -0.78887458784E+02 -0.59785269590E+03  0.90712912127E+03  0.99004341644E+02 0.  0.
         13    1    3    3    0    0  0.27421009454E+03  0.77252775812E+01 -0.27878834916E+03  0.39111865141E+03  0.00000000000E+00 0. -1.
        -13    1    3    3    0    0  0.39618553928E+03 -0.86612736366E+02 -0.31906434675E+03  0.51601046986E+03  0.00000000000E+00 0.  1.
         22    1    1    2    0    0 -0.67039563382E+03  0.78887458784E+02  0.13108750392E+03  0.68763178423E+03  0.00000000000E+00 0. -1.
<mgrwt>
<rscale>  0 0.15249238E+04</rscale>
<asrwt>0</asrwt>
<pdfrwt beam="1">  1        2 0.15857893E+00 0.15249238E+04</pdfrwt>
<pdfrwt beam="2">  1       -2 0.86768901E-01 0.15249238E+04</pdfrwt>
<totfact> 0.26693418E+01</totfact>
</mgrwt>
</event>
<event>
 6    1  0.6091287E-004  0.7718171E+03  0.7818608E-02  0.9601731E-01
          2   -1    0    0  501    0  0.00000000000E+00  0.00000000000E+00  0.38473020560E+03  0.38473020560E+03  0.00000000000E+00 0.  1.
         -2   -1    0    0    0  501 -0.00000000000E+00 -0.00000000000E+00 -0.38709054497E+03  0.38709054497E+03  0.00000000000E+00 0. -1.
         23    2    1    2    0    0  0.19777432719E+03  0.29138738017E+03 -0.14540190828E+03  0.39171263404E+03  0.90971330154E+02 0.  0.
         11    1    3    3    0    0  0.14279517197E+03  0.24148309959E+03 -0.14845160544E+03  0.31739947651E+03  0.00000000000E+00 0.  1.
        -11    1    3    3    0    0  0.54979155222E+02  0.49904280580E+02  0.30496971630E+01  0.74313157529E+02  0.00000000000E+00 0. -1.
         22    1    1    2    0    0 -0.19777432719E+03 -0.29138738017E+03  0.14304156892E+03  0.38010811654E+03  0.00000000000E+00 0.  1.
<mgrwt>
<rscale>  0 0.77181714E+03</rscale>
<asrwt>0</asrwt>
<pdfrwt beam="1">  1        2 0.59189262E-01 0.77181714E+03</pdfrwt>
<pdfrwt beam="2">  1       -2 0.59552392E-01 0.77181714E+03</pdfrwt>
<totfact> 0.22046836E+02</totfact>
</mgrwt>
</event>
<event>
 6    1  0.6091287E-004  0.5085934E+04  0.7818608E-02  0.7815386E-01
         -2   -1    0    0    0  501 -0.00000000000E+00  0.00000000000E+00  0.17003569862E+04  0.17003569862E+04  0.00000000000E+00 0. -1.
          2   -1    0    0  501    0  0.00000000000E+00 -0.00000000000E+00 -0.38031314300E+04  0.38031314300E+04  0.00000000000E+00 0.  1.
         23    2    1    2    0    0 -0.44881787442E+02 -0.13727152506E+04 -0.33665806319E+04  0.36370566293E+04  0.89186542108E+02 0.  0.
         13    1    3    3    0    0 -0.34789947782E+02 -0.67278100751E+03 -0.15382841604E+04  0.16793340295E+04  0.00000000000E+00 0.  1.
        -13    1    3    3    0    0 -0.10091839661E+02 -0.69993424311E+03 -0.18282964715E+04  0.19577225998E+04  0.00000000000E+00 0. -1.
         22    1    1    2    0    0  0.44881787442E+02  0.13727152506E+04  0.12638061881E+04  0.18664317869E+04  0.00000000000E+00 0. -1.
<mgrwt>
<rscale>  0 0.50859340E+04</rscale>
<asrwt>0</asrwt>
<pdfrwt beam="1">  1        2 0.58509714E+00 0.50859340E+04</pdfrwt>
<pdfrwt beam="2">  1       -2 0.26159339E+00 0.50859340E+04</pdfrwt>
<totfact> 0.19200568E-02</totfact>
</mgrwt>
</event>
<event>
 6    1  0.6091287E-004  0.1573393E+04  0.7818608E-02  0.8837062E-01
         -2   -1    0    0    0  501 -0.00000000000E+00  0.00000000000E+00  0.41745464047E+03  0.41745464047E+03  0.00000000000E+00 0. -1.
          2   -1    0    0  501    0  0.00000000000E+00 -0.00000000000E+00 -0.14825358807E+04  0.14825358807E+04  0.00000000000E+00 0.  1.
         23    2    1    2    0    0 -0.45741041625E+03 -0.46361447654E+03 -0.10630660930E+04  0.12487096811E+04  0.70736680717E+02 0.  0.
         13    1    3    3    0    0 -0.20761828514E+03 -0.17407356322E+03 -0.48654048970E+03  0.55689191577E+03  0.00000000000E+00 0. -1.
        -13    1    3    3    0    0 -0.24979213112E+03 -0.28954091332E+03 -0.57652560325E+03  0.69181776535E+03  0.00000000000E+00 0.  1.
         22    1    1    2    0    0  0.45741041625E+03  0.46361447654E+03 -0.20151472521E+01  0.65128084002E+03  0.00000000000E+00 0. -1.
<mgrwt>
<rscale>  0 0.15733931E+04</rscale>
<asrwt>0</asrwt>
<pdfrwt beam="1">  1        2 0.22808244E+00 0.15733931E+04</pdfrwt>
<pdfrwt beam="2">  1       -2 0.64223791E-01 0.15733931E+04</pdfrwt>
<totfact> 0.27951076E+01</totfact>
</mgrwt>
</event>
<event>
 6    1  0.6091287E-004  0.2582293E+04  0.7818608E-02  0.8374241E-01
          2   -1    0    0  501    0  0.00000000000E+00  0.00000000000E+00  0.14688561990E+04  0.14688561990E+04  0.00000000000E+00 0.  1.
         -2   -1    0    0    0  501 -0.00000000000E+00 -0.00000000000E+00 -0.11349370768E+04  0.11349370768E+04  0.00000000000E+00 0. -1.
         23    2    1    2    0    0  0.92772460590E+03 -0.89481651406E+03  0.20644514471E+03  0.13085638933E+04  0.91380122611E+02 0.  0.
         11    1    3    3    0    0  0.51291897692E+03 -0.45354269852E+03  0.14462551679E+03  0.69978810820E+03  0.00000000000E+00 0. -1.
        -11    1    3    3    0    0  0.41480562898E+03 -0.44127381554E+03  0.61819627916E+02  0.60877578509E+03  0.00000000000E+00 0.  1.
         22    1    1    2    0    0 -0.92772460590E+03  0.89481651406E+03  0.12747397750E+03  0.12952293825E+04  0.00000000000E+00 0.  1.
<mgrwt>
<rscale>  0 0.25822931E+04</rscale>
<asrwt>0</asrwt>
<pdfrwt beam="1">  1        2 0.22597788E+00 0.25822931E+04</pdfrwt>
<pdfrwt beam="2">  1       -2 0.17460571E+00 0.25822931E+04</pdfrwt>
<totfact> 0.23160120E+00</totfact>
</mgrwt>
</event>
<event>
 6    1  0.6091287E-004  0.1334906E+04  0.7818608E-02  0.9002333E-01
         -2   -1    0    0    0  501 -0.00000000000E+00  0.00000000000E+00  0.10870117877E+04  0.10870117877E+04  0.00000000000E+00 0. -1.
          2   -1    0    0  501    0  0.00000000000E+00 -0.00000000000E+00 -0.40983329043E+03  0.40983329043E+03  0.00000000000E+00 0.  1.
         23    2    1    2    0    0 -0.28839308478E+03  0.10142528415E+03  0.10016224532E+04  0.10510631357E+04  0.89601990705E+02 0.  0.
         13    1    3    3    0    0 -0.27584839103E+02  0.42839409734E+02  0.14402483911E+03  0.15277202838E+03  0.00000000000E+00 0. -1.
        -13    1    3    3    0    0 -0.26080824567E+03  0.58585874419E+02  0.85759761410E+03  0.89829110727E+03  0.00000000000E+00 0.  1.
         22    1    1    2    0    0  0.28839308478E+03 -0.10142528415E+03 -0.32444395600E+03  0.44578194243E+03  0.00000000000E+00 0.  1.
<mgrwt>
<rscale>  0 0.13349062E+04</rscale>
<asrwt>0</asrwt>
<pdfrwt beam="1">  1        2 0.63051276E-01 0.13349062E+04</pdfrwt>
<pdfrwt beam="2">  1       -2 0.16723258E+00 0.13349062E+04</pdfrwt>
<totfact> 0.16855354E+01</totfact>
</mgrwt>
</event>
<event>
 6    1  0.6091287E-004  0.1385182E+04  0.7818608E-02  0.8964615E-01
         -1   -1    0    0    0  501 -0.00000000000E+00  0.00000000000E+00  0.29445719707E+03  0.29445719707E+03  0.00000000000E+00 0. -1.
          1   -1    0    0  501    0  0.00000000000E+00 -0.00000000000E+00 -0.16290389493E+04  0.16290389493E+04  0.00000000000E+00 0.  1.
         23    2    1    2    0    0  0.44232465872E+03  0.50875874562E+03 -0.87342752231E+03  0.11067037684E+04  0.86203418169E+02 0.  0.
         13    1    3    3    0    0  0.35511442334E+03  0.42415469648E+03 -0.76358940677E+03  0.94291157716E+03  0.00000000000E+00 0. -1.
        -13    1    3    3    0    0  0.87210235378E+02  0.84604049142E+02 -0.10983811554E+03  0.16379219124E+03  0.00000000000E+00 0.  1.
         22    1    1    2    0    0 -0.44232465872E+03 -0.50875874562E+03 -0.46115422995E+03  0.81679237800E+03  0.00000000000E+00 0. -1.
<mgrwt>
<rscale>  0 0.13851819E+04</rscale>
<asrwt>0</asrwt>
<pdfrwt beam="1">  1        1 0.25062138E+00 0.13851819E+04</pdfrwt>
<pdfrwt beam="2">  1       -1 0.45301107E-01 0.13851819E+04</pdfrwt>
<totfact> 0.25165263E+01</totfact>
</mgrwt>
</event>
<event>
 6    1  0.6091287E-004  0.2109181E+04  0.7818608E-02  0.8557210E-01
         -2   -1    0    0    0  501 -0.00000000000E+00  0.00000000000E+00  0.34630203788E+03  0.34630203788E+03  0.00000000000E+00 0. -1.
          2   -1    0    0  501    0  0.00000000000E+00 -0.00000000000E+00 -0.32115342819E+04  0.32115342819E+04  0.00000000000E+00 0.  1.
         23    2    1    2    0    0  0.44264849034E+03  0.73459991752E+03 -0.24646991793E+04  0.26112627829E+04  0.91523505361E+02 0.  0.
         13    1    3    3    0    0  0.21419340972E+03  0.28749819190E+03 -0.94177139737E+03  0.10077040200E+04  0.00000000000E+00 0. -1.
        -13    1    3    3    0    0  0.22845508063E+03  0.44710172562E+03 -0.15229277819E+04  0.16035587628E+04  0.00000000000E+00 0.  1.
         22    1    1    2    0    0 -0.44264849034E+03 -0.73459991752E+03 -0.40053306472E+03  0.94657353689E+03  0.00000000000E+00 0.  1.
<mgrwt>
<rscale>  0 0.21091808E+04</rscale>
<asrwt>0</asrwt>
<pdfrwt beam="1">  1        2 0.49408218E+00 0.21091808E+04</pdfrwt>
<pdfrwt beam="2">  1       -2 0.53277238E-01 0.21091808E+04</pdfrwt>
<totfact> 0.39082998E+00</totfact>
</mgrwt>
</event>
<event>
 6    1  0.6091287E-004  0.2174438E+04  0.7818608E-02  0.8529144E-01
         -4   -1    0    0    0  501 -0.00000000000E+00  0.00000000000E+00  0.68143963333E+03  0.68143963333E+03  0.00000000000E+00 0. -1.
          4   -1    0    0  501    0  0.00000000000E+00 -0.00000000000E+00 -0.17346290244E+04  0.17346290244E+04  0.00000000000E+00 0.  1.
         23    2    1    2    0    0 -0.73228401668E+03 -0.47564756927E+03 -0.12439855413E+04  0.15222657364E+04  0.85512888245E+02 0.  0.
         11    1    3    3    0    0 -0.10023554279E+03 -0.10248066199E+03 -0.19796423244E+03  0.24441621764E+03  0.00000000000E+00 0. -1.
        -11    1    3    3    0    0 -0.63204847388E+03 -0.37316690727E+03 -0.10460213089E+04  0.12778495188E+04  0.00000000000E+00 0.  1.
         22    1    1    2    0    0  0.73228401668E+03  0.47564756927E+03  0.19079615022E+03  0.89380292132E+03  0.00000000000E+00 0. -1.
<mgrwt>
<rscale>  0 0.21744378E+04</rscale>
<asrwt>0</asrwt>
<pdfrwt beam="1">  1        4 0.26686600E+00 0.21744378E+04</pdfrwt>
<pdfrwt beam="2">  1       -4 0.10483687E+00 0.21744378E+04</pdfrwt>
<totfact> 0.66983458E-02</totfact>
</mgrwt>
</event>
<event>
 6    1  0.6091287E-004  0.1376735E+04  0.7818608E-02  0.8970833E-01
          2   -1    0    0  501    0  0.00000000000E+00  0.00000000000E+00  0.17989974504E+04  0.17989974504E+04  0.00000000000E+00 0.  1.
         -2   -1    0    0    0  501 -0.00000000000E+00 -0.00000000000E+00 -0.26339649102E+03  0.26339649102E+03  0.00000000000E+00 0. -1.
         23    2    1    2    0    0 -0.14821649918E+03  0.10399423714E+03  0.17615355580E+04  0.17728609124E+04  0.85119684810E+02 0.  0.
         13    1    3    3    0    0 -0.75452771861E+02  0.33801631335E+02  0.11551370362E+04  0.11580920704E+04  0.00000000000E+00 0.  1.
        -13    1    3    3    0    0 -0.72763727317E+02  0.70192605806E+02  0.60639852176E+03  0.61476884201E+03  0.00000000000E+00 0. -1.
         22    1    1    2    0    0  0.14821649918E+03 -0.10399423714E+03 -0.22593459865E+03  0.28953302895E+03  0.00000000000E+00 0. -1.
<mgrwt>
<rscale>  0 0.13767347E+04</rscale>
<asrwt>0</asrwt>
<pdfrwt beam="1">  1        2 0.27676883E+00 0.13767347E+04</pdfrwt>
<pdfrwt beam="2">  1       -2 0.40522538E-01 0.13767347E+04</pdfrwt>
<totfact> 0.48566503E+01</totfact>
</mgrwt>
</event>
<event>
 6    1  0.6091287E-004  0.1740805E+04  0.7818608E-02  0.8738428E-01
         -2   -1    0    0    0  501 -0.00000000000E+00  0.00000000000E+00  0.16181855966E+04  0.16181855966E+04  0.00000000000E+00 0. -1.
          2   -1    0    0  501    0  0.00000000000E+00 -0.00000000000E+00 -0.46817875954E+03  0.46817875954E+03  0.00000000000E+00 0.  1.
         23    2    1    2    0    0  0.26811642353E+03 -0.24252713393E+03  0.15227397199E+04  0.15670998482E+04  0.79748683730E+02 0.  0.
         11    1    3    3    0    0  0.18985327451E+03 -0.13895567854E+03  0.85056091163E+03  0.88250031775E+03  0.00000000000E+00 0.  1.
        -11    1    3    3    0    0  0.78263149016E+02 -0.10357145539E+03  0.67217880825E+03  0.68459953047E+03  0.00000000000E+00 0. -1.
         22    1    1    2    0    0 -0.26811642353E+03  0.24252713393E+03 -0.37273288281E+03  0.51926450792E+03  0.00000000000E+00 0.  1.
<mgrwt>
<rscale>  0 0.17408046E+04</rscale>
<asrwt>0</asrwt>
<pdfrwt beam="1">  1        2 0.72027502E-01 0.17408046E+04</pdfrwt>
<pdfrwt beam="2">  1       -2 0.24895163E+00 0.17408046E+04</pdfrwt>
<totfact> 0.41111269E+00</totfact>
</mgrwt>
</event>
<event>
 6    1  0.6091287E-004  0.3475759E+04  0.7818608E-02  0.8119559E-01
          2   -1    0    0  501    0  0.00000000000E+00  0.00000000000E+00  0.34293779354E+04  0.34293779354E+04  0.00000000000E+00 0.  1.
         -2   -1    0    0    0  501 -0.00000000000E+00 -0.00000000000E+00 -0.88069176915E+03  0.88069176915E+03  0.00000000000E+00 0. -1.
         23    2    1    2    0    0  0.13525946914E+04 -0.77834174428E+03  0.33013033481E+03  0.15976320099E+04  0.90076251551E+02 0.  0.
         13    1    3    3    0    0  0.11254742764E+04 -0.66948054800E+03  0.24881404696E+03  0.13329684846E+04  0.00000000000E+00 0.  1.
        -13    1    3    3    0    0  0.22712041500E+03 -0.10886119627E+03  0.81316287859E+02  0.26466352532E+03  0.00000000000E+00 0. -1.
         22    1    1    2    0    0 -0.13525946914E+04  0.77834174428E+03  0.22185558314E+04  0.27124376946E+04  0.00000000000E+00 0.  1.
<mgrwt>
<rscale>  0 0.34757589E+04</rscale>
<asrwt>0</asrwt>
<pdfrwt beam="1">  1        2 0.52759660E+00 0.34757589E+04</pdfrwt>
<pdfrwt beam="2">  1       -2 0.13549104E+00 0.34757589E+04</pdfrwt>
<totfact> 0.29248200E-01</totfact>
</mgrwt>
</event>
<event>
 6    1  0.6091287E-004  0.1043374E+04  0.7818608E-02  0.9262212E-01
         -2   -1    0    0    0  501 -0.00000000000E+00  0.00000000000E+00  0.92455458069E+03  0.92455458069E+03  0.00000000000E+00 0. -1.
          2   -1    0    0  501    0  0.00000000000E+00 -0.00000000000E+00 -0.29436601063E+03  0.29436601063E+03  0.00000000000E+00 0.  1.
         23    2    1    2    0    0 -0.26813480905E+03  0.12358285063E+03 -0.17950553367E+03  0.35707748587E+03  0.90072734520E+02 0.  0.
         13    1    3    3    0    0 -0.18358222274E+03  0.66443804817E+02 -0.70033000754E+02  0.20741705065E+03  0.00000000000E+00 0.  1.
        -13    1    3    3    0    0 -0.84552586307E+02  0.57139045814E+02 -0.10947253292E+03  0.14966043522E+03  0.00000000000E+00 0. -1.
         22    1    1    2    0    0  0.26813480905E+03 -0.12358285063E+03  0.80969410373E+03  0.86184310545E+03  0.00000000000E+00 0. -1.
<mgrwt>
<rscale>  0 0.10433742E+04</rscale>
<asrwt>0</asrwt>
<pdfrwt beam="1">  1        2 0.45287079E-01 0.10433742E+04</pdfrwt>
<pdfrwt beam="2">  1       -2 0.14223916E+00 0.10433742E+04</pdfrwt>
<totfact> 0.38455747E+01</totfact>
</mgrwt>
</event>
<event>
 6    1  0.6091287E-004  0.2732977E+04  0.7818608E-02  0.8324384E-01
          2   -1    0    0  501    0  0.00000000000E+00  0.00000000000E+00  0.18488189659E+04  0.18488189659E+04  0.00000000000E+00 0.  1.
         -2   -1    0    0    0  501 -0.00000000000E+00 -0.00000000000E+00 -0.10099912774E+04  0.10099912774E+04  0.00000000000E+00 0. -1.
         23    2    1    2    0    0 -0.10846601703E+04 -0.50845488158E+03  0.11045210026E+04  0.16317784634E+04  0.87864991348E+02 0.  0.
         13    1    3    3    0    0 -0.33419762972E+03 -0.13110819164E+03  0.37624656068E+03  0.52003739101E+03  0.00000000000E+00 0.  1.
        -13    1    3    3    0    0 -0.75046254059E+03 -0.37734668995E+03  0.72827444193E+03  0.11117410724E+04  0.00000000000E+00 0. -1.
         22    1    1    2    0    0  0.10846601703E+04  0.50845488158E+03 -0.26569331411E+03  0.12270317799E+04  0.00000000000E+00 0. -1.
<mgrwt>
<rscale>  0 0.27329772E+04</rscale>
<asrwt>0</asrwt>
<pdfrwt beam="1">  1        2 0.28443369E+00 0.27329772E+04</pdfrwt>
<pdfrwt beam="2">  1       -2 0.15538327E+00 0.27329772E+04</pdfrwt>
<totfact> 0.19345361E+00</totfact>
</mgrwt>
</event>
<event>
 6    1  0.6091287E-004  0.9184788E+03  0.7818608E-02  0.9402772E-01
          2   -1    0    0  501    0  0.00000000000E+00  0.00000000000E+00  0.12604607909E+04  0.12604607909E+04  0.00000000000E+00 0.  1.
         -2   -1    0    0    0  501 -0.00000000000E+00 -0.00000000000E+00 -0.16732042198E+03  0.16732042198E+03  0.00000000000E+00 0. -1.
         23    2    1    2    0    0 -0.29608481072E+03 -0.23131000289E+03  0.15310176349E+03  0.41543586061E+03  0.89309975493E+02 0.  0.
         11    1    3    3    0    0 -0.14185384577E+03 -0.55505332887E+02  0.60649987520E+02  0.16395663001E+03  0.00000000000E+00 0.  1.
        -11    1    3    3    0    0 -0.15423096496E+03 -0.17580467000E+03  0.92451775973E+02  0.25147923061E+03  0.00000000000E+00 0. -1.
         22    1    1    2    0    0  0.29608481072E+03  0.23131000289E+03  0.94003860543E+03  0.10123453523E+04  0.00000000000E+00 0.  1.
<mgrwt>
<rscale>  0 0.91847881E+03</rscale>
<asrwt>0</asrwt>
<pdfrwt beam="1">  1        2 0.19391704E+00 0.91847881E+03</pdfrwt>
<pdfrwt beam="2">  1       -2 0.25741604E-01 0.91847881E+03</pdfrwt>
<totfact> 0.23732613E+02</totfact>
</mgrwt>
</event>
<event>
 6    1  0.6091287E-004  0.1072724E+04  0.7818608E-02  0.9232192E-01
         -2   -1    0    0    0  501 -0.00000000000E+00  0.00000000000E+00  0.28103482061E+03  0.28103482061E+03  0.00000000000E+00 0. -1.
          2   -1    0    0  501    0  0.00000000000E+00 -0.00000000000E+00 -0.10236610822E+04  0.10236610822E+04  0.00000000000E+00 0.  1.
         23    2    1    2    0    0  0.49686465705E+03 -0.57304698209E+02 -0.59633253026E+03  0.78358154715E+03  0.90715150438E+02 0.  0.
         11    1    3    3    0    0  0.20347698668E+02  0.14597544515E+02 -0.43476869380E+02  0.50173253014E+02  0.00000000000E+00 0.  1.
        -11    1    3    3    0    0  0.47651695838E+03 -0.71902242724E+02 -0.55285566088E+03  0.73340829413E+03  0.00000000000E+00 0. -1.
         22    1    1    2    0    0 -0.49686465705E+03  0.57304698209E+02 -0.14629373133E+03  0.52111435567E+03  0.00000000000E+00 0. -1.
<mgrwt>
<rscale>  0 0.10727244E+04</rscale>
<asrwt>0</asrwt>
<pdfrwt beam="1">  1        2 0.15748632E+00 0.10727244E+04</pdfrwt>
<pdfrwt beam="2">  1       -2 0.43236126E-01 0.10727244E+04</pdfrwt>
<totfact> 0.12262172E+02</totfact>
</mgrwt>
</event>
<event>
 6    1  0.6091287E-004  0.1534184E+04  0.7818608E-02  0.8862034E-01
          2   -1    0    0  501    0  0.00000000000E+00  0.00000000000E+00  0.19521579297E+04  0.19521579297E+04  0.00000000000E+00 0. -1.
         -2   -1    0    0    0  501 -0.00000000000E+00 -0.00000000000E+00 -0.30142566562E+03  0.30142566562E+03  0.00000000000E+00 0.  1.
         23    2    1    2    0    0 -0.33085714037E+03  0.67781657707E+03  0.64774441943E+03  0.99863882522E+03  0.93834486495E+02 0.  0.
         11    1    3    3    0    0 -0.28531936097E+03  0.53026019466E+03  0.55244108993E+03  0.81717450378E+03  0.00000000000E+00 0. -1.
        -11    1    3    3    0    0 -0.45537779402E+02  0.14755638241E+03  0.95303329492E+02  0.18146432144E+03  0.00000000000E+00 0.  1.
         22    1    1    2    0    0  0.33085714037E+03 -0.67781657707E+03  0.10029878447E+04  0.12549447701E+04  0.00000000000E+00 0.  1.
<mgrwt>
<rscale>  0 0.15341845E+04</rscale>
<asrwt>0</asrwt>
<pdfrwt beam="1">  1        2 0.30033198E+00 0.15341845E+04</pdfrwt>
<pdfrwt beam="2">  1       -2 0.46373181E-01 0.15341845E+04</pdfrwt>
<totfact> 0.30187268E+01</totfact>
</mgrwt>
</event>
<event>
 6    1  0.6091287E-004  0.1345390E+04  0.7818608E-02  0.8994325E-01
         -2   -1    0    0    0  501 -0.00000000000E+00  0.00000000000E+00  0.21140999082E+03  0.21140999082E+03  0.00000000000E+00 0. -1.
          2   -1    0    0  501    0  0.00000000000E+00 -0.00000000000E+00 -0.21404786090E+04  0.21404786090E+04  0.00000000000E+00 0.  1.
         23    2    1    2    0    0  0.51207494940E+03 -0.30788848181E+03 -0.44099274551E+03  0.74833446170E+03  0.92270222402E+02 0.  0.
         11    1    3    3    0    0  0.37374491587E+03 -0.22620859999E+03 -0.37082849673E+03  0.57303522303E+03  0.00000000000E+00 0. -1.
        -11    1    3    3    0    0  0.13833003353E+03 -0.81679881824E+02 -0.70164248777E+02  0.17529923867E+03  0.00000000000E+00 0.  1.
         22    1    1    2    0    0 -0.51207494940E+03  0.30788848181E+03 -0.14880758726E+04  0.16035541381E+04  0.00000000000E+00 0. -1.
<mgrwt>
<rscale>  0 0.13453900E+04</rscale>
<asrwt>0</asrwt>
<pdfrwt beam="1">  1        2 0.32930441E+00 0.13453900E+04</pdfrwt>
<pdfrwt beam="2">  1       -2 0.32524613E-01 0.13453900E+04</pdfrwt>
<totfact> 0.48074365E+01</totfact>
</mgrwt>
</event>
<event>
 6    1  0.6091287E-004  0.4811926E+04  0.7818608E-02  0.7858193E-01
         -2   -1    0    0    0  501 -0.00000000000E+00  0.00000000000E+00  0.22635772768E+04  0.22635772768E+04  0.00000000000E+00 0. -1.
          2   -1    0    0  501    0  0.00000000000E+00 -0.00000000000E+00 -0.25573051359E+04  0.25573051359E+04  0.00000000000E+00 0.  1.
         23    2    1    2    0    0  0.20064239205E+03  0.49836637001E+03  0.22017854402E+04  0.22681949983E+04  0.90680852435E+02 0.  0.
         11    1    3    3    0    0  0.38476285233E+02  0.20677912748E+03  0.78997563559E+03  0.81749589412E+03  0.00000000000E+00 0. -1.
        -11    1    3    3    0    0  0.16216610681E+03  0.29158724253E+03  0.14118098047E+04  0.14506991041E+04  0.00000000000E+00 0.  1.
         22    1    1    2    0    0 -0.20064239205E+03 -0.49836637001E+03 -0.24955132994E+04  0.25526874144E+04  0.00000000000E+00 0.  1.
<mgrwt>
<rscale>  0 0.48119259E+04</rscale>
<asrwt>0</asrwt>
<pdfrwt beam="1">  1        2 0.39343156E+00 0.48119259E+04</pdfrwt>
<pdfrwt beam="2">  1       -2 0.34824266E+00 0.48119259E+04</pdfrwt>
<totfact> 0.38021655E-02</totfact>
</mgrwt>
</event>
<event>
 6    1  0.6091287E-004  0.3364330E+04  0.7818608E-02  0.8146717E-01
          2   -1    0    0  501    0  0.00000000000E+00  0.00000000000E+00  0.35397845068E+04  0.35397845068E+04  0.00000000000E+00 0. -1.
         -2   -1    0    0    0  501 -0.00000000000E+00 -0.00000000000E+00 -0.79939320668E+03  0.79939320668E+03  0.00000000000E+00 0.  1.
         23    2    1    2    0    0 -0.48729918142E+03  0.66979040789E+03  0.32576792261E+04  0.33626192252E+04  0.93029194734E+02 0.  0.
         11    1    3    3    0    0 -0.26581549765E+03  0.33336433777E+03  0.15031633424E+04  0.15624627017E+04  0.00000000000E+00 0. -1.
        -11    1    3    3    0    0 -0.22148368377E+03  0.33642607012E+03  0.17545158837E+04  0.18001565235E+04  0.00000000000E+00 0.  1.
         22    1    1    2    0    0  0.48729918142E+03 -0.66979040789E+03 -0.51728792594E+03  0.97655848828E+03  0.00000000000E+00 0.  1.
<mgrwt>
<rscale>  0 0.33643304E+04</rscale>
<asrwt>0</asrwt>
<pdfrwt beam="1">  1        2 0.54458222E+00 0.33643304E+04</pdfrwt>
<pdfrwt beam="2">  1       -2 0.12298357E+00 0.33643304E+04</pdfrwt>
<totfact> 0.31578301E-01</totfact>
</mgrwt>
</event>
<event>
 6    1  0.6091287E-004  0.2823352E+04  0.7818608E-02  0.8296055E-01
         -2   -1    0    0    0  501 -0.00000000000E+00  0.00000000000E+00  0.56713467760E+03  0.56713467760E+03  0.00000000000E+00 0. -1.
          2   -1    0    0  501    0  0.00000000000E+00 -0.00000000000E+00 -0.35138553846E+04  0.35138553846E+04  0.00000000000E+00 0.  1.
         23    2    1    2    0    0  0.87414427443E+03  0.93871353401E+03 -0.23218917602E+04  0.26542025783E+04  0.91097032295E+02 0.  0.
         13    1    3    3    0    0  0.23250090581E+03  0.30625310588E+03 -0.72762802649E+03  0.82297641582E+03  0.00000000000E+00 0.  1.
        -13    1    3    3    0    0  0.64164336863E+03  0.63246042812E+03 -0.15942637337E+04  0.18312261625E+04  0.00000000000E+00 0. -1.
         22    1    1    2    0    0 -0.87414427443E+03 -0.93871353401E+03 -0.62482894687E+03  0.14267874839E+04  0.00000000000E+00 0. -1.
<mgrwt>
<rscale>  0 0.28233521E+04</rscale>
<asrwt>0</asrwt>
<pdfrwt beam="1">  1        2 0.54059314E+00 0.28233521E+04</pdfrwt>
<pdfrwt beam="2">  1       -2 0.87251489E-01 0.28233521E+04</pdfrwt>
<totfact> 0.78345567E-01</totfact>
</mgrwt>
</event>
<event>
 6    1  0.6091287E-004  0.3750986E+04  0.7818608E-02  0.8056756E-01
          1   -1    0    0  501    0  0.00000000000E+00  0.00000000000E+00  0.32486994028E+04  0.32486994028E+04  0.00000000000E+00 0.  1.
         -1   -1    0    0    0  501 -0.00000000000E+00 -0.00000000000E+00 -0.10827329202E+04  0.10827329202E+04  0.00000000000E+00 0. -1.
         23    2    1    2    0    0 -0.90452415965E+03 -0.27475755489E+03  0.29529557414E+04  0.31013885177E+04  0.70763391477E+02 0.  0.
         13    1    3    3    0    0 -0.58350801764E+03 -0.18070137521E+03  0.20158793607E+04  0.21063960194E+04  0.00000000000E+00 0. -1.
        -13    1    3    3    0    0 -0.32101614201E+03 -0.94056179688E+02  0.93707638074E+03  0.99499249832E+03  0.00000000000E+00 0.  1.
         22    1    1    2    0    0  0.90452415965E+03  0.27475755489E+03 -0.78698925886E+03  0.12300438053E+04  0.00000000000E+00 0. -1.
<mgrwt>
<rscale>  0 0.37509859E+04</rscale>
<asrwt>0</asrwt>
<pdfrwt beam="1">  1        1 0.49979990E+00 0.37509859E+04</pdfrwt>
<pdfrwt beam="2">  1       -1 0.16657430E+00 0.37509859E+04</pdfrwt>
<totfact> 0.81319455E-02</totfact>
</mgrwt>
</event>
<event>
 6    1  0.6091287E-004  0.1372071E+04  0.7818608E-02  0.8974287E-01
          2   -1    0    0  501    0  0.00000000000E+00  0.00000000000E+00  0.61823961581E+03  0.61823961581E+03  0.00000000000E+00 0.  1.
         -2   -1    0    0    0  501 -0.00000000000E+00 -0.00000000000E+00 -0.76126603752E+03  0.76126603752E+03  0.00000000000E+00 0. -1.
         23    2    1    2    0    0  0.38001506685E+03 -0.23804163892E+03 -0.58976155311E+03  0.74653839468E+03  0.91791134157E+02 0.  0.
         13    1    3    3    0    0  0.13553020531E+03 -0.85076476550E+02 -0.14200448330E+03  0.21394325577E+03  0.00000000000E+00 0.  1.
        -13    1    3    3    0    0  0.24448486154E+03 -0.15296516237E+03 -0.44775706981E+03  0.53259513891E+03  0.00000000000E+00 0. -1.
         22    1    1    2    0    0 -0.38001506685E+03  0.23804163892E+03  0.44673513141E+03  0.63296725865E+03  0.00000000000E+00 0.  1.
<mgrwt>
<rscale>  0 0.13720712E+04</rscale>
<asrwt>0</asrwt>
<pdfrwt beam="1">  1        2 0.95113787E-01 0.13720712E+04</pdfrwt>
<pdfrwt beam="2">  1       -2 0.11711785E+00 0.13720712E+04</pdfrwt>
<totfact> 0.26294875E+01</totfact>
</mgrwt>
</event>
<event>
 6    1  0.6091287E-004  0.2551369E+04  0.7818608E-02  0.8384910E-01
          2   -1    0    0  501    0  0.00000000000E+00  0.00000000000E+00  0.99413524158E+03  0.99413524158E+03  0.00000000000E+00 0.  1.
         -2   -1    0    0    0  501 -0.00000000000E+00 -0.00000000000E+00 -0.16369718177E+04  0.16369718177E+04  0.00000000000E+00 0. -1.
         23    2    1    2    0    0 -0.66287946744E+02  0.12655902299E+04 -0.44906394499E+03  0.13490538020E+04  0.11034043635E+03 0.  0.
         11    1    3    3    0    0 -0.46609322446E+02  0.75465865619E+03 -0.32449844887E+03  0.82278876974E+03  0.00000000000E+00 0. -1.
        -11    1    3    3    0    0 -0.19678624298E+02  0.51093157375E+03 -0.12456549612E+03  0.52626503222E+03  0.00000000000E+00 0.  1.
         22    1    1    2    0    0  0.66287946744E+02 -0.12655902299E+04 -0.19377263113E+03  0.12820532573E+04  0.00000000000E+00 0.  1.
<mgrwt>
<rscale>  0 0.25513693E+04</rscale>
<asrwt>0</asrwt>
<pdfrwt beam="1">  1        2 0.15294389E+00 0.25513693E+04</pdfrwt>
<pdfrwt beam="2">  1       -2 0.25184181E+00 0.25513693E+04</pdfrwt>
<totfact> 0.14126290E+00</totfact>
</mgrwt>
</event>
<event>
 6    1  0.6091287E-004  0.2685963E+04  0.7818608E-02  0.8339574E-01
          2   -1    0    0  501    0  0.00000000000E+00  0.00000000000E+00  0.19235105439E+04  0.19235105439E+04  0.00000000000E+00 0.  1.
         -2   -1    0    0    0  501 -0.00000000000E+00 -0.00000000000E+00 -0.93766050264E+03  0.93766050264E+03  0.00000000000E+00 0. -1.
         23    2    1    2    0    0  0.94415467330E+03  0.65778979461E+03  0.12284988326E+04  0.16851634373E+04  0.80317915932E+02 0.  0.
         11    1    3    3    0    0  0.16811749364E+03  0.81194472407E+02  0.20106577242E+03  0.27437834983E+03  0.00000000000E+00 0. -1.
        -11    1    3    3    0    0  0.77603717966E+03  0.57659532221E+03  0.10274330602E+04  0.14107850875E+04  0.00000000000E+00 0.  1.
         22    1    1    2    0    0 -0.94415467330E+03 -0.65778979461E+03 -0.24264879138E+03  0.11760076092E+04  0.00000000000E+00 0. -1.
<mgrwt>
<rscale>  0 0.26859634E+04</rscale>
<asrwt>0</asrwt>
<pdfrwt beam="1">  1        2 0.29592470E+00 0.26859634E+04</pdfrwt>
<pdfrwt beam="2">  1       -2 0.14425546E+00 0.26859634E+04</pdfrwt>
<totfact> 0.21497317E+00</totfact>
</mgrwt>
</event>
<event>
 6    1  0.6091287E-004  0.2013294E+04  0.7818608E-02  0.8600430E-01
          1   -1    0    0  501    0  0.00000000000E+00  0.00000000000E+00  0.15760842264E+04  0.15760842264E+04  0.00000000000E+00 0.  1.
         -1   -1    0    0    0  501 -0.00000000000E+00 -0.00000000000E+00 -0.64294695401E+03  0.64294695401E+03  0.00000000000E+00 0. -1.
         23    2    1    2    0    0  0.77139245271E+02 -0.93183387560E+03  0.87239163444E+03  0.12820387218E+04  0.91056496461E+02 0.  0.
         11    1    3    3    0    0  0.90792485734E+02 -0.80021911698E+03  0.77554633691E+03  0.11180635185E+04  0.00000000000E+00 0.  1.
        -11    1    3    3    0    0 -0.13653240463E+02 -0.13161475861E+03  0.96845297532E+02  0.16397520335E+03  0.00000000000E+00 0. -1.
         22    1    1    2    0    0 -0.77139245271E+02  0.93183387560E+03  0.60745637925E+02  0.93699245856E+03  0.00000000000E+00 0. -1.
<mgrwt>
<rscale>  0 0.20132944E+04</rscale>
<asrwt>0</asrwt>
<pdfrwt beam="1">  1        1 0.24247450E+00 0.20132944E+04</pdfrwt>
<pdfrwt beam="2">  1       -1 0.98914916E-01 0.20132944E+04</pdfrwt>
<totfact> 0.52472722E+00</totfact>
</mgrwt>
</event>
<event>
 6    1  0.6091287E-004  0.1445935E+04  0.7818608E-02  0.8921223E-01
          2   -1    0    0  501    0  0.00000000000E+00  0.00000000000E+00  0.13311302532E+04  0.13311302532E+04  0.00000000000E+00 0.  1.
         -2   -1    0    0    0  501 -0.00000000000E+00 -0.00000000000E+00 -0.39266035404E+03  0.39266035404E+03  0.00000000000E+00 0. -1.
         23    2    1    2    0    0  0.54626637378E+03 -0.46842202586E+03  0.44362955407E+03  0.85046757849E+03  0.93068659521E+02 0.  0.
         13    1    3    3    0    0  0.49941554636E+03 -0.44950988478E+03  0.39050763383E+03  0.77715586373E+03  0.00000000000E+00 0.  1.
        -13    1    3    3    0    0  0.46850827425E+02 -0.18912141084E+02  0.53121920244E+02  0.73311714761E+02  0.00000000000E+00 0. -1.
         22    1    1    2    0    0 -0.54626637378E+03  0.46842202586E+03  0.49484034514E+03  0.87332302879E+03  0.00000000000E+00 0. -1.
<mgrwt>
<rscale>  0 0.14459351E+04</rscale>
<asrwt>0</asrwt>
<pdfrwt beam="1">  1        2 0.20478927E+00 0.14459351E+04</pdfrwt>
<pdfrwt beam="2">  1       -2 0.60409286E-01 0.14459351E+04</pdfrwt>
<totfact> 0.39264091E+01</totfact>
</mgrwt>
</event>
<event>
 6    1  0.6091287E-004  0.1469352E+04  0.7818608E-02  0.8905093E-01
         -2   -1    0    0    0  501 -0.00000000000E+00  0.00000000000E+00  0.47432637311E+03  0.47432637311E+03  0.00000000000E+00 0. -1.
          2   -1    0    0  501    0  0.00000000000E+00 -0.00000000000E+00 -0.11379276756E+04  0.11379276756E+04  0.00000000000E+00 0.  1.
         23    2    1    2    0    0 -0.55809843918E+03  0.16809162187E+03  0.15232503109E+03  0.60952554957E+03  0.92681278203E+02 0.  0.
         13    1    3    3    0    0 -0.55978862560E+03  0.16374785268E+03  0.14526305302E+03  0.60106407245E+03  0.00000000000E+00 0.  1.
        -13    1    3    3    0    0  0.16901864255E+01  0.43437691850E+01  0.70619780697E+01  0.84614771254E+01  0.00000000000E+00 0. -1.
         22    1    1    2    0    0  0.55809843918E+03 -0.16809162187E+03 -0.81592633358E+03  0.10027284991E+04  0.00000000000E+00 0.  1.
<mgrwt>
<rscale>  0 0.14693524E+04</rscale>
<asrwt>0</asrwt>
<pdfrwt beam="1">  1        2 0.17506580E+00 0.14693524E+04</pdfrwt>
<pdfrwt beam="2">  1       -2 0.72973289E-01 0.14693524E+04</pdfrwt>
<totfact> 0.33930727E+01</totfact>
</mgrwt>
</event>
<event>
 6    1  0.6091287E-004  0.3504198E+04  0.7818608E-02  0.8112796E-01
          2   -1    0    0  501    0  0.00000000000E+00  0.00000000000E+00  0.25589811532E+04  0.25589811532E+04  0.00000000000E+00 0. -1.
         -2   -1    0    0    0  501 -0.00000000000E+00 -0.00000000000E+00 -0.11996377650E+04  0.11996377650E+04  0.00000000000E+00 0.  1.
         23    2    1    2    0    0 -0.44701994077E+03 -0.11532610636E+04 -0.64914212542E+03  0.13998370362E+04  0.91215791949E+02 0.  0.
         13    1    3    3    0    0 -0.14812059577E+03 -0.50601156527E+03 -0.28203238519E+03  0.59793785745E+03  0.00000000000E+00 0. -1.
        -13    1    3    3    0    0 -0.29889934500E+03 -0.64724949837E+03 -0.36710974023E+03  0.80189917879E+03  0.00000000000E+00 0.  1.
         22    1    1    2    0    0  0.44701994077E+03  0.11532610636E+04  0.20084855136E+04  0.23587818820E+04  0.00000000000E+00 0. -1.
<mgrwt>
<rscale>  0 0.35041977E+04</rscale>
<asrwt>0</asrwt>
<pdfrwt beam="1">  1        2 0.39368941E+00 0.35041977E+04</pdfrwt>
<pdfrwt beam="2">  1       -2 0.18455966E+00 0.35041977E+04</pdfrwt>
<totfact> 0.44568270E-01</totfact>
</mgrwt>
</event>
<event>
 6    1  0.6091287E-004  0.4295728E+04  0.7818608E-02  0.7947408E-01
         -2   -1    0    0    0  501 -0.00000000000E+00  0.00000000000E+00  0.18269597974E+04  0.18269597974E+04  0.00000000000E+00 0. -1.
          2   -1    0    0  501    0  0.00000000000E+00 -0.00000000000E+00 -0.25251351060E+04  0.25251351060E+04  0.00000000000E+00 0.  1.
         23    2    1    2    0    0  0.11616859181E+04 -0.76005614965E+03  0.13099580761E+04  0.19108249032E+04  0.89789345687E+02 0.  0.
         11    1    3    3    0    0  0.26674894479E+03 -0.13354469995E+03  0.26274269135E+03  0.39752095327E+03  0.00000000000E+00 0.  1.
        -11    1    3    3    0    0  0.89493697335E+03 -0.62651144970E+03  0.10472153847E+04  0.15133039499E+04  0.00000000000E+00 0. -1.
         22    1    1    2    0    0 -0.11616859181E+04  0.76005614965E+03 -0.20081333847E+04  0.24412700002E+04  0.00000000000E+00 0.  1.
<mgrwt>
<rscale>  0 0.42957283E+04</rscale>
<asrwt>0</asrwt>
<pdfrwt beam="1">  1        2 0.38848232E+00 0.42957283E+04</pdfrwt>
<pdfrwt beam="2">  1       -2 0.28107074E+00 0.42957283E+04</pdfrwt>
<totfact> 0.10756039E-01</totfact>
</mgrwt>
</event>
<event>
 6    1  0.6091287E-004  0.2562596E+04  0.7818608E-02  0.8381019E-01
          1   -1    0    0  501    0  0.00000000000E+00  0.00000000000E+00  0.11857698395E+04  0.11857698395E+04  0.00000000000E+00 0.  1.
         -1   -1    0    0    0  501 -0.00000000000E+00 -0.00000000000E+00 -0.13845223544E+04  0.13845223544E+04  0.00000000000E+00 0. -1.
         23    2    1    2    0    0 -0.48132058303E+03  0.96326122129E+03  0.59399320991E+03  0.12331357078E+04  0.90851837822E+02 0.  0.
         13    1    3    3    0    0 -0.80016824191E+02  0.10199844135E+03  0.87472197671E+02  0.15638976807E+03  0.00000000000E+00 0. -1.
        -13    1    3    3    0    0 -0.40130375884E+03  0.86126277993E+03  0.50652101224E+03  0.10767459398E+04  0.00000000000E+00 0.  1.
         22    1    1    2    0    0  0.48132058303E+03 -0.96326122129E+03 -0.79274572477E+03  0.13371564861E+04  0.00000000000E+00 0. -1.
<mgrwt>
<rscale>  0 0.25625962E+04</rscale>
<asrwt>0</asrwt>
<pdfrwt beam="1">  1        1 0.18242613E+00 0.25625962E+04</pdfrwt>
<pdfrwt beam="2">  1       -1 0.21300344E+00 0.25625962E+04</pdfrwt>
<totfact> 0.11863957E+00</totfact>
</mgrwt>
</event>
<event>
 6    1  0.8264868E-004  0.4525386E+04  0.7818608E-02  0.7906207E-01
         -2   -1    0    0    0  501 -0.00000000000E+00  0.00000000000E+00  0.19263465037E+04  0.19263465037E+04  0.00000000000E+00 0. -1.
          2   -1    0    0  501    0  0.00000000000E+00 -0.00000000000E+00 -0.26577672922E+04  0.26577672922E+04  0.00000000000E+00 0.  1.
         23    2    1    2    0    0 -0.20891905907E+04  0.26478307659E+03 -0.12015917899E+04  0.24263630752E+04  0.92668986052E+02 0.  0.
         11    1    3    3    0    0 -0.14589642432E+04  0.15480990835E+03 -0.87149610952E+03  0.17064724550E+04  0.00000000000E+00 0. -1.
        -11    1    3    3    0    0 -0.63022634752E+03  0.10997316824E+03 -0.33009568034E+03  0.71989062018E+03  0.00000000000E+00 0.  1.
         22    1    1    2    0    0  0.20891905907E+04 -0.26478307659E+03  0.47017100133E+03  0.21577507207E+04  0.00000000000E+00 0. -1.
<mgrwt>
<rscale>  0 0.45253865E+04</rscale>
<asrwt>0</asrwt>
<pdfrwt beam="1">  1        2 0.40888728E+00 0.45253865E+04</pdfrwt>
<pdfrwt beam="2">  1       -2 0.29636100E+00 0.45253865E+04</pdfrwt>
<totfact> 0.71170647E-02</totfact>
</mgrwt>
</event>
<event>
 6    1  0.6091287E-004  0.2093095E+04  0.7818608E-02  0.8564291E-01
         -2   -1    0    0    0  501 -0.00000000000E+00  0.00000000000E+00  0.62608576017E+03  0.62608576017E+03  0.00000000000E+00 0. -1.
          2   -1    0    0  501    0  0.00000000000E+00 -0.00000000000E+00 -0.17493802576E+04  0.17493802576E+04  0.00000000000E+00 0.  1.
         23    2    1    2    0    0  0.72452057669E+03  0.48538514708E+03 -0.12157278989E+04  0.14984980932E+04  0.83506909972E+02 0.  0.
         13    1    3    3    0    0  0.50131304221E+03  0.35963634516E+03 -0.80176456758E+03  0.10116716310E+04  0.00000000000E+00 0. -1.
        -13    1    3    3    0    0  0.22320753448E+03  0.12574880191E+03 -0.41396333136E+03  0.48682646225E+03  0.00000000000E+00 0.  1.
         22    1    1    2    0    0 -0.72452057669E+03 -0.48538514708E+03  0.92433401488E+02  0.87696792459E+03  0.00000000000E+00 0. -1.
<mgrwt>
<rscale>  0 0.20930954E+04</rscale>
<asrwt>0</asrwt>
<pdfrwt beam="1">  1        2 0.26913542E+00 0.20930954E+04</pdfrwt>
<pdfrwt beam="2">  1       -2 0.96320888E-01 0.20930954E+04</pdfrwt>
<totfact> 0.76595392E+00</totfact>
</mgrwt>
</event>
<event>
 6    1  0.6091287E-004  0.8146725E+03  0.7818608E-02  0.9539019E-01
          2   -1    0    0  501    0  0.00000000000E+00  0.00000000000E+00  0.28943921714E+03  0.28943921714E+03  0.00000000000E+00 0.  1.
         -2   -1    0    0    0  501 -0.00000000000E+00 -0.00000000000E+00 -0.57325618734E+03  0.57325618734E+03  0.00000000000E+00 0. -1.
         23    2    1    2    0    0  0.73064303069E+02 -0.36628677523E+03 -0.30184916461E+03  0.48875750305E+03  0.90920759580E+02 0.  0.
         11    1    3    3    0    0  0.66383615252E+02 -0.12092766104E+03 -0.91836129679E+02  0.16572313747E+03  0.00000000000E+00 0. -1.
        -11    1    3    3    0    0  0.66806878165E+01 -0.24535911418E+03 -0.21001303493E+03  0.32303436558E+03  0.00000000000E+00 0.  1.
         22    1    1    2    0    0 -0.73064303069E+02  0.36628677523E+03  0.18032194416E+02  0.37393790143E+03  0.00000000000E+00 0.  1.
<mgrwt>
<rscale>  0 0.81467250E+03</rscale>
<asrwt>0</asrwt>
<pdfrwt beam="1">  1        2 0.44529110E-01 0.81467250E+03</pdfrwt>
<pdfrwt beam="2">  1       -2 0.88193260E-01 0.81467250E+03</pdfrwt>
<totfact> 0.12741859E+02</totfact>
</mgrwt>
</event>
<event>
 6    1  0.6091287E-004  0.1979305E+04  0.7818608E-02  0.8616358E-01
         -2   -1    0    0    0  501 -0.00000000000E+00  0.00000000000E+00  0.17572573236E+04  0.17572573236E+04  0.00000000000E+00 0. -1.
          2   -1    0    0  501    0  0.00000000000E+00 -0.00000000000E+00 -0.55735250580E+03  0.55735250580E+03  0.00000000000E+00 0.  1.
         23    2    1    2    0    0 -0.20775297975E+02 -0.98707649697E+03  0.62609305569E+03  0.11726765729E+04  0.91794370260E+02 0.  0.
         11    1    3    3    0    0 -0.11597043704E+01 -0.34201543819E+03  0.16649841574E+03  0.38039141331E+03  0.00000000000E+00 0.  1.
        -11    1    3    3    0    0 -0.19615593605E+02 -0.64506105878E+03  0.45959463995E+03  0.79228515961E+03  0.00000000000E+00 0. -1.
         22    1    1    2    0    0  0.20775297975E+02  0.98707649697E+03  0.57381176209E+03  0.11419332565E+04  0.00000000000E+00 0. -1.
<mgrwt>
<rscale>  0 0.19793047E+04</rscale>
<asrwt>0</asrwt>
<pdfrwt beam="1">  1        2 0.85746540E-01 0.19793047E+04</pdfrwt>
<pdfrwt beam="2">  1       -2 0.27034728E+00 0.19793047E+04</pdfrwt>
<totfact> 0.24328932E+00</totfact>
</mgrwt>
</event>
<event>
 6    1  0.6091287E-004  0.1616268E+04  0.7818608E-02  0.8810616E-01
         -2   -1    0    0    0  501 -0.00000000000E+00  0.00000000000E+00  0.29864463050E+03  0.29864463050E+03  0.00000000000E+00 0. -1.
          2   -1    0    0  501    0  0.00000000000E+00 -0.00000000000E+00 -0.21868161749E+04  0.21868161749E+04  0.00000000000E+00 0.  1.
         23    2    1    2    0    0 -0.13096271744E+03 -0.76719468470E+03 -0.12665072990E+04  0.14893657539E+04  0.91818804673E+02 0.  0.
         11    1    3    3    0    0 -0.75339976957E+02 -0.64523456670E+03 -0.10544309447E+04  0.12384782498E+04  0.00000000000E+00 0. -1.
        -11    1    3    3    0    0 -0.55622740479E+02 -0.12196011800E+03 -0.21207635433E+03  0.25088750409E+03  0.00000000000E+00 0.  1.
         22    1    1    2    0    0  0.13096271744E+03  0.76719468470E+03 -0.62166424536E+03  0.99609505146E+03  0.00000000000E+00 0. -1.
<mgrwt>
<rscale>  0 0.16162684E+04</rscale>
<asrwt>0</asrwt>
<pdfrwt beam="1">  1        2 0.33643327E+00 0.16162684E+04</pdfrwt>
<pdfrwt beam="2">  1       -2 0.45945327E-01 0.16162684E+04</pdfrwt>
<totfact> 0.22612857E+01</totfact>
</mgrwt>
</event>
<event>
 6    1  0.6091287E-004  0.5696754E+03  0.7818608E-02  0.9970397E-01
         -3   -1    0    0    0  501 -0.00000000000E+00  0.00000000000E+00  0.99235997046E+03  0.99235997046E+03  0.00000000000E+00 0. -1.
          3   -1    0    0  501    0  0.00000000000E+00 -0.00000000000E+00 -0.81757145800E+02  0.81757145800E+02  0.00000000000E+00 0.  1.
         23    2    1    2    0    0 -0.15178027738E+03  0.12901384202E+01  0.90506173946E+03  0.92223024822E+03  0.91285055912E+02 0.  0.
         13    1    3    3    0    0 -0.31967407522E+02  0.24909154422E+02  0.42316032245E+03  0.42509650623E+03  0.00000000000E+00 0. -1.
        -13    1    3    3    0    0 -0.11981286985E+03 -0.23619016002E+02  0.48190141702E+03  0.49713374199E+03  0.00000000000E+00 0.  1.
         22    1    1    2    0    0  0.15178027738E+03 -0.12901384202E+01  0.55410851934E+01  0.15188686804E+03  0.00000000000E+00 0.  1.
<mgrwt>
<rscale>  0 0.56967541E+03</rscale>
<asrwt>0</asrwt>
<pdfrwt beam="1">  1        3 0.12578023E-01 0.56967541E+03</pdfrwt>
<pdfrwt beam="2">  1       -3 0.15267076E+00 0.56967541E+03</pdfrwt>
<totfact> 0.42270380E+01</totfact>
</mgrwt>
</event>
<event>
 6    1  0.6091287E-004  0.4048683E+04  0.7818608E-02  0.7994797E-01
          2   -1    0    0  501    0  0.00000000000E+00  0.00000000000E+00  0.32192645639E+04  0.32192645639E+04  0.00000000000E+00 0.  1.
         -2   -1    0    0    0  501 -0.00000000000E+00 -0.00000000000E+00 -0.12729489032E+04  0.12729489032E+04  0.00000000000E+00 0. -1.
         23    2    1    2    0    0 -0.54355403594E+03  0.18500883631E+04  0.16535222001E+04  0.25418273639E+04  0.92047488060E+02 0.  0.
         11    1    3    3    0    0 -0.34266036140E+02  0.19013857906E+03  0.19027354016E+03  0.27116574372E+03  0.00000000000E+00 0.  1.
        -11    1    3    3    0    0 -0.50928799980E+03  0.16599497840E+04  0.14632486600E+04  0.22706616201E+04  0.00000000000E+00 0. -1.
         22    1    1    2    0    0  0.54355403594E+03 -0.18500883631E+04  0.29279346056E+03  0.19503861033E+04  0.00000000000E+00 0. -1.
<mgrwt>
<rscale>  0 0.40486834E+04</rscale>
<asrwt>0</asrwt>
<pdfrwt beam="1">  1        2 0.49527147E+00 0.40486834E+04</pdfrwt>
<pdfrwt beam="2">  1       -2 0.19583829E+00 0.40486834E+04</pdfrwt>
<totfact> 0.14010073E-01</totfact>
</mgrwt>
</event>
<event>
 6    1  0.6091287E-004  0.1544171E+04  0.7818608E-02  0.8855599E-01
          2   -1    0    0  501    0  0.00000000000E+00  0.00000000000E+00  0.33772863968E+03  0.33772863968E+03  0.00000000000E+00 0.  1.
         -2   -1    0    0    0  501 -0.00000000000E+00 -0.00000000000E+00 -0.17650745262E+04  0.17650745262E+04  0.00000000000E+00 0. -1.
         23    2    1    2    0    0 -0.23921363381E+02  0.42181983509E+03 -0.15918611449E+04  0.16494054650E+04  0.89511330202E+02 0.  0.
         11    1    3    3    0    0  0.29063039438E+02  0.92078810619E+02 -0.41414293848E+03  0.42524997486E+03  0.00000000000E+00 0. -1.
        -11    1    3    3    0    0 -0.52984402818E+02  0.32974102447E+03 -0.11777182065E+04  0.12241554901E+04  0.00000000000E+00 0.  1.
         22    1    1    2    0    0  0.23921363381E+02 -0.42181983509E+03  0.16451525845E+03  0.45339770088E+03  0.00000000000E+00 0.  1.
<mgrwt>
<rscale>  0 0.15441713E+04</rscale>
<asrwt>0</asrwt>
<pdfrwt beam="1">  1        2 0.51958252E-01 0.15441713E+04</pdfrwt>
<pdfrwt beam="2">  1       -2 0.27154993E+00 0.15441713E+04</pdfrwt>
<totfact> 0.43991177E+00</totfact>
</mgrwt>
</event>
<event>
 6    1  0.6091287E-004  0.2862312E+04  0.7818608E-02  0.8284180E-01
         -2   -1    0    0    0  501 -0.00000000000E+00  0.00000000000E+00  0.70464916866E+03  0.70464916866E+03  0.00000000000E+00 0. -1.
          2   -1    0    0  501    0  0.00000000000E+00 -0.00000000000E+00 -0.29067054372E+04  0.29067054372E+04  0.00000000000E+00 0.  1.
         23    2    1    2    0    0  0.56826104145E+03 -0.54560501907E+03  0.40300665978E+03  0.88978184207E+03  0.93230416624E+02 0.  0.
         13    1    3    3    0    0  0.18415217734E+01 -0.19239550433E+02  0.42770286355E+01  0.19795061941E+02  0.00000000000E+00 0.  1.
        -13    1    3    3    0    0  0.56641951968E+03 -0.52636546864E+03  0.39872963114E+03  0.86998678013E+03  0.00000000000E+00 0. -1.
         22    1    1    2    0    0 -0.56826104145E+03  0.54560501907E+03 -0.26050629283E+04  0.27215727638E+04  0.00000000000E+00 0.  1.
<mgrwt>
<rscale>  0 0.28623121E+04</rscale>
<asrwt>0</asrwt>
<pdfrwt beam="1">  1        2 0.44718544E+00 0.28623121E+04</pdfrwt>
<pdfrwt beam="2">  1       -2 0.10840757E+00 0.28623121E+04</pdfrwt>
<totfact> 0.11720686E+00</totfact>
</mgrwt>
</event>
<event>
 6    1  0.6091287E-004  0.6639303E+03  0.7818608E-02  0.9780985E-01
         -4   -1    0    0    0  501 -0.00000000000E+00  0.00000000000E+00  0.16300586364E+03  0.16300586364E+03  0.00000000000E+00 0. -1.
          4   -1    0    0  501    0  0.00000000000E+00 -0.00000000000E+00 -0.67605462305E+03  0.67605462305E+03  0.00000000000E+00 0.  1.
         23    2    1    2    0    0  0.46703305710E+02 -0.30547654989E+03 -0.39226577039E+03  0.50726890794E+03  0.89175047184E+02 0.  0.
         11    1    3    3    0    0  0.33395629036E+02 -0.27770710445E+02 -0.47399023753E+02  0.64289562528E+02  0.00000000000E+00 0. -1.
        -11    1    3    3    0    0  0.13307676674E+02 -0.27770583945E+03 -0.34486674664E+03  0.44297934541E+03  0.00000000000E+00 0.  1.
         22    1    1    2    0    0 -0.46703305710E+02  0.30547654989E+03 -0.12078298901E+03  0.33179157875E+03  0.00000000000E+00 0. -1.
<mgrwt>
<rscale>  0 0.66393032E+03</rscale>
<asrwt>0</asrwt>
<pdfrwt beam="1">  1        4 0.10400840E+00 0.66393032E+03</pdfrwt>
<pdfrwt beam="2">  1       -4 0.25077825E-01 0.66393032E+03</pdfrwt>
<totfact> 0.22572552E+01</totfact>
</mgrwt>
</event>
<event>
 6    1  0.6091287E-004  0.1355530E+04  0.7818608E-02  0.8986653E-01
         -2   -1    0    0    0  501 -0.00000000000E+00  0.00000000000E+00  0.36463974673E+03  0.36463974673E+03  0.00000000000E+00 0. -1.
          2   -1    0    0  501    0  0.00000000000E+00 -0.00000000000E+00 -0.12597785571E+04  0.12597785571E+04  0.00000000000E+00 0.  1.
         23    2    1    2    0    0  0.62391671080E+01 -0.57121880393E+03 -0.87982218906E+03  0.10529601268E+04  0.91148752803E+02 0.  0.
         11    1    3    3    0    0 -0.33778337515E+02 -0.28070275733E+03 -0.38312973882E+03  0.47615481812E+03  0.00000000000E+00 0. -1.
        -11    1    3    3    0    0  0.40017504623E+02 -0.29051604660E+03 -0.49669245024E+03  0.57680530869E+03  0.00000000000E+00 0.  1.
         22    1    1    2    0    0 -0.62391671080E+01  0.57121880393E+03 -0.15316621284E+02  0.57145817699E+03  0.00000000000E+00 0. -1.
<mgrwt>
<rscale>  0 0.13555299E+04</rscale>
<asrwt>0</asrwt>
<pdfrwt beam="1">  1        2 0.19381208E+00 0.13555299E+04</pdfrwt>
<pdfrwt beam="2">  1       -2 0.56098423E-01 0.13555299E+04</pdfrwt>
<totfact> 0.50837585E+01</totfact>
</mgrwt>
</event>
<event>
 6    1  0.6091287E-004  0.3208310E+04  0.7818608E-02  0.8186626E-01
          1   -1    0    0  501    0  0.00000000000E+00  0.00000000000E+00  0.24129934534E+04  0.24129934534E+04  0.00000000000E+00 0.  1.
         -1   -1    0    0    0  501 -0.00000000000E+00 -0.00000000000E+00 -0.10664403461E+04  0.10664403461E+04  0.00000000000E+00 0. -1.
         23    2    1    2    0    0  0.19012242960E+03 -0.13973369358E+04  0.15003679797E+04  0.20608584349E+04  0.85652576989E+02 0.  0.
         13    1    3    3    0    0  0.19098991464E+02 -0.35663163931E+03  0.41384193855E+03  0.54664069345E+03  0.00000000000E+00 0. -1.
        -13    1    3    3    0    0  0.17102343813E+03 -0.10407052964E+04  0.10865260412E+04  0.15142177415E+04  0.00000000000E+00 0.  1.
         22    1    1    2    0    0 -0.19012242960E+03  0.13973369358E+04 -0.15381487241E+03  0.14185753647E+04  0.00000000000E+00 0. -1.
<mgrwt>
<rscale>  0 0.32083102E+04</rscale>
<asrwt>0</asrwt>
<pdfrwt beam="1">  1        1 0.37122976E+00 0.32083102E+04</pdfrwt>
<pdfrwt beam="2">  1       -1 0.16406775E+00 0.32083102E+04</pdfrwt>
<totfact> 0.35423847E-01</totfact>
</mgrwt>
</event>
<event>
 6    1  0.6091287E-004  0.1734503E+04  0.7818608E-02  0.8741927E-01
          2   -1    0    0  501    0  0.00000000000E+00  0.00000000000E+00  0.57057972045E+03  0.57057972045E+03  0.00000000000E+00 0.  1.
         -2   -1    0    0    0  501 -0.00000000000E+00 -0.00000000000E+00 -0.13181766109E+04  0.13181766109E+04  0.00000000000E+00 0. -1.
         23    2    1    2    0    0 -0.75244078733E+03  0.22639530524E+03  0.17181017710E+02  0.79225862433E+03  0.99782602604E+02 0.  0.
         11    1    3    3    0    0 -0.44390483827E+03  0.11309586806E+03  0.55144052190E+02  0.46139250894E+03  0.00000000000E+00 0. -1.
        -11    1    3    3    0    0 -0.30853594905E+03  0.11329943718E+03 -0.37963034480E+02  0.33086611539E+03  0.00000000000E+00 0.  1.
         22    1    1    2    0    0  0.75244078733E+03 -0.22639530524E+03 -0.76477790812E+03  0.10964977070E+04  0.00000000000E+00 0. -1.
<mgrwt>
<rscale>  0 0.17345026E+04</rscale>
<asrwt>0</asrwt>
<pdfrwt beam="1">  1        2 0.87781496E-01 0.17345026E+04</pdfrwt>
<pdfrwt beam="2">  1       -2 0.20279640E+00 0.17345026E+04</pdfrwt>
<totfact> 0.63702976E+00</totfact>
</mgrwt>
</event>
<event>
 6    1  0.6091287E-004  0.1568800E+04  0.7818608E-02  0.8839948E-01
         -2   -1    0    0    0  501 -0.00000000000E+00  0.00000000000E+00  0.19878301367E+03  0.19878301367E+03  0.00000000000E+00 0. -1.
          2   -1    0    0  501    0  0.00000000000E+00 -0.00000000000E+00 -0.30952524349E+04  0.30952524349E+04  0.00000000000E+00 0.  1.
         23    2    1    2    0    0 -0.14989665301E+03  0.57986232347E+03 -0.39847837450E+03  0.72524807116E+03  0.92143524052E+02 0.  0.
         13    1    3    3    0    0 -0.77773066744E+01  0.13463541816E+03 -0.12426992225E+03  0.18338537537E+03  0.00000000000E+00 0. -1.
        -13    1    3    3    0    0 -0.14211934634E+03  0.44522690531E+03 -0.27420845224E+03  0.54186269580E+03  0.00000000000E+00 0.  1.
         22    1    1    2    0    0  0.14989665301E+03 -0.57986232347E+03 -0.24979910468E+04  0.25687873775E+04  0.00000000000E+00 0.  1.
<mgrwt>
<rscale>  0 0.15688003E+04</rscale>
<asrwt>0</asrwt>
<pdfrwt beam="1">  1        2 0.47619266E+00 0.15688003E+04</pdfrwt>
<pdfrwt beam="2">  1       -2 0.30582003E-01 0.15688003E+04</pdfrwt>
<totfact> 0.14515966E+01</totfact>
</mgrwt>
</event>
<event>
 6    1  0.6091287E-004  0.1143332E+04  0.7818608E-02  0.9163958E-01
         -2   -1    0    0    0  501 -0.00000000000E+00  0.00000000000E+00  0.72987394072E+03  0.72987394072E+03  0.00000000000E+00 0. -1.
          2   -1    0    0  501    0  0.00000000000E+00 -0.00000000000E+00 -0.44775092748E+03  0.44775092748E+03  0.00000000000E+00 0.  1.
         23    2    1    2    0    0 -0.23216145427E+03 -0.33779612137E+03 -0.26209731669E+03  0.49631662081E+03  0.98132686785E+02 0.  0.
         13    1    3    3    0    0 -0.85149985231E+02 -0.20228858437E+03 -0.16152653365E+03  0.27251057305E+03  0.00000000000E+00 0.  1.
        -13    1    3    3    0    0 -0.14701146904E+03 -0.13550753700E+03 -0.10057078304E+03  0.22380604775E+03  0.00000000000E+00 0. -1.
         22    1    1    2    0    0  0.23216145427E+03  0.33779612137E+03  0.54422032993E+03  0.68130824739E+03  0.00000000000E+00 0. -1.
<mgrwt>
<rscale>  0 0.11433315E+04</rscale>
<asrwt>0</asrwt>
<pdfrwt beam="1">  1        2 0.68884758E-01 0.11433315E+04</pdfrwt>
<pdfrwt beam="2">  1       -2 0.11228830E+00 0.11433315E+04</pdfrwt>
<totfact> 0.43286100E+01</totfact>
</mgrwt>
</event>
<event>
 6    1  0.6091287E-004  0.4284224E+04  0.7818608E-02  0.7949542E-01
          2   -1    0    0  501    0  0.00000000000E+00  0.00000000000E+00  0.23861299377E+04  0.23861299377E+04  0.00000000000E+00 0.  1.
         -2   -1    0    0    0  501 -0.00000000000E+00 -0.00000000000E+00 -0.19230489182E+04  0.19230489182E+04  0.00000000000E+00 0. -1.
         23    2    1    2    0    0  0.18265181173E+04  0.87363165278E+03 -0.46819270492E+03  0.20805758298E+04  0.10094888398E+03 0.  0.
         11    1    3    3    0    0  0.12603882020E+04  0.55765680106E+03 -0.34252895022E+03  0.14201709789E+04  0.00000000000E+00 0. -1.
        -11    1    3    3    0    0  0.56612991529E+03  0.31597485172E+03 -0.12566375470E+03  0.66040485095E+03  0.00000000000E+00 0.  1.
         22    1    1    2    0    0 -0.18265181173E+04 -0.87363165278E+03  0.93127372442E+03  0.22286030260E+04  0.00000000000E+00 0.  1.
<mgrwt>
<rscale>  0 0.42842244E+04</rscale>
<asrwt>0</asrwt>
<pdfrwt beam="1">  1        2 0.36709691E+00 0.42842244E+04</pdfrwt>
<pdfrwt beam="2">  1       -2 0.29585368E+00 0.42842244E+04</pdfrwt>
<totfact> 0.10519419E-01</totfact>
</mgrwt>
</event>
<event>
 6    1  0.6091287E-004  0.1746957E+04  0.7818608E-02  0.8735027E-01
         -2   -1    0    0    0  501 -0.00000000000E+00  0.00000000000E+00  0.52606009186E+03  0.52606009186E+03  0.00000000000E+00 0. -1.
          2   -1    0    0  501    0  0.00000000000E+00 -0.00000000000E+00 -0.14503367625E+04  0.14503367625E+04  0.00000000000E+00 0.  1.
         23    2    1    2    0    0 -0.32995580806E+03 -0.79437535520E+03 -0.61801771527E+03  0.10633264365E+04  0.93883832097E+02 0.  0.
         11    1    3    3    0    0 -0.12110258463E+03 -0.19476131745E+03 -0.14179835266E+03  0.26963786751E+03  0.00000000000E+00 0. -1.
        -11    1    3    3    0    0 -0.20885322343E+03 -0.59961403775E+03 -0.47621936261E+03  0.79368856898E+03  0.00000000000E+00 0.  1.
         22    1    1    2    0    0  0.32995580806E+03  0.79437535520E+03 -0.30625895535E+03  0.91307041785E+03  0.00000000000E+00 0. -1.
<mgrwt>
<rscale>  0 0.17469565E+04</rscale>
<asrwt>0</asrwt>
<pdfrwt beam="1">  1        2 0.22312873E+00 0.17469565E+04</pdfrwt>
<pdfrwt beam="2">  1       -2 0.80932323E-01 0.17469565E+04</pdfrwt>
<totfact> 0.17292064E+01</totfact>
</mgrwt>
</event>
<event>
 6    1  0.6860016E-004  0.2797180E+04  0.7818608E-02  0.8304145E-01
         -2   -1    0    0    0  501 -0.00000000000E+00  0.00000000000E+00  0.10177451161E+04  0.10177451161E+04  0.00000000000E+00 0.  1.
          2   -1    0    0  501    0  0.00000000000E+00 -0.00000000000E+00 -0.19219481771E+04  0.19219481771E+04  0.00000000000E+00 0. -1.
         23    2    1    2    0    0 -0.70486850839E+03  0.55635500546E+02 -0.17188948195E+04  0.18609636773E+04  0.93013356155E+02 0.  0.
         13    1    3    3    0    0 -0.22258735908E+03 -0.57002616401E+01 -0.63890785360E+03  0.67659505673E+03  0.00000000000E+00 0.  1.
        -13    1    3    3    0    0 -0.48228114931E+03  0.61335762186E+02 -0.10799869659E+04  0.11843686205E+04  0.00000000000E+00 0. -1.
         22    1    1    2    0    0  0.70486850839E+03 -0.55635500546E+02  0.81469175844E+03  0.10787296159E+04  0.00000000000E+00 0.  1.
<mgrwt>
<rscale>  0 0.27971796E+04</rscale>
<asrwt>0</asrwt>
<pdfrwt beam="1">  1        2 0.29568433E+00 0.27971796E+04</pdfrwt>
<pdfrwt beam="2">  1       -2 0.15657617E+00 0.27971796E+04</pdfrwt>
<totfact> 0.17167879E+00</totfact>
</mgrwt>
</event>
<event>
 6    1  0.6091287E-004  0.1519203E+04  0.7818608E-02  0.8871783E-01
         -2   -1    0    0    0  501 -0.00000000000E+00  0.00000000000E+00  0.47843239313E+03  0.47843239313E+03  0.00000000000E+00 0. -1.
          2   -1    0    0  501    0  0.00000000000E+00 -0.00000000000E+00 -0.12060096502E+04  0.12060096502E+04  0.00000000000E+00 0.  1.
         23    2    1    2    0    0 -0.28670777480E+03 -0.90944051094E+02 -0.11353050525E+04  0.11777724037E+04  0.88080099361E+02 0.  0.
         13    1    3    3    0    0 -0.22491704730E+03 -0.10579070967E+03 -0.94479391228E+03  0.97694159963E+03  0.00000000000E+00 0. -1.
        -13    1    3    3    0    0 -0.61790727495E+02  0.14846658573E+02 -0.19051114027E+03  0.20083080402E+03  0.00000000000E+00 0.  1.
         22    1    1    2    0    0  0.28670777480E+03  0.90944051094E+02  0.40772779548E+03  0.50666963967E+03  0.00000000000E+00 0. -1.
<mgrwt>
<rscale>  0 0.15192025E+04</rscale>
<asrwt>0</asrwt>
<pdfrwt beam="1">  1        2 0.18553994E+00 0.15192025E+04</pdfrwt>
<pdfrwt beam="2">  1       -2 0.73604984E-01 0.15192025E+04</pdfrwt>
<totfact> 0.30171847E+01</totfact>
</mgrwt>
</event>
<event>
 6    1  0.6091287E-004  0.4303209E+03  0.7818608E-02  0.1033759E+00
          2   -1    0    0  501    0  0.00000000000E+00  0.00000000000E+00  0.14570616822E+03  0.14570616822E+03  0.00000000000E+00 0.  1.
         -2   -1    0    0    0  501 -0.00000000000E+00 -0.00000000000E+00 -0.31772175522E+03  0.31772175522E+03  0.00000000000E+00 0. -1.
         23    2    1    2    0    0  0.90731621171E+02  0.14107437077E+03  0.38183392226E+02  0.19450820301E+03  0.90781410143E+02 0.  0.
         13    1    3    3    0    0  0.89326940523E+02  0.10009422460E+03  0.61231678984E+02  0.14747024992E+03  0.00000000000E+00 0. -1.
        -13    1    3    3    0    0  0.14046806477E+01  0.40980146179E+02 -0.23048286758E+02  0.47037953091E+02  0.00000000000E+00 0.  1.
         22    1    1    2    0    0 -0.90731621171E+02 -0.14107437077E+03 -0.21019897922E+03  0.26891972043E+03  0.00000000000E+00 0. -1.
<mgrwt>
<rscale>  0 0.43032090E+03</rscale>
<asrwt>0</asrwt>
<pdfrwt beam="1">  1        2 0.22416334E-01 0.43032090E+03</pdfrwt>
<pdfrwt beam="2">  1       -2 0.48880269E-01 0.43032090E+03</pdfrwt>
<totfact> 0.98603668E+02</totfact>
</mgrwt>
</event>
<event>
 6    1  0.6091287E-004  0.3452724E+04  0.7818608E-02  0.8125086E-01
          2   -1    0    0  501    0  0.00000000000E+00  0.00000000000E+00  0.38657382265E+04  0.38657382265E+04  0.00000000000E+00 0.  1.
         -2   -1    0    0    0  501 -0.00000000000E+00 -0.00000000000E+00 -0.77095882556E+03  0.77095882556E+03  0.00000000000E+00 0. -1.
         23    2    1    2    0    0 -0.16686332875E+04  0.42961084932E+02  0.21338228269E+04  0.27106596069E+04  0.91065606843E+02 0.  0.
         13    1    3    3    0    0 -0.11225606797E+04  0.51541471556E+02  0.13763990715E+04  0.17768718037E+04  0.00000000000E+00 0.  1.
        -13    1    3    3    0    0 -0.54607260776E+03 -0.85803866237E+01  0.75742375548E+03  0.93378780317E+03  0.00000000000E+00 0. -1.
         22    1    1    2    0    0  0.16686332875E+04 -0.42961084932E+02  0.96095657396E+03  0.19260374451E+04  0.00000000000E+00 0.  1.
<mgrwt>
<rscale>  0 0.34527236E+04</rscale>
<asrwt>0</asrwt>
<pdfrwt beam="1">  1        2 0.59472895E+00 0.34527236E+04</pdfrwt>
<pdfrwt beam="2">  1       -2 0.11860905E+00 0.34527236E+04</pdfrwt>
<totfact> 0.19667509E-01</totfact>
</mgrwt>
</event>
<event>
 6    1  0.6091287E-004  0.3292224E+04  0.7818608E-02  0.8164877E-01
          2   -1    0    0  501    0  0.00000000000E+00  0.00000000000E+00  0.87968985160E+03  0.87968985160E+03  0.00000000000E+00 0.  1.
         -2   -1    0    0    0  501 -0.00000000000E+00 -0.00000000000E+00 -0.30802727070E+04  0.30802727070E+04  0.00000000000E+00 0. -1.
         23    2    1    2    0    0 -0.97046550613E+03  0.12590084961E+04 -0.59299248361E+03  0.16991546289E+04  0.92631935115E+02 0.  0.
         13    1    3    3    0    0 -0.74172908607E+03  0.10071059942E+04 -0.49399132090E+03  0.13447869518E+04  0.00000000000E+00 0.  1.
        -13    1    3    3    0    0 -0.22873642006E+03  0.25190250187E+03 -0.99001162706E+02  0.35436767703E+03  0.00000000000E+00 0. -1.
         22    1    1    2    0    0  0.97046550613E+03 -0.12590084961E+04 -0.16075903718E+04  0.22608079298E+04  0.00000000000E+00 0.  1.
<mgrwt>
<rscale>  0 0.32922240E+04</rscale>
<asrwt>0</asrwt>
<pdfrwt beam="1">  1        2 0.13533690E+00 0.32922240E+04</pdfrwt>
<pdfrwt beam="2">  1       -2 0.47388810E+00 0.32922240E+04</pdfrwt>
<totfact> 0.61091144E-02</totfact>
</mgrwt>
</event>
<event>
 6    1  0.6091287E-004  0.3681853E+04  0.7818608E-02  0.8071995E-01
          2   -1    0    0  501    0  0.00000000000E+00  0.00000000000E+00  0.23436939959E+04  0.23436939959E+04  0.00000000000E+00 0.  1.
         -2   -1    0    0    0  501 -0.00000000000E+00 -0.00000000000E+00 -0.14460120630E+04  0.14460120630E+04  0.00000000000E+00 0. -1.
         23    2    1    2    0    0 -0.43267602446E+03 -0.12901198419E+04  0.17233890283E+04  0.21980371373E+04  0.98385798851E+02 0.  0.
         13    1    3    3    0    0 -0.14971506526E+03 -0.39294928573E+03  0.60180151202E+03  0.73415856719E+03  0.00000000000E+00 0. -1.
        -13    1    3    3    0    0 -0.28296095920E+03 -0.89717055614E+03  0.11215875163E+04  0.14638785701E+04  0.00000000000E+00 0.  1.
         22    1    1    2    0    0  0.43267602446E+03  0.12901198419E+04 -0.82570709542E+03  0.15916689216E+04  0.00000000000E+00 0. -1.
<mgrwt>
<rscale>  0 0.36818527E+04</rscale>
<asrwt>0</asrwt>
<pdfrwt beam="1">  1        2 0.36056831E+00 0.36818527E+04</pdfrwt>
<pdfrwt beam="2">  1       -2 0.22246339E+00 0.36818527E+04</pdfrwt>
<totfact> 0.33051142E-01</totfact>
</mgrwt>
</event>
<event>
 6    1  0.6091287E-004  0.1271751E+04  0.7818608E-02  0.9052272E-01
         -2   -1    0    0    0  501 -0.00000000000E+00  0.00000000000E+00  0.42697378048E+03  0.42697378048E+03  0.00000000000E+00 0. -1.
          2   -1    0    0  501    0  0.00000000000E+00 -0.00000000000E+00 -0.94698485953E+03  0.94698485953E+03  0.00000000000E+00 0.  1.
         23    2    1    2    0    0  0.48092589067E+03 -0.41158588023E+03 -0.24815143660E+03  0.68504622591E+03  0.83764831647E+02 0.  0.
         13    1    3    3    0    0  0.20601133573E+03 -0.12310629553E+03 -0.96727130597E+02  0.25875078404E+03  0.00000000000E+00 0.  1.
        -13    1    3    3    0    0  0.27491455494E+03 -0.28847958471E+03 -0.15142430600E+03  0.42629544187E+03  0.00000000000E+00 0. -1.
         22    1    1    2    0    0 -0.48092589067E+03  0.41158588023E+03 -0.27185964245E+03  0.68891241411E+03  0.00000000000E+00 0. -1.
<mgrwt>
<rscale>  0 0.12717511E+04</rscale>
<asrwt>0</asrwt>
<pdfrwt beam="1">  1        2 0.14568998E+00 0.12717511E+04</pdfrwt>
<pdfrwt beam="2">  1       -2 0.65688274E-01 0.12717511E+04</pdfrwt>
<totfact> 0.57178617E+01</totfact>
</mgrwt>
</event>
<event>
 6    1  0.6091287E-004  0.2434853E+04  0.7818608E-02  0.8426569E-01
          2   -1    0    0  501    0  0.00000000000E+00  0.00000000000E+00  0.16172828794E+04  0.16172828794E+04  0.00000000000E+00 0.  1.
         -2   -1    0    0    0  501 -0.00000000000E+00 -0.00000000000E+00 -0.91643039890E+03  0.91643039890E+03  0.00000000000E+00 0. -1.
         23    2    1    2    0    0 -0.29851969932E+03  0.29611748819E+02 -0.87498476906E+03  0.92957678048E+03  0.92324309774E+02 0.  0.
         11    1    3    3    0    0 -0.18709904765E+03  0.54629576185E+02 -0.62625396714E+03  0.65588449866E+03  0.00000000000E+00 0. -1.
        -11    1    3    3    0    0 -0.11142065167E+03 -0.25017827367E+02 -0.24873080192E+03  0.27369228183E+03  0.00000000000E+00 0.  1.
         22    1    1    2    0    0  0.29851969932E+03 -0.29611748819E+02  0.15758372495E+04  0.16041364978E+04  0.00000000000E+00 0.  1.
<mgrwt>
<rscale>  0 0.24348529E+04</rscale>
<asrwt>0</asrwt>
<pdfrwt beam="1">  1        2 0.24881275E+00 0.24348529E+04</pdfrwt>
<pdfrwt beam="2">  1       -2 0.14098929E+00 0.24348529E+04</pdfrwt>
<totfact> 0.34491014E+00</totfact>
</mgrwt>
</event>
<event>
 6    1  0.6091287E-004  0.3303170E+04  0.7818608E-02  0.8162089E-01
         -2   -1    0    0    0  501 -0.00000000000E+00  0.00000000000E+00  0.10163096165E+04  0.10163096165E+04  0.00000000000E+00 0. -1.
          2   -1    0    0  501    0  0.00000000000E+00 -0.00000000000E+00 -0.26839586194E+04  0.26839586194E+04  0.00000000000E+00 0.  1.
         23    2    1    2    0    0 -0.46622383275E+03  0.10254376685E+04 -0.21856578170E+04  0.24604213881E+04  0.87671203119E+02 0.  0.
         11    1    3    3    0    0 -0.24048178325E+03  0.44381470650E+03 -0.10336460908E+04  0.11503161404E+04  0.00000000000E+00 0. -1.
        -11    1    3    3    0    0 -0.22574204950E+03  0.58162296205E+03 -0.11520117262E+04  0.13101052477E+04  0.00000000000E+00 0.  1.
         22    1    1    2    0    0  0.46622383275E+03 -0.10254376685E+04  0.51800881408E+03  0.12398468477E+04  0.00000000000E+00 0. -1.
<mgrwt>
<rscale>  0 0.33031700E+04</rscale>
<asrwt>0</asrwt>
<pdfrwt beam="1">  1        2 0.41291671E+00 0.33031700E+04</pdfrwt>
<pdfrwt beam="2">  1       -2 0.15635533E+00 0.33031700E+04</pdfrwt>
<totfact> 0.60759430E-01</totfact>
</mgrwt>
</event>
<event>
 6    1  0.6091287E-004  0.1168988E+04  0.7818608E-02  0.9140442E-01
         -2   -1    0    0    0  501 -0.00000000000E+00  0.00000000000E+00  0.19103975349E+03  0.19103975349E+03  0.00000000000E+00 0. -1.
          2   -1    0    0  501    0  0.00000000000E+00 -0.00000000000E+00 -0.17882846877E+04  0.17882846877E+04  0.00000000000E+00 0.  1.
         23    2    1    2    0    0  0.28422696398E+03  0.23504931862E+02  0.53050923043E+02  0.30456658843E+03  0.92784467875E+02 0.  0.
         11    1    3    3    0    0  0.21410238895E+03  0.57787679976E+01 -0.11472479844E+01  0.21418343374E+03  0.00000000000E+00 0.  1.
        -11    1    3    3    0    0  0.70124575035E+02  0.17726163865E+02  0.54198171028E+02  0.90383154691E+02  0.00000000000E+00 0. -1.
         22    1    1    2    0    0 -0.28422696398E+03 -0.23504931862E+02 -0.16502958572E+04  0.16747578527E+04  0.00000000000E+00 0.  1.
<mgrwt>
<rscale>  0 0.11689884E+04</rscale>
<asrwt>0</asrwt>
<pdfrwt beam="1">  1        2 0.27512072E+00 0.11689884E+04</pdfrwt>
<pdfrwt beam="2">  1       -2 0.29390731E-01 0.11689884E+04</pdfrwt>
<totfact> 0.92291269E+01</totfact>
</mgrwt>
</event>
<event>
 6    1  0.6091287E-004  0.1816809E+04  0.7818608E-02  0.8697411E-01
         -2   -1    0    0    0  501 -0.00000000000E+00  0.00000000000E+00  0.56826512323E+03  0.56826512323E+03  0.00000000000E+00 0. -1.
          2   -1    0    0  501    0  0.00000000000E+00 -0.00000000000E+00 -0.14521376210E+04  0.14521376210E+04  0.00000000000E+00 0.  1.
         23    2    1    2    0    0 -0.20700668201E+03  0.79564024933E+03 -0.19786355552E+02  0.82769991709E+03  0.93810874289E+02 0.  0.
         13    1    3    3    0    0 -0.11372843041E+03  0.57092889956E+03 -0.40267869642E+02  0.58353703015E+03  0.00000000000E+00 0. -1.
        -13    1    3    3    0    0 -0.93278251604E+02  0.22471134977E+03  0.20481514090E+02  0.24416288693E+03  0.00000000000E+00 0.  1.
         22    1    1    2    0    0  0.20700668201E+03 -0.79564024933E+03 -0.86408614226E+03  0.11927028272E+04  0.00000000000E+00 0.  1.
<mgrwt>
<rscale>  0 0.18168095E+04</rscale>
<asrwt>0</asrwt>
<pdfrwt beam="1">  1        2 0.22340579E+00 0.18168095E+04</pdfrwt>
<pdfrwt beam="2">  1       -2 0.87425404E-01 0.18168095E+04</pdfrwt>
<totfact> 0.14394028E+01</totfact>
</mgrwt>
</event>
<event>
 6    1  0.6091287E-004  0.2379080E+04  0.7818608E-02  0.8447377E-01
         -2   -1    0    0    0  501 -0.00000000000E+00  0.00000000000E+00  0.83002576308E+03  0.83002576308E+03  0.00000000000E+00 0. -1.
          2   -1    0    0  501    0  0.00000000000E+00 -0.00000000000E+00 -0.17047733717E+04  0.17047733717E+04  0.00000000000E+00 0.  1.
         23    2    1    2    0    0 -0.51683335694E+02 -0.11261470578E+04 -0.83687017920E+03  0.14068305791E+04  0.89119124784E+02 0.  0.
         13    1    3    3    0    0 -0.38018360797E+02 -0.31235725433E+03 -0.27416019177E+03  0.41734429533E+03  0.00000000000E+00 0.  1.
        -13    1    3    3    0    0 -0.13664974898E+02 -0.81378980347E+03 -0.56270998743E+03  0.98948628375E+03  0.00000000000E+00 0. -1.
         22    1    1    2    0    0  0.51683335694E+02  0.11261470578E+04 -0.37877429432E+02  0.11279685557E+04  0.00000000000E+00 0. -1.
<mgrwt>
<rscale>  0 0.23790803E+04</rscale>
<asrwt>0</asrwt>
<pdfrwt beam="1">  1        2 0.26227283E+00 0.23790803E+04</pdfrwt>
<pdfrwt beam="2">  1       -2 0.12769627E+00 0.23790803E+04</pdfrwt>
<totfact> 0.39900586E+00</totfact>
</mgrwt>
</event>
<event>
 6    1  0.6091287E-004  0.2091463E+04  0.7818608E-02  0.8565014E-01
          2   -1    0    0  501    0  0.00000000000E+00  0.00000000000E+00  0.95407067344E+03  0.95407067344E+03  0.00000000000E+00 0.  1.
         -2   -1    0    0    0  501 -0.00000000000E+00 -0.00000000000E+00 -0.11461979980E+04  0.11461979980E+04  0.00000000000E+00 0. -1.
         23    2    1    2    0    0  0.51297702167E+03  0.34145513063E+03  0.74969480572E+03  0.97476169408E+03  0.91547952054E+02 0.  0.
         13    1    3    3    0    0  0.36203815530E+03  0.21804901105E+03  0.45107221612E+03  0.61812874166E+03  0.00000000000E+00 0. -1.
        -13    1    3    3    0    0  0.15093886638E+03  0.12340611958E+03  0.29862258961E+03  0.35663295243E+03  0.00000000000E+00 0.  1.
         22    1    1    2    0    0 -0.51297702167E+03 -0.34145513063E+03 -0.94182213031E+03  0.11255069774E+04  0.00000000000E+00 0. -1.
<mgrwt>
<rscale>  0 0.20914625E+04</rscale>
<asrwt>0</asrwt>
<pdfrwt beam="1">  1        2 0.14678010E+00 0.20914625E+04</pdfrwt>
<pdfrwt beam="2">  1       -2 0.17633815E+00 0.20914625E+04</pdfrwt>
<totfact> 0.47832844E+00</totfact>
</mgrwt>
</event>
<event>
 6    1  0.6091287E-004  0.2367277E+04  0.7818608E-02  0.8451857E-01
         -2   -1    0    0    0  501 -0.00000000000E+00  0.00000000000E+00  0.57778649026E+03  0.57778649026E+03  0.00000000000E+00 0. -1.
          2   -1    0    0  501    0  0.00000000000E+00 -0.00000000000E+00 -0.24247715366E+04  0.24247715366E+04  0.00000000000E+00 0.  1.
         23    2    1    2    0    0 -0.47822352447E+03 -0.61570165229E+03 -0.20515950915E+04  0.21965483900E+04  0.89421173957E+02 0.  0.
         13    1    3    3    0    0 -0.99229874646E+02 -0.84505210634E+02 -0.40092496165E+03  0.42157860895E+03  0.00000000000E+00 0.  1.
        -13    1    3    3    0    0 -0.37899364983E+03 -0.53119644166E+03 -0.16506701298E+04  0.17749697811E+04  0.00000000000E+00 0. -1.
         22    1    1    2    0    0  0.47822352447E+03  0.61570165229E+03  0.20461004520E+03  0.80600963679E+03  0.00000000000E+00 0. -1.
<mgrwt>
<rscale>  0 0.23672771E+04</rscale>
<asrwt>0</asrwt>
<pdfrwt beam="1">  1        2 0.37304178E+00 0.23672771E+04</pdfrwt>
<pdfrwt beam="2">  1       -2 0.88890229E-01 0.23672771E+04</pdfrwt>
<totfact> 0.37720131E+00</totfact>
</mgrwt>
</event>
<event>
 6    1  0.6091287E-004  0.1978472E+04  0.7818608E-02  0.8616752E-01
         -2   -1    0    0    0  501 -0.00000000000E+00  0.00000000000E+00  0.93295834781E+03  0.93295834781E+03  0.00000000000E+00 0. -1.
          2   -1    0    0  501    0  0.00000000000E+00 -0.00000000000E+00 -0.10489084903E+04  0.10489084903E+04  0.00000000000E+00 0.  1.
         23    2    1    2    0    0  0.22777853957E+03  0.37802398152E+03  0.82609034297E+03  0.94156617488E+03  0.96625116963E+02 0.  0.
         11    1    3    3    0    0  0.96305706075E+02  0.20647832159E+03  0.33630351342E+03  0.40621193908E+03  0.00000000000E+00 0.  1.
        -11    1    3    3    0    0  0.13147283349E+03  0.17154565993E+03  0.48978682955E+03  0.53535423580E+03  0.00000000000E+00 0. -1.
         22    1    1    2    0    0 -0.22777853957E+03 -0.37802398152E+03 -0.94204048547E+03  0.10403006632E+04  0.00000000000E+00 0.  1.
<mgrwt>
<rscale>  0 0.19784721E+04</rscale>
<asrwt>0</asrwt>
<pdfrwt beam="1">  1        2 0.16137054E+00 0.19784721E+04</pdfrwt>
<pdfrwt beam="2">  1       -2 0.14353205E+00 0.19784721E+04</pdfrwt>
<totfact> 0.73432654E+00</totfact>
</mgrwt>
</event>
<event>
 6    1  0.6091287E-004  0.5122301E+04  0.7818608E-02  0.7809913E-01
          2   -1    0    0  501    0  0.00000000000E+00  0.00000000000E+00  0.26452142869E+04  0.26452142869E+04  0.00000000000E+00 0.  1.
         -2   -1    0    0    0  501 -0.00000000000E+00 -0.00000000000E+00 -0.24797584245E+04  0.24797584245E+04  0.00000000000E+00 0. -1.
         23    2    1    2    0    0 -0.16511895295E+03  0.25489403788E+04 -0.93227269570E+02  0.25576242181E+04  0.91591449044E+02 0.  0.
         13    1    3    3    0    0 -0.16936401911E+03  0.21075871065E+04 -0.65981446461E+02  0.21154103937E+04  0.00000000000E+00 0. -1.
        -13    1    3    3    0    0  0.42450661580E+01  0.44135327235E+03 -0.27245823109E+02  0.44221382438E+03  0.00000000000E+00 0.  1.
         22    1    1    2    0    0  0.16511895295E+03 -0.25489403788E+04  0.25868313192E+03  0.25673484933E+04  0.00000000000E+00 0. -1.
<mgrwt>
<rscale>  0 0.51223012E+04</rscale>
<asrwt>0</asrwt>
<pdfrwt beam="1">  1        2 0.40695604E+00 0.51223012E+04</pdfrwt>
<pdfrwt beam="2">  1       -2 0.38150130E+00 0.51223012E+04</pdfrwt>
<totfact> 0.20212330E-02</totfact>
</mgrwt>
</event>
<event>
 6    1  0.6091287E-004  0.3819111E+04  0.7818608E-02  0.8042066E-01
          2   -1    0    0  501    0  0.00000000000E+00  0.00000000000E+00  0.33087468145E+04  0.33087468145E+04  0.00000000000E+00 0.  1.
         -2   -1    0    0    0  501 -0.00000000000E+00 -0.00000000000E+00 -0.11020490628E+04  0.11020490628E+04  0.00000000000E+00 0. -1.
         23    2    1    2    0    0  0.97841090772E+03  0.41981563782E+03  0.29331594540E+04  0.31218894886E+04  0.96106827696E+02 0.  0.
         11    1    3    3    0    0  0.47059184938E+03  0.22283152842E+03  0.13051752402E+04  0.14052021158E+04  0.00000000000E+00 0. -1.
        -11    1    3    3    0    0  0.50781905835E+03  0.19698410941E+03  0.16279842138E+04  0.17166873728E+04  0.00000000000E+00 0.  1.
         22    1    1    2    0    0 -0.97841090772E+03 -0.41981563782E+03 -0.72646170230E+03  0.12889063888E+04  0.00000000000E+00 0. -1.
<mgrwt>
<rscale>  0 0.38191105E+04</rscale>
<asrwt>0</asrwt>
<pdfrwt beam="1">  1        2 0.50903797E+00 0.38191105E+04</pdfrwt>
<pdfrwt beam="2">  1       -2 0.16954601E+00 0.38191105E+04</pdfrwt>
<totfact> 0.18867005E-01</totfact>
</mgrwt>
</event>
<event>
 6    1  0.6091287E-004  0.2376243E+04  0.7818608E-02  0.8448452E-01
         -2   -1    0    0    0  501 -0.00000000000E+00  0.00000000000E+00  0.13883509342E+04  0.13883509342E+04  0.00000000000E+00 0. -1.
          2   -1    0    0  501    0  0.00000000000E+00 -0.00000000000E+00 -0.10167697544E+04  0.10167697544E+04  0.00000000000E+00 0.  1.
         23    2    1    2    0    0 -0.78903715360E+02  0.11136365337E+04 -0.21925758747E+03  0.11419886391E+04  0.98244779367E+02 0.  0.
         11    1    3    3    0    0 -0.29334429506E+02  0.69183231438E+03 -0.91441938170E+02  0.69846552386E+03  0.00000000000E+00 0. -1.
        -11    1    3    3    0    0 -0.49569285854E+02  0.42180421931E+03 -0.12781564930E+03  0.44352311522E+03  0.00000000000E+00 0.  1.
         22    1    1    2    0    0  0.78903715360E+02 -0.11136365337E+04  0.59083876729E+03  0.12631320495E+04  0.00000000000E+00 0. -1.
<mgrwt>
<rscale>  0 0.23762435E+04</rscale>
<asrwt>0</asrwt>
<pdfrwt beam="1">  1        2 0.15642612E+00 0.23762435E+04</pdfrwt>
<pdfrwt beam="2">  1       -2 0.21359245E+00 0.23762435E+04</pdfrwt>
<totfact> 0.24034167E+00</totfact>
</mgrwt>
</event>
<event>
 6    1  0.6091287E-004  0.3835221E+04  0.7818608E-02  0.8038639E-01
          2   -1    0    0  501    0  0.00000000000E+00  0.00000000000E+00  0.18716076381E+04  0.18716076381E+04  0.00000000000E+00 0.  1.
         -2   -1    0    0    0  501 -0.00000000000E+00 -0.00000000000E+00 -0.19647438048E+04  0.19647438048E+04  0.00000000000E+00 0. -1.
         23    2    1    2    0    0  0.20729631548E+03 -0.84639957303E+03 -0.17540246769E+04  0.19607409708E+04  0.92404479844E+02 0.  0.
         13    1    3    3    0    0  0.73279585363E+02 -0.22768655288E+03 -0.56875414933E+03  0.61700271181E+03  0.00000000000E+00 0. -1.
        -13    1    3    3    0    0  0.13401673012E+03 -0.61871302015E+03 -0.11852705275E+04  0.13437382590E+04  0.00000000000E+00 0.  1.
         22    1    1    2    0    0 -0.20729631548E+03  0.84639957303E+03  0.16608885102E+04  0.18756104721E+04  0.00000000000E+00 0.  1.
<mgrwt>
<rscale>  0 0.38352207E+04</rscale>
<asrwt>0</asrwt>
<pdfrwt beam="1">  1        2 0.28793963E+00 0.38352207E+04</pdfrwt>
<pdfrwt beam="2">  1       -2 0.30226828E+00 0.38352207E+04</pdfrwt>
<totfact> 0.19378692E-01</totfact>
</mgrwt>
</event>
<event>
 6    1  0.6091287E-004  0.1768623E+04  0.7818608E-02  0.8723166E-01
          2   -1    0    0  501    0  0.00000000000E+00  0.00000000000E+00  0.12096584755E+04  0.12096584755E+04  0.00000000000E+00 0.  1.
         -2   -1    0    0    0  501 -0.00000000000E+00 -0.00000000000E+00 -0.64646890009E+03  0.64646890009E+03  0.00000000000E+00 0. -1.
         23    2    1    2    0    0 -0.59995643664E+03 -0.64190119503E+03  0.36271205367E+03  0.95491923831E+03  0.91246083686E+02 0.  0.
         11    1    3    3    0    0 -0.49136308121E+03 -0.54107177265E+03  0.26513149523E+03  0.77749022534E+03  0.00000000000E+00 0. -1.
        -11    1    3    3    0    0 -0.10859335543E+03 -0.10082942237E+03  0.97580558445E+02  0.17742901297E+03  0.00000000000E+00 0.  1.
         22    1    1    2    0    0  0.59995643664E+03  0.64190119503E+03  0.20047752179E+03  0.90120813732E+03  0.00000000000E+00 0. -1.
<mgrwt>
<rscale>  0 0.17686227E+04</rscale>
<asrwt>0</asrwt>
<pdfrwt beam="1">  1        2 0.18610130E+00 0.17686227E+04</pdfrwt>
<pdfrwt beam="2">  1       -2 0.99456754E-01 0.17686227E+04</pdfrwt>
<totfact> 0.14803865E+01</totfact>
</mgrwt>
</event>
<event>
 6    1  0.6091287E-004  0.8453036E+03  0.7818608E-02  0.9496662E-01
          2   -1    0    0  501    0  0.00000000000E+00  0.00000000000E+00  0.17663209888E+04  0.17663209888E+04  0.00000000000E+00 0.  1.
         -2   -1    0    0    0  501 -0.00000000000E+00 -0.00000000000E+00 -0.10113368196E+03  0.10113368196E+03  0.00000000000E+00 0. -1.
         23    2    1    2    0    0  0.27153880687E+03 -0.13337155939E+03  0.14789430072E+04  0.15121966861E+04  0.89135304794E+02 0.  0.
         13    1    3    3    0    0  0.16283979315E+03 -0.50245174159E+02  0.98572946471E+03  0.10003519148E+04  0.00000000000E+00 0. -1.
        -13    1    3    3    0    0  0.10869901372E+03 -0.83126385232E+02  0.49321354248E+03  0.51184477138E+03  0.00000000000E+00 0.  1.
         22    1    1    2    0    0 -0.27153880687E+03  0.13337155939E+03  0.18624429966E+03  0.35525798463E+03  0.00000000000E+00 0. -1.
<mgrwt>
<rscale>  0 0.84530360E+03</rscale>
<asrwt>0</asrwt>
<pdfrwt beam="1">  1        2 0.27174167E+00 0.84530360E+03</pdfrwt>
<pdfrwt beam="2">  1       -2 0.15559029E-01 0.84530360E+03</pdfrwt>
<totfact> 0.30001371E+02</totfact>
</mgrwt>
</event>
<event>
 6    1  0.6091287E-004  0.3581257E+04  0.7818608E-02  0.8094799E-01
          2   -1    0    0  501    0  0.00000000000E+00  0.00000000000E+00  0.16199552410E+04  0.16199552410E+04  0.00000000000E+00 0.  1.
         -2   -1    0    0    0  501 -0.00000000000E+00 -0.00000000000E+00 -0.19792828058E+04  0.19792828058E+04  0.00000000000E+00 0. -1.
         23    2    1    2    0    0  0.72184010169E+03  0.13188893132E+04 -0.11549947004E+04  0.18981771004E+04  0.92419659735E+02 0.  0.
         11    1    3    3    0    0  0.22476632083E+03  0.32645412528E+03 -0.30946195275E+03  0.50285076822E+03  0.00000000000E+00 0. -1.
        -11    1    3    3    0    0  0.49707378086E+03  0.99243518794E+03 -0.84553274761E+03  0.13953263321E+04  0.00000000000E+00 0.  1.
         22    1    1    2    0    0 -0.72184010169E+03 -0.13188893132E+04  0.79566713560E+03  0.17010609465E+04  0.00000000000E+00 0.  1.
<mgrwt>
<rscale>  0 0.35812565E+04</rscale>
<asrwt>0</asrwt>
<pdfrwt beam="1">  1        2 0.24922388E+00 0.35812565E+04</pdfrwt>
<pdfrwt beam="2">  1       -2 0.30450505E+00 0.35812565E+04</pdfrwt>
<totfact> 0.26458668E-01</totfact>
</mgrwt>
</event>
<event>
 6    1  0.6091287E-004  0.1041408E+04  0.7818608E-02  0.9264260E-01
          2   -1    0    0  501    0  0.00000000000E+00  0.00000000000E+00  0.15539056418E+04  0.15539056418E+04  0.00000000000E+00 0.  1.
         -2   -1    0    0    0  501 -0.00000000000E+00 -0.00000000000E+00 -0.17448467232E+03  0.17448467232E+03  0.00000000000E+00 0. -1.
         23    2    1    2    0    0 -0.28469408496E+03  0.42910521683E+03  0.62081862986E+03  0.81151544873E+03  0.89216272185E+02 0.  0.
         13    1    3    3    0    0 -0.19744769826E+03  0.34681349568E+03  0.43477463669E+03  0.59016453557E+03  0.00000000000E+00 0. -1.
        -13    1    3    3    0    0 -0.87246386696E+02  0.82291721148E+02  0.18604399317E+03  0.22135091316E+03  0.00000000000E+00 0.  1.
         22    1    1    2    0    0  0.28469408496E+03 -0.42910521683E+03  0.75860233962E+03  0.91687486540E+03  0.00000000000E+00 0. -1.
<mgrwt>
<rscale>  0 0.10414081E+04</rscale>
<asrwt>0</asrwt>
<pdfrwt beam="1">  1        2 0.23906240E+00 0.10414081E+04</pdfrwt>
<pdfrwt beam="2">  1       -2 0.26843797E-01 0.10414081E+04</pdfrwt>
<totfact> 0.14845348E+02</totfact>
</mgrwt>
</event>
<event>
 6    1  0.6091287E-004  0.3362821E+04  0.7818608E-02  0.8147092E-01
          2   -1    0    0  501    0  0.00000000000E+00  0.00000000000E+00  0.17778229804E+04  0.17778229804E+04  0.00000000000E+00 0.  1.
         -2   -1    0    0    0  501 -0.00000000000E+00 -0.00000000000E+00 -0.15902267896E+04  0.15902267896E+04  0.00000000000E+00 0. -1.
         23    2    1    2    0    0  0.10146167196E+04  0.13389827093E+04  0.68161504582E+02  0.16838329111E+04  0.91244168057E+02 0.  0.
         11    1    3    3    0    0  0.65622168727E+03  0.86128879336E+03  0.28001165297E+00  0.10827951638E+04  0.00000000000E+00 0. -1.
        -11    1    3    3    0    0  0.35839503235E+03  0.47769391596E+03  0.67881492929E+02  0.60103774727E+03  0.00000000000E+00 0.  1.
         22    1    1    2    0    0 -0.10146167196E+04 -0.13389827093E+04  0.11943468613E+03  0.16842168589E+04  0.00000000000E+00 0. -1.
<mgrwt>
<rscale>  0 0.33628213E+04</rscale>
<asrwt>0</asrwt>
<pdfrwt beam="1">  1        2 0.27351123E+00 0.33628213E+04</pdfrwt>
<pdfrwt beam="2">  1       -2 0.24465028E+00 0.33628213E+04</pdfrwt>
<totfact> 0.51143099E-01</totfact>
</mgrwt>
</event>
<event>
 6    1  0.6091287E-004  0.2249439E+04  0.7818608E-02  0.8498128E-01
         -2   -1    0    0    0  501 -0.00000000000E+00  0.00000000000E+00  0.11311728558E+04  0.11311728558E+04  0.00000000000E+00 0.  1.
          2   -1    0    0  501    0  0.00000000000E+00 -0.00000000000E+00 -0.11183034256E+04  0.11183034256E+04  0.00000000000E+00 0. -1.
         23    2    1    2    0    0 -0.93911045099E+03 -0.45010942995E+02 -0.60738119810E+03  0.11231258625E+04  0.92441111522E+02 0.  0.
         13    1    3    3    0    0 -0.12753276201E+03  0.25352565794E+02 -0.78875012149E+02  0.15208098342E+03  0.00000000000E+00 0.  1.
        -13    1    3    3    0    0 -0.81157768899E+03 -0.70363508790E+02 -0.52850618595E+03  0.97104487910E+03  0.00000000000E+00 0. -1.
         22    1    1    2    0    0  0.93911045099E+03  0.45010942995E+02  0.62025062826E+03  0.11263504188E+04  0.00000000000E+00 0.  1.
<mgrwt>
<rscale>  0 0.22494395E+04</rscale>
<asrwt>0</asrwt>
<pdfrwt beam="1">  1        2 0.17204668E+00 0.22494395E+04</pdfrwt>
<pdfrwt beam="2">  1       -2 0.17402659E+00 0.22494395E+04</pdfrwt>
<totfact> 0.38570833E+00</totfact>
</mgrwt>
</event>
<event>
 6    1  0.6091287E-004  0.5884917E+03  0.7818608E-02  0.9929574E-01
          2   -1    0    0  501    0  0.00000000000E+00  0.00000000000E+00  0.95159448495E+03  0.95159448495E+03  0.00000000000E+00 0.  1.
         -2   -1    0    0    0  501 -0.00000000000E+00 -0.00000000000E+00 -0.90984797380E+02  0.90984797380E+02  0.00000000000E+00 0. -1.
         23    2    1    2    0    0 -0.19061636626E+03  0.12040256116E+03  0.12603471545E+03  0.27418370355E+03  0.91981400150E+02 0.  0.
         13    1    3    3    0    0 -0.11044219540E+03  0.48633759001E+02  0.11382667899E+03  0.16588922174E+03  0.00000000000E+00 0. -1.
        -13    1    3    3    0    0 -0.80174170863E+02  0.71768802163E+02  0.12208036462E+02  0.10829448182E+03  0.00000000000E+00 0.  1.
         22    1    1    2    0    0  0.19061636626E+03 -0.12040256116E+03  0.73457497212E+03  0.76839557878E+03  0.00000000000E+00 0.  1.
<mgrwt>
<rscale>  0 0.58849174E+03</rscale>
<asrwt>0</asrwt>
<pdfrwt beam="1">  1        2 0.14639914E+00 0.58849174E+03</pdfrwt>
<pdfrwt beam="2">  1       -2 0.13997662E-01 0.58849174E+03</pdfrwt>
<totfact> 0.10740206E+03</totfact>
</mgrwt>
</event>
<event>
 6    1  0.6091287E-004  0.2882501E+04  0.7818608E-02  0.8278103E-01
         -2   -1    0    0    0  501 -0.00000000000E+00  0.00000000000E+00  0.10537465401E+04  0.10537465401E+04  0.00000000000E+00 0. -1.
          2   -1    0    0  501    0  0.00000000000E+00 -0.00000000000E+00 -0.19712554026E+04  0.19712554026E+04  0.00000000000E+00 0.  1.
         23    2    1    2    0    0  0.20447202666E+03  0.14236769425E+04 -0.38865578855E+03  0.14925690991E+04  0.89690284253E+02 0.  0.
         11    1    3    3    0    0  0.60621466014E+02  0.69095464385E+03 -0.21140266316E+03  0.72510990063E+03  0.00000000000E+00 0.  1.
        -11    1    3    3    0    0  0.14385056064E+03  0.73272229869E+03 -0.17725312539E+03  0.76745919843E+03  0.00000000000E+00 0. -1.
         22    1    1    2    0    0 -0.20447202666E+03 -0.14236769425E+04 -0.52885307391E+03  0.15324328436E+04  0.00000000000E+00 0. -1.
<mgrwt>
<rscale>  0 0.28825014E+04</rscale>
<asrwt>0</asrwt>
<pdfrwt beam="1">  1        2 0.30327006E+00 0.28825014E+04</pdfrwt>
<pdfrwt beam="2">  1       -2 0.16211485E+00 0.28825014E+04</pdfrwt>
<totfact> 0.14560792E+00</totfact>
</mgrwt>
</event>
<event>
 6    1  0.6091287E-004  0.2798031E+04  0.7818608E-02  0.8303880E-01
          1   -1    0    0  501    0  0.00000000000E+00  0.00000000000E+00  0.68764396995E+03  0.68764396995E+03  0.00000000000E+00 0.  1.
         -1   -1    0    0    0  501 -0.00000000000E+00 -0.00000000000E+00 -0.28463040514E+04  0.28463040514E+04  0.00000000000E+00 0. -1.
         23    2    1    2    0    0 -0.38346358715E+03 -0.73293974287E+03  0.34225947883E+03  0.89977953086E+03  0.90645816040E+02 0.  0.
         11    1    3    3    0    0 -0.20638427066E+03 -0.35855121914E+03  0.12545976594E+03  0.43231192071E+03  0.00000000000E+00 0. -1.
        -11    1    3    3    0    0 -0.17707931650E+03 -0.37438852372E+03  0.21679971289E+03  0.46746761015E+03  0.00000000000E+00 0.  1.
         22    1    1    2    0    0  0.38346358715E+03  0.73293974287E+03 -0.25009195603E+04  0.26341684905E+04  0.00000000000E+00 0. -1.
<mgrwt>
<rscale>  0 0.27980306E+04</rscale>
<asrwt>0</asrwt>
<pdfrwt beam="1">  1        1 0.10579138E+00 0.27980306E+04</pdfrwt>
<pdfrwt beam="2">  1       -1 0.43789293E+00 0.27980306E+04</pdfrwt>
<totfact> 0.94982497E-02</totfact>
</mgrwt>
</event>
<event>
 6    1  0.6091287E-004  0.1835215E+04  0.7818608E-02  0.8687793E-01
         -2   -1    0    0    0  501 -0.00000000000E+00  0.00000000000E+00  0.40062574587E+03  0.40062574587E+03  0.00000000000E+00 0. -1.
          2   -1    0    0  501    0  0.00000000000E+00 -0.00000000000E+00 -0.21017216478E+04  0.21017216478E+04  0.00000000000E+00 0.  1.
         23    2    1    2    0    0  0.19058305392E+03  0.98196499541E+02 -0.20659953797E+04  0.20791263145E+04  0.92004726903E+02 0.  0.
         13    1    3    3    0    0  0.11554005201E+02  0.38118227179E+02 -0.54487007265E+03  0.54632397929E+03  0.00000000000E+00 0.  1.
        -13    1    3    3    0    0  0.17902904872E+03  0.60078272362E+02 -0.15211253070E+04  0.15328023352E+04  0.00000000000E+00 0. -1.
         22    1    1    2    0    0 -0.19058305392E+03 -0.98196499541E+02  0.36489947777E+03  0.42322107916E+03  0.00000000000E+00 0. -1.
<mgrwt>
<rscale>  0 0.18352153E+04</rscale>
<asrwt>0</asrwt>
<pdfrwt beam="1">  1        2 0.32334179E+00 0.18352153E+04</pdfrwt>
<pdfrwt beam="2">  1       -2 0.61634730E-01 0.18352153E+04</pdfrwt>
<totfact> 0.13502894E+01</totfact>
</mgrwt>
</event>
<event>
 6    1  0.6091287E-004  0.5459797E+04  0.7818608E-02  0.7761245E-01
         -2   -1    0    0    0  501 -0.00000000000E+00  0.00000000000E+00  0.31526741099E+04  0.31526741099E+04  0.00000000000E+00 0. -1.
          2   -1    0    0  501    0  0.00000000000E+00 -0.00000000000E+00 -0.23638170781E+04  0.23638170781E+04  0.00000000000E+00 0.  1.
         23    2    1    2    0    0 -0.20971214503E+04 -0.17095872772E+04  0.75477204268E+03  0.28106144683E+04  0.96259113662E+02 0.  0.
         11    1    3    3    0    0 -0.13589719513E+04 -0.10523696038E+04  0.49714792836E+03  0.17892575583E+04  0.00000000000E+00 0. -1.
        -11    1    3    3    0    0 -0.73814949905E+03 -0.65721767341E+03  0.25762411432E+03  0.10213569099E+04  0.00000000000E+00 0.  1.
         22    1    1    2    0    0  0.20971214503E+04  0.17095872772E+04  0.34084989066E+02  0.27058767197E+04  0.00000000000E+00 0. -1.
<mgrwt>
<rscale>  0 0.54597967E+04</rscale>
<asrwt>0</asrwt>
<pdfrwt beam="1">  1        2 0.36366417E+00 0.54597967E+04</pdfrwt>
<pdfrwt beam="2">  1       -2 0.48502679E+00 0.54597967E+04</pdfrwt>
<totfact> 0.60456849E-03</totfact>
</mgrwt>
</event>
<event>
 6    1  0.6091287E-004  0.3085323E+04  0.7818608E-02  0.8219777E-01
         -2   -1    0    0    0  501 -0.00000000000E+00  0.00000000000E+00  0.13440114889E+04  0.13440114889E+04  0.00000000000E+00 0. -1.
          2   -1    0    0  501    0  0.00000000000E+00 -0.00000000000E+00 -0.17706732121E+04  0.17706732121E+04  0.00000000000E+00 0.  1.
         23    2    1    2    0    0 -0.54483765003E+03  0.40658418610E+03 -0.16099536652E+04  0.17500094337E+04  0.91779347332E+02 0.  0.
         13    1    3    3    0    0 -0.26990784128E+03  0.15267381804E+03 -0.66945931811E+03  0.73779083493E+03  0.00000000000E+00 0. -1.
        -13    1    3    3    0    0 -0.27492980874E+03  0.25391036807E+03 -0.94049434706E+03  0.10122185987E+04  0.00000000000E+00 0.  1.
         22    1    1    2    0    0  0.54483765003E+03 -0.40658418610E+03  0.11832919420E+04  0.13646752673E+04  0.00000000000E+00 0. -1.
<mgrwt>
<rscale>  0 0.30853234E+04</rscale>
<asrwt>0</asrwt>
<pdfrwt beam="1">  1        2 0.27241126E+00 0.30853234E+04</pdfrwt>
<pdfrwt beam="2">  1       -2 0.20677100E+00 0.30853234E+04</pdfrwt>
<totfact> 0.91496729E-01</totfact>
</mgrwt>
</event>
<event>
 6    1  0.6091287E-004  0.1008992E+04  0.7818608E-02  0.9298738E-01
         -2   -1    0    0    0  501 -0.00000000000E+00  0.00000000000E+00  0.13489190520E+03  0.13489190520E+03  0.00000000000E+00 0. -1.
          2   -1    0    0  501    0  0.00000000000E+00 -0.00000000000E+00 -0.18868143314E+04  0.18868143314E+04  0.00000000000E+00 0.  1.
         23    2    1    2    0    0  0.40181216922E+03  0.28868668874E+03 -0.10300892443E+04  0.11465855786E+04  0.93710267434E+02 0.  0.
         13    1    3    3    0    0  0.22892683456E+03  0.21833375542E+03 -0.67368205323E+03  0.74426113239E+03  0.00000000000E+00 0.  1.
        -13    1    3    3    0    0  0.17288533466E+03  0.70352933317E+02 -0.35640719105E+03  0.40232444619E+03  0.00000000000E+00 0. -1.
         22    1    1    2    0    0 -0.40181216922E+03 -0.28868668874E+03 -0.72183318193E+03  0.87512065804E+03  0.00000000000E+00 0.  1.
<mgrwt>
<rscale>  0 0.10089915E+04</rscale>
<asrwt>0</asrwt>
<pdfrwt beam="1">  1        2 0.29027912E+00 0.10089915E+04</pdfrwt>
<pdfrwt beam="2">  1       -2 0.20752602E-01 0.10089915E+04</pdfrwt>
<totfact> 0.15466925E+02</totfact>
</mgrwt>
</event>
<event>
 6    1  0.6091287E-004  0.6330826E+03  0.7818608E-02  0.9839052E-01
         -2   -1    0    0    0  501 -0.00000000000E+00  0.00000000000E+00  0.74072694770E+02  0.74072694770E+02  0.00000000000E+00 0. -1.
          2   -1    0    0  501    0  0.00000000000E+00 -0.00000000000E+00 -0.13527034128E+04  0.13527034128E+04  0.00000000000E+00 0.  1.
         23    2    1    2    0    0  0.16876154217E+03 -0.25831647643E+03 -0.71395104608E+03  0.78329262525E+03  0.92808299509E+02 0.  0.
         11    1    3    3    0    0  0.11742315005E+03 -0.23031390195E+03 -0.52000230615E+03  0.58071945723E+03  0.00000000000E+00 0. -1.
        -11    1    3    3    0    0  0.51338392113E+02 -0.28002574487E+02 -0.19394873993E+03  0.20257316802E+03  0.00000000000E+00 0.  1.
         22    1    1    2    0    0 -0.16876154217E+03  0.25831647643E+03 -0.56467967198E+03  0.64348348235E+03  0.00000000000E+00 0.  1.
<mgrwt>
<rscale>  0 0.63308258E+03</rscale>
<asrwt>0</asrwt>
<pdfrwt beam="1">  1        2 0.20810820E+00 0.63308258E+03</pdfrwt>
<pdfrwt beam="2">  1       -2 0.11395800E-01 0.63308258E+03</pdfrwt>
<totfact> 0.86608987E+02</totfact>
</mgrwt>
</event>
<event>
 6    1  0.6091287E-004  0.1900083E+04  0.7818608E-02  0.8654815E-01
         -2   -1    0    0    0  501 -0.00000000000E+00  0.00000000000E+00  0.39463668307E+03  0.39463668307E+03  0.00000000000E+00 0. -1.
          2   -1    0    0  501    0  0.00000000000E+00 -0.00000000000E+00 -0.22871124962E+04  0.22871124962E+04  0.00000000000E+00 0.  1.
         23    2    1    2    0    0  0.61551415946E+03 -0.86242698423E+02  0.61503999358E+02  0.63130225453E+03  0.92001690809E+02 0.  0.
         13    1    3    3    0    0  0.30597317555E+03 -0.12220107888E+02 -0.45519992666E+01  0.30625093615E+03  0.00000000000E+00 0.  1.
        -13    1    3    3    0    0  0.30954098391E+03 -0.74022590535E+02  0.66055998624E+02  0.32505131839E+03  0.00000000000E+00 0. -1.
         22    1    1    2    0    0 -0.61551415946E+03  0.86242698423E+02 -0.19539798125E+04  0.20504469248E+04  0.00000000000E+00 0.  1.
<mgrwt>
<rscale>  0 0.19000826E+04</rscale>
<asrwt>0</asrwt>
<pdfrwt beam="1">  1        2 0.35186346E+00 0.19000826E+04</pdfrwt>
<pdfrwt beam="2">  1       -2 0.60713335E-01 0.19000826E+04</pdfrwt>
<totfact> 0.10910021E+01</totfact>
</mgrwt>
</event>
<event>
 6    1  0.6091287E-004  0.1338038E+04  0.7818608E-02  0.8999933E-01
          2   -1    0    0  501    0  0.00000000000E+00  0.00000000000E+00  0.10520674669E+04  0.10520674669E+04  0.00000000000E+00 0.  1.
         -2   -1    0    0    0  501 -0.00000000000E+00 -0.00000000000E+00 -0.42543534234E+03  0.42543534234E+03  0.00000000000E+00 0. -1.
         23    2    1    2    0    0 -0.51128267945E+03  0.42038128205E+03  0.23360748887E+03  0.70769844133E+03  0.90189935127E+02 0.  0.
         13    1    3    3    0    0 -0.18514268053E+03  0.99261450573E+02  0.64323339687E+02  0.21970011323E+03  0.00000000000E+00 0. -1.
        -13    1    3    3    0    0 -0.32613999892E+03  0.32111983148E+03  0.16928414918E+03  0.48799832810E+03  0.00000000000E+00 0.  1.
         22    1    1    2    0    0  0.51128267945E+03 -0.42038128205E+03  0.39302463574E+03  0.76980436795E+03  0.00000000000E+00 0.  1.
<mgrwt>
<rscale>  0 0.13380384E+04</rscale>
<asrwt>0</asrwt>
<pdfrwt beam="1">  1        2 0.16185653E+00 0.13380384E+04</pdfrwt>
<pdfrwt beam="2">  1       -2 0.65451591E-01 0.13380384E+04</pdfrwt>
<totfact> 0.49079933E+01</totfact>
</mgrwt>
</event>
<event>
 6    1  0.6091287E-004  0.7748920E+03  0.7818608E-02  0.9597088E-01
          2   -1    0    0  501    0  0.00000000000E+00  0.00000000000E+00  0.99930137377E+03  0.99930137377E+03  0.00000000000E+00 0.  1.
         -2   -1    0    0    0  501 -0.00000000000E+00 -0.00000000000E+00 -0.15021934905E+03  0.15021934905E+03  0.00000000000E+00 0. -1.
         23    2    1    2    0    0 -0.46354044399E+02 -0.36279220743E+03  0.59462672984E+03  0.70397119662E+03  0.90706199496E+02 0.  0.
         11    1    3    3    0    0 -0.28089463222E+02 -0.23882244231E+03  0.46606035347E+03  0.52444011094E+03  0.00000000000E+00 0.  1.
        -11    1    3    3    0    0 -0.18264581177E+02 -0.12396976513E+03  0.12856637637E+03  0.17953108568E+03  0.00000000000E+00 0. -1.
         22    1    1    2    0    0  0.46354044399E+02  0.36279220743E+03  0.25445529488E+03  0.44554952620E+03  0.00000000000E+00 0. -1.
<mgrwt>
<rscale>  0 0.77489200E+03</rscale>
<asrwt>0</asrwt>
<pdfrwt beam="1">  1        2 0.15373867E+00 0.77489200E+03</pdfrwt>
<pdfrwt beam="2">  1       -2 0.23110670E-01 0.77489200E+03</pdfrwt>
<totfact> 0.41862638E+02</totfact>
</mgrwt>
</event>
<event>
 6    1  0.6091287E-004  0.2170513E+04  0.7818608E-02  0.8530802E-01
         -4   -1    0    0    0  501 -0.00000000000E+00  0.00000000000E+00  0.47542646037E+03  0.47542646037E+03  0.00000000000E+00 0. -1.
          4   -1    0    0  501    0  0.00000000000E+00 -0.00000000000E+00 -0.24773168912E+04  0.24773168912E+04  0.00000000000E+00 0.  1.
         23    2    1    2    0    0 -0.13716460265E+03 -0.72420575416E+03  0.77330499653E+02  0.74674068150E+03  0.91397684065E+02 0.  0.
         11    1    3    3    0    0  0.52800907704E+00 -0.18685084996E+03  0.37653871551E+02  0.19060779881E+03  0.00000000000E+00 0. -1.
        -11    1    3    3    0    0 -0.13769261173E+03 -0.53735490420E+03  0.39676628102E+02  0.55613288269E+03  0.00000000000E+00 0.  1.
         22    1    1    2    0    0  0.13716460265E+03  0.72420575416E+03 -0.20792209305E+04  0.22060026701E+04  0.00000000000E+00 0.  1.
<mgrwt>
<rscale>  0 0.21705133E+04</rscale>
<asrwt>0</asrwt>
<pdfrwt beam="1">  1        4 0.38112568E+00 0.21705133E+04</pdfrwt>
<pdfrwt beam="2">  1       -4 0.73142532E-01 0.21705133E+04</pdfrwt>
<totfact> 0.28684054E-02</totfact>
</mgrwt>
</event>
<event>
 6    1  0.6091287E-004  0.1940973E+04  0.7818608E-02  0.8634726E-01
         -2   -1    0    0    0  501 -0.00000000000E+00  0.00000000000E+00  0.13720737008E+04  0.13720737008E+04  0.00000000000E+00 0. -1.
          2   -1    0    0  501    0  0.00000000000E+00 -0.00000000000E+00 -0.68643840554E+03  0.68643840554E+03  0.00000000000E+00 0.  1.
         23    2    1    2    0    0  0.42776697438E+03 -0.27526152808E+03 -0.53030073185E+03  0.74046282226E+03  0.91174731934E+02 0.  0.
         11    1    3    3    0    0  0.23606495456E+03 -0.17557735637E+03 -0.36265230594E+03  0.46698047694E+03  0.00000000000E+00 0. -1.
        -11    1    3    3    0    0  0.19170201982E+03 -0.99684171713E+02 -0.16764842591E+03  0.27348234532E+03  0.00000000000E+00 0.  1.
         22    1    1    2    0    0 -0.42776697438E+03  0.27526152808E+03  0.12159360271E+04  0.13180492841E+04  0.00000000000E+00 0. -1.
<mgrwt>
<rscale>  0 0.19409730E+04</rscale>
<asrwt>0</asrwt>
<pdfrwt beam="1">  1        2 0.10560591E+00 0.19409730E+04</pdfrwt>
<pdfrwt beam="2">  1       -2 0.21108826E+00 0.19409730E+04</pdfrwt>
<totfact> 0.44148004E+00</totfact>
</mgrwt>
</event>
<event>
 6    1  0.6091287E-004  0.2249095E+04  0.7818608E-02  0.8498267E-01
          2   -1    0    0  501    0  0.00000000000E+00  0.00000000000E+00  0.17453442296E+04  0.17453442296E+04  0.00000000000E+00 0.  1.
         -2   -1    0    0    0  501 -0.00000000000E+00 -0.00000000000E+00 -0.72456039140E+03  0.72456039140E+03  0.00000000000E+00 0. -1.
         23    2    1    2    0    0 -0.13870217425E+03  0.96664285113E+03  0.11196929741E+04  0.14883651608E+04  0.88779507341E+02 0.  0.
         13    1    3    3    0    0 -0.95927734110E+02  0.43131741118E+03  0.54897335242E+03  0.70470460551E+03  0.00000000000E+00 0.  1.
        -13    1    3    3    0    0 -0.42774440142E+02  0.53532543995E+03  0.57071962170E+03  0.78366055533E+03  0.00000000000E+00 0. -1.
         22    1    1    2    0    0  0.13870217425E+03 -0.96664285113E+03 -0.98909135875E+02  0.98153946021E+03  0.00000000000E+00 0. -1.
<mgrwt>
<rscale>  0 0.22490952E+04</rscale>
<asrwt>0</asrwt>
<pdfrwt beam="1">  1        2 0.26851450E+00 0.22490952E+04</pdfrwt>
<pdfrwt beam="2">  1       -2 0.11147083E+00 0.22490952E+04</pdfrwt>
<totfact> 0.53597140E+00</totfact>
</mgrwt>
</event>
<event>
 6    1  0.6091287E-004  0.3477183E+04  0.7818608E-02  0.8119219E-01
         -2   -1    0    0    0  501 -0.00000000000E+00  0.00000000000E+00  0.12732366362E+04  0.12732366362E+04  0.00000000000E+00 0. -1.
          2   -1    0    0  501    0  0.00000000000E+00 -0.00000000000E+00 -0.23740280865E+04  0.23740280865E+04  0.00000000000E+00 0.  1.
         23    2    1    2    0    0  0.14884404869E+04  0.89155494311E+03 -0.45623744786E+03  0.17963797555E+04  0.92208013495E+02 0.  0.
         11    1    3    3    0    0  0.43790296732E+03  0.31188984933E+03 -0.14369236000E+03  0.55649059401E+03  0.00000000000E+00 0. -1.
        -11    1    3    3    0    0  0.10505375196E+04  0.57966509378E+03 -0.31254508786E+03  0.12398891615E+04  0.00000000000E+00 0.  1.
         22    1    1    2    0    0 -0.14884404869E+04 -0.89155494311E+03 -0.64455400240E+03  0.18508849671E+04  0.00000000000E+00 0.  1.
<mgrwt>
<rscale>  0 0.34771825E+04</rscale>
<asrwt>0</asrwt>
<pdfrwt beam="1">  1        2 0.36523509E+00 0.34771825E+04</pdfrwt>
<pdfrwt beam="2">  1       -2 0.19588256E+00 0.34771825E+04</pdfrwt>
<totfact> 0.47953235E-01</totfact>
</mgrwt>
</event>
<event>
 6    1  0.6091287E-004  0.1946153E+04  0.7818608E-02  0.8632218E-01
          2   -1    0    0  501    0  0.00000000000E+00  0.00000000000E+00  0.12589950986E+04  0.12589950986E+04  0.00000000000E+00 0.  1.
         -2   -1    0    0    0  501 -0.00000000000E+00 -0.00000000000E+00 -0.75209006486E+03  0.75209006486E+03  0.00000000000E+00 0. -1.
         23    2    1    2    0    0  0.45921734320E+03  0.35134398305E+03 -0.55196825714E+03  0.80462927581E+03  0.91848526830E+02 0.  0.
         11    1    3    3    0    0  0.15149898601E+03  0.68351915587E+02 -0.13434706675E+03  0.21371256742E+03  0.00000000000E+00 0.  1.
        -11    1    3    3    0    0  0.30771835718E+03  0.28299206746E+03 -0.41762119039E+03  0.59091670839E+03  0.00000000000E+00 0. -1.
         22    1    1    2    0    0 -0.45921734320E+03 -0.35134398305E+03  0.10588732908E+04  0.12064558876E+04  0.00000000000E+00 0.  1.
<mgrwt>
<rscale>  0 0.19461528E+04</rscale>
<asrwt>0</asrwt>
<pdfrwt beam="1">  1        2 0.19369155E+00 0.19461528E+04</pdfrwt>
<pdfrwt beam="2">  1       -2 0.11570616E+00 0.19461528E+04</pdfrwt>
<totfact> 0.94724453E+00</totfact>
</mgrwt>
</event>
<event>
 6    1  0.6091287E-004  0.1105964E+04  0.7818608E-02  0.9199399E-01
          2   -1    0    0  501    0  0.00000000000E+00  0.00000000000E+00  0.15026534707E+04  0.15026534707E+04  0.00000000000E+00 0.  1.
         -2   -1    0    0    0  501 -0.00000000000E+00 -0.00000000000E+00 -0.20349927707E+03  0.20349927707E+03  0.00000000000E+00 0. -1.
         23    2    1    2    0    0  0.37584315788E+03 -0.18187014794E+03  0.10359409514E+03  0.43978045688E+03  0.91325153543E+02 0.  0.
         11    1    3    3    0    0  0.34320136667E+03 -0.19174903587E+03  0.98620352659E+02  0.40531573471E+03  0.00000000000E+00 0. -1.
        -11    1    3    3    0    0  0.32641791208E+02  0.98788879349E+01  0.49737424811E+01  0.34464722172E+02  0.00000000000E+00 0.  1.
         22    1    1    2    0    0 -0.37584315788E+03  0.18187014794E+03  0.11955600984E+04  0.12663722908E+04  0.00000000000E+00 0.  1.
<mgrwt>
<rscale>  0 0.11059636E+04</rscale>
<asrwt>0</asrwt>
<pdfrwt beam="1">  1        2 0.23117745E+00 0.11059636E+04</pdfrwt>
<pdfrwt beam="2">  1       -2 0.31307582E-01 0.11059636E+04</pdfrwt>
<totfact> 0.11876406E+02</totfact>
</mgrwt>
</event>
<event>
 6    1  0.6091287E-004  0.5552043E+04  0.7818608E-02  0.7748568E-01
          2   -1    0    0  501    0  0.00000000000E+00  0.00000000000E+00  0.42996290574E+04  0.42996290574E+04  0.00000000000E+00 0.  1.
         -2   -1    0    0    0  501 -0.00000000000E+00 -0.00000000000E+00 -0.17923160995E+04  0.17923160995E+04  0.00000000000E+00 0. -1.
         23    2    1    2    0    0  0.78278941085E+03 -0.25275249165E+03  0.41623089344E+04  0.42437961462E+04  0.91361813748E+02 0.  0.
         11    1    3    3    0    0  0.51272514842E+03 -0.12115899979E+03  0.27118078739E+04  0.27625112716E+04  0.00000000000E+00 0. -1.
        -11    1    3    3    0    0  0.27006426243E+03 -0.13159349186E+03  0.14505010605E+04  0.14812848746E+04  0.00000000000E+00 0.  1.
         22    1    1    2    0    0 -0.78278941085E+03  0.25275249165E+03 -0.16549959765E+04  0.18481490108E+04  0.00000000000E+00 0. -1.
<mgrwt>
<rscale>  0 0.55520426E+04</rscale>
<asrwt>0</asrwt>
<pdfrwt beam="1">  1        2 0.66148139E+00 0.55520426E+04</pdfrwt>
<pdfrwt beam="2">  1       -2 0.27574094E+00 0.55520426E+04</pdfrwt>
<totfact> 0.58663922E-03</totfact>
</mgrwt>
</event>
<event>
 6    1  0.6091287E-004  0.6867320E+03  0.7818608E-02  0.9740195E-01
         -2   -1    0    0    0  501 -0.00000000000E+00  0.00000000000E+00  0.21920904899E+04  0.21920904899E+04  0.00000000000E+00 0. -1.
          2   -1    0    0  501    0  0.00000000000E+00 -0.00000000000E+00 -0.53784365290E+02  0.53784365290E+02  0.00000000000E+00 0.  1.
         23    2    1    2    0    0  0.19257786178E+02  0.41473803190E+02  0.21809707192E+04  0.21833352172E+04  0.90710825823E+02 0.  0.
         13    1    3    3    0    0  0.52238734228E+02  0.20910368826E+02  0.16425571535E+04  0.16435206513E+04  0.00000000000E+00 0.  1.
        -13    1    3    3    0    0 -0.32980948051E+02  0.20563434364E+02  0.53841356576E+03  0.53981456590E+03  0.00000000000E+00 0. -1.
         22    1    1    2    0    0 -0.19257786178E+02 -0.41473803190E+02 -0.42664594640E+02  0.62539637953E+02  0.00000000000E+00 0.  1.
<mgrwt>
<rscale>  0 0.68673196E+03</rscale>
<asrwt>0</asrwt>
<pdfrwt beam="1">  1        2 0.82745194E-02 0.68673196E+03</pdfrwt>
<pdfrwt beam="2">  1       -2 0.33724462E+00 0.68673196E+03</pdfrwt>
<totfact> 0.16792041E+01</totfact>
</mgrwt>
</event>
<event>
 6    1  0.6091287E-004  0.2168012E+04  0.7818608E-02  0.8531861E-01
          2   -1    0    0  501    0  0.00000000000E+00  0.00000000000E+00  0.13018170596E+04  0.13018170596E+04  0.00000000000E+00 0.  1.
         -2   -1    0    0    0  501 -0.00000000000E+00 -0.00000000000E+00 -0.90263743475E+03  0.90263743475E+03  0.00000000000E+00 0. -1.
         23    2    1    2    0    0  0.26937200347E+02  0.91850329038E+03  0.78124636522E+03  0.12092917432E+04  0.87559864645E+02 0.  0.
         13    1    3    3    0    0  0.47187140808E+02  0.49111152312E+03  0.45610176009E+03  0.67189729123E+03  0.00000000000E+00 0. -1.
        -13    1    3    3    0    0 -0.20249940461E+02  0.42739176726E+03  0.32514460513E+03  0.53739445201E+03  0.00000000000E+00 0.  1.
         22    1    1    2    0    0 -0.26937200347E+02 -0.91850329038E+03 -0.38206674034E+03  0.99516275115E+03  0.00000000000E+00 0. -1.
<mgrwt>
<rscale>  0 0.21680118E+04</rscale>
<asrwt>0</asrwt>
<pdfrwt beam="1">  1        2 0.20027955E+00 0.21680118E+04</pdfrwt>
<pdfrwt beam="2">  1       -2 0.13886730E+00 0.21680118E+04</pdfrwt>
<totfact> 0.55446896E+00</totfact>
</mgrwt>
</event>
<event>
 6    1  0.6091287E-004  0.4178563E+04  0.7818608E-02  0.7969463E-01
          2   -1    0    0  501    0  0.00000000000E+00  0.00000000000E+00  0.12864589680E+04  0.12864589680E+04  0.00000000000E+00 0.  1.
         -2   -1    0    0    0  501 -0.00000000000E+00 -0.00000000000E+00 -0.33931106111E+04  0.33931106111E+04  0.00000000000E+00 0. -1.
         23    2    1    2    0    0  0.19595370036E+04  0.15936762909E+03 -0.18438067702E+04  0.26960699605E+04  0.63138863522E+02 0.  0.
         11    1    3    3    0    0  0.13565959162E+04  0.10982964707E+03 -0.13160122867E+04  0.18932256521E+04  0.00000000000E+00 0. -1.
        -11    1    3    3    0    0  0.60294108747E+03  0.49537982021E+02 -0.52779448352E+03  0.80284430835E+03  0.00000000000E+00 0.  1.
         22    1    1    2    0    0 -0.19595370036E+04 -0.15936762909E+03 -0.26284487286E+03  0.19834996186E+04  0.00000000000E+00 0.  1.
<mgrwt>
<rscale>  0 0.41785632E+04</rscale>
<asrwt>0</asrwt>
<pdfrwt beam="1">  1        2 0.19791677E+00 0.41785632E+04</pdfrwt>
<pdfrwt beam="2">  1       -2 0.52201701E+00 0.41785632E+04</pdfrwt>
<totfact> 0.15961003E-02</totfact>
</mgrwt>
</event>
<event>
 6    1  0.6091287E-004  0.1341808E+04  0.7818608E-02  0.8997052E-01
          2   -1    0    0  501    0  0.00000000000E+00  0.00000000000E+00  0.26584261102E+03  0.26584261102E+03  0.00000000000E+00 0.  1.
         -2   -1    0    0    0  501 -0.00000000000E+00 -0.00000000000E+00 -0.16931534657E+04  0.16931534657E+04  0.00000000000E+00 0. -1.
         23    2    1    2    0    0 -0.59909849204E+02 -0.56134412309E+03 -0.12376383088E+04  0.13634525525E+04  0.92508730212E+02 0.  0.
         11    1    3    3    0    0 -0.66237369805E+02 -0.33799763156E+03 -0.82931689073E+03  0.89799570899E+03  0.00000000000E+00 0. -1.
        -11    1    3    3    0    0  0.63275206008E+01 -0.22334649153E+03 -0.40832141802E+03  0.46545684355E+03  0.00000000000E+00 0.  1.
         22    1    1    2    0    0  0.59909849204E+02  0.56134412309E+03 -0.18967254596E+03  0.59554352423E+03  0.00000000000E+00 0.  1.
<mgrwt>
<rscale>  0 0.13418082E+04</rscale>
<asrwt>0</asrwt>
<pdfrwt beam="1">  1        2 0.40898863E-01 0.13418082E+04</pdfrwt>
<pdfrwt beam="2">  1       -2 0.26048515E+00 0.13418082E+04</pdfrwt>
<totfact> 0.68202960E+00</totfact>
</mgrwt>
</event>
<event>
 6    1  0.6091287E-004  0.7260764E+03  0.7818608E-02  0.9673649E-01
         -2   -1    0    0    0  501 -0.00000000000E+00  0.00000000000E+00  0.15890916731E+03  0.15890916731E+03  0.00000000000E+00 0. -1.
          2   -1    0    0  501    0  0.00000000000E+00 -0.00000000000E+00 -0.82938406367E+03  0.82938406367E+03  0.00000000000E+00 0.  1.
         23    2    1    2    0    0  0.33790937713E+03  0.97139587927E+02 -0.25560924475E+03  0.44448043636E+03  0.92778907132E+02 0.  0.
         13    1    3    3    0    0  0.16166431567E+03  0.13753270417E-01 -0.12791714003E+03  0.20615078429E+03  0.00000000000E+00 0.  1.
        -13    1    3    3    0    0  0.17624506146E+03  0.97125834657E+02 -0.12769210472E+03  0.23832965207E+03  0.00000000000E+00 0. -1.
         22    1    1    2    0    0 -0.33790937713E+03 -0.97139587927E+02 -0.41486565161E+03  0.54381279461E+03  0.00000000000E+00 0. -1.
<mgrwt>
<rscale>  0 0.72607639E+03</rscale>
<asrwt>0</asrwt>
<pdfrwt beam="1">  1        2 0.12759755E+00 0.72607639E+03</pdfrwt>
<pdfrwt beam="2">  1       -2 0.24447564E-01 0.72607639E+03</pdfrwt>
<totfact> 0.49260910E+02</totfact>
</mgrwt>
</event>
<event>
 6    1  0.6091287E-004  0.3258194E+04  0.7818608E-02  0.8173615E-01
         -2   -1    0    0    0  501 -0.00000000000E+00  0.00000000000E+00  0.70642136818E+03  0.70642136818E+03  0.00000000000E+00 0.  1.
          2   -1    0    0  501    0  0.00000000000E+00 -0.00000000000E+00 -0.37569030170E+04  0.37569030170E+04  0.00000000000E+00 0. -1.
         23    2    1    2    0    0 -0.13649385348E+04  0.83719856142E+03 -0.19293559780E+04  0.25086168867E+04  0.82374504356E+02 0.  0.
         13    1    3    3    0    0 -0.81776245736E+03  0.47233682436E+03 -0.10870519245E+04  0.14399720132E+04  0.00000000000E+00 0. -1.
        -13    1    3    3    0    0 -0.54717607747E+03  0.36486173705E+03 -0.84230405350E+03  0.10686448734E+04  0.00000000000E+00 0.  1.
         22    1    1    2    0    0  0.13649385348E+04 -0.83719856142E+03 -0.11211256708E+04  0.19547074985E+04  0.00000000000E+00 0.  1.
<mgrwt>
<rscale>  0 0.32581937E+04</rscale>
<asrwt>0</asrwt>
<pdfrwt beam="1">  1        2 0.57798506E+00 0.32581937E+04</pdfrwt>
<pdfrwt beam="2">  1       -2 0.10868021E+00 0.32581937E+04</pdfrwt>
<totfact> 0.29963555E-01</totfact>
</mgrwt>
</event>
<event>
 6    1  0.6091287E-004  0.1049142E+04  0.7818608E-02  0.9256230E-01
         -2   -1    0    0    0  501 -0.00000000000E+00  0.00000000000E+00  0.20574442186E+03  0.20574442186E+03  0.00000000000E+00 0. -1.
          2   -1    0    0  501    0  0.00000000000E+00 -0.00000000000E+00 -0.13374597806E+04  0.13374597806E+04  0.00000000000E+00 0.  1.
         23    2    1    2    0    0  0.49610263095E+03  0.15726092922E+03 -0.56833707103E+03  0.77623359326E+03  0.93181246582E+02 0.  0.
         13    1    3    3    0    0  0.33545898747E+03  0.92578821401E+02 -0.31518887491E+03  0.46951847388E+03  0.00000000000E+00 0. -1.
        -13    1    3    3    0    0  0.16064364347E+03  0.64682107819E+02 -0.25314819611E+03  0.30671511938E+03  0.00000000000E+00 0.  1.
         22    1    1    2    0    0 -0.49610263095E+03 -0.15726092922E+03 -0.56337828769E+03  0.76697060917E+03  0.00000000000E+00 0.  1.
<mgrwt>
<rscale>  0 0.10491423E+04</rscale>
<asrwt>0</asrwt>
<pdfrwt beam="1">  1        2 0.20576304E+00 0.10491423E+04</pdfrwt>
<pdfrwt beam="2">  1       -2 0.31652989E-01 0.10491423E+04</pdfrwt>
<totfact> 0.14500367E+02</totfact>
</mgrwt>
</event>
<event>
 6    1  0.6091287E-004  0.4351762E+04  0.7818608E-02  0.7937116E-01
         -2   -1    0    0    0  501 -0.00000000000E+00  0.00000000000E+00  0.15578516153E+04  0.15578516153E+04  0.00000000000E+00 0. -1.
          2   -1    0    0  501    0  0.00000000000E+00 -0.00000000000E+00 -0.30390940807E+04  0.30390940807E+04  0.00000000000E+00 0.  1.
         23    2    1    2    0    0 -0.52728061258E+03  0.73213748466E+03  0.13493056602E+04  0.16260783425E+04  0.97236158178E+02 0.  0.
         11    1    3    3    0    0 -0.42825965818E+03  0.55560596270E+03  0.98412693281E+03  0.12085570489E+04  0.00000000000E+00 0.  1.
        -11    1    3    3    0    0 -0.99020954397E+02  0.17653152196E+03  0.36517872738E+03  0.41752129358E+03  0.00000000000E+00 0. -1.
         22    1    1    2    0    0  0.52728061258E+03 -0.73213748466E+03 -0.28305481256E+04  0.29708673535E+04  0.00000000000E+00 0.  1.
<mgrwt>
<rscale>  0 0.43517618E+04</rscale>
<asrwt>0</asrwt>
<pdfrwt beam="1">  1        2 0.46755294E+00 0.43517618E+04</pdfrwt>
<pdfrwt beam="2">  1       -2 0.23966948E+00 0.43517618E+04</pdfrwt>
<totfact> 0.93835223E-02</totfact>
</mgrwt>
</event>
<event>
 6    1  0.6091287E-004  0.2104810E+04  0.7818608E-02  0.8559127E-01
         -4   -1    0    0    0  501 -0.00000000000E+00  0.00000000000E+00  0.97847648407E+03  0.97847648407E+03  0.00000000000E+00 0. -1.
          4   -1    0    0  501    0  0.00000000000E+00 -0.00000000000E+00 -0.11319192542E+04  0.11319192542E+04  0.00000000000E+00 0.  1.
         23    2    1    2    0    0 -0.30749228931E+03  0.48185781329E+03  0.80671491088E+03  0.99296957400E+03  0.91984603311E+02 0.  0.
         13    1    3    3    0    0 -0.11916899564E+03  0.26678302322E+03  0.43547130147E+03  0.52441365867E+03  0.00000000000E+00 0.  1.
        -13    1    3    3    0    0 -0.18832329367E+03  0.21507479007E+03  0.37124360941E+03  0.46855591533E+03  0.00000000000E+00 0. -1.
         22    1    1    2    0    0  0.30749228931E+03 -0.48185781329E+03 -0.96015768097E+03  0.11174261642E+04  0.00000000000E+00 0.  1.
<mgrwt>
<rscale>  0 0.21048101E+04</rscale>
<asrwt>0</asrwt>
<pdfrwt beam="1">  1        4 0.17414142E+00 0.21048101E+04</pdfrwt>
<pdfrwt beam="2">  1       -4 0.15053484E+00 0.21048101E+04</pdfrwt>
<totfact> 0.10740842E-01</totfact>
</mgrwt>
</event>
<event>
 6    1  0.6091287E-004  0.1126543E+04  0.7818608E-02  0.9179701E-01
         -1   -1    0    0    0  501 -0.00000000000E+00  0.00000000000E+00  0.19314431099E+03  0.19314431099E+03  0.00000000000E+00 0. -1.
          1   -1    0    0  501    0  0.00000000000E+00 -0.00000000000E+00 -0.16426812084E+04  0.16426812084E+04  0.00000000000E+00 0.  1.
         23    2    1    2    0    0  0.89191738350E+01 -0.22623011017E+03 -0.15633986134E+04  0.15824007677E+04  0.92289495488E+02 0.  0.
         13    1    3    3    0    0 -0.39606152730E+02 -0.67788660327E+02 -0.46807686014E+03  0.47461552524E+03  0.00000000000E+00 0. -1.
        -13    1    3    3    0    0  0.48525326565E+02 -0.15844144985E+03 -0.10953217532E+04  0.11077852425E+04  0.00000000000E+00 0.  1.
         22    1    1    2    0    0 -0.89191738350E+01  0.22623011017E+03  0.11386171594E+03  0.25342475169E+03  0.00000000000E+00 0. -1.
<mgrwt>
<rscale>  0 0.11265426E+04</rscale>
<asrwt>0</asrwt>
<pdfrwt beam="1">  1        1 0.25272020E+00 0.11265426E+04</pdfrwt>
<pdfrwt beam="2">  1       -1 0.29714507E-01 0.11265426E+04</pdfrwt>
<totfact> 0.53857508E+01</totfact>
</mgrwt>
</event>
<event>
 6    1  0.6091287E-004  0.1016452E+04  0.7818608E-02  0.9290682E-01
          2   -1    0    0  501    0  0.00000000000E+00  0.00000000000E+00  0.25609871491E+04  0.25609871491E+04  0.00000000000E+00 0. -1.
         -2   -1    0    0    0  501 -0.00000000000E+00 -0.00000000000E+00 -0.10085708684E+03  0.10085708684E+03  0.00000000000E+00 0.  1.
         23    2    1    2    0    0  0.57282498472E+02  0.12008007962E+02  0.25513018310E+04  0.25535032544E+04  0.88387556068E+02 0.  0.
         11    1    3    3    0    0  0.39811290233E+02 -0.23857820527E+02  0.20794458480E+04  0.20799637423E+04  0.00000000000E+00 0. -1.
        -11    1    3    3    0    0  0.17471208239E+02  0.35865828489E+02  0.47185598306E+03  0.47353951210E+03  0.00000000000E+00 0.  1.
         22    1    1    2    0    0 -0.57282498472E+02 -0.12008007962E+02 -0.91171768738E+02  0.10834098163E+03  0.00000000000E+00 0.  1.
<mgrwt>
<rscale>  0 0.10164521E+04</rscale>
<asrwt>0</asrwt>
<pdfrwt beam="1">  1        2 0.39399797E+00 0.10164521E+04</pdfrwt>
<pdfrwt beam="2">  1       -2 0.15516477E-01 0.10164521E+04</pdfrwt>
<totfact> 0.10746516E+02</totfact>
</mgrwt>
</event>
<event>
 6    1  0.6091287E-004  0.1353064E+04  0.7818608E-02  0.8988512E-01
         -2   -1    0    0    0  501 -0.00000000000E+00  0.00000000000E+00  0.33539004029E+03  0.33539004029E+03  0.00000000000E+00 0. -1.
          2   -1    0    0  501    0  0.00000000000E+00 -0.00000000000E+00 -0.13646674485E+04  0.13646674485E+04  0.00000000000E+00 0.  1.
         23    2    1    2    0    0  0.13665313279E+03 -0.32054668938E+03 -0.12406851756E+04  0.12924823387E+04  0.98927407950E+02 0.  0.
         11    1    3    3    0    0  0.71872826526E+02 -0.15585410063E+03 -0.43595935099E+03  0.46852615679E+03  0.00000000000E+00 0. -1.
        -11    1    3    3    0    0  0.64780306261E+02 -0.16469258875E+03 -0.80472582466E+03  0.82395618193E+03  0.00000000000E+00 0.  1.
         22    1    1    2    0    0 -0.13665313279E+03  0.32054668938E+03  0.21140776748E+03  0.40757515003E+03  0.00000000000E+00 0. -1.
<mgrwt>
<rscale>  0 0.13530645E+04</rscale>
<asrwt>0</asrwt>
<pdfrwt beam="1">  1        2 0.20994884E+00 0.13530645E+04</pdfrwt>
<pdfrwt beam="2">  1       -2 0.51598467E-01 0.13530645E+04</pdfrwt>
<totfact> 0.52525428E+01</totfact>
</mgrwt>
</event>
<event>
 6    1  0.6091287E-004  0.9820399E+03  0.7818608E-02  0.9328465E-01
          2   -1    0    0  501    0  0.00000000000E+00  0.00000000000E+00  0.19490557981E+04  0.19490557981E+04  0.00000000000E+00 0.  1.
         -2   -1    0    0    0  501 -0.00000000000E+00 -0.00000000000E+00 -0.12370123697E+03  0.12370123697E+03  0.00000000000E+00 0. -1.
         23    2    1    2    0    0  0.20509116119E+03  0.38378491485E+03  0.13812044150E+04  0.14509672011E+04  0.90702466857E+02 0.  0.
         11    1    3    3    0    0  0.12131938485E+03  0.21394698935E+03  0.92213703188E+03  0.95437330902E+03  0.00000000000E+00 0.  1.
        -11    1    3    3    0    0  0.83771776343E+02  0.16983792550E+03  0.45906738310E+03  0.49659389211E+03  0.00000000000E+00 0. -1.
         22    1    1    2    0    0 -0.20509116119E+03 -0.38378491485E+03  0.44415014610E+03  0.62178983390E+03  0.00000000000E+00 0.  1.
<mgrwt>
<rscale>  0 0.98203994E+03</rscale>
<asrwt>0</asrwt>
<pdfrwt beam="1">  1        2 0.29985471E+00 0.98203994E+03</pdfrwt>
<pdfrwt beam="2">  1       -2 0.19030961E-01 0.98203994E+03</pdfrwt>
<totfact> 0.16675297E+02</totfact>
</mgrwt>
</event>
<event>
 6    1  0.6091287E-004  0.1473660E+04  0.7818608E-02  0.8902160E-01
         -2   -1    0    0    0  501 -0.00000000000E+00  0.00000000000E+00  0.37959717497E+03  0.37959717497E+03  0.00000000000E+00 0. -1.
          2   -1    0    0  501    0  0.00000000000E+00 -0.00000000000E+00 -0.14302496555E+04  0.14302496555E+04  0.00000000000E+00 0.  1.
         23    2    1    2    0    0  0.51588044757E+03 -0.36036392974E+03 -0.99126438064E+03  0.11777695058E+04  0.92418279402E+02 0.  0.
         13    1    3    3    0    0  0.22636626687E+03 -0.11629752683E+03 -0.45414678579E+03  0.52059207118E+03  0.00000000000E+00 0.  1.
        -13    1    3    3    0    0  0.28951418069E+03 -0.24406640291E+03 -0.53711759484E+03  0.65717743460E+03  0.00000000000E+00 0. -1.
         22    1    1    2    0    0 -0.51588044757E+03  0.36036392974E+03 -0.59388099937E+02  0.63207732474E+03  0.00000000000E+00 0. -1.
<mgrwt>
<rscale>  0 0.14736604E+04</rscale>
<asrwt>0</asrwt>
<pdfrwt beam="1">  1        2 0.22003841E+00 0.14736604E+04</pdfrwt>
<pdfrwt beam="2">  1       -2 0.58399565E-01 0.14736604E+04</pdfrwt>
<totfact> 0.36909013E+01</totfact>
</mgrwt>
</event>
<event>
 6    1  0.6091287E-004  0.2588608E+04  0.7818608E-02  0.8372081E-01
         -2   -1    0    0    0  501 -0.00000000000E+00  0.00000000000E+00  0.91033503570E+03  0.91033503570E+03  0.00000000000E+00 0. -1.
          2   -1    0    0  501    0  0.00000000000E+00 -0.00000000000E+00 -0.18402269963E+04  0.18402269963E+04  0.00000000000E+00 0.  1.
         23    2    1    2    0    0 -0.12324292518E+04 -0.22666670850E+03 -0.12860111330E+03  0.12631728162E+04  0.93849133631E+02 0.  0.
         13    1    3    3    0    0 -0.49941125789E+03 -0.47301976061E+02 -0.37410319830E+02  0.50303937567E+03  0.00000000000E+00 0. -1.
        -13    1    3    3    0    0 -0.73301799387E+03 -0.17936473244E+03 -0.91190793465E+02  0.76013344052E+03  0.00000000000E+00 0.  1.
         22    1    1    2    0    0  0.12324292518E+04  0.22666670850E+03 -0.80129084730E+03  0.14873892158E+04  0.00000000000E+00 0. -1.
<mgrwt>
<rscale>  0 0.25886082E+04</rscale>
<asrwt>0</asrwt>
<pdfrwt beam="1">  1        2 0.28311184E+00 0.25886082E+04</pdfrwt>
<pdfrwt beam="2">  1       -2 0.14005154E+00 0.25886082E+04</pdfrwt>
<totfact> 0.26042221E+00</totfact>
</mgrwt>
</event>
<event>
 6    1  0.6091287E-004  0.4876516E+04  0.7818608E-02  0.7847843E-01
         -2   -1    0    0    0  501 -0.00000000000E+00  0.00000000000E+00  0.41802611927E+04  0.41802611927E+04  0.00000000000E+00 0. -1.
          2   -1    0    0  501    0  0.00000000000E+00 -0.00000000000E+00 -0.14221843089E+04  0.14221843089E+04  0.00000000000E+00 0.  1.
         23    2    1    2    0    0  0.58108173546E+03 -0.47578232078E+03  0.40434858633E+04  0.41137208646E+04  0.94321919128E+02 0.  0.
         13    1    3    3    0    0  0.42000180771E+03 -0.28835149302E+03  0.26660724703E+04  0.27143121631E+04  0.00000000000E+00 0. -1.
        -13    1    3    3    0    0  0.16107992775E+03 -0.18743082776E+03  0.13774133931E+04  0.13994087015E+04  0.00000000000E+00 0.  1.
         22    1    1    2    0    0 -0.58108173546E+03  0.47578232078E+03 -0.12854089796E+04  0.14887246370E+04  0.00000000000E+00 0.  1.
<mgrwt>
<rscale>  0 0.48765159E+04</rscale>
<asrwt>0</asrwt>
<pdfrwt beam="1">  1        2 0.21879759E+00 0.48765159E+04</pdfrwt>
<pdfrwt beam="2">  1       -2 0.64311710E+00 0.48765159E+04</pdfrwt>
<totfact> 0.36944150E-03</totfact>
</mgrwt>
</event>
<event>
 6    1  0.6091287E-004  0.1631648E+04  0.7818608E-02  0.8801338E-01
          2   -1    0    0  501    0  0.00000000000E+00  0.00000000000E+00  0.65697751068E+03  0.65697751068E+03  0.00000000000E+00 0.  1.
         -2   -1    0    0    0  501 -0.00000000000E+00 -0.00000000000E+00 -0.10130772737E+04  0.10130772737E+04  0.00000000000E+00 0. -1.
         23    2    1    2    0    0  0.57307359631E+03 -0.53779722980E+03  0.35548239874E+02  0.79197314508E+03  0.91206238823E+02 0.  0.
         11    1    3    3    0    0  0.47332634508E+03 -0.47995054710E+03  0.11489408553E+02  0.67418273718E+03  0.00000000000E+00 0. -1.
        -11    1    3    3    0    0  0.99747251229E+02 -0.57846682696E+02  0.24058831321E+02  0.11779040789E+03  0.00000000000E+00 0.  1.
         22    1    1    2    0    0 -0.57307359631E+03  0.53779722980E+03 -0.39164800294E+03  0.87808163935E+03  0.00000000000E+00 0. -1.
<mgrwt>
<rscale>  0 0.16316482E+04</rscale>
<asrwt>0</asrwt>
<pdfrwt beam="1">  1        2 0.10107346E+00 0.16316482E+04</pdfrwt>
<pdfrwt beam="2">  1       -2 0.15585804E+00 0.16316482E+04</pdfrwt>
<totfact> 0.11472111E+01</totfact>
</mgrwt>
</event>
<event>
 6    1  0.6091287E-004  0.5386241E+04  0.7818608E-02  0.7771539E-01
          2   -1    0    0  501    0  0.00000000000E+00  0.00000000000E+00  0.30223654116E+04  0.30223654116E+04  0.00000000000E+00 0.  1.
         -2   -1    0    0    0  501 -0.00000000000E+00 -0.00000000000E+00 -0.23997424130E+04  0.23997424130E+04  0.00000000000E+00 0. -1.
         23    2    1    2    0    0  0.15520807089E+04 -0.21723551758E+04 -0.38006742648E+02  0.26717418142E+04  0.93157245118E+02 0.  0.
         11    1    3    3    0    0  0.62774980415E+03 -0.90179397388E+03 -0.59469998903E+02  0.11003812379E+04  0.00000000000E+00 0.  1.
        -11    1    3    3    0    0  0.92433090475E+03 -0.12705612019E+04  0.21463256255E+02  0.15713605763E+04  0.00000000000E+00 0. -1.
         22    1    1    2    0    0 -0.15520807089E+04  0.21723551758E+04  0.66062974127E+03  0.27503660105E+04  0.00000000000E+00 0. -1.
<mgrwt>
<rscale>  0 0.53862412E+04</rscale>
<asrwt>0</asrwt>
<pdfrwt beam="1">  1        2 0.46497930E+00 0.53862412E+04</pdfrwt>
<pdfrwt beam="2">  1       -2 0.36919114E+00 0.53862412E+04</pdfrwt>
<totfact> 0.13982141E-02</totfact>
</mgrwt>
</event>
<event>
 6    1  0.6091287E-004  0.3565715E+04  0.7818608E-02  0.8098390E-01
         -2   -1    0    0    0  501 -0.00000000000E+00  0.00000000000E+00  0.13070016380E+04  0.13070016380E+04  0.00000000000E+00 0. -1.
          2   -1    0    0  501    0  0.00000000000E+00 -0.00000000000E+00 -0.24319641679E+04  0.24319641679E+04  0.00000000000E+00 0.  1.
         23    2    1    2    0    0 -0.17263380069E+03 -0.15839066969E+04  0.27338796614E+03  0.16190726568E+04  0.89957957884E+02 0.  0.
         13    1    3    3    0    0 -0.73980283650E+02 -0.88637426885E+03  0.19168174608E+03  0.90987599079E+03  0.00000000000E+00 0. -1.
        -13    1    3    3    0    0 -0.98653517041E+02 -0.69753242810E+03  0.81706220065E+02  0.70919666600E+03  0.00000000000E+00 0.  1.
         22    1    1    2    0    0  0.17263380069E+03  0.15839066969E+04 -0.13983504961E+04  0.21198931491E+04  0.00000000000E+00 0.  1.
<mgrwt>
<rscale>  0 0.35657152E+04</rscale>
<asrwt>0</asrwt>
<pdfrwt beam="1">  1        2 0.37414834E+00 0.35657152E+04</pdfrwt>
<pdfrwt beam="2">  1       -2 0.20107717E+00 0.35657152E+04</pdfrwt>
<totfact> 0.40754503E-01</totfact>
</mgrwt>
</event>
<event>
 6    1  0.6091287E-004  0.3651011E+04  0.7818608E-02  0.8078906E-01
         -2   -1    0    0    0  501 -0.00000000000E+00  0.00000000000E+00  0.14337408697E+04  0.14337408697E+04  0.00000000000E+00 0. -1.
          2   -1    0    0  501    0  0.00000000000E+00 -0.00000000000E+00 -0.23243188183E+04  0.23243188183E+04  0.00000000000E+00 0.  1.
         23    2    1    2    0    0 -0.14944318680E+04  0.32709689725E+03 -0.14686512364E+04  0.21226735823E+04  0.92128685178E+02 0.  0.
         13    1    3    3    0    0 -0.59722225920E+03  0.92677655232E+02 -0.61488908286E+03  0.86217872792E+03  0.00000000000E+00 0.  1.
        -13    1    3    3    0    0 -0.89720960883E+03  0.23441924202E+03 -0.85376215351E+03  0.12604948544E+04  0.00000000000E+00 0. -1.
         22    1    1    2    0    0  0.14944318680E+04 -0.32709689725E+03  0.57807328780E+03  0.16353861056E+04  0.00000000000E+00 0. -1.
<mgrwt>
<rscale>  0 0.36510113E+04</rscale>
<asrwt>0</asrwt>
<pdfrwt beam="1">  1        2 0.35758751E+00 0.36510113E+04</pdfrwt>
<pdfrwt beam="2">  1       -2 0.22057552E+00 0.36510113E+04</pdfrwt>
<totfact> 0.34934737E-01</totfact>
</mgrwt>
</event>
<event>
 6    1  0.6091287E-004  0.2461861E+04  0.7818608E-02  0.8416700E-01
         -2   -1    0    0    0  501 -0.00000000000E+00  0.00000000000E+00  0.90889281531E+03  0.90889281531E+03  0.00000000000E+00 0. -1.
          2   -1    0    0  501    0  0.00000000000E+00 -0.00000000000E+00 -0.16670717561E+04  0.16670717561E+04  0.00000000000E+00 0.  1.
         23    2    1    2    0    0 -0.77030764223E+03 -0.15793902189E+03 -0.13683017805E+04  0.15806915044E+04  0.89539215805E+02 0.  0.
         13    1    3    3    0    0 -0.54464819875E+03 -0.72851959200E+02 -0.98205841137E+03  0.11253389675E+04  0.00000000000E+00 0.  1.
        -13    1    3    3    0    0 -0.22565944348E+03 -0.85087062694E+02 -0.38624336914E+03  0.45535253691E+03  0.00000000000E+00 0. -1.
         22    1    1    2    0    0  0.77030764223E+03  0.15793902189E+03  0.61012283975E+03  0.99527306700E+03  0.00000000000E+00 0. -1.
<mgrwt>
<rscale>  0 0.24618607E+04</rscale>
<asrwt>0</asrwt>
<pdfrwt beam="1">  1        2 0.25647258E+00 0.24618607E+04</pdfrwt>
<pdfrwt beam="2">  1       -2 0.13982966E+00 0.24618607E+04</pdfrwt>
<totfact> 0.32981991E+00</totfact>
</mgrwt>
</event>
<event>
 6    1  0.6091287E-004  0.2215735E+04  0.7818608E-02  0.8511907E-01
          2   -1    0    0  501    0  0.00000000000E+00  0.00000000000E+00  0.97105643733E+03  0.97105643733E+03  0.00000000000E+00 0.  1.
         -2   -1    0    0    0  501 -0.00000000000E+00 -0.00000000000E+00 -0.12639533808E+04  0.12639533808E+04  0.00000000000E+00 0. -1.
         23    2    1    2    0    0  0.85081944491E+03 -0.19520564853E+02 -0.85885110931E+03  0.12129633915E+04  0.96851333823E+02 0.  0.
         13    1    3    3    0    0  0.50306712745E+03 -0.23589789601E+02 -0.57232740028E+03  0.76235927620E+03  0.00000000000E+00 0. -1.
        -13    1    3    3    0    0  0.34775231746E+03  0.40692247477E+01 -0.28652370902E+03  0.45060411529E+03  0.00000000000E+00 0.  1.
         22    1    1    2    0    0 -0.85081944491E+03  0.19520564853E+02  0.56595416587E+03  0.10220464266E+04  0.00000000000E+00 0.  1.
<mgrwt>
<rscale>  0 0.22157347E+04</rscale>
<asrwt>0</asrwt>
<pdfrwt beam="1">  1        2 0.14939330E+00 0.22157347E+04</pdfrwt>
<pdfrwt beam="2">  1       -2 0.19445437E+00 0.22157347E+04</pdfrwt>
<totfact> 0.34736495E+00</totfact>
</mgrwt>
</event>
<event>
 6    1  0.6091287E-004  0.2676308E+04  0.7818608E-02  0.8342733E-01
          2   -1    0    0  501    0  0.00000000000E+00  0.00000000000E+00  0.15318625809E+04  0.15318625809E+04  0.00000000000E+00 0.  1.
         -2   -1    0    0    0  501 -0.00000000000E+00 -0.00000000000E+00 -0.11689408700E+04  0.11689408700E+04  0.00000000000E+00 0. -1.
         23    2    1    2    0    0 -0.84246882047E+03  0.54322502524E+03 -0.71048347832E+03  0.12321149741E+04  0.92051045133E+02 0.  0.
         13    1    3    3    0    0 -0.43565673112E+03  0.28061527283E+03 -0.42349165066E+03  0.66924352585E+03  0.00000000000E+00 0. -1.
        -13    1    3    3    0    0 -0.40681208935E+03  0.26260975241E+03 -0.28699182766E+03  0.56287144824E+03  0.00000000000E+00 0.  1.
         22    1    1    2    0    0  0.84246882047E+03 -0.54322502524E+03  0.10734051892E+04  0.14686884768E+04  0.00000000000E+00 0.  1.
<mgrwt>
<rscale>  0 0.26763085E+04</rscale>
<asrwt>0</asrwt>
<pdfrwt beam="1">  1        2 0.23567117E+00 0.26763085E+04</pdfrwt>
<pdfrwt beam="2">  1       -2 0.17983706E+00 0.26763085E+04</pdfrwt>
<totfact> 0.19465190E+00</totfact>
</mgrwt>
</event>
<event>
 6    1  0.6091287E-004  0.1680258E+04  0.7818608E-02  0.8772705E-01
          1   -1    0    0  501    0  0.00000000000E+00  0.00000000000E+00  0.42322381071E+04  0.42322381071E+04  0.00000000000E+00 0.  1.
         -1   -1    0    0    0  501 -0.00000000000E+00 -0.00000000000E+00 -0.16677149074E+03  0.16677149074E+03  0.00000000000E+00 0. -1.
         23    2    1    2    0    0  0.53126872149E+03 -0.64553615601E+03  0.19200836567E+04  0.20964824152E+04  0.97743979041E+02 0.  0.
         11    1    3    3    0    0  0.36826825866E+03 -0.37508811859E+03  0.12268526093E+04  0.13347209191E+04  0.00000000000E+00 0.  1.
        -11    1    3    3    0    0  0.16300046283E+03 -0.27044803742E+03  0.69323104742E+03  0.76176149610E+03  0.00000000000E+00 0. -1.
         22    1    1    2    0    0 -0.53126872149E+03  0.64553615601E+03  0.21453829597E+04  0.23025271826E+04  0.00000000000E+00 0. -1.
<mgrwt>
<rscale>  0 0.16802579E+04</rscale>
<asrwt>0</asrwt>
<pdfrwt beam="1">  1        1 0.65111347E+00 0.16802579E+04</pdfrwt>
<pdfrwt beam="2">  1       -1 0.25657156E-01 0.16802579E+04</pdfrwt>
<totfact> 0.76698137E-01</totfact>
</mgrwt>
</event>
<event>
 6    1  0.6091287E-004  0.2183313E+04  0.7818608E-02  0.8525406E-01
          2   -1    0    0  501    0  0.00000000000E+00  0.00000000000E+00  0.20312228059E+04  0.20312228059E+04  0.00000000000E+00 0.  1.
         -2   -1    0    0    0  501 -0.00000000000E+00 -0.00000000000E+00 -0.58669765686E+03  0.58669765686E+03  0.00000000000E+00 0. -1.
         23    2    1    2    0    0 -0.22156843869E+03 -0.10025445752E+04  0.11615705940E+04  0.15529080316E+04  0.89938376896E+02 0.  0.
         13    1    3    3    0    0 -0.15688271002E+03 -0.50157207324E+03  0.59067328294E+03  0.79062105749E+03  0.00000000000E+00 0. -1.
        -13    1    3    3    0    0 -0.64685728677E+02 -0.50097250192E+03  0.57089731108E+03  0.76228697415E+03  0.00000000000E+00 0.  1.
         22    1    1    2    0    0  0.22156843869E+03  0.10025445752E+04  0.28295455501E+03  0.10650124311E+04  0.00000000000E+00 0. -1.
<mgrwt>
<rscale>  0 0.21833128E+04</rscale>
<asrwt>0</asrwt>
<pdfrwt beam="1">  1        2 0.31249581E+00 0.21833128E+04</pdfrwt>
<pdfrwt beam="2">  1       -2 0.90261179E-01 0.21833128E+04</pdfrwt>
<totfact> 0.61669837E+00</totfact>
</mgrwt>
</event>
<event>
 6    1  0.6091287E-004  0.3444972E+04  0.7818608E-02  0.8126956E-01
         -1   -1    0    0    0  501 -0.00000000000E+00  0.00000000000E+00  0.94234031896E+03  0.94234031896E+03  0.00000000000E+00 0. -1.
          1   -1    0    0  501    0  0.00000000000E+00 -0.00000000000E+00 -0.31484999658E+04  0.31484999658E+04  0.00000000000E+00 0.  1.
         23    2    1    2    0    0  0.10741261970E+04  0.33260033376E+03  0.44371255961E+03  0.12122655021E+04  0.91305765981E+02 0.  0.
         11    1    3    3    0    0  0.19676048975E+03  0.67873501164E+02  0.12051490923E+03  0.24051059401E+03  0.00000000000E+00 0. -1.
        -11    1    3    3    0    0  0.87736570723E+03  0.26472683260E+03  0.32319765038E+03  0.97175490805E+03  0.00000000000E+00 0.  1.
         22    1    1    2    0    0 -0.10741261970E+04 -0.33260033376E+03 -0.26498722064E+04  0.28785747826E+04  0.00000000000E+00 0.  1.
<mgrwt>
<rscale>  0 0.34449723E+04</rscale>
<asrwt>0</asrwt>
<pdfrwt beam="1">  1        1 0.48438461E+00 0.34449723E+04</pdfrwt>
<pdfrwt beam="2">  1       -1 0.14497543E+00 0.34449723E+04</pdfrwt>
<totfact> 0.14538258E-01</totfact>
</mgrwt>
</event>
<event>
 6    1  0.6091287E-004  0.3157779E+04  0.7818608E-02  0.8200057E-01
          2   -1    0    0  501    0  0.00000000000E+00  0.00000000000E+00  0.26029979717E+04  0.26029979717E+04  0.00000000000E+00 0.  1.
         -2   -1    0    0    0  501 -0.00000000000E+00 -0.00000000000E+00 -0.95770056028E+03  0.95770056028E+03  0.00000000000E+00 0. -1.
         23    2    1    2    0    0  0.51442663448E+02  0.15725853910E+04  0.95168498534E+03  0.18411726214E+04  0.92418346335E+02 0.  0.
         13    1    3    3    0    0  0.10355045950E+02  0.71660593875E+03  0.38200867258E+03  0.81213417878E+03  0.00000000000E+00 0. -1.
        -13    1    3    3    0    0  0.41087617499E+02  0.85597945227E+03  0.56967631277E+03  0.10290384426E+04  0.00000000000E+00 0.  1.
         22    1    1    2    0    0 -0.51442663448E+02 -0.15725853910E+04  0.69361242611E+03  0.17195259106E+04  0.00000000000E+00 0.  1.
<mgrwt>
<rscale>  0 0.31577794E+04</rscale>
<asrwt>0</asrwt>
<pdfrwt beam="1">  1        2 0.40046122E+00 0.31577794E+04</pdfrwt>
<pdfrwt beam="2">  1       -2 0.14733855E+00 0.31577794E+04</pdfrwt>
<totfact> 0.80435412E-01</totfact>
</mgrwt>
</event>
<event>
 6    1  0.6091287E-004  0.2108182E+04  0.7818608E-02  0.8557648E-01
          2   -1    0    0  501    0  0.00000000000E+00  0.00000000000E+00  0.33637362327E+04  0.33637362327E+04  0.00000000000E+00 0.  1.
         -2   -1    0    0    0  501 -0.00000000000E+00 -0.00000000000E+00 -0.33031951926E+03  0.33031951926E+03  0.00000000000E+00 0. -1.
         23    2    1    2    0    0 -0.74504478559E+03  0.20183622384E+03  0.27723215186E+04  0.28791936197E+04  0.90331077470E+02 0.  0.
         13    1    3    3    0    0 -0.41565691523E+03  0.13118296648E+03  0.14096273393E+04  0.14754758140E+04  0.00000000000E+00 0.  1.
        -13    1    3    3    0    0 -0.32938787036E+03  0.70653257361E+02  0.13626941793E+04  0.14037178058E+04  0.00000000000E+00 0. -1.
         22    1    1    2    0    0  0.74504478559E+03 -0.20183622384E+03  0.26109519483E+03  0.81486213223E+03  0.00000000000E+00 0. -1.
<mgrwt>
<rscale>  0 0.21081819E+04</rscale>
<asrwt>0</asrwt>
<pdfrwt beam="1">  1        2 0.51749786E+00 0.21081819E+04</pdfrwt>
<pdfrwt beam="2">  1       -2 0.50818390E-01 0.21081819E+04</pdfrwt>
<totfact> 0.34142019E+00</totfact>
</mgrwt>
</event>
<event>
 6    1  0.6091287E-004  0.4631003E+04  0.7818608E-02  0.7888095E-01
         -2   -1    0    0    0  501 -0.00000000000E+00  0.00000000000E+00  0.21143498137E+04  0.21143498137E+04  0.00000000000E+00 0. -1.
          2   -1    0    0  501    0  0.00000000000E+00 -0.00000000000E+00 -0.25357899697E+04  0.25357899697E+04  0.00000000000E+00 0.  1.
         23    2    1    2    0    0  0.15406793493E+04  0.16480789138E+04  0.30840787175E+03  0.22789512402E+04  0.92985895009E+02 0.  0.
         13    1    3    3    0    0  0.71289819804E+03  0.82728226113E+03  0.13462583604E+03  0.11003380826E+04  0.00000000000E+00 0. -1.
        -13    1    3    3    0    0  0.82778115127E+03  0.82079665262E+03  0.17378203572E+03  0.11786131576E+04  0.00000000000E+00 0.  1.
         22    1    1    2    0    0 -0.15406793493E+04 -0.16480789138E+04 -0.72984802771E+03  0.23711885431E+04  0.00000000000E+00 0.  1.
<mgrwt>
<rscale>  0 0.46310029E+04</rscale>
<asrwt>0</asrwt>
<pdfrwt beam="1">  1        2 0.39012153E+00 0.46310029E+04</pdfrwt>
<pdfrwt beam="2">  1       -2 0.32528459E+00 0.46310029E+04</pdfrwt>
<totfact> 0.55245577E-02</totfact>
</mgrwt>
</event>
<event>
 6    1  0.6091287E-004  0.2242025E+04  0.7818608E-02  0.8501137E-01
         -2   -1    0    0    0  501 -0.00000000000E+00  0.00000000000E+00  0.44447734701E+03  0.44447734701E+03  0.00000000000E+00 0. -1.
          2   -1    0    0  501    0  0.00000000000E+00 -0.00000000000E+00 -0.28272966971E+04  0.28272966971E+04  0.00000000000E+00 0.  1.
         23    2    1    2    0    0 -0.12377823314E+03 -0.36020210909E+03 -0.27289571747E+04  0.27571110437E+04  0.96888781082E+02 0.  0.
         13    1    3    3    0    0 -0.78741293136E+02 -0.92238100242E+02 -0.84991079934E+03  0.85851990379E+03  0.00000000000E+00 0. -1.
        -13    1    3    3    0    0 -0.45036940007E+02 -0.26796400884E+03 -0.18790463753E+04  0.18985911399E+04  0.00000000000E+00 0.  1.
         22    1    1    2    0    0  0.12377823314E+03  0.36020210909E+03  0.34613782456E+03  0.51466300040E+03  0.00000000000E+00 0. -1.
<mgrwt>
<rscale>  0 0.22420253E+04</rscale>
<asrwt>0</asrwt>
<pdfrwt beam="1">  1        2 0.43496871E+00 0.22420253E+04</pdfrwt>
<pdfrwt beam="2">  1       -2 0.68381133E-01 0.22420253E+04</pdfrwt>
<totfact> 0.39686814E+00</totfact>
</mgrwt>
</event>
<event>
 6    1  0.6091287E-004  0.7766874E+03  0.7818608E-02  0.9594388E-01
         -2   -1    0    0    0  501 -0.00000000000E+00  0.00000000000E+00  0.10460233007E+03  0.10460233007E+03  0.00000000000E+00 0. -1.
          2   -1    0    0  501    0  0.00000000000E+00 -0.00000000000E+00 -0.14417541059E+04  0.14417541059E+04  0.00000000000E+00 0.  1.
         23    2    1    2    0    0 -0.34841036931E+03  0.15842063110E+03 -0.65429823809E+03  0.76355643864E+03  0.91789807804E+02 0.  0.
         11    1    3    3    0    0 -0.77921610615E+02  0.72288142602E+02 -0.13595640017E+03  0.17257316045E+03  0.00000000000E+00 0. -1.
        -11    1    3    3    0    0 -0.27048875870E+03  0.86132488498E+02 -0.51834183792E+03  0.59098327819E+03  0.00000000000E+00 0.  1.
         22    1    1    2    0    0  0.34841036931E+03 -0.15842063110E+03 -0.68285353771E+03  0.78279999730E+03  0.00000000000E+00 0. -1.
<mgrwt>
<rscale>  0 0.77668742E+03</rscale>
<asrwt>0</asrwt>
<pdfrwt beam="1">  1        2 0.22180831E+00 0.77668742E+03</pdfrwt>
<pdfrwt beam="2">  1       -2 0.16092667E-01 0.77668742E+03</pdfrwt>
<totfact> 0.43009292E+02</totfact>
</mgrwt>
</event>
<event>
 6    1  0.6091287E-004  0.8680663E+03  0.7818608E-02  0.9466405E-01
         -2   -1    0    0    0  501 -0.00000000000E+00  0.00000000000E+00  0.24899771012E+03  0.24899771012E+03  0.00000000000E+00 0. -1.
          2   -1    0    0  501    0  0.00000000000E+00 -0.00000000000E+00 -0.75657237135E+03  0.75657237135E+03  0.00000000000E+00 0.  1.
         23    2    1    2    0    0 -0.42614428789E+03 -0.46107105576E+02 -0.23650611007E+03  0.49841825142E+03  0.93599113036E+02 0.  0.
         11    1    3    3    0    0 -0.10897008324E+02  0.10871268026E+02  0.29911764756E+01  0.15680446282E+02  0.00000000000E+00 0.  1.
        -11    1    3    3    0    0 -0.41524727957E+03 -0.56978373602E+02 -0.23949728655E+03  0.48273780514E+03  0.00000000000E+00 0. -1.
         22    1    1    2    0    0  0.42614428789E+03  0.46107105576E+02 -0.27106855116E+03  0.50715183004E+03  0.00000000000E+00 0.  1.
<mgrwt>
<rscale>  0 0.86806633E+03</rscale>
<asrwt>0</asrwt>
<pdfrwt beam="1">  1        2 0.11639575E+00 0.86806633E+03</pdfrwt>
<pdfrwt beam="2">  1       -2 0.38307341E-01 0.86806633E+03</pdfrwt>
<totfact> 0.23940074E+02</totfact>
</mgrwt>
</event>
<event>
 6    1  0.6091287E-004  0.6326477E+03  0.7818608E-02  0.9839896E-01
         -2   -1    0    0    0  501 -0.00000000000E+00  0.00000000000E+00  0.37393047226E+02  0.37393047226E+02  0.00000000000E+00 0. -1.
          2   -1    0    0  501    0  0.00000000000E+00 -0.00000000000E+00 -0.26759192040E+04  0.26759192040E+04  0.00000000000E+00 0.  1.
         23    2    1    2    0    0  0.14069235353E+03  0.13030175721E+03 -0.23911464461E+04  0.24003112807E+04  0.84498706567E+02 0.  0.
         13    1    3    3    0    0  0.14876959955E+03  0.13163846284E+03 -0.21877511808E+04  0.21967513077E+04  0.00000000000E+00 0.  1.
        -13    1    3    3    0    0 -0.80772460135E+01 -0.13367056354E+01 -0.20339526529E+03  0.20355997305E+03  0.00000000000E+00 0. -1.
         22    1    1    2    0    0 -0.14069235353E+03 -0.13030175721E+03 -0.24737971062E+03  0.31300097045E+03  0.00000000000E+00 0. -1.
<mgrwt>
<rscale>  0 0.63264768E+03</rscale>
<asrwt>0</asrwt>
<pdfrwt beam="1">  1        2 0.41167985E+00 0.63264768E+03</pdfrwt>
<pdfrwt beam="2">  1       -2 0.57527768E-02 0.63264768E+03</pdfrwt>
<totfact> 0.48040809E+02</totfact>
</mgrwt>
</event>
<event>
 6    1  0.6091287E-004  0.9662247E+03  0.7818608E-02  0.9346385E-01
          2   -1    0    0  501    0  0.00000000000E+00  0.00000000000E+00  0.29598680956E+04  0.29598680956E+04  0.00000000000E+00 0.  1.
         -2   -1    0    0    0  501 -0.00000000000E+00 -0.00000000000E+00 -0.78854036719E+02  0.78854036719E+02  0.00000000000E+00 0. -1.
         23    2    1    2    0    0 -0.43997071472E+03  0.56804871650E+02  0.90560137236E+03  0.10141095014E+04  0.10725302762E+03 0.  0.
         13    1    3    3    0    0 -0.91654151731E+02  0.51421913090E+02  0.26173164726E+03  0.28204281919E+03  0.00000000000E+00 0. -1.
        -13    1    3    3    0    0 -0.34831656299E+03  0.53829585600E+01  0.64386972509E+03  0.73206668220E+03  0.00000000000E+00 0.  1.
         22    1    1    2    0    0  0.43997071472E+03 -0.56804871650E+02  0.19754126866E+04  0.20246126310E+04  0.00000000000E+00 0.  1.
<mgrwt>
<rscale>  0 0.96622471E+03</rscale>
<asrwt>0</asrwt>
<pdfrwt beam="1">  1        2 0.45536424E+00 0.96622471E+03</pdfrwt>
<pdfrwt beam="2">  1       -2 0.12131393E-01 0.96622471E+03</pdfrwt>
<totfact> 0.94811621E+01</totfact>
</mgrwt>
</event>
<event>
 6    1  0.6091287E-004  0.2285850E+04  0.7818608E-02  0.8483521E-01
          2   -1    0    0  501    0  0.00000000000E+00  0.00000000000E+00  0.10018592841E+04  0.10018592841E+04  0.00000000000E+00 0.  1.
         -2   -1    0    0    0  501 -0.00000000000E+00 -0.00000000000E+00 -0.13038538147E+04  0.13038538147E+04  0.00000000000E+00 0. -1.
         23    2    1    2    0    0  0.96615264596E+03  0.29759954349E+03  0.38269722090E+03  0.10847220185E+04  0.90267773878E+02 0.  0.
         11    1    3    3    0    0  0.43383700386E+03  0.10314097549E+03  0.13224523676E+03  0.46512515455E+03  0.00000000000E+00 0.  1.
        -11    1    3    3    0    0  0.53231564210E+03  0.19445856800E+03  0.25045198414E+03  0.61959686397E+03  0.00000000000E+00 0. -1.
         22    1    1    2    0    0 -0.96615264596E+03 -0.29759954349E+03 -0.68469175155E+03  0.12209910803E+04  0.00000000000E+00 0. -1.
<mgrwt>
<rscale>  0 0.22858504E+04</rscale>
<asrwt>0</asrwt>
<pdfrwt beam="1">  1        2 0.15413220E+00 0.22858504E+04</pdfrwt>
<pdfrwt beam="2">  1       -2 0.20059289E+00 0.22858504E+04</pdfrwt>
<totfact> 0.30046103E+00</totfact>
</mgrwt>
</event>
<event>
 6    1  0.6091287E-004  0.2333118E+04  0.7818608E-02  0.8464976E-01
          2   -1    0    0  501    0  0.00000000000E+00  0.00000000000E+00  0.10356347696E+04  0.10356347696E+04  0.00000000000E+00 0.  1.
         -2   -1    0    0    0  501 -0.00000000000E+00 -0.00000000000E+00 -0.13140346484E+04  0.13140346484E+04  0.00000000000E+00 0. -1.
         23    2    1    2    0    0  0.69251057333E+03 -0.81294175457E+03 -0.60827659089E+03  0.12319647005E+04  0.85389821577E+02 0.  0.
         13    1    3    3    0    0  0.23241173093E+03 -0.22717028603E+03 -0.15544701583E+03  0.36025730562E+03  0.00000000000E+00 0. -1.
        -13    1    3    3    0    0  0.46009884241E+03 -0.58577146855E+03 -0.45282957507E+03  0.87170739483E+03  0.00000000000E+00 0.  1.
         22    1    1    2    0    0 -0.69251057333E+03  0.81294175457E+03  0.32987671207E+03  0.11177047176E+04  0.00000000000E+00 0. -1.
<mgrwt>
<rscale>  0 0.23331181E+04</rscale>
<asrwt>0</asrwt>
<pdfrwt beam="1">  1        2 0.15932843E+00 0.23331181E+04</pdfrwt>
<pdfrwt beam="2">  1       -2 0.20215918E+00 0.23331181E+04</pdfrwt>
<totfact> 0.27816924E+00</totfact>
</mgrwt>
</event>
<event>
 6    1  0.6091287E-004  0.4490065E+04  0.7818608E-02  0.7912378E-01
         -2   -1    0    0    0  501 -0.00000000000E+00  0.00000000000E+00  0.14581376327E+04  0.14581376327E+04  0.00000000000E+00 0. -1.
          2   -1    0    0  501    0  0.00000000000E+00 -0.00000000000E+00 -0.34565808019E+04  0.34565808019E+04  0.00000000000E+00 0.  1.
         23    2    1    2    0    0 -0.74758569784E+03  0.21080703270E+04 -0.11997634769E+04  0.25396954600E+04  0.88180210416E+02 0.  0.
         11    1    3    3    0    0 -0.41318266896E+03  0.12531426049E+04 -0.74359194792E+03  0.15146007035E+04  0.00000000000E+00 0. -1.
        -11    1    3    3    0    0 -0.33440302888E+03  0.85492772217E+03 -0.45617152901E+03  0.10250947565E+04  0.00000000000E+00 0.  1.
         22    1    1    2    0    0  0.74758569784E+03 -0.21080703270E+04 -0.79867969223E+03  0.23750229746E+04  0.00000000000E+00 0. -1.
<mgrwt>
<rscale>  0 0.44900648E+04</rscale>
<asrwt>0</asrwt>
<pdfrwt beam="1">  1        2 0.53178165E+00 0.44900648E+04</pdfrwt>
<pdfrwt beam="2">  1       -2 0.22432887E+00 0.44900648E+04</pdfrwt>
<totfact> 0.61232532E-02</totfact>
</mgrwt>
</event>
<event>
 6    1  0.6091287E-004  0.7939562E+03  0.7818608E-02  0.9568807E-01
          2   -1    0    0  501    0  0.00000000000E+00  0.00000000000E+00  0.79086193048E+03  0.79086193048E+03  0.00000000000E+00 0.  1.
         -2   -1    0    0    0  501 -0.00000000000E+00 -0.00000000000E+00 -0.19926564035E+03  0.19926564035E+03  0.00000000000E+00 0. -1.
         23    2    1    2    0    0 -0.19674037155E+03 -0.14572238331E+03  0.68126693274E+03  0.72939281876E+03  0.89148547987E+02 0.  0.
         11    1    3    3    0    0 -0.98490237793E+02 -0.12376582912E+03  0.37462071288E+03  0.40664356127E+03  0.00000000000E+00 0. -1.
        -11    1    3    3    0    0 -0.98250133754E+02 -0.21956554186E+02  0.30664621986E+03  0.32274925749E+03  0.00000000000E+00 0.  1.
         22    1    1    2    0    0  0.19674037155E+03  0.14572238331E+03 -0.89670642619E+02  0.26073475208E+03  0.00000000000E+00 0. -1.
<mgrwt>
<rscale>  0 0.79395619E+03</rscale>
<asrwt>0</asrwt>
<pdfrwt beam="1">  1        2 0.12167106E+00 0.79395619E+03</pdfrwt>
<pdfrwt beam="2">  1       -2 0.30656253E-01 0.79395619E+03</pdfrwt>
<totfact> 0.34599856E+02</totfact>
</mgrwt>
</event>
<event>
 6    1  0.6091287E-004  0.6217314E+03  0.7818608E-02  0.9861319E-01
         -2   -1    0    0    0  501 -0.00000000000E+00  0.00000000000E+00  0.16637604187E+03  0.16637604187E+03  0.00000000000E+00 0. -1.
          2   -1    0    0  501    0  0.00000000000E+00 -0.00000000000E+00 -0.58083766725E+03  0.58083766725E+03  0.00000000000E+00 0.  1.
         23    2    1    2    0    0 -0.27630320014E+03 -0.88385754334E+02 -0.32177924719E+03  0.44267221244E+03  0.90891714522E+02 0.  0.
         11    1    3    3    0    0 -0.11054963527E+03 -0.73776076378E+02 -0.10491107938E+03  0.16932355383E+03  0.00000000000E+00 0. -1.
        -11    1    3    3    0    0 -0.16575356487E+03 -0.14609677957E+02 -0.21686816781E+03  0.27334865861E+03  0.00000000000E+00 0.  1.
         22    1    1    2    0    0  0.27630320014E+03  0.88385754334E+02 -0.92682378190E+02  0.30454149668E+03  0.00000000000E+00 0. -1.
<mgrwt>
<rscale>  0 0.62173136E+03</rscale>
<asrwt>0</asrwt>
<pdfrwt beam="1">  1        2 0.89359640E-01 0.62173136E+03</pdfrwt>
<pdfrwt beam="2">  1       -2 0.25596314E-01 0.62173136E+03</pdfrwt>
<totfact> 0.71213129E+02</totfact>
</mgrwt>
</event>
<event>
 6    1  0.6091287E-004  0.3450448E+04  0.7818608E-02  0.8125635E-01
          2   -1    0    0  501    0  0.00000000000E+00  0.00000000000E+00  0.22284085384E+04  0.22284085384E+04  0.00000000000E+00 0.  1.
         -2   -1    0    0    0  501 -0.00000000000E+00 -0.00000000000E+00 -0.13356607412E+04  0.13356607412E+04  0.00000000000E+00 0. -1.
         23    2    1    2    0    0  0.23542006624E+03  0.17052776504E+04  0.54414338993E+03  0.18076753872E+04  0.90574854024E+02 0.  0.
         11    1    3    3    0    0  0.14471303994E+03  0.73580377206E+03  0.25123268786E+03  0.79086466501E+03  0.00000000000E+00 0.  1.
        -11    1    3    3    0    0  0.90707026307E+02  0.96947387835E+03  0.29291070207E+03  0.10168107222E+04  0.00000000000E+00 0. -1.
         22    1    1    2    0    0 -0.23542006624E+03 -0.17052776504E+04  0.34860440729E+03  0.17563938924E+04  0.00000000000E+00 0.  1.
<mgrwt>
<rscale>  0 0.34504480E+04</rscale>
<asrwt>0</asrwt>
<pdfrwt beam="1">  1        2 0.34283208E+00 0.34504480E+04</pdfrwt>
<pdfrwt beam="2">  1       -2 0.20548627E+00 0.34504480E+04</pdfrwt>
<totfact> 0.50287151E-01</totfact>
</mgrwt>
</event>
<event>
 6    1  0.6091287E-004  0.1879146E+04  0.7818608E-02  0.8665307E-01
          2   -1    0    0  501    0  0.00000000000E+00  0.00000000000E+00  0.12164394149E+04  0.12164394149E+04  0.00000000000E+00 0.  1.
         -2   -1    0    0    0  501 -0.00000000000E+00 -0.00000000000E+00 -0.72572275062E+03  0.72572275062E+03  0.00000000000E+00 0. -1.
         23    2    1    2    0    0  0.66943969197E+03 -0.42730876233E+03 -0.26855851472E+03  0.84341693708E+03  0.92120434089E+02 0.  0.
         13    1    3    3    0    0  0.42912062539E+03 -0.22082381797E+03 -0.16757052336E+03  0.51086940603E+03  0.00000000000E+00 0. -1.
        -13    1    3    3    0    0  0.24031906658E+03 -0.20648494436E+03 -0.10098799136E+03  0.33254753105E+03  0.00000000000E+00 0.  1.
         22    1    1    2    0    0 -0.66943969197E+03  0.42730876233E+03  0.75927517896E+03  0.10987452284E+04  0.00000000000E+00 0.  1.
<mgrwt>
<rscale>  0 0.18791464E+04</rscale>
<asrwt>0</asrwt>
<pdfrwt beam="1">  1        2 0.18714453E+00 0.18791464E+04</pdfrwt>
<pdfrwt beam="2">  1       -2 0.11164965E+00 0.18791464E+04</pdfrwt>
<totfact> 0.11010468E+01</totfact>
</mgrwt>
</event>
<event>
 6    1  0.6091287E-004  0.3574115E+04  0.7818608E-02  0.8096447E-01
          2   -1    0    0  501    0  0.00000000000E+00  0.00000000000E+00  0.15508621695E+04  0.15508621695E+04  0.00000000000E+00 0. -1.
         -2   -1    0    0    0  501 -0.00000000000E+00 -0.00000000000E+00 -0.20592249103E+04  0.20592249103E+04  0.00000000000E+00 0.  1.
         23    2    1    2    0    0  0.87434513452E+03 -0.13190775988E+04 -0.10903349600E+04  0.19239267109E+04  0.90656152875E+02 0.  0.
         13    1    3    3    0    0  0.43329948818E+03 -0.58515396285E+03 -0.53102668863E+03  0.90118974181E+03  0.00000000000E+00 0.  1.
        -13    1    3    3    0    0  0.44104564634E+03 -0.73392363592E+03 -0.55930827136E+03  0.10227369691E+04  0.00000000000E+00 0. -1.
         22    1    1    2    0    0 -0.87434513452E+03  0.13190775988E+04  0.58197221915E+03  0.16861603689E+04  0.00000000000E+00 0. -1.
<mgrwt>
<rscale>  0 0.35741147E+04</rscale>
<asrwt>0</asrwt>
<pdfrwt beam="1">  1        2 0.23859418E+00 0.35741147E+04</pdfrwt>
<pdfrwt beam="2">  1       -2 0.31680383E+00 0.35741147E+04</pdfrwt>
<totfact> 0.24314637E-01</totfact>
</mgrwt>
</event>
<event>
 6    1  0.6091287E-004  0.2634723E+04  0.7818608E-02  0.8356501E-01
         -1   -1    0    0    0  501 -0.00000000000E+00  0.00000000000E+00  0.11345358925E+04  0.11345358925E+04  0.00000000000E+00 0. -1.
          1   -1    0    0  501    0  0.00000000000E+00 -0.00000000000E+00 -0.15296488666E+04  0.15296488666E+04  0.00000000000E+00 0.  1.
         23    2    1    2    0    0  0.78085800047E+03  0.40003891558E+03  0.79367392192E+03  0.11866920739E+04  0.92463143816E+02 0.  0.
         11    1    3    3    0    0  0.29264737231E+03  0.14935555153E+03  0.23809609945E+03  0.40575770832E+03  0.00000000000E+00 0. -1.
        -11    1    3    3    0    0  0.48821062816E+03  0.25068336404E+03  0.55557782248E+03  0.78093436554E+03  0.00000000000E+00 0.  1.
         22    1    1    2    0    0 -0.78085800047E+03 -0.40003891558E+03 -0.11887868960E+04  0.14774926852E+04  0.00000000000E+00 0.  1.
<mgrwt>
<rscale>  0 0.26347232E+04</rscale>
<asrwt>0</asrwt>
<pdfrwt beam="1">  1        1 0.23533059E+00 0.26347232E+04</pdfrwt>
<pdfrwt beam="2">  1       -1 0.17454398E+00 0.26347232E+04</pdfrwt>
<totfact> 0.12488273E+00</totfact>
</mgrwt>
</event>
<event>
 6    1  0.6091287E-004  0.1144869E+04  0.7818608E-02  0.9162530E-01
          2   -1    0    0  501    0  0.00000000000E+00  0.00000000000E+00  0.13302117595E+04  0.13302117595E+04  0.00000000000E+00 0.  1.
         -2   -1    0    0    0  501 -0.00000000000E+00 -0.00000000000E+00 -0.24633776040E+03  0.24633776040E+03  0.00000000000E+00 0. -1.
         23    2    1    2    0    0 -0.46256572317E+03 -0.32462844896E+03  0.63901303798E+03  0.85734721674E+03  0.85766597356E+02 0.  0.
         11    1    3    3    0    0 -0.16577767904E+03 -0.80103504644E+02  0.24857084029E+03  0.30933197857E+03  0.00000000000E+00 0. -1.
        -11    1    3    3    0    0 -0.29678804412E+03 -0.24452494432E+03  0.39044219769E+03  0.54801523817E+03  0.00000000000E+00 0.  1.
         22    1    1    2    0    0  0.46256572317E+03  0.32462844896E+03  0.44486096111E+03  0.71920230314E+03  0.00000000000E+00 0.  1.
<mgrwt>
<rscale>  0 0.11448692E+04</rscale>
<asrwt>0</asrwt>
<pdfrwt beam="1">  1        2 0.20464796E+00 0.11448692E+04</pdfrwt>
<pdfrwt beam="2">  1       -2 0.37898118E-01 0.11448692E+04</pdfrwt>
<totfact> 0.10321484E+02</totfact>
</mgrwt>
</event>
<event>
 6    1  0.6091287E-004  0.2211871E+04  0.7818608E-02  0.8513503E-01
          1   -1    0    0  501    0  0.00000000000E+00  0.00000000000E+00  0.13571076689E+04  0.13571076689E+04  0.00000000000E+00 0.  1.
         -1   -1    0    0    0  501 -0.00000000000E+00 -0.00000000000E+00 -0.90124996292E+03  0.90124996292E+03  0.00000000000E+00 0. -1.
         23    2    1    2    0    0  0.47612962702E+03  0.29271644397E+03  0.12005191686E+04  0.13272813556E+04  0.89706099711E+02 0.  0.
         11    1    3    3    0    0  0.35337226388E+03  0.18985033539E+03  0.93139337434E+03  0.10141048883E+04  0.00000000000E+00 0.  1.
        -11    1    3    3    0    0  0.12275736314E+03  0.10286610858E+03  0.26912579427E+03  0.31317646726E+03  0.00000000000E+00 0. -1.
         22    1    1    2    0    0 -0.47612962702E+03 -0.29271644397E+03 -0.74466146263E+03  0.93107627626E+03  0.00000000000E+00 0. -1.
<mgrwt>
<rscale>  0 0.22118709E+04</rscale>
<asrwt>0</asrwt>
<pdfrwt beam="1">  1        1 0.20878579E+00 0.22118709E+04</pdfrwt>
<pdfrwt beam="2">  1       -1 0.13865384E+00 0.22118709E+04</pdfrwt>
<totfact> 0.32253477E+00</totfact>
</mgrwt>
</event>
<event>
 6    1  0.6091287E-004  0.2955355E+04  0.7818608E-02  0.8256596E-01
          2   -1    0    0  501    0  0.00000000000E+00  0.00000000000E+00  0.93755468955E+03  0.93755468955E+03  0.00000000000E+00 0.  1.
         -2   -1    0    0    0  501 -0.00000000000E+00 -0.00000000000E+00 -0.23289637722E+04  0.23289637722E+04  0.00000000000E+00 0. -1.
         23    2    1    2    0    0  0.66740259532E+03 -0.10266103072E+02 -0.21517010514E+04  0.22547993828E+04  0.93654817388E+02 0.  0.
         11    1    3    3    0    0  0.37138850679E+03 -0.17094904178E+02 -0.13464933923E+04  0.13968772724E+04  0.00000000000E+00 0.  1.
        -11    1    3    3    0    0  0.29601408853E+03  0.68288011055E+01 -0.80520765912E+03  0.85792211035E+03  0.00000000000E+00 0. -1.
         22    1    1    2    0    0 -0.66740259532E+03  0.10266103072E+02  0.76029196873E+03  0.10117190790E+04  0.00000000000E+00 0.  1.
<mgrwt>
<rscale>  0 0.29553551E+04</rscale>
<asrwt>0</asrwt>
<pdfrwt beam="1">  1        2 0.14423918E+00 0.29553551E+04</pdfrwt>
<pdfrwt beam="2">  1       -2 0.35830211E+00 0.29553551E+04</pdfrwt>
<totfact> 0.32763420E-01</totfact>
</mgrwt>
</event>
<event>
 6    1  0.6091287E-004  0.1534789E+04  0.7818608E-02  0.8861642E-01
          2   -1    0    0  501    0  0.00000000000E+00  0.00000000000E+00  0.58337458402E+03  0.58337458402E+03  0.00000000000E+00 0.  1.
         -2   -1    0    0    0  501 -0.00000000000E+00 -0.00000000000E+00 -0.10094622620E+04  0.10094622620E+04  0.00000000000E+00 0. -1.
         23    2    1    2    0    0  0.13671576991E+03 -0.56922067691E+01 -0.99460802346E+03  0.10080813533E+04  0.90880644627E+02 0.  0.
         13    1    3    3    0    0  0.96907984707E+02  0.37880029462E+02 -0.69106509936E+03  0.69885408040E+03  0.00000000000E+00 0. -1.
        -13    1    3    3    0    0  0.39807785203E+02 -0.43572236231E+02 -0.30354292410E+03  0.30922727290E+03  0.00000000000E+00 0.  1.
         22    1    1    2    0    0 -0.13671576991E+03  0.56922067691E+01  0.56852034551E+03  0.58475549268E+03  0.00000000000E+00 0.  1.
<mgrwt>
<rscale>  0 0.15347894E+04</rscale>
<asrwt>0</asrwt>
<pdfrwt beam="1">  1        2 0.89749937E-01 0.15347894E+04</pdfrwt>
<pdfrwt beam="2">  1       -2 0.15530189E+00 0.15347894E+04</pdfrwt>
<totfact> 0.13491858E+01</totfact>
</mgrwt>
</event>
<event>
 6    1  0.6091287E-004  0.2438937E+04  0.7818608E-02  0.8425068E-01
          2   -1    0    0  501    0  0.00000000000E+00  0.00000000000E+00  0.22915231802E+04  0.22915231802E+04  0.00000000000E+00 0.  1.
         -2   -1    0    0    0  501 -0.00000000000E+00 -0.00000000000E+00 -0.64895842266E+03  0.64895842266E+03  0.00000000000E+00 0. -1.
         23    2    1    2    0    0  0.54742973328E+03 -0.18533498600E+03 -0.46990966463E+03  0.75037280323E+03  0.90641497116E+02 0.  0.
         13    1    3    3    0    0  0.34220321231E+03 -0.13867168480E+03 -0.24955627842E+03  0.44565817706E+03  0.00000000000E+00 0.  1.
        -13    1    3    3    0    0  0.20522652096E+03 -0.46663301203E+02 -0.22035338621E+03  0.30471462617E+03  0.00000000000E+00 0. -1.
         22    1    1    2    0    0 -0.54742973328E+03  0.18533498600E+03  0.21124744222E+04  0.21901087997E+04  0.00000000000E+00 0.  1.
<mgrwt>
<rscale>  0 0.24389369E+04</rscale>
<asrwt>0</asrwt>
<pdfrwt beam="1">  1        2 0.35254202E+00 0.24389369E+04</pdfrwt>
<pdfrwt beam="2">  1       -2 0.99839758E-01 0.24389369E+04</pdfrwt>
<totfact> 0.34065466E+00</totfact>
</mgrwt>
</event>
<event>
 6    1  0.6091287E-004  0.4069058E+04  0.7818608E-02  0.7990758E-01
          2   -1    0    0  501    0  0.00000000000E+00  0.00000000000E+00  0.20687784659E+04  0.20687784659E+04  0.00000000000E+00 0.  1.
         -2   -1    0    0    0  501 -0.00000000000E+00 -0.00000000000E+00 -0.20008466648E+04  0.20008466648E+04  0.00000000000E+00 0. -1.
         23    2    1    2    0    0 -0.54258858070E+03 -0.67712369979E+03  0.18733344230E+04  0.20665331457E+04  0.90986312864E+02 0.  0.
         11    1    3    3    0    0 -0.20846967912E+03 -0.32428177020E+03  0.77961836751E+03  0.86972586057E+03  0.00000000000E+00 0.  1.
        -11    1    3    3    0    0 -0.33411890159E+03 -0.35284192958E+03  0.10937160555E+04  0.11968072852E+04  0.00000000000E+00 0. -1.
         22    1    1    2    0    0  0.54258858070E+03  0.67712369979E+03 -0.18054026219E+04  0.20030919849E+04  0.00000000000E+00 0. -1.
<mgrwt>
<rscale>  0 0.40690581E+04</rscale>
<asrwt>0</asrwt>
<pdfrwt beam="1">  1        2 0.31827361E+00 0.40690581E+04</pdfrwt>
<pdfrwt beam="2">  1       -2 0.30782257E+00 0.40690581E+04</pdfrwt>
<totfact> 0.13656285E-01</totfact>
</mgrwt>
</event>
<event>
 6    1  0.6091287E-004  0.3254552E+04  0.7818608E-02  0.8174557E-01
         -2   -1    0    0    0  501 -0.00000000000E+00  0.00000000000E+00  0.11285358392E+04  0.11285358392E+04  0.00000000000E+00 0. -1.
          2   -1    0    0  501    0  0.00000000000E+00 -0.00000000000E+00 -0.23464275973E+04  0.23464275973E+04  0.00000000000E+00 0.  1.
         23    2    1    2    0    0 -0.12737898771E+04 -0.35997771199E+03  0.39881414170E+03  0.13854987753E+04  0.91812485913E+02 0.  0.
         11    1    3    3    0    0 -0.17651871988E+03 -0.38327004019E+02  0.85873568900E+02  0.20000521878E+03  0.00000000000E+00 0. -1.
        -11    1    3    3    0    0 -0.10972711572E+04 -0.32165070797E+03  0.31294057280E+03  0.11854935565E+04  0.00000000000E+00 0.  1.
         22    1    1    2    0    0  0.12737898771E+04  0.35997771199E+03 -0.16167058998E+04  0.20894646612E+04  0.00000000000E+00 0.  1.
<mgrwt>
<rscale>  0 0.32545523E+04</rscale>
<asrwt>0</asrwt>
<pdfrwt beam="1">  1        2 0.36098886E+00 0.32545523E+04</pdfrwt>
<pdfrwt beam="2">  1       -2 0.17362090E+00 0.32545523E+04</pdfrwt>
<totfact> 0.71849481E-01</totfact>
</mgrwt>
</event>
<event>
 6    1  0.6091287E-004  0.2802583E+04  0.7818608E-02  0.8302467E-01
         -2   -1    0    0    0  501 -0.00000000000E+00  0.00000000000E+00  0.12913723494E+04  0.12913723494E+04  0.00000000000E+00 0.  1.
          2   -1    0    0  501    0  0.00000000000E+00 -0.00000000000E+00 -0.15205672331E+04  0.15205672331E+04  0.00000000000E+00 0. -1.
         23    2    1    2    0    0  0.93991323694E+03  0.10351754326E+04 -0.17152056818E+03  0.14125284935E+04  0.10388633419E+03 0.  0.
         11    1    3    3    0    0  0.39233558538E+03  0.38208612895E+03 -0.28924397413E+02  0.54841010408E+03  0.00000000000E+00 0.  1.
        -11    1    3    3    0    0  0.54757765156E+03  0.65308930367E+03 -0.14259617076E+03  0.86411838944E+03  0.00000000000E+00 0. -1.
         22    1    1    2    0    0 -0.93991323694E+03 -0.10351754326E+04 -0.57674315436E+02  0.13994110890E+04  0.00000000000E+00 0. -1.
<mgrwt>
<rscale>  0 0.28025834E+04</rscale>
<asrwt>0</asrwt>
<pdfrwt beam="1">  1        2 0.23393342E+00 0.28025834E+04</pdfrwt>
<pdfrwt beam="2">  1       -2 0.19867267E+00 0.28025834E+04</pdfrwt>
<totfact> 0.14592237E+00</totfact>
</mgrwt>
</event>
<event>
 6    1  0.6091287E-004  0.1269342E+04  0.7818608E-02  0.9054237E-01
          2   -1    0    0  501    0  0.00000000000E+00  0.00000000000E+00  0.10127328239E+04  0.10127328239E+04  0.00000000000E+00 0.  1.
         -2   -1    0    0    0  501 -0.00000000000E+00 -0.00000000000E+00 -0.39774272873E+03  0.39774272873E+03  0.00000000000E+00 0. -1.
         23    2    1    2    0    0  0.15455299193E+03  0.57858529276E+03  0.53286452203E+03  0.80599877224E+03  0.83915753596E+02 0.  0.
         11    1    3    3    0    0  0.18659698898E+02  0.17245073664E+03  0.19107521231E+03  0.25806428984E+03  0.00000000000E+00 0. -1.
        -11    1    3    3    0    0  0.13589329303E+03  0.40613455612E+03  0.34178930972E+03  0.54793448240E+03  0.00000000000E+00 0.  1.
         22    1    1    2    0    0 -0.15455299193E+03 -0.57858529276E+03  0.82125573186E+02  0.60447678043E+03  0.00000000000E+00 0.  1.
<mgrwt>
<rscale>  0 0.12693417E+04</rscale>
<asrwt>0</asrwt>
<pdfrwt beam="1">  1        2 0.15580505E+00 0.12693417E+04</pdfrwt>
<pdfrwt beam="2">  1       -2 0.61191189E-01 0.12693417E+04</pdfrwt>
<totfact> 0.60321831E+01</totfact>
</mgrwt>
</event>
<event>
 6    1  0.6091287E-004  0.3055170E+04  0.7818608E-02  0.8228150E-01
          2   -1    0    0  501    0  0.00000000000E+00  0.00000000000E+00  0.13537983275E+04  0.13537983275E+04  0.00000000000E+00 0.  1.
         -2   -1    0    0    0  501 -0.00000000000E+00 -0.00000000000E+00 -0.17236811269E+04  0.17236811269E+04  0.00000000000E+00 0. -1.
         23    2    1    2    0    0 -0.86553536068E+03  0.87943573630E+02  0.10781293181E+04  0.13882119726E+04  0.88792577249E+02 0.  0.
         13    1    3    3    0    0 -0.57952577820E+03  0.96199437920E+02  0.69462595299E+03  0.90973055024E+03  0.00000000000E+00 0.  1.
        -13    1    3    3    0    0 -0.28600958248E+03 -0.82558642907E+01  0.38350336509E+03  0.47848142241E+03  0.00000000000E+00 0. -1.
         22    1    1    2    0    0  0.86553536068E+03 -0.87943573630E+02 -0.14480121174E+04  0.16892674818E+04  0.00000000000E+00 0. -1.
<mgrwt>
<rscale>  0 0.30551705E+04</rscale>
<asrwt>0</asrwt>
<pdfrwt beam="1">  1        2 0.20827667E+00 0.30551705E+04</pdfrwt>
<pdfrwt beam="2">  1       -2 0.26518171E+00 0.30551705E+04</pdfrwt>
<totfact> 0.67994590E-01</totfact>
</mgrwt>
</event>
<event>
 6    1  0.6091287E-004  0.1637561E+04  0.7818608E-02  0.8797800E-01
          2   -1    0    0  501    0  0.00000000000E+00  0.00000000000E+00  0.25930398707E+04  0.25930398707E+04  0.00000000000E+00 0.  1.
         -2   -1    0    0    0  501 -0.00000000000E+00 -0.00000000000E+00 -0.25853876936E+03  0.25853876936E+03  0.00000000000E+00 0. -1.
         23    2    1    2    0    0  0.29836940261E+03 -0.60036084122E+03  0.36008915247E+03  0.76645035050E+03  0.91238708715E+02 0.  0.
         11    1    3    3    0    0  0.99136525282E+02 -0.23959225206E+03  0.93589766636E+02  0.27566563498E+03  0.00000000000E+00 0.  1.
        -11    1    3    3    0    0  0.19923287733E+03 -0.36076858916E+03  0.26649938583E+03  0.49078471551E+03  0.00000000000E+00 0. -1.
         22    1    1    2    0    0 -0.29836940261E+03  0.60036084122E+03  0.19744119489E+04  0.20851282896E+04  0.00000000000E+00 0.  1.
<mgrwt>
<rscale>  0 0.16375608E+04</rscale>
<asrwt>0</asrwt>
<pdfrwt beam="1">  1        2 0.39892919E+00 0.16375608E+04</pdfrwt>
<pdfrwt beam="2">  1       -2 0.39775197E-01 0.16375608E+04</pdfrwt>
<totfact> 0.17608912E+01</totfact>
</mgrwt>
</event>
<event>
 6    1  0.6091287E-004  0.1469504E+04  0.7818608E-02  0.8904990E-01
         -2   -1    0    0    0  501 -0.00000000000E+00  0.00000000000E+00  0.36836949612E+03  0.36836949612E+03  0.00000000000E+00 0. -1.
          2   -1    0    0  501    0  0.00000000000E+00 -0.00000000000E+00 -0.14655402203E+04  0.14655402203E+04  0.00000000000E+00 0.  1.
         23    2    1    2    0    0  0.40973678985E+03  0.19992377693E+03 -0.12653330621E+04  0.13479752296E+04  0.90087223507E+02 0.  0.
         13    1    3    3    0    0  0.30856994720E+03  0.10865235279E+03 -0.84532038965E+03  0.90641453388E+03  0.00000000000E+00 0. -1.
        -13    1    3    3    0    0  0.10116684265E+03  0.91271424142E+02 -0.42001267250E+03  0.44156069569E+03  0.00000000000E+00 0.  1.
         22    1    1    2    0    0 -0.40973678985E+03 -0.19992377693E+03  0.16816233801E+03  0.48593448680E+03  0.00000000000E+00 0. -1.
<mgrwt>
<rscale>  0 0.14695037E+04</rscale>
<asrwt>0</asrwt>
<pdfrwt beam="1">  1        2 0.22546773E+00 0.14695037E+04</pdfrwt>
<pdfrwt beam="2">  1       -2 0.56672229E-01 0.14695037E+04</pdfrwt>
<totfact> 0.37545057E+01</totfact>
</mgrwt>
</event>
<event>
 6    1  0.6091287E-004  0.2280851E+04  0.7818608E-02  0.8485510E-01
          2   -1    0    0  501    0  0.00000000000E+00  0.00000000000E+00  0.12747002172E+04  0.12747002172E+04  0.00000000000E+00 0.  1.
         -2   -1    0    0    0  501 -0.00000000000E+00 -0.00000000000E+00 -0.10202948293E+04  0.10202948293E+04  0.00000000000E+00 0. -1.
         23    2    1    2    0    0  0.49322928869E+03  0.90151257213E+03  0.62075665813E+03  0.12040260726E+04  0.91323084910E+02 0.  0.
         13    1    3    3    0    0  0.23953867376E+03  0.39711259397E+03  0.23225613817E+03  0.51867147814E+03  0.00000000000E+00 0.  1.
        -13    1    3    3    0    0  0.25369061493E+03  0.50439997816E+03  0.38850051997E+03  0.68535459442E+03  0.00000000000E+00 0. -1.
         22    1    1    2    0    0 -0.49322928869E+03 -0.90151257213E+03 -0.36635127023E+03  0.10909689740E+04  0.00000000000E+00 0. -1.
<mgrwt>
<rscale>  0 0.22808508E+04</rscale>
<asrwt>0</asrwt>
<pdfrwt beam="1">  1        2 0.19610772E+00 0.22808508E+04</pdfrwt>
<pdfrwt beam="2">  1       -2 0.15696844E+00 0.22808508E+04</pdfrwt>
<totfact> 0.41214689E+00</totfact>
</mgrwt>
</event>
<event>
 6    1  0.6091287E-004  0.2021768E+04  0.7818608E-02  0.8596510E-01
          2   -1    0    0  501    0  0.00000000000E+00  0.00000000000E+00  0.10786769269E+04  0.10786769269E+04  0.00000000000E+00 0.  1.
         -2   -1    0    0    0  501 -0.00000000000E+00 -0.00000000000E+00 -0.94735186592E+03  0.94735186592E+03  0.00000000000E+00 0. -1.
         23    2    1    2    0    0 -0.44984749571E+03  0.46059853418E+03 -0.71258558701E+03  0.96456802535E+03  0.89997097891E+02 0.  0.
         13    1    3    3    0    0 -0.43486264746E+02  0.90359078809E+02 -0.10469236281E+03  0.14497002854E+03  0.00000000000E+00 0. -1.
        -13    1    3    3    0    0 -0.40636123096E+03  0.37023945537E+03 -0.60789322421E+03  0.81959799681E+03  0.00000000000E+00 0.  1.
         22    1    1    2    0    0  0.44984749571E+03 -0.46059853418E+03  0.84391064803E+03  0.10614607675E+04  0.00000000000E+00 0.  1.
<mgrwt>
<rscale>  0 0.20217681E+04</rscale>
<asrwt>0</asrwt>
<pdfrwt beam="1">  1        2 0.16595030E+00 0.20217681E+04</pdfrwt>
<pdfrwt beam="2">  1       -2 0.14574644E+00 0.20217681E+04</pdfrwt>
<totfact> 0.67339542E+00</totfact>
</mgrwt>
</event>
<event>
 6    1  0.6091287E-004  0.2098774E+04  0.7818608E-02  0.8561783E-01
          2   -1    0    0  501    0  0.00000000000E+00  0.00000000000E+00  0.19493323799E+04  0.19493323799E+04  0.00000000000E+00 0.  1.
         -2   -1    0    0    0  501 -0.00000000000E+00 -0.00000000000E+00 -0.56491828535E+03  0.56491828535E+03  0.00000000000E+00 0. -1.
         23    2    1    2    0    0 -0.37126587787E+03 -0.97272723964E+03  0.83061050975E+03  0.13349563655E+04  0.90321892040E+02 0.  0.
         11    1    3    3    0    0 -0.24159571504E+03 -0.71603996606E+03  0.56599129149E+03  0.94415457663E+03  0.00000000000E+00 0.  1.
        -11    1    3    3    0    0 -0.12967016283E+03 -0.25668727358E+03  0.26461921826E+03  0.39080178891E+03  0.00000000000E+00 0. -1.
         22    1    1    2    0    0  0.37126587787E+03  0.97272723964E+03  0.55380358481E+03  0.11792942997E+04  0.00000000000E+00 0.  1.
<mgrwt>
<rscale>  0 0.20987744E+04</rscale>
<asrwt>0</asrwt>
<pdfrwt beam="1">  1        2 0.29989729E+00 0.20987744E+04</pdfrwt>
<pdfrwt beam="2">  1       -2 0.86910506E-01 0.20987744E+04</pdfrwt>
<totfact> 0.75241205E+00</totfact>
</mgrwt>
</event>
<event>
 6    1  0.8074788E-004  0.3708608E+04  0.7818608E-02  0.8066057E-01
         -2   -1    0    0    0  501 -0.00000000000E+00  0.00000000000E+00  0.13577386275E+04  0.13577386275E+04  0.00000000000E+00 0.  1.
          2   -1    0    0  501    0  0.00000000000E+00 -0.00000000000E+00 -0.25324775745E+04  0.25324775745E+04  0.00000000000E+00 0. -1.
         23    2    1    2    0    0 -0.12913787337E+04  0.24995040092E+03 -0.19567120987E+04  0.23599821523E+04  0.10324381401E+03 0.  0.
         13    1    3    3    0    0 -0.33086003168E+03  0.45620450567E+02 -0.42544224736E+03  0.54087955398E+03  0.00000000000E+00 0. -1.
        -13    1    3    3    0    0 -0.96051870204E+03  0.20432995036E+03 -0.15312698514E+04  0.18191025983E+04  0.00000000000E+00 0.  1.
         22    1    1    2    0    0  0.12913787337E+04 -0.24995040092E+03  0.78197315167E+03  0.15302340497E+04  0.00000000000E+00 0.  1.
<mgrwt>
<rscale>  0 0.37086076E+04</rscale>
<asrwt>0</asrwt>
<pdfrwt beam="1">  1        2 0.38961193E+00 0.37086076E+04</pdfrwt>
<pdfrwt beam="2">  1       -2 0.20888287E+00 0.37086076E+04</pdfrwt>
<totfact> 0.31344546E-01</totfact>
</mgrwt>
</event>
<event>
 6    1  0.6091287E-004  0.1933638E+04  0.7818608E-02  0.8638291E-01
         -2   -1    0    0    0  501 -0.00000000000E+00  0.00000000000E+00  0.69618598634E+03  0.69618598634E+03  0.00000000000E+00 0. -1.
          2   -1    0    0  501    0  0.00000000000E+00 -0.00000000000E+00 -0.13426569121E+04  0.13426569121E+04  0.00000000000E+00 0.  1.
         23    2    1    2    0    0 -0.16990753865E+03  0.59273287118E+03 -0.11060747138E+04  0.12697938297E+04  0.93671068969E+02 0.  0.
         11    1    3    3    0    0 -0.14104584822E+03  0.40378981505E+03 -0.83415719265E+03  0.93742112633E+03  0.00000000000E+00 0.  1.
        -11    1    3    3    0    0 -0.28861690431E+02  0.18894305613E+03 -0.27191752110E+03  0.33237270333E+03  0.00000000000E+00 0. -1.
         22    1    1    2    0    0  0.16990753865E+03 -0.59273287118E+03  0.45960378799E+03  0.76904906879E+03  0.00000000000E+00 0. -1.
<mgrwt>
<rscale>  0 0.19336379E+04</rscale>
<asrwt>0</asrwt>
<pdfrwt beam="1">  1        2 0.20656260E+00 0.19336379E+04</pdfrwt>
<pdfrwt beam="2">  1       -2 0.10710554E+00 0.19336379E+04</pdfrwt>
<totfact> 0.10221851E+01</totfact>
</mgrwt>
</event>
<event>
 6    1  0.6091287E-004  0.3458973E+04  0.7818608E-02  0.8123582E-01
         -2   -1    0    0    0  501 -0.00000000000E+00  0.00000000000E+00  0.85198220259E+03  0.85198220259E+03  0.00000000000E+00 0. -1.
          2   -1    0    0  501    0  0.00000000000E+00 -0.00000000000E+00 -0.35107825905E+04  0.35107825905E+04  0.00000000000E+00 0.  1.
         23    2    1    2    0    0  0.15520418937E+04 -0.45964448071E+03 -0.56636709309E+03  0.17173188606E+04  0.91133397733E+02 0.  0.
         13    1    3    3    0    0  0.12741852543E+04 -0.35159572478E+03 -0.48858436763E+03  0.14092133622E+04  0.00000000000E+00 0.  1.
        -13    1    3    3    0    0  0.27785663947E+03 -0.10804875593E+03 -0.77782725466E+02  0.30810549839E+03  0.00000000000E+00 0. -1.
         22    1    1    2    0    0 -0.15520418937E+04  0.45964448071E+03 -0.20924332948E+04  0.26454459325E+04  0.00000000000E+00 0.  1.
<mgrwt>
<rscale>  0 0.34589734E+04</rscale>
<asrwt>0</asrwt>
<pdfrwt beam="1">  1        2 0.54012039E+00 0.34589734E+04</pdfrwt>
<pdfrwt beam="2">  1       -2 0.13107419E+00 0.34589734E+04</pdfrwt>
<totfact> 0.27971525E-01</totfact>
</mgrwt>
</event>
<event>
 6    1  0.6091287E-004  0.2046345E+04  0.7818608E-02  0.8585254E-01
          2   -1    0    0  501    0  0.00000000000E+00  0.00000000000E+00  0.24528711733E+04  0.24528711733E+04  0.00000000000E+00 0.  1.
         -2   -1    0    0    0  501 -0.00000000000E+00 -0.00000000000E+00 -0.42679865462E+03  0.42679865462E+03  0.00000000000E+00 0. -1.
         23    2    1    2    0    0  0.58353903229E+03 -0.79515686327E+03  0.64227544586E+03  0.11803503823E+04  0.88977734852E+02 0.  0.
         13    1    3    3    0    0  0.51572178290E+03 -0.64973954514E+03  0.52701781605E+03  0.98279103186E+03  0.00000000000E+00 0. -1.
        -13    1    3    3    0    0  0.67817249386E+02 -0.14541731813E+03  0.11525762981E+03  0.19755935047E+03  0.00000000000E+00 0.  1.
         22    1    1    2    0    0 -0.58353903229E+03  0.79515686327E+03  0.13837970728E+04  0.16993194456E+04  0.00000000000E+00 0.  1.
<mgrwt>
<rscale>  0 0.20463451E+04</rscale>
<asrwt>0</asrwt>
<pdfrwt beam="1">  1        2 0.37736479E+00 0.20463451E+04</pdfrwt>
<pdfrwt beam="2">  1       -2 0.65661333E-01 0.20463451E+04</pdfrwt>
<totfact> 0.73308029E+00</totfact>
</mgrwt>
</event>
<event>
 6    1  0.6091287E-004  0.2288007E+04  0.7818608E-02  0.8482665E-01
         -2   -1    0    0    0  501 -0.00000000000E+00  0.00000000000E+00  0.30255359775E+03  0.30255359775E+03  0.00000000000E+00 0. -1.
          2   -1    0    0  501    0  0.00000000000E+00 -0.00000000000E+00 -0.43256602703E+04  0.43256602703E+04  0.00000000000E+00 0.  1.
         23    2    1    2    0    0 -0.19969873727E+03  0.11201616130E+04 -0.22151028726E+04  0.24919743296E+04  0.92810012070E+02 0.  0.
         13    1    3    3    0    0 -0.15337172598E+03  0.78836425378E+03 -0.14721721558E+04  0.16770008764E+04  0.00000000000E+00 0.  1.
        -13    1    3    3    0    0 -0.46327011287E+02  0.33179735924E+03 -0.74293071674E+03  0.81497345321E+03  0.00000000000E+00 0. -1.
         22    1    1    2    0    0  0.19969873727E+03 -0.11201616130E+04 -0.18080038000E+04  0.21362395385E+04  0.00000000000E+00 0. -1.
<mgrwt>
<rscale>  0 0.22880071E+04</rscale>
<asrwt>0</asrwt>
<pdfrwt beam="1">  1        2 0.66548617E+00 0.22880071E+04</pdfrwt>
<pdfrwt beam="2">  1       -2 0.46546709E-01 0.22880071E+04</pdfrwt>
<totfact> 0.71994646E-01</totfact>
</mgrwt>
</event>
<event>
 6    1  0.6091287E-004  0.2899629E+04  0.7818608E-02  0.8272988E-01
         -2   -1    0    0    0  501 -0.00000000000E+00  0.00000000000E+00  0.11771802624E+04  0.11771802624E+04  0.00000000000E+00 0. -1.
          2   -1    0    0  501    0  0.00000000000E+00 -0.00000000000E+00 -0.17855901610E+04  0.17855901610E+04  0.00000000000E+00 0.  1.
         23    2    1    2    0    0  0.40305263155E+03 -0.78642441818E+03  0.86806825525E+03  0.12420430981E+04  0.90629865307E+02 0.  0.
         13    1    3    3    0    0  0.32874406294E+03 -0.68872756814E+03  0.77783523019E+03  0.10896999437E+04  0.00000000000E+00 0. -1.
        -13    1    3    3    0    0  0.74308568607E+02 -0.97696850042E+02  0.90233025061E+02  0.15234315439E+03  0.00000000000E+00 0.  1.
         22    1    1    2    0    0 -0.40305263155E+03  0.78642441818E+03 -0.14764781538E+04  0.17207273253E+04  0.00000000000E+00 0.  1.
<mgrwt>
<rscale>  0 0.28996286E+04</rscale>
<asrwt>0</asrwt>
<pdfrwt beam="1">  1        2 0.27470618E+00 0.28996286E+04</pdfrwt>
<pdfrwt beam="2">  1       -2 0.18110466E+00 0.28996286E+04</pdfrwt>
<totfact> 0.13517731E+00</totfact>
</mgrwt>
</event>
<event>
 6    1  0.6091287E-004  0.8380860E+03  0.7818608E-02  0.9506468E-01
          2   -1    0    0  501    0  0.00000000000E+00  0.00000000000E+00  0.24313686773E+04  0.24313686773E+04  0.00000000000E+00 0.  1.
         -2   -1    0    0    0  501 -0.00000000000E+00 -0.00000000000E+00 -0.72221484229E+02  0.72221484229E+02  0.00000000000E+00 0. -1.
         23    2    1    2    0    0 -0.18456972988E+03 -0.37087436324E+03  0.12119206877E+04  0.12838596859E+04  0.89051453550E+02 0.  0.
         11    1    3    3    0    0 -0.11361756061E+03 -0.29800784676E+03  0.98078814506E+03  0.10313403959E+04  0.00000000000E+00 0.  1.
        -11    1    3    3    0    0 -0.70952169266E+02 -0.72866516476E+02  0.23113254260E+03  0.25251928995E+03  0.00000000000E+00 0. -1.
         22    1    1    2    0    0  0.18456972988E+03  0.37087436324E+03  0.11472265055E+04  0.12197304757E+04  0.00000000000E+00 0.  1.
<mgrwt>
<rscale>  0 0.83808604E+03</rscale>
<asrwt>0</asrwt>
<pdfrwt beam="1">  1        2 0.37405666E+00 0.83808604E+03</pdfrwt>
<pdfrwt beam="2">  1       -2 0.11110999E-01 0.83808604E+03</pdfrwt>
<totfact> 0.22638858E+02</totfact>
</mgrwt>
</event>
<event>
 6    1  0.6091287E-004  0.1440468E+04  0.7818608E-02  0.8925035E-01
         -2   -1    0    0    0  501 -0.00000000000E+00  0.00000000000E+00  0.85879401745E+03  0.85879401745E+03  0.00000000000E+00 0. -1.
          2   -1    0    0  501    0  0.00000000000E+00 -0.00000000000E+00 -0.60402997097E+03  0.60402997097E+03  0.00000000000E+00 0.  1.
         23    2    1    2    0    0  0.32907798501E+03  0.23608851387E+03  0.72919453432E+03  0.83903364352E+03  0.90678991346E+02 0.  0.
         11    1    3    3    0    0  0.11922221110E+03  0.57937291087E+02  0.16832490344E+03  0.21425204418E+03  0.00000000000E+00 0. -1.
        -11    1    3    3    0    0  0.20985577390E+03  0.17815122278E+03  0.56086963088E+03  0.62478159934E+03  0.00000000000E+00 0.  1.
         22    1    1    2    0    0 -0.32907798501E+03 -0.23608851387E+03 -0.47443048784E+03  0.62379034490E+03  0.00000000000E+00 0.  1.
<mgrwt>
<rscale>  0 0.14404684E+04</rscale>
<asrwt>0</asrwt>
<pdfrwt beam="1">  1        2 0.92927689E-01 0.14404684E+04</pdfrwt>
<pdfrwt beam="2">  1       -2 0.13212216E+00 0.14404684E+04</pdfrwt>
<totfact> 0.19890134E+01</totfact>
</mgrwt>
</event>
<event>
 6    1  0.6091287E-004  0.2630351E+04  0.7818608E-02  0.8357964E-01
         -2   -1    0    0    0  501 -0.00000000000E+00  0.00000000000E+00  0.12615894176E+04  0.12615894176E+04  0.00000000000E+00 0. -1.
          2   -1    0    0  501    0  0.00000000000E+00 -0.00000000000E+00 -0.13710378516E+04  0.13710378516E+04  0.00000000000E+00 0.  1.
         23    2    1    2    0    0  0.29632584753E+03 -0.12719679358E+04  0.86200523370E+02  0.13120251519E+04  0.90928716142E+02 0.  0.
         11    1    3    3    0    0  0.15710878828E+03 -0.68333923490E+03  0.86920479439E+00  0.70116790915E+03  0.00000000000E+00 0. -1.
        -11    1    3    3    0    0  0.13921705926E+03 -0.58862870091E+03  0.85331318576E+02  0.61085724278E+03  0.00000000000E+00 0.  1.
         22    1    1    2    0    0 -0.29632584753E+03  0.12719679358E+04 -0.19564895729E+03  0.13206021173E+04  0.00000000000E+00 0.  1.
<mgrwt>
<rscale>  0 0.26303512E+04</rscale>
<asrwt>0</asrwt>
<pdfrwt beam="1">  1        2 0.21092890E+00 0.26303512E+04</pdfrwt>
<pdfrwt beam="2">  1       -2 0.19409068E+00 0.26303512E+04</pdfrwt>
<totfact> 0.19309047E+00</totfact>
</mgrwt>
</event>
<event>
 6    1  0.6091287E-004  0.2136436E+04  0.7818608E-02  0.8545361E-01
          2   -1    0    0  501    0  0.00000000000E+00  0.00000000000E+00  0.33172442327E+04  0.33172442327E+04  0.00000000000E+00 0.  1.
         -2   -1    0    0    0  501 -0.00000000000E+00 -0.00000000000E+00 -0.34398738472E+03  0.34398738472E+03  0.00000000000E+00 0. -1.
         23    2    1    2    0    0 -0.10007898083E+04  0.24411724380E+03  0.19609520195E+04  0.22169551429E+04  0.91563168092E+02 0.  0.
         13    1    3    3    0    0 -0.85360121055E+03  0.19816582312E+03  0.17296694886E+04  0.19389845950E+04  0.00000000000E+00 0. -1.
        -13    1    3    3    0    0 -0.14718859772E+03  0.45951420672E+02  0.23128253096E+03  0.27797054788E+03  0.00000000000E+00 0.  1.
         22    1    1    2    0    0  0.10007898083E+04 -0.24411724380E+03  0.10123048284E+04  0.14442764745E+04  0.00000000000E+00 0. -1.
<mgrwt>
<rscale>  0 0.21364364E+04</rscale>
<asrwt>0</asrwt>
<pdfrwt beam="1">  1        2 0.51034524E+00 0.21364364E+04</pdfrwt>
<pdfrwt beam="2">  1       -2 0.52921138E-01 0.21364364E+04</pdfrwt>
<totfact> 0.33663975E+00</totfact>
</mgrwt>
</event>
<event>
 6    1  0.6091287E-004  0.9869360E+03  0.7818608E-02  0.9322990E-01
         -2   -1    0    0    0  501 -0.00000000000E+00  0.00000000000E+00  0.23724596120E+03  0.23724596120E+03  0.00000000000E+00 0.  1.
          2   -1    0    0  501    0  0.00000000000E+00 -0.00000000000E+00 -0.10264059100E+04  0.10264059100E+04  0.00000000000E+00 0. -1.
         23    2    1    2    0    0 -0.31736732839E+03  0.97024437798E+02  0.62147913466E+02  0.34994467574E+03  0.91995381815E+02 0.  0.
         11    1    3    3    0    0 -0.21586781963E+03  0.66020921034E+02  0.85305212025E+02  0.24131857940E+03  0.00000000000E+00 0.  1.
        -11    1    3    3    0    0 -0.10149950876E+03  0.31003516764E+02 -0.23157298560E+02  0.10862609634E+03  0.00000000000E+00 0. -1.
         22    1    1    2    0    0  0.31736732839E+03 -0.97024437798E+02 -0.85130786222E+03  0.91370719541E+03  0.00000000000E+00 0. -1.
<mgrwt>
<rscale>  0 0.98693598E+03</rscale>
<asrwt>0</asrwt>
<pdfrwt beam="1">  1        2 0.15790860E+00 0.98693598E+03</pdfrwt>
<pdfrwt beam="2">  1       -2 0.36499380E-01 0.98693598E+03</pdfrwt>
<totfact> 0.17085590E+02</totfact>
</mgrwt>
</event>
<event>
 6    1  0.6091287E-004  0.3766710E+04  0.7818608E-02  0.8053337E-01
          2   -1    0    0  501    0  0.00000000000E+00  0.00000000000E+00  0.27166213902E+04  0.27166213902E+04  0.00000000000E+00 0.  1.
         -2   -1    0    0    0  501 -0.00000000000E+00 -0.00000000000E+00 -0.13056753795E+04  0.13056753795E+04  0.00000000000E+00 0. -1.
         23    2    1    2    0    0 -0.31571049245E+03 -0.44806044585E+03  0.26291672510E+04  0.26864471269E+04  0.63611743029E+02 0.  0.
         13    1    3    3    0    0 -0.66371666777E+02 -0.79669553945E+02  0.39202350249E+03  0.40550568736E+03  0.00000000000E+00 0. -1.
        -13    1    3    3    0    0 -0.24933882568E+03 -0.36839089190E+03  0.22371437485E+04  0.22809414395E+04  0.00000000000E+00 0.  1.
         22    1    1    2    0    0  0.31571049245E+03  0.44806044585E+03 -0.12182212403E+04  0.13358496429E+04  0.00000000000E+00 0. -1.
<mgrwt>
<rscale>  0 0.37667098E+04</rscale>
<asrwt>0</asrwt>
<pdfrwt beam="1">  1        2 0.41794175E+00 0.37667098E+04</pdfrwt>
<pdfrwt beam="2">  1       -2 0.20087314E+00 0.37667098E+04</pdfrwt>
<totfact> 0.27383965E-01</totfact>
</mgrwt>
</event>
<event>
 6    1  0.6091287E-004  0.1295908E+04  0.7818608E-02  0.9032816E-01
          2   -1    0    0  501    0  0.00000000000E+00  0.00000000000E+00  0.13711202003E+04  0.13711202003E+04  0.00000000000E+00 0.  1.
         -2   -1    0    0    0  501 -0.00000000000E+00 -0.00000000000E+00 -0.30620561681E+03  0.30620561681E+03  0.00000000000E+00 0. -1.
         23    2    1    2    0    0  0.62502065051E+03 -0.25563581388E+02  0.74001247865E+03  0.97243881342E+03  0.81941851500E+02 0.  0.
         11    1    3    3    0    0  0.22344092501E+03  0.22128077957E+02  0.22821411267E+03  0.32015180778E+03  0.00000000000E+00 0. -1.
        -11    1    3    3    0    0  0.40157972550E+03 -0.47691659345E+02  0.51179836598E+03  0.65228700564E+03  0.00000000000E+00 0.  1.
         22    1    1    2    0    0 -0.62502065051E+03  0.25563581388E+02  0.32490210485E+03  0.70488700371E+03  0.00000000000E+00 0.  1.
<mgrwt>
<rscale>  0 0.12959085E+04</rscale>
<asrwt>0</asrwt>
<pdfrwt beam="1">  1        2 0.21094157E+00 0.12959085E+04</pdfrwt>
<pdfrwt beam="2">  1       -2 0.47108557E-01 0.12959085E+04</pdfrwt>
<totfact> 0.62934668E+01</totfact>
</mgrwt>
</event>
<event>
 6    1  0.6091287E-004  0.3490260E+04  0.7818608E-02  0.8116102E-01
         -2   -1    0    0    0  501 -0.00000000000E+00  0.00000000000E+00  0.19784154013E+04  0.19784154013E+04  0.00000000000E+00 0. -1.
          2   -1    0    0  501    0  0.00000000000E+00 -0.00000000000E+00 -0.15393521638E+04  0.15393521638E+04  0.00000000000E+00 0.  1.
         23    2    1    2    0    0 -0.80343496980E+03  0.15305435832E+04 -0.12643604221E+02  0.17311197314E+04  0.92435126920E+02 0.  0.
         11    1    3    3    0    0 -0.41908311582E+03  0.85539111893E+03  0.30604878486E+02  0.95302743029E+03  0.00000000000E+00 0. -1.
        -11    1    3    3    0    0 -0.38435185398E+03  0.67515246431E+03 -0.43248482707E+02  0.77809230107E+03  0.00000000000E+00 0.  1.
         22    1    1    2    0    0  0.80343496980E+03 -0.15305435832E+04  0.45170684178E+03  0.17866478337E+04  0.00000000000E+00 0.  1.
<mgrwt>
<rscale>  0 0.34902596E+04</rscale>
<asrwt>0</asrwt>
<pdfrwt beam="1">  1        2 0.23682341E+00 0.34902596E+04</pdfrwt>
<pdfrwt beam="2">  1       -2 0.30437160E+00 0.34902596E+04</pdfrwt>
<totfact> 0.29635807E-01</totfact>
</mgrwt>
</event>
<event>
 6    1  0.6091287E-004  0.1631069E+04  0.7818608E-02  0.8801685E-01
          2   -1    0    0  501    0  0.00000000000E+00  0.00000000000E+00  0.18742766268E+04  0.18742766268E+04  0.00000000000E+00 0.  1.
         -2   -1    0    0    0  501 -0.00000000000E+00 -0.00000000000E+00 -0.35485495552E+03  0.35485495552E+03  0.00000000000E+00 0. -1.
         23    2    1    2    0    0  0.13286813410E+03 -0.67754447087E+03  0.13490041285E+04  0.15179617081E+04  0.87607976336E+02 0.  0.
         11    1    3    3    0    0  0.21726322569E+02 -0.31000946997E+03  0.55858778829E+03  0.63921688166E+03  0.00000000000E+00 0.  1.
        -11    1    3    3    0    0  0.11114181153E+03 -0.36753500090E+03  0.79041634024E+03  0.87874482649E+03  0.00000000000E+00 0. -1.
         22    1    1    2    0    0 -0.13286813410E+03  0.67754447087E+03  0.17041754275E+03  0.71116987418E+03  0.00000000000E+00 0. -1.
<mgrwt>
<rscale>  0 0.16310688E+04</rscale>
<asrwt>0</asrwt>
<pdfrwt beam="1">  1        2 0.28835024E+00 0.16310688E+04</pdfrwt>
<pdfrwt beam="2">  1       -2 0.54593071E-01 0.16310688E+04</pdfrwt>
<totfact> 0.23702801E+01</totfact>
</mgrwt>
</event>
<event>
 6    1  0.6091287E-004  0.2621427E+04  0.7818608E-02  0.8360959E-01
         -2   -1    0    0    0  501 -0.00000000000E+00  0.00000000000E+00  0.12564172302E+04  0.12564172302E+04  0.00000000000E+00 0. -1.
          2   -1    0    0  501    0  0.00000000000E+00 -0.00000000000E+00 -0.13673564098E+04  0.13673564098E+04  0.00000000000E+00 0.  1.
         23    2    1    2    0    0  0.13233203186E+03 -0.10020281760E+04  0.77730942773E+03  0.12782039390E+04  0.89571931948E+02 0.  0.
         13    1    3    3    0    0 -0.71680583562E+01 -0.13044009932E+03  0.12329184807E+03  0.17962984266E+03  0.00000000000E+00 0. -1.
        -13    1    3    3    0    0  0.13950009021E+03 -0.87158807667E+03  0.65401757965E+03  0.10985740963E+04  0.00000000000E+00 0.  1.
         22    1    1    2    0    0 -0.13233203186E+03  0.10020281760E+04 -0.88824860733E+03  0.13455697011E+04  0.00000000000E+00 0.  1.
<mgrwt>
<rscale>  0 0.26214272E+04</rscale>
<asrwt>0</asrwt>
<pdfrwt beam="1">  1        2 0.21036252E+00 0.26214272E+04</pdfrwt>
<pdfrwt beam="2">  1       -2 0.19329496E+00 0.26214272E+04</pdfrwt>
<totfact> 0.19656696E+00</totfact>
</mgrwt>
</event>
<event>
 6    1  0.6091287E-004  0.1627245E+04  0.7818608E-02  0.8803983E-01
         -2   -1    0    0    0  501 -0.00000000000E+00  0.00000000000E+00  0.31785863505E+03  0.31785863505E+03  0.00000000000E+00 0. -1.
          2   -1    0    0  501    0  0.00000000000E+00 -0.00000000000E+00 -0.20826288439E+04  0.20826288439E+04  0.00000000000E+00 0.  1.
         23    2    1    2    0    0 -0.62753755025E+03  0.30839474571E+03 -0.14912886543E+04  0.16496860026E+04  0.92797417975E+02 0.  0.
         11    1    3    3    0    0 -0.24682508760E+03  0.15697019497E+03 -0.69871788524E+03  0.75747537856E+03  0.00000000000E+00 0. -1.
        -11    1    3    3    0    0 -0.38071246266E+03  0.15142455074E+03 -0.79257076903E+03  0.89221062408E+03  0.00000000000E+00 0.  1.
         22    1    1    2    0    0  0.62753755025E+03 -0.30839474571E+03 -0.27348155458E+03  0.75080147632E+03  0.00000000000E+00 0. -1.
<mgrwt>
<rscale>  0 0.16272450E+04</rscale>
<asrwt>0</asrwt>
<pdfrwt beam="1">  1        2 0.32040445E+00 0.16272450E+04</pdfrwt>
<pdfrwt beam="2">  1       -2 0.48901326E-01 0.16272450E+04</pdfrwt>
<totfact> 0.22775925E+01</totfact>
</mgrwt>
</event>
<event>
 6    1  0.6091287E-004  0.4191111E+04  0.7818608E-02  0.7967065E-01
          2   -1    0    0  501    0  0.00000000000E+00  0.00000000000E+00  0.36848713260E+04  0.36848713260E+04  0.00000000000E+00 0.  1.
         -2   -1    0    0    0  501 -0.00000000000E+00 -0.00000000000E+00 -0.11917250963E+04  0.11917250963E+04  0.00000000000E+00 0. -1.
         23    2    1    2    0    0 -0.18952478337E+03 -0.17361237224E+04  0.25926359530E+04  0.31273270240E+04  0.91476267502E+02 0.  0.
         11    1    3    3    0    0 -0.10543357587E+03 -0.11054511064E+04  0.15734890383E+04  0.19258780182E+04  0.00000000000E+00 0. -1.
        -11    1    3    3    0    0 -0.84091207505E+02 -0.63067261598E+03  0.10191469147E+04  0.12014490058E+04  0.00000000000E+00 0.  1.
         22    1    1    2    0    0  0.18952478337E+03  0.17361237224E+04 -0.99489723171E+02  0.17492693983E+04  0.00000000000E+00 0. -1.
<mgrwt>
<rscale>  0 0.41911114E+04</rscale>
<asrwt>0</asrwt>
<pdfrwt beam="1">  1        2 0.56690328E+00 0.41911114E+04</pdfrwt>
<pdfrwt beam="2">  1       -2 0.18334232E+00 0.41911114E+04</pdfrwt>
<totfact> 0.79808836E-02</totfact>
</mgrwt>
</event>
<event>
 6    1  0.6091287E-004  0.1548952E+04  0.7818608E-02  0.8852537E-01
         -1   -1    0    0    0  501 -0.00000000000E+00  0.00000000000E+00  0.31241720589E+03  0.31241720589E+03  0.00000000000E+00 0. -1.
          1   -1    0    0  501    0  0.00000000000E+00 -0.00000000000E+00 -0.19199110881E+04  0.19199110881E+04  0.00000000000E+00 0.  1.
         23    2    1    2    0    0  0.40585755813E+03  0.63847472530E+03 -0.10252185875E+04  0.12776477971E+04  0.94553735563E+02 0.  0.
         13    1    3    3    0    0  0.56676603699E+02  0.16159395216E+03 -0.24064099632E+03  0.29535221667E+03  0.00000000000E+00 0.  1.
        -13    1    3    3    0    0  0.34918095443E+03  0.47688077314E+03 -0.78457759121E+03  0.98229558044E+03  0.00000000000E+00 0. -1.
         22    1    1    2    0    0 -0.40585755813E+03 -0.63847472530E+03 -0.58227529471E+03  0.95468049690E+03  0.00000000000E+00 0.  1.
<mgrwt>
<rscale>  0 0.15489522E+04</rscale>
<asrwt>0</asrwt>
<pdfrwt beam="1">  1        1 0.29537093E+00 0.15489522E+04</pdfrwt>
<pdfrwt beam="2">  1       -1 0.48064186E-01 0.15489522E+04</pdfrwt>
<totfact> 0.14084269E+01</totfact>
</mgrwt>
</event>
<event>
 6    1  0.6091287E-004  0.1962505E+04  0.7818608E-02  0.8624354E-01
          2   -1    0    0  501    0  0.00000000000E+00  0.00000000000E+00  0.50168871812E+03  0.50168871812E+03  0.00000000000E+00 0.  1.
         -2   -1    0    0    0  501 -0.00000000000E+00 -0.00000000000E+00 -0.19192312235E+04  0.19192312235E+04  0.00000000000E+00 0. -1.
         23    2    1    2    0    0 -0.27505815703E+02 -0.63369557444E+03  0.20996550056E+03  0.67417755639E+03  0.90017860169E+02 0.  0.
         11    1    3    3    0    0 -0.19838021845E+02 -0.69039296679E+02  0.49077240380E+02  0.86997397203E+02  0.00000000000E+00 0. -1.
        -11    1    3    3    0    0 -0.76677938571E+01 -0.56465627776E+03  0.16088826018E+03  0.58718015919E+03  0.00000000000E+00 0.  1.
         22    1    1    2    0    0  0.27505815703E+02  0.63369557444E+03 -0.16275080059E+04  0.17467423852E+04  0.00000000000E+00 0. -1.
<mgrwt>
<rscale>  0 0.19625052E+04</rscale>
<asrwt>0</asrwt>
<pdfrwt beam="1">  1        2 0.77182879E-01 0.19625052E+04</pdfrwt>
<pdfrwt beam="2">  1       -2 0.29526634E+00 0.19625052E+04</pdfrwt>
<totfact> 0.19439757E+00</totfact>
</mgrwt>
</event>
<event>
 6    1  0.6091287E-004  0.3085210E+04  0.7818608E-02  0.8219809E-01
         -2   -1    0    0    0  501 -0.00000000000E+00  0.00000000000E+00  0.52150501024E+03  0.52150501024E+03  0.00000000000E+00 0. -1.
          2   -1    0    0  501    0  0.00000000000E+00 -0.00000000000E+00 -0.45630058801E+04  0.45630058801E+04  0.00000000000E+00 0.  1.
         23    2    1    2    0    0  0.25601917708E+03 -0.34134438390E+03 -0.44632949993E+04  0.44845341448E+04  0.89344487054E+02 0.  0.
         11    1    3    3    0    0  0.57905540237E+02 -0.13381586087E+03 -0.17722032170E+04  0.17781912098E+04  0.00000000000E+00 0. -1.
        -11    1    3    3    0    0  0.19811363685E+03 -0.20752852302E+03 -0.26910917823E+04  0.27063429350E+04  0.00000000000E+00 0.  1.
         22    1    1    2    0    0 -0.25601917708E+03  0.34134438390E+03  0.42179412951E+03  0.59997674550E+03  0.00000000000E+00 0. -1.
<mgrwt>
<rscale>  0 0.30852102E+04</rscale>
<asrwt>0</asrwt>
<pdfrwt beam="1">  1        2 0.70200091E+00 0.30852102E+04</pdfrwt>
<pdfrwt beam="2">  1       -2 0.80231539E-01 0.30852102E+04</pdfrwt>
<totfact> 0.12418414E-01</totfact>
</mgrwt>
</event>
<event>
 6    1  0.6091287E-004  0.2850588E+04  0.7818608E-02  0.8287733E-01
         -2   -1    0    0    0  501 -0.00000000000E+00  0.00000000000E+00  0.12421119578E+04  0.12421119578E+04  0.00000000000E+00 0. -1.
          2   -1    0    0  501    0  0.00000000000E+00 -0.00000000000E+00 -0.16354909025E+04  0.16354909025E+04  0.00000000000E+00 0.  1.
         23    2    1    2    0    0  0.67249451482E+03 -0.25929142736E+03 -0.14364877239E+04  0.16097082109E+04  0.90457871278E+02 0.  0.
         11    1    3    3    0    0  0.26835297669E+03 -0.98538087910E+02 -0.66954934305E+03  0.72802431116E+03  0.00000000000E+00 0.  1.
        -11    1    3    3    0    0  0.40414153813E+03 -0.16075333945E+03 -0.76693838083E+03  0.88168389970E+03  0.00000000000E+00 0. -1.
         22    1    1    2    0    0 -0.67249451482E+03  0.25929142736E+03  0.10431087792E+04  0.12678946494E+04  0.00000000000E+00 0. -1.
<mgrwt>
<rscale>  0 0.28505879E+04</rscale>
<asrwt>0</asrwt>
<pdfrwt beam="1">  1        2 0.25161398E+00 0.28505879E+04</pdfrwt>
<pdfrwt beam="2">  1       -2 0.19109415E+00 0.28505879E+04</pdfrwt>
<totfact> 0.14071955E+00</totfact>
</mgrwt>
</event>
<event>
 6    1  0.6091287E-004  0.2039947E+04  0.7818608E-02  0.8588169E-01
         -2   -1    0    0    0  501 -0.00000000000E+00  0.00000000000E+00  0.36321307563E+03  0.36321307563E+03  0.00000000000E+00 0. -1.
          2   -1    0    0  501    0  0.00000000000E+00 -0.00000000000E+00 -0.28642855004E+04  0.28642855004E+04  0.00000000000E+00 0.  1.
         23    2    1    2    0    0 -0.58342965176E+03  0.82542966484E+03 -0.14435917639E+04  0.17646282338E+04  0.90726691332E+02 0.  0.
         13    1    3    3    0    0 -0.12405406792E+03  0.23859240372E+03 -0.41211932292E+03  0.49209560372E+03  0.00000000000E+00 0.  1.
        -13    1    3    3    0    0 -0.45937558385E+03  0.58683726112E+03 -0.10314724410E+04  0.12725326300E+04  0.00000000000E+00 0. -1.
         22    1    1    2    0    0  0.58342965176E+03 -0.82542966484E+03 -0.10574806609E+04  0.14628703423E+04  0.00000000000E+00 0. -1.
<mgrwt>
<rscale>  0 0.20399470E+04</rscale>
<asrwt>0</asrwt>
<pdfrwt beam="1">  1        2 0.44065930E+00 0.20399470E+04</pdfrwt>
<pdfrwt beam="2">  1       -2 0.55878935E-01 0.20399470E+04</pdfrwt>
<totfact> 0.58952894E+00</totfact>
</mgrwt>
</event>
<event>
 6    1  0.6091287E-004  0.5468036E+03  0.7818608E-02  0.1002236E+00
          2   -1    0    0  501    0  0.00000000000E+00  0.00000000000E+00  0.86514825996E+03  0.86514825996E+03  0.00000000000E+00 0.  1.
         -2   -1    0    0    0  501 -0.00000000000E+00 -0.00000000000E+00 -0.86399705757E+02  0.86399705757E+02  0.00000000000E+00 0. -1.
         23    2    1    2    0    0 -0.48526144246E+02 -0.16112812725E+03  0.75539320215E+03  0.78165819988E+03  0.10978884972E+03 0.  0.
         11    1    3    3    0    0 -0.46874943824E+02 -0.98900642696E+02  0.25619482129E+03  0.27859358202E+03  0.00000000000E+00 0.  1.
        -11    1    3    3    0    0 -0.16512004225E+01 -0.62227484550E+02  0.49919838086E+03  0.50306461787E+03  0.00000000000E+00 0. -1.
         22    1    1    2    0    0  0.48526144246E+02  0.16112812725E+03  0.23355352049E+02  0.16988976583E+03  0.00000000000E+00 0. -1.
<mgrwt>
<rscale>  0 0.54680364E+03</rscale>
<asrwt>0</asrwt>
<pdfrwt beam="1">  1        2 0.13309973E+00 0.54680364E+03</pdfrwt>
<pdfrwt beam="2">  1       -2 0.13292263E-01 0.54680364E+03</pdfrwt>
<totfact> 0.13369735E+03</totfact>
</mgrwt>
</event>
<event>
 6    1  0.6091287E-004  0.2862399E+04  0.7818608E-02  0.8284154E-01
          2   -1    0    0  501    0  0.00000000000E+00  0.00000000000E+00  0.23433668695E+04  0.23433668695E+04  0.00000000000E+00 0.  1.
         -2   -1    0    0    0  501 -0.00000000000E+00 -0.00000000000E+00 -0.87409793507E+03  0.87409793507E+03  0.00000000000E+00 0. -1.
         23    2    1    2    0    0 -0.71504347756E+03  0.12011344012E+04  0.10734174909E+04  0.17646367384E+04  0.87787721617E+02 0.  0.
         11    1    3    3    0    0 -0.22424227689E+03  0.33518310167E+03  0.26776399151E+03  0.48407630136E+03  0.00000000000E+00 0. -1.
        -11    1    3    3    0    0 -0.49080120067E+03  0.86595129952E+03  0.80565349942E+03  0.12805604370E+04  0.00000000000E+00 0.  1.
         22    1    1    2    0    0  0.71504347756E+03 -0.12011344012E+04  0.39585144346E+03  0.14528280662E+04  0.00000000000E+00 0. -1.
<mgrwt>
<rscale>  0 0.28623991E+04</rscale>
<asrwt>0</asrwt>
<pdfrwt beam="1">  1        2 0.36051798E+00 0.28623991E+04</pdfrwt>
<pdfrwt beam="2">  1       -2 0.13447661E+00 0.28623991E+04</pdfrwt>
<totfact> 0.14773127E+00</totfact>
</mgrwt>
</event>
<event>
 6    1  0.6091287E-004  0.3223263E+04  0.7818608E-02  0.8182700E-01
          2   -1    0    0  501    0  0.00000000000E+00  0.00000000000E+00  0.19284804935E+04  0.19284804935E+04  0.00000000000E+00 0.  1.
         -2   -1    0    0    0  501 -0.00000000000E+00 -0.00000000000E+00 -0.13468411496E+04  0.13468411496E+04  0.00000000000E+00 0. -1.
         23    2    1    2    0    0 -0.23940126082E+03  0.14868503016E+04  0.87052494395E+03  0.17418642185E+04  0.90777170451E+02 0.  0.
         11    1    3    3    0    0 -0.46900577518E+02  0.53354228981E+03  0.33245288843E+03  0.63039032528E+03  0.00000000000E+00 0. -1.
        -11    1    3    3    0    0 -0.19250068330E+03  0.95330801181E+03  0.53807205552E+03  0.11114738933E+04  0.00000000000E+00 0.  1.
         22    1    1    2    0    0  0.23940126082E+03 -0.14868503016E+04 -0.28888560003E+03  0.15334574246E+04  0.00000000000E+00 0. -1.
<mgrwt>
<rscale>  0 0.32232635E+04</rscale>
<asrwt>0</asrwt>
<pdfrwt beam="1">  1        2 0.29668931E+00 0.32232635E+04</pdfrwt>
<pdfrwt beam="2">  1       -2 0.20720633E+00 0.32232635E+04</pdfrwt>
<totfact> 0.73457739E-01</totfact>
</mgrwt>
</event>
<event>
 6    1  0.6091287E-004  0.1639853E+04  0.7818608E-02  0.8796432E-01
         -2   -1    0    0    0  501 -0.00000000000E+00  0.00000000000E+00  0.78025814795E+03  0.78025814795E+03  0.00000000000E+00 0. -1.
          2   -1    0    0  501    0  0.00000000000E+00 -0.00000000000E+00 -0.86161208702E+03  0.86161208702E+03  0.00000000000E+00 0.  1.
         23    2    1    2    0    0 -0.19176045032E+03 -0.78264028513E+03 -0.17821572228E+03  0.83027914874E+03  0.91130318466E+02 0.  0.
         11    1    3    3    0    0 -0.54107787108E+02 -0.40590910417E+03 -0.78088199069E+02  0.41687842389E+03  0.00000000000E+00 0. -1.
        -11    1    3    3    0    0 -0.13765266321E+03 -0.37673118096E+03 -0.10012752321E+03  0.41340072485E+03  0.00000000000E+00 0.  1.
         22    1    1    2    0    0  0.19176045032E+03  0.78264028513E+03  0.96861783212E+02  0.81159108624E+03  0.00000000000E+00 0. -1.
<mgrwt>
<rscale>  0 0.16398535E+04</rscale>
<asrwt>0</asrwt>
<pdfrwt beam="1">  1        2 0.13255571E+00 0.16398535E+04</pdfrwt>
<pdfrwt beam="2">  1       -2 0.12003972E+00 0.16398535E+04</pdfrwt>
<totfact> 0.15801306E+01</totfact>
</mgrwt>
</event>
<event>
 6    1  0.6091287E-004  0.1896810E+04  0.7818608E-02  0.8656446E-01
         -2   -1    0    0    0  501 -0.00000000000E+00  0.00000000000E+00  0.32981717986E+03  0.32981717986E+03  0.00000000000E+00 0. -1.
          2   -1    0    0  501    0  0.00000000000E+00 -0.00000000000E+00 -0.27271840836E+04  0.27271840836E+04  0.00000000000E+00 0.  1.
         23    2    1    2    0    0 -0.14034997333E+03  0.18257647328E+03 -0.26807096959E+04  0.26918774194E+04  0.83470258337E+02 0.  0.
         13    1    3    3    0    0 -0.13619285937E+03  0.12473184666E+03 -0.21837676200E+04  0.21915628092E+04  0.00000000000E+00 0. -1.
        -13    1    3    3    0    0 -0.41571139602E+01  0.57844626621E+02 -0.49694207593E+03  0.50031461028E+03  0.00000000000E+00 0.  1.
         22    1    1    2    0    0  0.14034997333E+03 -0.18257647328E+03  0.28334279215E+03  0.36512384402E+03  0.00000000000E+00 0. -1.
<mgrwt>
<rscale>  0 0.18968101E+04</rscale>
<asrwt>0</asrwt>
<pdfrwt beam="1">  1        2 0.41956680E+00 0.18968101E+04</pdfrwt>
<pdfrwt beam="2">  1       -2 0.50741103E-01 0.18968101E+04</pdfrwt>
<totfact> 0.88144239E+00</totfact>
</mgrwt>
</event>
<event>
 6    1  0.6091287E-004  0.2311610E+04  0.7818608E-02  0.8473357E-01
          2   -1    0    0  501    0  0.00000000000E+00  0.00000000000E+00  0.68462766911E+03  0.68462766911E+03  0.00000000000E+00 0.  1.
         -2   -1    0    0    0  501 -0.00000000000E+00 -0.00000000000E+00 -0.19512581540E+04  0.19512581540E+04  0.00000000000E+00 0. -1.
         23    2    1    2    0    0 -0.11100830561E+04  0.10386430679E+03 -0.29474048816E+03  0.11568177545E+04  0.91011956309E+02 0.  0.
         11    1    3    3    0    0 -0.26630357877E+03  0.47194352261E+02 -0.10494910079E+03  0.29010207981E+03  0.00000000000E+00 0.  1.
        -11    1    3    3    0    0 -0.84377947733E+03  0.56669954533E+02 -0.18979138737E+03  0.86671567474E+03  0.00000000000E+00 0. -1.
         22    1    1    2    0    0  0.11100830561E+04 -0.10386430679E+03 -0.97188999671E+03  0.14790680685E+04  0.00000000000E+00 0. -1.
<mgrwt>
<rscale>  0 0.23116101E+04</rscale>
<asrwt>0</asrwt>
<pdfrwt beam="1">  1        2 0.10532734E+00 0.23116101E+04</pdfrwt>
<pdfrwt beam="2">  1       -2 0.30019356E+00 0.23116101E+04</pdfrwt>
<totfact> 0.12102777E+00</totfact>
</mgrwt>
</event>
<event>
 6    1  0.6091287E-004  0.2666530E+04  0.7818608E-02  0.8345947E-01
         -2   -1    0    0    0  501 -0.00000000000E+00  0.00000000000E+00  0.77981440415E+03  0.77981440415E+03  0.00000000000E+00 0. -1.
          2   -1    0    0  501    0  0.00000000000E+00 -0.00000000000E+00 -0.22795103775E+04  0.22795103775E+04  0.00000000000E+00 0.  1.
         23    2    1    2    0    0  0.65972254515E+03  0.11368002086E+04 -0.50468648110E+03  0.14108125917E+04  0.90195197917E+02 0.  0.
         11    1    3    3    0    0  0.83519627739E+02  0.12221959498E+03 -0.29306901713E+02  0.15090411559E+03  0.00000000000E+00 0. -1.
        -11    1    3    3    0    0  0.57620291741E+03  0.10145806136E+04 -0.47537957939E+03  0.12599084761E+04  0.00000000000E+00 0.  1.
         22    1    1    2    0    0 -0.65972254515E+03 -0.11368002086E+04 -0.99500949221E+03  0.16485121899E+04  0.00000000000E+00 0. -1.
<mgrwt>
<rscale>  0 0.26665296E+04</rscale>
<asrwt>0</asrwt>
<pdfrwt beam="1">  1        2 0.35069390E+00 0.26665296E+04</pdfrwt>
<pdfrwt beam="2">  1       -2 0.11997145E+00 0.26665296E+04</pdfrwt>
<totfact> 0.21762293E+00</totfact>
</mgrwt>
</event>
<event>
 6    1  0.6091287E-004  0.1304860E+04  0.7818608E-02  0.9025720E-01
          2   -1    0    0  501    0  0.00000000000E+00  0.00000000000E+00  0.23789262763E+04  0.23789262763E+04  0.00000000000E+00 0.  1.
         -2   -1    0    0    0  501 -0.00000000000E+00 -0.00000000000E+00 -0.17893156140E+03  0.17893156140E+03  0.00000000000E+00 0. -1.
         23    2    1    2    0    0 -0.10450038622E+03  0.39068514075E+03  0.10961145553E+03  0.42871308428E+03  0.90691937488E+02 0.  0.
         11    1    3    3    0    0 -0.11393043244E+03  0.38013898844E+03  0.11561708217E+03  0.41334380805E+03  0.00000000000E+00 0.  1.
        -11    1    3    3    0    0  0.94300462194E+01  0.10546152315E+02 -0.60056266443E+01  0.15369276227E+02  0.00000000000E+00 0. -1.
         22    1    1    2    0    0  0.10450038622E+03 -0.39068514075E+03  0.20903832594E+04  0.21291447534E+04  0.00000000000E+00 0.  1.
<mgrwt>
<rscale>  0 0.13048601E+04</rscale>
<asrwt>0</asrwt>
<pdfrwt beam="1">  1        2 0.36598864E+00 0.13048601E+04</pdfrwt>
<pdfrwt beam="2">  1       -2 0.27527934E-01 0.13048601E+04</pdfrwt>
<totfact> 0.48347677E+01</totfact>
</mgrwt>
</event>
<event>
 6    1  0.6091287E-004  0.2934792E+04  0.7818608E-02  0.8262600E-01
          2   -1    0    0  501    0  0.00000000000E+00  0.00000000000E+00  0.10410156213E+04  0.10410156213E+04  0.00000000000E+00 0.  1.
         -2   -1    0    0    0  501 -0.00000000000E+00 -0.00000000000E+00 -0.20684142826E+04  0.20684142826E+04  0.00000000000E+00 0. -1.
         23    2    1    2    0    0 -0.67237092458E+03 -0.11195785334E+04 -0.12198391155E+04  0.17893647232E+04  0.90993913857E+02 0.  0.
         13    1    3    3    0    0 -0.13178779554E+03 -0.27982225840E+03 -0.32040130848E+03  0.44533753247E+03  0.00000000000E+00 0. -1.
        -13    1    3    3    0    0 -0.54058312904E+03 -0.83975627505E+03 -0.89943780698E+03  0.13440271908E+04  0.00000000000E+00 0.  1.
         22    1    1    2    0    0  0.67237092458E+03  0.11195785334E+04  0.19244045419E+03  0.13200651807E+04  0.00000000000E+00 0.  1.
<mgrwt>
<rscale>  0 0.29347924E+04</rscale>
<asrwt>0</asrwt>
<pdfrwt beam="1">  1        2 0.16015625E+00 0.29347924E+04</pdfrwt>
<pdfrwt beam="2">  1       -2 0.31821758E+00 0.29347924E+04</pdfrwt>
<totfact> 0.50120466E-01</totfact>
</mgrwt>
</event>
<event>
 6    1  0.6091287E-004  0.8069681E+03  0.7818608E-02  0.9549985E-01
          2   -1    0    0  501    0  0.00000000000E+00  0.00000000000E+00  0.10834778517E+04  0.10834778517E+04  0.00000000000E+00 0.  1.
         -2   -1    0    0    0  501 -0.00000000000E+00 -0.00000000000E+00 -0.15025630516E+03  0.15025630516E+03  0.00000000000E+00 0. -1.
         23    2    1    2    0    0 -0.36296972292E+03  0.12106925449E+03  0.30309411966E+03  0.49653312712E+03  0.90963271820E+02 0.  0.
         11    1    3    3    0    0 -0.33973609866E+03  0.10850279765E+03  0.30604526701E+03  0.46995444385E+03  0.00000000000E+00 0. -1.
        -11    1    3    3    0    0 -0.23233624263E+02  0.12566456845E+02 -0.29511473584E+01  0.26578683277E+02  0.00000000000E+00 0.  1.
         22    1    1    2    0    0  0.36296972292E+03 -0.12106925449E+03  0.63012742689E+03  0.73720102975E+03  0.00000000000E+00 0. -1.
<mgrwt>
<rscale>  0 0.80696810E+03</rscale>
<asrwt>0</asrwt>
<pdfrwt beam="1">  1        2 0.16668890E+00 0.80696810E+03</pdfrwt>
<pdfrwt beam="2">  1       -2 0.23116355E-01 0.80696810E+03</pdfrwt>
<totfact> 0.36998808E+02</totfact>
</mgrwt>
</event>
<event>
 6    1  0.6091287E-004  0.3132805E+03  0.7818608E-02  0.1078784E+00
          2   -1    0    0  501    0  0.00000000000E+00  0.00000000000E+00  0.79147604573E+03  0.79147604573E+03  0.00000000000E+00 0.  1.
         -2   -1    0    0    0  501 -0.00000000000E+00 -0.00000000000E+00 -0.31000524717E+02  0.31000524717E+02  0.00000000000E+00 0. -1.
         23    2    1    2    0    0 -0.11000886217E+03 -0.91872196047E+02  0.49921660752E+03  0.52448551346E+03  0.72975218033E+02 0.  0.
         13    1    3    3    0    0 -0.19352028572E+02 -0.27678016145E+02  0.24147244862E+03  0.24382271640E+03  0.00000000000E+00 0.  1.
        -13    1    3    3    0    0 -0.90656833598E+02 -0.64194179903E+02  0.25774415890E+03  0.28066279707E+03  0.00000000000E+00 0. -1.
         22    1    1    2    0    0  0.11000886217E+03  0.91872196047E+02  0.26125891349E+03  0.29799105698E+03  0.00000000000E+00 0.  1.
<mgrwt>
<rscale>  0 0.31328053E+03</rscale>
<asrwt>0</asrwt>
<pdfrwt beam="1">  1        2 0.12176553E+00 0.31328053E+03</pdfrwt>
<pdfrwt beam="2">  1       -2 0.47693121E-02 0.31328053E+03</pdfrwt>
<totfact> 0.75813106E+03</totfact>
</mgrwt>
</event>
<event>
 6    1  0.6091287E-004  0.9194520E+03  0.7818608E-02  0.9401587E-01
         -2   -1    0    0    0  501 -0.00000000000E+00  0.00000000000E+00  0.31643795547E+03  0.31643795547E+03  0.00000000000E+00 0. -1.
          2   -1    0    0  501    0  0.00000000000E+00 -0.00000000000E+00 -0.66789717110E+03  0.66789717110E+03  0.00000000000E+00 0.  1.
         23    2    1    2    0    0  0.33009708203E+03  0.30256071146E+03 -0.26202225930E+03  0.52771051396E+03  0.96517638213E+02 0.  0.
         11    1    3    3    0    0  0.14881206782E+03  0.13318724591E+03 -0.62264057242E+02  0.20919055148E+03  0.00000000000E+00 0. -1.
        -11    1    3    3    0    0  0.18128501421E+03  0.16937346555E+03 -0.19975820205E+03  0.31851996248E+03  0.00000000000E+00 0.  1.
         22    1    1    2    0    0 -0.33009708203E+03 -0.30256071146E+03 -0.89436956340E+02  0.45662461262E+03  0.00000000000E+00 0. -1.
<mgrwt>
<rscale>  0 0.91945204E+03</rscale>
<asrwt>0</asrwt>
<pdfrwt beam="1">  1        2 0.10275341E+00 0.91945204E+03</pdfrwt>
<pdfrwt beam="2">  1       -2 0.48682763E-01 0.91945204E+03</pdfrwt>
<totfact> 0.17409634E+02</totfact>
</mgrwt>
</event>
<event>
 6    1  0.6091287E-004  0.2424932E+04  0.7818608E-02  0.8430228E-01
         -2   -1    0    0    0  501 -0.00000000000E+00  0.00000000000E+00  0.47799458281E+03  0.47799458281E+03  0.00000000000E+00 0. -1.
          2   -1    0    0  501    0  0.00000000000E+00 -0.00000000000E+00 -0.30755020690E+04  0.30755020690E+04  0.00000000000E+00 0.  1.
         23    2    1    2    0    0  0.10959773221E+04  0.47749168455E+03 -0.15807624652E+04  0.19841225609E+04  0.93636348555E+02 0.  0.
         13    1    3    3    0    0  0.96578581182E+03  0.44150911132E+03 -0.14378403343E+04  0.17874723373E+04  0.00000000000E+00 0.  1.
        -13    1    3    3    0    0  0.13019151032E+03  0.35982573226E+02 -0.14292213099E+03  0.19665022365E+03  0.00000000000E+00 0. -1.
         22    1    1    2    0    0 -0.10959773221E+04 -0.47749168455E+03 -0.10167450209E+04  0.15693740908E+04  0.00000000000E+00 0.  1.
<mgrwt>
<rscale>  0 0.24249316E+04</rscale>
<asrwt>0</asrwt>
<pdfrwt beam="1">  1        2 0.47315418E+00 0.24249316E+04</pdfrwt>
<pdfrwt beam="2">  1       -2 0.73537626E-01 0.24249316E+04</pdfrwt>
<totfact> 0.23363336E+00</totfact>
</mgrwt>
</event>
<event>
 6    1  0.1173598E-003  0.3610852E+04  0.7818608E-02  0.8088010E-01
         -2   -1    0    0    0  501 -0.00000000000E+00  0.00000000000E+00  0.14201394359E+04  0.14201394359E+04  0.00000000000E+00 0. -1.
          2   -1    0    0  501    0  0.00000000000E+00 -0.00000000000E+00 -0.22952420961E+04  0.22952420961E+04  0.00000000000E+00 0.  1.
         23    2    1    2    0    0 -0.16197653337E+04  0.77770058554E+03 -0.26832286757E+03  0.18189006716E+04  0.89132231284E+02 0.  0.
         13    1    3    3    0    0 -0.11992280661E+04  0.57383586656E+03 -0.15886617081E+03  0.13389077700E+04  0.00000000000E+00 0. -1.
        -13    1    3    3    0    0 -0.42053726762E+03  0.20386471898E+03 -0.10945669675E+03  0.47999290158E+03  0.00000000000E+00 0.  1.
         22    1    1    2    0    0  0.16197653337E+04 -0.77770058554E+03 -0.60677979271E+03  0.18964808604E+04  0.00000000000E+00 0.  1.
<mgrwt>
<rscale>  0 0.36108524E+04</rscale>
<asrwt>0</asrwt>
<pdfrwt beam="1">  1        2 0.35311416E+00 0.36108524E+04</pdfrwt>
<pdfrwt beam="2">  1       -2 0.21848299E+00 0.36108524E+04</pdfrwt>
<totfact> 0.37539071E-01</totfact>
</mgrwt>
</event>
<event>
 6    1  0.6091287E-004  0.4662923E+04  0.7818608E-02  0.7882719E-01
          1   -1    0    0  501    0  0.00000000000E+00  0.00000000000E+00  0.23822222751E+04  0.23822222751E+04  0.00000000000E+00 0.  1.
         -1   -1    0    0    0  501 -0.00000000000E+00 -0.00000000000E+00 -0.22817819312E+04  0.22817819312E+04  0.00000000000E+00 0. -1.
         23    2    1    2    0    0 -0.63720906873E+03 -0.17132733250E+04  0.14963482141E+04  0.23640260183E+04  0.90665063703E+02 0.  0.
         13    1    3    3    0    0 -0.29335223980E+03 -0.68329688835E+03  0.57584504130E+03  0.94050395311E+03  0.00000000000E+00 0. -1.
        -13    1    3    3    0    0 -0.34385682893E+03 -0.10299764367E+04  0.92050317280E+03  0.14235220652E+04  0.00000000000E+00 0.  1.
         22    1    1    2    0    0  0.63720906873E+03  0.17132733250E+04 -0.13959078701E+04  0.22999781880E+04  0.00000000000E+00 0. -1.
<mgrwt>
<rscale>  0 0.46629226E+04</rscale>
<asrwt>0</asrwt>
<pdfrwt beam="1">  1        1 0.36649574E+00 0.46629226E+04</pdfrwt>
<pdfrwt beam="2">  1       -1 0.35104337E+00 0.46629226E+04</pdfrwt>
<totfact> 0.18531819E-02</totfact>
</mgrwt>
</event>
<event>
 6    1  0.6091287E-004  0.2110591E+04  0.7818608E-02  0.8556592E-01
          2   -1    0    0  501    0  0.00000000000E+00  0.00000000000E+00  0.29835654015E+04  0.29835654015E+04  0.00000000000E+00 0.  1.
         -2   -1    0    0    0  501 -0.00000000000E+00 -0.00000000000E+00 -0.37326082743E+03  0.37326082743E+03  0.00000000000E+00 0. -1.
         23    2    1    2    0    0  0.31896401910E+03  0.57525148459E+03  0.26160644117E+04  0.26990378954E+04  0.91434339522E+02 0.  0.
         13    1    3    3    0    0  0.25840631870E+03  0.49122117116E+03  0.23166861229E+04  0.23822482358E+04  0.00000000000E+00 0.  1.
        -13    1    3    3    0    0  0.60557700404E+02  0.84030313436E+02  0.29937828874E+03  0.31678965959E+03  0.00000000000E+00 0. -1.
         22    1    1    2    0    0 -0.31896401910E+03 -0.57525148459E+03 -0.57598376481E+01  0.65778833354E+03  0.00000000000E+00 0. -1.
<mgrwt>
<rscale>  0 0.21105905E+04</rscale>
<asrwt>0</asrwt>
<pdfrwt beam="1">  1        2 0.45901005E+00 0.21105905E+04</pdfrwt>
<pdfrwt beam="2">  1       -2 0.57424745E-01 0.21105905E+04</pdfrwt>
<totfact> 0.46713610E+00</totfact>
</mgrwt>
</event>
<event>
 6    1  0.6091287E-004  0.3706915E+04  0.7818608E-02  0.8066431E-01
          2   -1    0    0  501    0  0.00000000000E+00  0.00000000000E+00  0.23595857335E+04  0.23595857335E+04  0.00000000000E+00 0.  1.
         -2   -1    0    0    0  501 -0.00000000000E+00 -0.00000000000E+00 -0.14558933749E+04  0.14558933749E+04  0.00000000000E+00 0. -1.
         23    2    1    2    0    0 -0.38190227456E+03 -0.14410648302E+04  0.15836997575E+04  0.21769043452E+04  0.91051710992E+02 0.  0.
         13    1    3    3    0    0 -0.91614805878E+02 -0.22320987437E+03  0.23914650288E+03  0.33971601451E+03  0.00000000000E+00 0. -1.
        -13    1    3    3    0    0 -0.29028746869E+03 -0.12178549558E+04  0.13445532546E+04  0.18371883307E+04  0.00000000000E+00 0.  1.
         22    1    1    2    0    0  0.38190227456E+03  0.14410648302E+04 -0.68000739889E+03  0.16385747633E+04  0.00000000000E+00 0. -1.
<mgrwt>
<rscale>  0 0.37069153E+04</rscale>
<asrwt>0</asrwt>
<pdfrwt beam="1">  1        2 0.36301319E+00 0.37069153E+04</pdfrwt>
<pdfrwt beam="2">  1       -2 0.22398360E+00 0.37069153E+04</pdfrwt>
<totfact> 0.31596477E-01</totfact>
</mgrwt>
</event>
<event>
 6    1  0.6091287E-004  0.1645769E+04  0.7818608E-02  0.8792913E-01
          2   -1    0    0  501    0  0.00000000000E+00  0.00000000000E+00  0.14714489621E+04  0.14714489621E+04  0.00000000000E+00 0.  1.
         -2   -1    0    0    0  501 -0.00000000000E+00 -0.00000000000E+00 -0.46018522782E+03  0.46018522782E+03  0.00000000000E+00 0. -1.
         23    2    1    2    0    0  0.58892612420E+03 -0.43592749922E+03  0.73976070896E+02  0.74193888092E+03  0.90189132503E+02 0.  0.
         11    1    3    3    0    0  0.56247185481E+03 -0.42153539702E+03  0.88599063782E+02  0.70846063581E+03  0.00000000000E+00 0.  1.
        -11    1    3    3    0    0  0.26454269393E+02 -0.14392102192E+02 -0.14622992887E+02  0.33478245109E+02  0.00000000000E+00 0. -1.
         22    1    1    2    0    0 -0.58892612420E+03  0.43592749922E+03  0.93728766338E+03  0.11896953090E+04  0.00000000000E+00 0.  1.
<mgrwt>
<rscale>  0 0.16457692E+04</rscale>
<asrwt>0</asrwt>
<pdfrwt beam="1">  1        2 0.22637676E+00 0.16457692E+04</pdfrwt>
<pdfrwt beam="2">  1       -2 0.70797728E-01 0.16457692E+04</pdfrwt>
<totfact> 0.22828874E+01</totfact>
</mgrwt>
</event>
<event>
 6    1  0.6091287E-004  0.1416551E+04  0.7818608E-02  0.8941924E-01
         -2   -1    0    0    0  501 -0.00000000000E+00  0.00000000000E+00  0.28189628240E+03  0.28189628240E+03  0.00000000000E+00 0. -1.
          2   -1    0    0  501    0  0.00000000000E+00 -0.00000000000E+00 -0.17795706531E+04  0.17795706531E+04  0.00000000000E+00 0.  1.
         23    2    1    2    0    0  0.87030464215E+02 -0.65938284036E+03 -0.41041670660E+03  0.78691240154E+03  0.91810798886E+02 0.  0.
         11    1    3    3    0    0  0.73842993848E+02 -0.43667704882E+03 -0.31905123436E+03  0.54583268760E+03  0.00000000000E+00 0. -1.
        -11    1    3    3    0    0  0.13187470367E+02 -0.22270579153E+03 -0.91365472241E+02  0.24107971394E+03  0.00000000000E+00 0.  1.
         22    1    1    2    0    0 -0.87030464215E+02  0.65938284036E+03 -0.10872576641E+04  0.12745545339E+04  0.00000000000E+00 0.  1.
<mgrwt>
<rscale>  0 0.14165512E+04</rscale>
<asrwt>0</asrwt>
<pdfrwt beam="1">  1        2 0.27378010E+00 0.14165512E+04</pdfrwt>
<pdfrwt beam="2">  1       -2 0.43368658E-01 0.14165512E+04</pdfrwt>
<totfact> 0.43408264E+01</totfact>
</mgrwt>
</event>
<event>
 6    1  0.6091287E-004  0.2068836E+04  0.7818608E-02  0.8575097E-01
         -2   -1    0    0    0  501 -0.00000000000E+00  0.00000000000E+00  0.67997738657E+03  0.67997738657E+03  0.00000000000E+00 0. -1.
          2   -1    0    0  501    0  0.00000000000E+00 -0.00000000000E+00 -0.15736115700E+04  0.15736115700E+04  0.00000000000E+00 0.  1.
         23    2    1    2    0    0  0.93547444638E+03 -0.31765369075E+03 -0.77439483823E+03  0.12584837719E+04  0.89876201668E+02 0.  0.
         13    1    3    3    0    0  0.16081783790E+03 -0.91133897159E+02 -0.13836391164E+03  0.23089464316E+03  0.00000000000E+00 0.  1.
        -13    1    3    3    0    0  0.77465660848E+03 -0.22651979359E+03 -0.63603092659E+03  0.10275891288E+04  0.00000000000E+00 0. -1.
         22    1    1    2    0    0 -0.93547444638E+03  0.31765369075E+03 -0.11923934520E+03  0.99510518465E+03  0.00000000000E+00 0.  1.
<mgrwt>
<rscale>  0 0.20688357E+04</rscale>
<asrwt>0</asrwt>
<pdfrwt beam="1">  1        2 0.24209408E+00 0.20688357E+04</pdfrwt>
<pdfrwt beam="2">  1       -2 0.10461191E+00 0.20688357E+04</pdfrwt>
<totfact> 0.79068976E+00</totfact>
</mgrwt>
</event>
<event>
 6    1  0.6091287E-004  0.2329695E+04  0.7818608E-02  0.8466304E-01
          2   -1    0    0  501    0  0.00000000000E+00  0.00000000000E+00  0.17269244807E+04  0.17269244807E+04  0.00000000000E+00 0.  1.
         -2   -1    0    0    0  501 -0.00000000000E+00 -0.00000000000E+00 -0.78571481426E+03  0.78571481426E+03  0.00000000000E+00 0. -1.
         23    2    1    2    0    0  0.71718357262E+03  0.62223467838E+03  0.11957019737E+04  0.15296364434E+04  0.92499551606E+02 0.  0.
         11    1    3    3    0    0  0.50411421530E+03  0.41295568181E+03  0.88043873193E+03  0.10953702104E+04  0.00000000000E+00 0.  1.
        -11    1    3    3    0    0  0.21306935732E+03  0.20927899656E+03  0.31526324181E+03  0.43426623294E+03  0.00000000000E+00 0. -1.
         22    1    1    2    0    0 -0.71718357262E+03 -0.62223467838E+03 -0.25449230728E+03  0.98300285162E+03  0.00000000000E+00 0. -1.
<mgrwt>
<rscale>  0 0.23296954E+04</rscale>
<asrwt>0</asrwt>
<pdfrwt beam="1">  1        2 0.26568069E+00 0.23296954E+04</pdfrwt>
<pdfrwt beam="2">  1       -2 0.12087920E+00 0.23296954E+04</pdfrwt>
<totfact> 0.44685670E+00</totfact>
</mgrwt>
</event>
<event>
 6    1  0.6091287E-004  0.4001744E+04  0.7818608E-02  0.8004195E-01
         -2   -1    0    0    0  501 -0.00000000000E+00  0.00000000000E+00  0.14205988941E+04  0.14205988941E+04  0.00000000000E+00 0. -1.
          2   -1    0    0  501    0  0.00000000000E+00 -0.00000000000E+00 -0.28181695910E+04  0.28181695910E+04  0.00000000000E+00 0.  1.
         23    2    1    2    0    0  0.28377544481E+03 -0.19293367674E+04 -0.11684599302E+04  0.22752612636E+04  0.92985719564E+02 0.  0.
         13    1    3    3    0    0  0.66190629674E+02 -0.24522210938E+03 -0.16307301112E+03  0.30184083445E+03  0.00000000000E+00 0. -1.
        -13    1    3    3    0    0  0.21758481514E+03 -0.16841146581E+04 -0.10053869191E+04  0.19734204292E+04  0.00000000000E+00 0.  1.
         22    1    1    2    0    0 -0.28377544481E+03  0.19293367674E+04 -0.22911076666E+03  0.19635072214E+04  0.00000000000E+00 0. -1.
<mgrwt>
<rscale>  0 0.40017439E+04</rscale>
<asrwt>0</asrwt>
<pdfrwt beam="1">  1        2 0.43356455E+00 0.40017439E+04</pdfrwt>
<pdfrwt beam="2">  1       -2 0.21855368E+00 0.40017439E+04</pdfrwt>
<totfact> 0.17945472E-01</totfact>
</mgrwt>
</event>
<event>
 6    1  0.6091287E-004  0.2953742E+04  0.7818608E-02  0.8257065E-01
         -2   -1    0    0    0  501 -0.00000000000E+00  0.00000000000E+00  0.21903421661E+04  0.21903421661E+04  0.00000000000E+00 0. -1.
          2   -1    0    0  501    0  0.00000000000E+00 -0.00000000000E+00 -0.99580205431E+03  0.99580205431E+03  0.00000000000E+00 0.  1.
         23    2    1    2    0    0  0.59755678006E+03  0.13046239997E+04  0.22750486842E+03  0.14557468533E+04  0.91228010231E+02 0.  0.
         13    1    3    3    0    0  0.26629083359E+03  0.68402033062E+03  0.10006727885E+03  0.74081582127E+03  0.00000000000E+00 0. -1.
        -13    1    3    3    0    0  0.33126594647E+03  0.62060366909E+03  0.12743758958E+03  0.71493103207E+03  0.00000000000E+00 0.  1.
         22    1    1    2    0    0 -0.59755678006E+03 -0.13046239997E+04  0.96703524335E+03  0.17303973671E+04  0.00000000000E+00 0. -1.
<mgrwt>
<rscale>  0 0.29537415E+04</rscale>
<asrwt>0</asrwt>
<pdfrwt beam="1">  1        2 0.15320032E+00 0.29537415E+04</pdfrwt>
<pdfrwt beam="2">  1       -2 0.33697572E+00 0.29537415E+04</pdfrwt>
<totfact> 0.40897129E-01</totfact>
</mgrwt>
</event>
<event>
 6    1  0.7287682E-004  0.3519205E+04  0.7818608E-02  0.8109254E-01
          1   -1    0    0  501    0  0.00000000000E+00  0.00000000000E+00  0.26037079925E+04  0.26037079925E+04  0.00000000000E+00 0. -1.
         -1   -1    0    0    0  501 -0.00000000000E+00 -0.00000000000E+00 -0.11891504145E+04  0.11891504145E+04  0.00000000000E+00 0.  1.
         23    2    1    2    0    0  0.15217768763E+04 -0.73535886187E+03  0.12308847713E+04  0.20927721690E+04  0.89780365996E+02 0.  0.
         11    1    3    3    0    0  0.73192039146E+03 -0.34919014095E+03  0.53542349143E+03  0.97176104530E+03  0.00000000000E+00 0. -1.
        -11    1    3    3    0    0  0.78985648481E+03 -0.38616872091E+03  0.69546127986E+03  0.11210111237E+04  0.00000000000E+00 0.  1.
         22    1    1    2    0    0 -0.15217768763E+04  0.73535886187E+03  0.18367280662E+03  0.17000862380E+04  0.00000000000E+00 0.  1.
<mgrwt>
<rscale>  0 0.35192047E+04</rscale>
<asrwt>0</asrwt>
<pdfrwt beam="1">  1        1 0.40057046E+00 0.35192047E+04</pdfrwt>
<pdfrwt beam="2">  1       -1 0.18294622E+00 0.35192047E+04</pdfrwt>
<totfact> 0.18515446E-01</totfact>
</mgrwt>
</event>
<event>
 6    1  0.6091287E-004  0.1122146E+04  0.7818608E-02  0.9183872E-01
         -2   -1    0    0    0  501 -0.00000000000E+00  0.00000000000E+00  0.37551729397E+03  0.37551729397E+03  0.00000000000E+00 0. -1.
          2   -1    0    0  501    0  0.00000000000E+00 -0.00000000000E+00 -0.83831750730E+03  0.83831750730E+03  0.00000000000E+00 0.  1.
         23    2    1    2    0    0  0.51361025702E+03  0.15272713035E+03 -0.40536657712E+03  0.67492878438E+03  0.63919712777E+02 0.  0.
         13    1    3    3    0    0  0.13141594744E+03  0.50073155241E+02 -0.14009960158E+03  0.19850785999E+03  0.00000000000E+00 0.  1.
        -13    1    3    3    0    0  0.38219430959E+03  0.10265397511E+03 -0.26526697554E+03  0.47642092439E+03  0.00000000000E+00 0. -1.
         22    1    1    2    0    0 -0.51361025702E+03 -0.15272713035E+03 -0.57433636207E+02  0.53890601688E+03  0.00000000000E+00 0.  1.
<mgrwt>
<rscale>  0 0.11221457E+04</rscale>
<asrwt>0</asrwt>
<pdfrwt beam="1">  1        2 0.12897192E+00 0.11221457E+04</pdfrwt>
<pdfrwt beam="2">  1       -2 0.57771892E-01 0.11221457E+04</pdfrwt>
<totfact> 0.89982736E+01</totfact>
</mgrwt>
</event>
<event>
 6    1  0.6091287E-004  0.3223916E+04  0.7818608E-02  0.8182529E-01
          2   -1    0    0  501    0  0.00000000000E+00  0.00000000000E+00  0.29250445741E+04  0.29250445741E+04  0.00000000000E+00 0.  1.
         -2   -1    0    0    0  501 -0.00000000000E+00 -0.00000000000E+00 -0.88833139792E+03  0.88833139792E+03  0.00000000000E+00 0. -1.
         23    2    1    2    0    0 -0.97526085112E+02  0.53490880020E+03 -0.77386987700E+03  0.95068216013E+03  0.96349474646E+02 0.  0.
         11    1    3    3    0    0 -0.57863840673E+02  0.46505329455E+03 -0.69393050885E+03  0.83735437059E+03  0.00000000000E+00 0.  1.
        -11    1    3    3    0    0 -0.39662244439E+02  0.69855505655E+02 -0.79939368145E+02  0.11332778955E+03  0.00000000000E+00 0. -1.
         22    1    1    2    0    0  0.97526085112E+02 -0.53490880020E+03  0.28105830532E+04  0.28626938119E+04  0.00000000000E+00 0.  1.
<mgrwt>
<rscale>  0 0.32239162E+04</rscale>
<asrwt>0</asrwt>
<pdfrwt beam="1">  1        2 0.45000685E+00 0.32239162E+04</pdfrwt>
<pdfrwt beam="2">  1       -2 0.13666637E+00 0.32239162E+04</pdfrwt>
<totfact> 0.62253112E-01</totfact>
</mgrwt>
</event>
<event>
 6    1  0.6091287E-004  0.2394485E+04  0.7818608E-02  0.8441571E-01
          2   -1    0    0  501    0  0.00000000000E+00  0.00000000000E+00  0.12539389311E+04  0.12539389311E+04  0.00000000000E+00 0.  1.
         -2   -1    0    0    0  501 -0.00000000000E+00 -0.00000000000E+00 -0.11431098238E+04  0.11431098238E+04  0.00000000000E+00 0. -1.
         23    2    1    2    0    0  0.47380214706E+03  0.84149377290E+03  0.76163808843E+03  0.12325091145E+04  0.79911795681E+02 0.  0.
         11    1    3    3    0    0  0.99587602429E+02  0.21408622702E+03  0.14997894995E+03  0.27972180570E+03  0.00000000000E+00 0. -1.
        -11    1    3    3    0    0  0.37421454463E+03  0.62740754588E+03  0.61165913848E+03  0.95278730875E+03  0.00000000000E+00 0.  1.
         22    1    1    2    0    0 -0.47380214706E+03 -0.84149377290E+03 -0.65080898111E+03  0.11645396405E+04  0.00000000000E+00 0. -1.
<mgrwt>
<rscale>  0 0.23944853E+04</rscale>
<asrwt>0</asrwt>
<pdfrwt beam="1">  1        2 0.19291368E+00 0.23944853E+04</pdfrwt>
<pdfrwt beam="2">  1       -2 0.17586305E+00 0.23944853E+04</pdfrwt>
<totfact> 0.30668604E+00</totfact>
</mgrwt>
</event>
<event>
 6    1  0.6091287E-004  0.1908449E+04  0.7818608E-02  0.8650662E-01
          2   -1    0    0  501    0  0.00000000000E+00  0.00000000000E+00  0.18539777058E+04  0.18539777058E+04  0.00000000000E+00 0.  1.
         -2   -1    0    0    0  501 -0.00000000000E+00 -0.00000000000E+00 -0.49113008888E+03  0.49113008888E+03  0.00000000000E+00 0. -1.
         23    2    1    2    0    0  0.27626994149E+03 -0.84928382001E+03  0.10879080153E+04  0.14106561522E+04  0.93802145801E+02 0.  0.
         11    1    3    3    0    0  0.86217229104E+02 -0.15225544389E+03  0.23218483236E+03  0.29073170994E+03  0.00000000000E+00 0. -1.
        -11    1    3    3    0    0  0.19005271239E+03 -0.69702837612E+03  0.85572318296E+03  0.11199244423E+04  0.00000000000E+00 0.  1.
         22    1    1    2    0    0 -0.27626994149E+03  0.84928382001E+03  0.27493960157E+03  0.93445164241E+03  0.00000000000E+00 0. -1.
<mgrwt>
<rscale>  0 0.19084488E+04</rscale>
<asrwt>0</asrwt>
<pdfrwt beam="1">  1        2 0.28522734E+00 0.19084488E+04</pdfrwt>
<pdfrwt beam="2">  1       -2 0.75558476E-01 0.19084488E+04</pdfrwt>
<totfact> 0.11838183E+01</totfact>
</mgrwt>
</event>
<event>
 6    1  0.6091287E-004  0.1855218E+04  0.7818608E-02  0.8677474E-01
          2   -1    0    0  501    0  0.00000000000E+00  0.00000000000E+00  0.53219066397E+03  0.53219066397E+03  0.00000000000E+00 0.  1.
         -2   -1    0    0    0  501 -0.00000000000E+00 -0.00000000000E+00 -0.16168236193E+04  0.16168236193E+04  0.00000000000E+00 0. -1.
         23    2    1    2    0    0 -0.25549544054E+03 -0.64012270034E+03  0.17156338477E+03  0.71616249871E+03  0.91759130064E+02 0.  0.
         13    1    3    3    0    0 -0.10158099584E+03 -0.35815423255E+03  0.66476009688E+02  0.37816955572E+03  0.00000000000E+00 0. -1.
        -13    1    3    3    0    0 -0.15391444470E+03 -0.28196846778E+03  0.10508737508E+03  0.33799294299E+03  0.00000000000E+00 0.  1.
         22    1    1    2    0    0  0.25549544054E+03  0.64012270034E+03 -0.12561963401E+04  0.14328517845E+04  0.00000000000E+00 0. -1.
<mgrwt>
<rscale>  0 0.18552180E+04</rscale>
<asrwt>0</asrwt>
<pdfrwt beam="1">  1        2 0.81875488E-01 0.18552180E+04</pdfrwt>
<pdfrwt beam="2">  1       -2 0.24874209E+00 0.18552180E+04</pdfrwt>
<totfact> 0.35188828E+00</totfact>
</mgrwt>
</event>
<event>
 6    1  0.6091287E-004  0.3411354E+04  0.7818608E-02  0.8135125E-01
          2   -1    0    0  501    0  0.00000000000E+00  0.00000000000E+00  0.20502780210E+04  0.20502780210E+04  0.00000000000E+00 0.  1.
         -2   -1    0    0    0  501 -0.00000000000E+00 -0.00000000000E+00 -0.14189951735E+04  0.14189951735E+04  0.00000000000E+00 0. -1.
         23    2    1    2    0    0  0.28429054513E+03 -0.15027992787E+04 -0.44916928395E+03  0.15966804479E+04  0.91698533697E+02 0.  0.
         13    1    3    3    0    0  0.72624853126E+01 -0.65293020921E+02 -0.38788283418E+02  0.76291894750E+02  0.00000000000E+00 0.  1.
        -13    1    3    3    0    0  0.27702805982E+03 -0.14375062578E+04 -0.41038100054E+03  0.15203885532E+04  0.00000000000E+00 0. -1.
         22    1    1    2    0    0 -0.28429054513E+03  0.15027992787E+04  0.10804521315E+04  0.18725927466E+04  0.00000000000E+00 0.  1.
<mgrwt>
<rscale>  0 0.34113543E+04</rscale>
<asrwt>0</asrwt>
<pdfrwt beam="1">  1        2 0.31542739E+00 0.34113543E+04</pdfrwt>
<pdfrwt beam="2">  1       -2 0.21830695E+00 0.34113543E+04</pdfrwt>
<totfact> 0.52527425E-01</totfact>
</mgrwt>
</event>
<event>
 6    1  0.6091287E-004  0.2123368E+04  0.7818608E-02  0.8551019E-01
          2   -1    0    0  501    0  0.00000000000E+00  0.00000000000E+00  0.17540488700E+04  0.17540488700E+04  0.00000000000E+00 0.  1.
         -2   -1    0    0    0  501 -0.00000000000E+00 -0.00000000000E+00 -0.64261179399E+03  0.64261179399E+03  0.00000000000E+00 0. -1.
         23    2    1    2    0    0 -0.81676455540E+02 -0.82441010085E+03  0.13025720421E+04  0.15464514938E+04  0.92169626397E+02 0.  0.
         13    1    3    3    0    0 -0.64110443164E+02 -0.47694956714E+03  0.83336062761E+03  0.96233101071E+03  0.00000000000E+00 0. -1.
        -13    1    3    3    0    0 -0.17566012377E+02 -0.34746053371E+03  0.46921141449E+03  0.58412048308E+03  0.00000000000E+00 0.  1.
         22    1    1    2    0    0  0.81676455540E+02  0.82441010085E+03 -0.19113496612E+03  0.85020917017E+03  0.00000000000E+00 0. -1.
<mgrwt>
<rscale>  0 0.21233676E+04</rscale>
<asrwt>0</asrwt>
<pdfrwt beam="1">  1        2 0.26985367E+00 0.21233676E+04</pdfrwt>
<pdfrwt beam="2">  1       -2 0.98863354E-01 0.21233676E+04</pdfrwt>
<totfact> 0.71433556E+00</totfact>
</mgrwt>
</event>
<event>
 6    1  0.6091287E-004  0.1922802E+04  0.7818608E-02  0.8643589E-01
         -2   -1    0    0    0  501 -0.00000000000E+00  0.00000000000E+00  0.47807560718E+03  0.47807560718E+03  0.00000000000E+00 0. -1.
          2   -1    0    0  501    0  0.00000000000E+00 -0.00000000000E+00 -0.19333594766E+04  0.19333594766E+04  0.00000000000E+00 0.  1.
         23    2    1    2    0    0 -0.32521706283E+03  0.36962893772E+03 -0.17618872986E+04  0.18314373662E+04  0.86742630052E+02 0.  0.
         11    1    3    3    0    0 -0.22180765481E+03  0.28361242152E+03 -0.11547742723E+04  0.12096025220E+04  0.00000000000E+00 0. -1.
        -11    1    3    3    0    0 -0.10340940801E+03  0.86016516197E+02 -0.60711302636E+03  0.62183484423E+03  0.00000000000E+00 0.  1.
         22    1    1    2    0    0  0.32521706283E+03 -0.36962893772E+03  0.30660342921E+03  0.57999771754E+03  0.00000000000E+00 0. -1.
<mgrwt>
<rscale>  0 0.19228021E+04</rscale>
<asrwt>0</asrwt>
<pdfrwt beam="1">  1        2 0.29743992E+00 0.19228021E+04</pdfrwt>
<pdfrwt beam="2">  1       -2 0.73550093E-01 0.19228021E+04</pdfrwt>
<totfact> 0.11340878E+01</totfact>
</mgrwt>
</event>
<event>
 6    1  0.6091287E-004  0.1854367E+04  0.7818608E-02  0.8677910E-01
          2   -1    0    0  501    0  0.00000000000E+00  0.00000000000E+00  0.15418800504E+04  0.15418800504E+04  0.00000000000E+00 0.  1.
         -2   -1    0    0    0  501 -0.00000000000E+00 -0.00000000000E+00 -0.55754608426E+03  0.55754608426E+03  0.00000000000E+00 0. -1.
         23    2    1    2    0    0 -0.40019662882E+03 -0.17819385706E+02  0.14372035270E+04  0.14948058311E+04  0.91736701799E+02 0.  0.
         11    1    3    3    0    0 -0.24995520401E+03 -0.54319062128E+02  0.93315211040E+03  0.96757481657E+03  0.00000000000E+00 0. -1.
        -11    1    3    3    0    0 -0.15024142480E+03  0.36499676422E+02  0.50405141662E+03  0.52723101455E+03  0.00000000000E+00 0.  1.
         22    1    1    2    0    0  0.40019662882E+03  0.17819385706E+02 -0.45286956090E+03  0.60462030351E+03  0.00000000000E+00 0. -1.
<mgrwt>
<rscale>  0 0.18543669E+04</rscale>
<asrwt>0</asrwt>
<pdfrwt beam="1">  1        2 0.23721231E+00 0.18543669E+04</pdfrwt>
<pdfrwt beam="2">  1       -2 0.85776321E-01 0.18543669E+04</pdfrwt>
<totfact> 0.13336428E+01</totfact>
</mgrwt>
</event>
<event>
 6    1  0.6091287E-004  0.4120851E+04  0.7818608E-02  0.7980601E-01
          2   -1    0    0  501    0  0.00000000000E+00  0.00000000000E+00  0.31329445381E+04  0.31329445381E+04  0.00000000000E+00 0.  1.
         -2   -1    0    0    0  501 -0.00000000000E+00 -0.00000000000E+00 -0.13550680471E+04  0.13550680471E+04  0.00000000000E+00 0. -1.
         23    2    1    2    0    0 -0.17852390546E+04  0.24539598812E+03  0.19751854426E+04  0.26752168175E+04  0.90165484929E+02 0.  0.
         11    1    3    3    0    0 -0.66881163259E+03  0.11537347278E+03  0.79894738441E+03  0.10483019418E+04  0.00000000000E+00 0. -1.
        -11    1    3    3    0    0 -0.11164274220E+04  0.13002251534E+03  0.11762380582E+04  0.16269148757E+04  0.00000000000E+00 0.  1.
         22    1    1    2    0    0  0.17852390546E+04 -0.24539598812E+03 -0.19730895159E+03  0.18127957677E+04  0.00000000000E+00 0.  1.
<mgrwt>
<rscale>  0 0.41208509E+04</rscale>
<asrwt>0</asrwt>
<pdfrwt beam="1">  1        2 0.48199146E+00 0.41208509E+04</pdfrwt>
<pdfrwt beam="2">  1       -2 0.20847201E+00 0.41208509E+04</pdfrwt>
<totfact> 0.13105412E-01</totfact>
</mgrwt>
</event>
<event>
 6    1  0.6091287E-004  0.1042181E+04  0.7818608E-02  0.9263454E-01
         -2   -1    0    0    0  501 -0.00000000000E+00  0.00000000000E+00  0.28297409171E+03  0.28297409171E+03  0.00000000000E+00 0. -1.
          2   -1    0    0  501    0  0.00000000000E+00 -0.00000000000E+00 -0.95957693964E+03  0.95957693964E+03  0.00000000000E+00 0.  1.
         23    2    1    2    0    0  0.31603715258E+03  0.40498791032E+03 -0.27027613886E+03  0.58757310515E+03  0.91094858987E+02 0.  0.
         11    1    3    3    0    0  0.80829009196E+02  0.17493314790E+03 -0.98454977289E+02  0.21639851551E+03  0.00000000000E+00 0.  1.
        -11    1    3    3    0    0  0.23520814338E+03  0.23005476243E+03 -0.17182116157E+03  0.37117458964E+03  0.00000000000E+00 0. -1.
         22    1    1    2    0    0 -0.31603715258E+03 -0.40498791032E+03 -0.40632670907E+03  0.65497792621E+03  0.00000000000E+00 0. -1.
<mgrwt>
<rscale>  0 0.10421812E+04</rscale>
<asrwt>0</asrwt>
<pdfrwt beam="1">  1        2 0.14762722E+00 0.10421812E+04</pdfrwt>
<pdfrwt beam="2">  1       -2 0.43534476E-01 0.10421812E+04</pdfrwt>
<totfact> 0.13329086E+02</totfact>
</mgrwt>
</event>
<event>
 6    1  0.6091287E-004  0.1368968E+04  0.7818608E-02  0.8976593E-01
          2   -1    0    0  501    0  0.00000000000E+00  0.00000000000E+00  0.20575356601E+04  0.20575356601E+04  0.00000000000E+00 0.  1.
         -2   -1    0    0    0  501 -0.00000000000E+00 -0.00000000000E+00 -0.22770832955E+03  0.22770832955E+03  0.00000000000E+00 0. -1.
         23    2    1    2    0    0  0.64103322923E+03 -0.22012567405E+03  0.79916047875E+03  0.10516909617E+04  0.89540464507E+02 0.  0.
         11    1    3    3    0    0  0.39275227184E+03 -0.94997623840E+02  0.50793928512E+03  0.64906179440E+03  0.00000000000E+00 0.  1.
        -11    1    3    3    0    0  0.24828095739E+03 -0.12512805021E+03  0.29122119362E+03  0.40262916731E+03  0.00000000000E+00 0. -1.
         22    1    1    2    0    0 -0.64103322923E+03  0.22012567405E+03  0.10306668518E+04  0.12335530280E+04  0.00000000000E+00 0.  1.
<mgrwt>
<rscale>  0 0.13689675E+04</rscale>
<asrwt>0</asrwt>
<pdfrwt beam="1">  1        2 0.31654394E+00 0.13689675E+04</pdfrwt>
<pdfrwt beam="2">  1       -2 0.35032052E-01 0.13689675E+04</pdfrwt>
<totfact> 0.46336963E+01</totfact>
</mgrwt>
</event>
<event>
 6    1  0.6091287E-004  0.3677042E+04  0.7818608E-02  0.8073069E-01
         -2   -1    0    0    0  501 -0.00000000000E+00  0.00000000000E+00  0.16355964475E+04  0.16355964475E+04  0.00000000000E+00 0. -1.
          2   -1    0    0  501    0  0.00000000000E+00 -0.00000000000E+00 -0.20666223231E+04  0.20666223231E+04  0.00000000000E+00 0.  1.
         23    2    1    2    0    0 -0.21486859086E+03  0.15374953352E+04 -0.12052258542E+04  0.19674432739E+04  0.90571845006E+02 0.  0.
         11    1    3    3    0    0 -0.61529989388E+01  0.18340740288E+03 -0.11543997306E+03  0.21680065084E+03  0.00000000000E+00 0.  1.
        -11    1    3    3    0    0 -0.20871559192E+03  0.13540879323E+04 -0.10897858812E+04  0.17506426230E+04  0.00000000000E+00 0. -1.
         22    1    1    2    0    0  0.21486859086E+03 -0.15374953352E+04  0.77419997865E+03  0.17347754967E+04  0.00000000000E+00 0. -1.
<mgrwt>
<rscale>  0 0.36770424E+04</rscale>
<asrwt>0</asrwt>
<pdfrwt beam="1">  1        2 0.31794190E+00 0.36770424E+04</pdfrwt>
<pdfrwt beam="2">  1       -2 0.25163022E+00 0.36770424E+04</pdfrwt>
<totfact> 0.31197091E-01</totfact>
</mgrwt>
</event>
<event>
 6    1  0.6091287E-004  0.2305910E+04  0.7818608E-02  0.8475595E-01
          2   -1    0    0  501    0  0.00000000000E+00  0.00000000000E+00  0.29405663315E+04  0.29405663315E+04  0.00000000000E+00 0.  1.
         -2   -1    0    0    0  501 -0.00000000000E+00 -0.00000000000E+00 -0.45205758050E+03  0.45205758050E+03  0.00000000000E+00 0. -1.
         23    2    1    2    0    0 -0.45202496999E+02 -0.53474044929E+03  0.27448241553E+04  0.27979070042E+04  0.78951549145E+02 0.  0.
         13    1    3    3    0    0 -0.37442709953E+02 -0.23007466758E+03  0.10132264898E+04  0.10396942958E+04  0.00000000000E+00 0. -1.
        -13    1    3    3    0    0 -0.77597870464E+01 -0.30466578172E+03  0.17315976655E+04  0.17582127084E+04  0.00000000000E+00 0.  1.
         22    1    1    2    0    0  0.45202496999E+02  0.53474044929E+03 -0.25631540431E+03  0.59471690773E+03  0.00000000000E+00 0. -1.
<mgrwt>
<rscale>  0 0.23059101E+04</rscale>
<asrwt>0</asrwt>
<pdfrwt beam="1">  1        2 0.45239481E+00 0.23059101E+04</pdfrwt>
<pdfrwt beam="2">  1       -2 0.69547322E-01 0.23059101E+04</pdfrwt>
<totfact> 0.32420840E+00</totfact>
</mgrwt>
</event>
<event>
 6    1  0.6091287E-004  0.2427332E+04  0.7818608E-02  0.8429341E-01
          2   -1    0    0  501    0  0.00000000000E+00  0.00000000000E+00  0.18472335975E+04  0.18472335975E+04  0.00000000000E+00 0.  1.
         -2   -1    0    0    0  501 -0.00000000000E+00 -0.00000000000E+00 -0.79740038593E+03  0.79740038593E+03  0.00000000000E+00 0. -1.
         23    2    1    2    0    0  0.13633948951E+03  0.65594859095E+03 -0.57485293932E+03  0.88723189533E+03  0.88699063604E+02 0.  0.
         11    1    3    3    0    0  0.32712070749E+02  0.36687602667E+03 -0.29832163862E+03  0.47398723462E+03  0.00000000000E+00 0.  1.
        -11    1    3    3    0    0  0.10362741876E+03  0.28907256428E+03 -0.27653130071E+03  0.41324466071E+03  0.00000000000E+00 0. -1.
         22    1    1    2    0    0 -0.13633948951E+03 -0.65594859095E+03  0.16246861509E+04  0.17574020881E+04  0.00000000000E+00 0.  1.
<mgrwt>
<rscale>  0 0.24273317E+04</rscale>
<asrwt>0</asrwt>
<pdfrwt beam="1">  1        2 0.28418978E+00 0.24273317E+04</pdfrwt>
<pdfrwt beam="2">  1       -2 0.12267698E+00 0.24273317E+04</pdfrwt>
<totfact> 0.36631285E+00</totfact>
</mgrwt>
</event>
<event>
 6    1  0.6091287E-004  0.2593138E+04  0.7818608E-02  0.8370536E-01
         -2   -1    0    0    0  501 -0.00000000000E+00  0.00000000000E+00  0.13906813810E+04  0.13906813810E+04  0.00000000000E+00 0. -1.
          2   -1    0    0  501    0  0.00000000000E+00 -0.00000000000E+00 -0.12088256004E+04  0.12088256004E+04  0.00000000000E+00 0.  1.
         23    2    1    2    0    0 -0.60737751800E+03  0.34345502719E+03 -0.10023851936E+04  0.12249905246E+04  0.94640920185E+02 0.  0.
         11    1    3    3    0    0 -0.14838155186E+03  0.12210536500E+03 -0.32117725076E+03  0.37427480746E+03  0.00000000000E+00 0. -1.
        -11    1    3    3    0    0 -0.45899596615E+03  0.22134966219E+03 -0.68120794286E+03  0.85071571709E+03  0.00000000000E+00 0.  1.
         22    1    1    2    0    0  0.60737751800E+03 -0.34345502719E+03  0.11842409742E+04  0.13745164569E+04  0.00000000000E+00 0. -1.
<mgrwt>
<rscale>  0 0.25931381E+04</rscale>
<asrwt>0</asrwt>
<pdfrwt beam="1">  1        2 0.18597317E+00 0.25931381E+04</pdfrwt>
<pdfrwt beam="2">  1       -2 0.21395098E+00 0.25931381E+04</pdfrwt>
<totfact> 0.17887018E+00</totfact>
</mgrwt>
</event>
<event>
 6    1  0.6091287E-004  0.1038452E+04  0.7818608E-02  0.9267349E-01
          2   -1    0    0  501    0  0.00000000000E+00  0.00000000000E+00  0.39068593074E+03  0.39068593074E+03  0.00000000000E+00 0.  1.
         -2   -1    0    0    0  501 -0.00000000000E+00 -0.00000000000E+00 -0.69005657511E+03  0.69005657511E+03  0.00000000000E+00 0. -1.
         23    2    1    2    0    0 -0.42756825890E+03 -0.11136222006E+03  0.12507561407E+03  0.46806739915E+03  0.90702926290E+02 0.  0.
         13    1    3    3    0    0 -0.21664656237E+03 -0.23107844941E+02  0.94136727652E+02  0.23734242979E+03  0.00000000000E+00 0.  1.
        -13    1    3    3    0    0 -0.21092169652E+03 -0.88254375121E+02  0.30938886419E+02  0.23072496936E+03  0.00000000000E+00 0. -1.
         22    1    1    2    0    0  0.42756825890E+03  0.11136222006E+03 -0.42444625844E+03  0.61267510671E+03  0.00000000000E+00 0. -1.
<mgrwt>
<rscale>  0 0.10384515E+04</rscale>
<asrwt>0</asrwt>
<pdfrwt beam="1">  1        2 0.60105528E-01 0.10384515E+04</pdfrwt>
<pdfrwt beam="2">  1       -2 0.10616255E+00 0.10384515E+04</pdfrwt>
<totfact> 0.58250402E+01</totfact>
</mgrwt>
</event>
<event>
 6    1  0.6091287E-004  0.1711487E+04  0.7818608E-02  0.8754840E-01
          2   -1    0    0  501    0  0.00000000000E+00  0.00000000000E+00  0.19845410841E+04  0.19845410841E+04  0.00000000000E+00 0.  1.
         -2   -1    0    0    0  501 -0.00000000000E+00 -0.00000000000E+00 -0.36900046083E+03  0.36900046083E+03  0.00000000000E+00 0. -1.
         23    2    1    2    0    0 -0.40705864050E+03  0.35318313515E+03  0.17200811239E+04  0.18045754440E+04  0.85897591864E+02 0.  0.
         11    1    3    3    0    0 -0.10716099753E+03  0.50780217099E+02  0.32650485793E+03  0.34737232488E+03  0.00000000000E+00 0.  1.
        -11    1    3    3    0    0 -0.29989764297E+03  0.30240291806E+03  0.13935762660E+04  0.14572031191E+04  0.00000000000E+00 0. -1.
         22    1    1    2    0    0  0.40705864050E+03 -0.35318313515E+03 -0.10454050064E+03  0.54896610099E+03  0.00000000000E+00 0. -1.
<mgrwt>
<rscale>  0 0.17114866E+04</rscale>
<asrwt>0</asrwt>
<pdfrwt beam="1">  1        2 0.30531401E+00 0.17114866E+04</pdfrwt>
<pdfrwt beam="2">  1       -2 0.56769303E-01 0.17114866E+04</pdfrwt>
<totfact> 0.18855231E+01</totfact>
</mgrwt>
</event>
<event>
 6    1  0.6091287E-004  0.1750105E+04  0.7818608E-02  0.8733293E-01
         -2   -1    0    0    0  501 -0.00000000000E+00  0.00000000000E+00  0.68812589647E+03  0.68812589647E+03  0.00000000000E+00 0. -1.
          2   -1    0    0  501    0  0.00000000000E+00 -0.00000000000E+00 -0.11127568762E+04  0.11127568762E+04  0.00000000000E+00 0.  1.
         23    2    1    2    0    0  0.23211215742E+03  0.67784850482E+03 -0.72526009722E+03  0.10238805106E+04  0.94733532577E+02 0.  0.
         11    1    3    3    0    0  0.28758518099E+02  0.32037134019E+02 -0.66481789742E+02  0.79203905754E+02  0.00000000000E+00 0.  1.
        -11    1    3    3    0    0  0.20335363932E+03  0.64581137080E+03 -0.65877830748E+03  0.94467660482E+03  0.00000000000E+00 0. -1.
         22    1    1    2    0    0 -0.23211215742E+03 -0.67784850482E+03  0.30062911746E+03  0.77700226214E+03  0.00000000000E+00 0. -1.
<mgrwt>
<rscale>  0 0.17501049E+04</rscale>
<asrwt>0</asrwt>
<pdfrwt beam="1">  1        2 0.17119336E+00 0.17501049E+04</pdfrwt>
<pdfrwt beam="2">  1       -2 0.10586552E+00 0.17501049E+04</pdfrwt>
<totfact> 0.14617577E+01</totfact>
</mgrwt>
</event>
<event>
 6    1  0.6091287E-004  0.2035053E+04  0.7818608E-02  0.8590405E-01
          2   -1    0    0  501    0  0.00000000000E+00  0.00000000000E+00  0.26452639126E+04  0.26452639126E+04  0.00000000000E+00 0.  1.
         -2   -1    0    0    0  501 -0.00000000000E+00 -0.00000000000E+00 -0.39140146900E+03  0.39140146900E+03  0.00000000000E+00 0. -1.
         23    2    1    2    0    0 -0.49353842584E+03  0.74153945521E+03  0.18569156354E+04  0.20614588855E+04  0.89532777637E+02 0.  0.
         11    1    3    3    0    0 -0.42536524507E+03  0.61596361953E+03  0.14840537827E+04  0.16621559500E+04  0.00000000000E+00 0. -1.
        -11    1    3    3    0    0 -0.68173180762E+02  0.12557583568E+03  0.37286185272E+03  0.39930293550E+03  0.00000000000E+00 0.  1.
         22    1    1    2    0    0  0.49353842584E+03 -0.74153945521E+03  0.39694680814E+03  0.97520649603E+03  0.00000000000E+00 0. -1.
<mgrwt>
<rscale>  0 0.20350530E+04</rscale>
<asrwt>0</asrwt>
<pdfrwt beam="1">  1        2 0.40696367E+00 0.20350530E+04</pdfrwt>
<pdfrwt beam="2">  1       -2 0.60215612E-01 0.20350530E+04</pdfrwt>
<totfact> 0.68204763E+00</totfact>
</mgrwt>
</event>
<event>
 6    1  0.6091287E-004  0.4695518E+04  0.7818608E-02  0.7877274E-01
          2   -1    0    0  501    0  0.00000000000E+00  0.00000000000E+00  0.37982920192E+04  0.37982920192E+04  0.00000000000E+00 0. -1.
         -2   -1    0    0    0  501 -0.00000000000E+00 -0.00000000000E+00 -0.14511709919E+04  0.14511709919E+04  0.00000000000E+00 0.  1.
         23    2    1    2    0    0  0.45392756363E+03 -0.92279836142E+03 -0.11845172509E+04  0.15711378519E+04  0.88238218264E+02 0.  0.
         13    1    3    3    0    0  0.16543756679E+03 -0.40891130186E+03 -0.55250013296E+03  0.70698970163E+03  0.00000000000E+00 0. -1.
        -13    1    3    3    0    0  0.28848999684E+03 -0.51388705956E+03 -0.63201711798E+03  0.86414815031E+03  0.00000000000E+00 0.  1.
         22    1    1    2    0    0 -0.45392756363E+03  0.92279836142E+03  0.35316382782E+04  0.36783251592E+04  0.00000000000E+00 0. -1.
<mgrwt>
<rscale>  0 0.46955175E+04</rscale>
<asrwt>0</asrwt>
<pdfrwt beam="1">  1        2 0.58435261E+00 0.46955175E+04</pdfrwt>
<pdfrwt beam="2">  1       -2 0.22325708E+00 0.46955175E+04</pdfrwt>
<totfact> 0.34516986E-02</totfact>
</mgrwt>
</event>
<event>
 6    1  0.6091287E-004  0.3175109E+04  0.7818608E-02  0.8195422E-01
          2   -1    0    0  501    0  0.00000000000E+00  0.00000000000E+00  0.13497220282E+04  0.13497220282E+04  0.00000000000E+00 0.  1.
         -2   -1    0    0    0  501 -0.00000000000E+00 -0.00000000000E+00 -0.18672950332E+04  0.18672950332E+04  0.00000000000E+00 0. -1.
         23    2    1    2    0    0 -0.91818382208E+02  0.12640019728E+04  0.70827326426E+03  0.14538294143E+04  0.76402528753E+02 0.  0.
         13    1    3    3    0    0 -0.24381586420E+01  0.51095774656E+03  0.26866312313E+03  0.57728990734E+03  0.00000000000E+00 0. -1.
        -13    1    3    3    0    0 -0.89380223566E+02  0.75304422628E+03  0.43961014113E+03  0.87653950698E+03  0.00000000000E+00 0.  1.
         22    1    1    2    0    0  0.91818382208E+02 -0.12640019728E+04 -0.12258462693E+04  0.17631876470E+04  0.00000000000E+00 0. -1.
<mgrwt>
<rscale>  0 0.31751090E+04</rscale>
<asrwt>0</asrwt>
<pdfrwt beam="1">  1        2 0.20764954E+00 0.31751090E+04</pdfrwt>
<pdfrwt beam="2">  1       -2 0.28727616E+00 0.31751090E+04</pdfrwt>
<totfact> 0.49616909E-01</totfact>
</mgrwt>
</event>
<event>
 6    1  0.6091287E-004  0.3216343E+04  0.7818608E-02  0.8184514E-01
         -2   -1    0    0    0  501 -0.00000000000E+00  0.00000000000E+00  0.18931712503E+04  0.18931712503E+04  0.00000000000E+00 0. -1.
          2   -1    0    0  501    0  0.00000000000E+00 -0.00000000000E+00 -0.13660754996E+04  0.13660754996E+04  0.00000000000E+00 0.  1.
         23    2    1    2    0    0  0.62767750461E+03 -0.84511705807E+02  0.17602003664E+04  0.18730042489E+04  0.93371881040E+02 0.  0.
         11    1    3    3    0    0  0.41346196229E+02  0.13123536739E+02  0.16669044516E+03  0.17224238638E+03  0.00000000000E+00 0.  1.
        -11    1    3    3    0    0  0.58633130838E+03 -0.97635242547E+02  0.15935099213E+04  0.17007618625E+04  0.00000000000E+00 0. -1.
         22    1    1    2    0    0 -0.62767750461E+03  0.84511705807E+02 -0.12331046157E+04  0.13862425010E+04  0.00000000000E+00 0.  1.
<mgrwt>
<rscale>  0 0.32163426E+04</rscale>
<asrwt>0</asrwt>
<pdfrwt beam="1">  1        2 0.21016546E+00 0.32163426E+04</pdfrwt>
<pdfrwt beam="2">  1       -2 0.29125712E+00 0.32163426E+04</pdfrwt>
<totfact> 0.45749458E-01</totfact>
</mgrwt>
</event>
<event>
 6    1  0.6091287E-004  0.2054039E+04  0.7818608E-02  0.8581764E-01
          2   -1    0    0  501    0  0.00000000000E+00  0.00000000000E+00  0.24304735205E+04  0.24304735205E+04  0.00000000000E+00 0.  1.
         -2   -1    0    0    0  501 -0.00000000000E+00 -0.00000000000E+00 -0.43397687061E+03  0.43397687061E+03  0.00000000000E+00 0. -1.
         23    2    1    2    0    0 -0.82444899201E+03 -0.60114748367E+03  0.86058619946E+03  0.13375623831E+04  0.85849196049E+02 0.  0.
         11    1    3    3    0    0 -0.10638694606E+03 -0.11363323550E+03  0.11826805702E+03  0.19549431658E+03  0.00000000000E+00 0. -1.
        -11    1    3    3    0    0 -0.71806204595E+03 -0.48751424817E+03  0.74231814244E+03  0.11420680665E+04  0.00000000000E+00 0.  1.
         22    1    1    2    0    0  0.82444899201E+03  0.60114748367E+03  0.11359104504E+04  0.15268880080E+04  0.00000000000E+00 0.  1.
<mgrwt>
<rscale>  0 0.20540392E+04</rscale>
<asrwt>0</asrwt>
<pdfrwt beam="1">  1        2 0.37391899E+00 0.20540392E+04</pdfrwt>
<pdfrwt beam="2">  1       -2 0.66765674E-01 0.20540392E+04</pdfrwt>
<totfact> 0.72795834E+00</totfact>
</mgrwt>
</event>
<event>
 6    1  0.6091287E-004  0.1638203E+04  0.7818608E-02  0.8797416E-01
          2   -1    0    0  501    0  0.00000000000E+00  0.00000000000E+00  0.24552248619E+04  0.24552248619E+04  0.00000000000E+00 0.  1.
         -2   -1    0    0    0  501 -0.00000000000E+00 -0.00000000000E+00 -0.27326498937E+03  0.27326498937E+03  0.00000000000E+00 0. -1.
         23    2    1    2    0    0 -0.31309285240E+03 -0.52227553475E+03  0.20004467832E+04  0.20930798498E+04  0.91635454460E+02 0.  0.
         13    1    3    3    0    0 -0.18425675397E+03 -0.23832227778E+03  0.10815578133E+04  0.11227267535E+04  0.00000000000E+00 0.  1.
        -13    1    3    3    0    0 -0.12883609843E+03 -0.28395325696E+03  0.91888896996E+03  0.97035309631E+03  0.00000000000E+00 0. -1.
         22    1    1    2    0    0  0.31309285240E+03  0.52227553475E+03  0.18151308928E+03  0.63541000149E+03  0.00000000000E+00 0. -1.
<mgrwt>
<rscale>  0 0.16382027E+04</rscale>
<asrwt>0</asrwt>
<pdfrwt beam="1">  1        2 0.37772689E+00 0.16382027E+04</pdfrwt>
<pdfrwt beam="2">  1       -2 0.42040769E-01 0.16382027E+04</pdfrwt>
<totfact> 0.18976919E+01</totfact>
</mgrwt>
</event>
<event>
 6    1  0.6091287E-004  0.9355429E+03  0.7818608E-02  0.9382210E-01
         -2   -1    0    0    0  501 -0.00000000000E+00  0.00000000000E+00  0.28868132896E+03  0.28868132896E+03  0.00000000000E+00 0. -1.
          2   -1    0    0  501    0  0.00000000000E+00 -0.00000000000E+00 -0.75796422269E+03  0.75796422269E+03  0.00000000000E+00 0.  1.
         23    2    1    2    0    0  0.36926861333E+01 -0.41170664428E+03 -0.44811187899E+01  0.42571344034E+03  0.10814738086E+03 0.  0.
         13    1    3    3    0    0  0.47860077230E+02 -0.29434394378E+03 -0.22360971505E+02  0.29904674764E+03  0.00000000000E+00 0.  1.
        -13    1    3    3    0    0 -0.44167391096E+02 -0.11736270050E+03  0.17879852715E+02  0.12666669270E+03  0.00000000000E+00 0. -1.
         22    1    1    2    0    0 -0.36926861333E+01  0.41170664428E+03 -0.46480177493E+03  0.62093211131E+03  0.00000000000E+00 0.  1.
<mgrwt>
<rscale>  0 0.93554288E+03</rscale>
<asrwt>0</asrwt>
<pdfrwt beam="1">  1        2 0.11660988E+00 0.93554288E+03</pdfrwt>
<pdfrwt beam="2">  1       -2 0.44412512E-01 0.93554288E+03</pdfrwt>
<totfact> 0.17804237E+02</totfact>
</mgrwt>
</event>
<event>
 6    1  0.6091287E-004  0.3166769E+04  0.7818608E-02  0.8197649E-01
         -2   -1    0    0    0  501 -0.00000000000E+00  0.00000000000E+00  0.67504599323E+03  0.67504599323E+03  0.00000000000E+00 0. -1.
          2   -1    0    0  501    0  0.00000000000E+00 -0.00000000000E+00 -0.37139784195E+04  0.37139784195E+04  0.00000000000E+00 0.  1.
         23    2    1    2    0    0  0.13538551123E+04 -0.17174527561E+03 -0.41159322473E+03  0.14283941784E+04  0.92091484157E+02 0.  0.
         11    1    3    3    0    0  0.11910948238E+04 -0.18056687743E+03 -0.36827364333E+03  0.12597367792E+04  0.00000000000E+00 0. -1.
        -11    1    3    3    0    0  0.16276028851E+03  0.88216018224E+01 -0.43319581395E+02  0.16865739920E+03  0.00000000000E+00 0.  1.
         22    1    1    2    0    0 -0.13538551123E+04  0.17174527561E+03 -0.26273392016E+04  0.29606302344E+04  0.00000000000E+00 0.  1.
<mgrwt>
<rscale>  0 0.31667689E+04</rscale>
<asrwt>0</asrwt>
<pdfrwt beam="1">  1        2 0.57138129E+00 0.31667689E+04</pdfrwt>
<pdfrwt beam="2">  1       -2 0.10385323E+00 0.31667689E+04</pdfrwt>
<totfact> 0.36270872E-01</totfact>
</mgrwt>
</event>
<event>
 6    1  0.6091287E-004  0.1680099E+04  0.7818608E-02  0.8772797E-01
         -2   -1    0    0    0  501 -0.00000000000E+00  0.00000000000E+00  0.47539244913E+03  0.47539244913E+03  0.00000000000E+00 0. -1.
          2   -1    0    0  501    0  0.00000000000E+00 -0.00000000000E+00 -0.14844227567E+04  0.14844227567E+04  0.00000000000E+00 0.  1.
         23    2    1    2    0    0 -0.74775455740E+03 -0.69900650464E+02 -0.73715064113E+02  0.76029964374E+03  0.92728952072E+02 0.  0.
         11    1    3    3    0    0 -0.35615248237E+03 -0.77636663710E+02 -0.49657784233E+02  0.36788304906E+03  0.00000000000E+00 0. -1.
        -11    1    3    3    0    0 -0.39160207502E+03  0.77360132458E+01 -0.24057279880E+02  0.39241659468E+03  0.00000000000E+00 0.  1.
         22    1    1    2    0    0  0.74775455740E+03  0.69900650464E+02 -0.93531524341E+03  0.11995155620E+04  0.00000000000E+00 0.  1.
<mgrwt>
<rscale>  0 0.16800992E+04</rscale>
<asrwt>0</asrwt>
<pdfrwt beam="1">  1        2 0.22837273E+00 0.16800992E+04</pdfrwt>
<pdfrwt beam="2">  1       -2 0.73137301E-01 0.16800992E+04</pdfrwt>
<totfact> 0.20841114E+01</totfact>
</mgrwt>
</event>
<event>
 6    1  0.7289057E-004  0.3542307E+04  0.7818608E-02  0.8103836E-01
         -2   -1    0    0    0  501 -0.00000000000E+00  0.00000000000E+00  0.30633430821E+04  0.30633430821E+04  0.00000000000E+00 0. -1.
          2   -1    0    0  501    0  0.00000000000E+00 -0.00000000000E+00 -0.10240396047E+04  0.10240396047E+04  0.00000000000E+00 0.  1.
         23    2    1    2    0    0  0.58168416057E+03 -0.61398207641E+02  0.29479648334E+04  0.30067385907E+04  0.88623309484E+02 0.  0.
         11    1    3    3    0    0  0.41119905805E+03 -0.14791903087E+02  0.22028858412E+04  0.22409840462E+04  0.00000000000E+00 0.  1.
        -11    1    3    3    0    0  0.17048510252E+03 -0.46606304553E+02  0.74507899220E+03  0.76575454450E+03  0.00000000000E+00 0. -1.
         22    1    1    2    0    0 -0.58168416057E+03  0.61398207641E+02 -0.90866135604E+03  0.10806440961E+04  0.00000000000E+00 0.  1.
<mgrwt>
<rscale>  0 0.35423070E+04</rscale>
<asrwt>0</asrwt>
<pdfrwt beam="1">  1        2 0.15754456E+00 0.35423070E+04</pdfrwt>
<pdfrwt beam="2">  1       -2 0.47128355E+00 0.35423070E+04</pdfrwt>
<totfact> 0.50020309E-02</totfact>
</mgrwt>
</event>
<event>
 6    1  0.6091287E-004  0.2794601E+04  0.7818608E-02  0.8304947E-01
          2   -1    0    0  501    0  0.00000000000E+00  0.00000000000E+00  0.19780471454E+04  0.19780471454E+04  0.00000000000E+00 0.  1.
         -2   -1    0    0    0  501 -0.00000000000E+00 -0.00000000000E+00 -0.98705850368E+03  0.98705850368E+03  0.00000000000E+00 0. -1.
         23    2    1    2    0    0 -0.10947021725E+04 -0.53154388552E+02 -0.42111541189E+03  0.11775833153E+04  0.90366138045E+02 0.  0.
         11    1    3    3    0    0 -0.44147138152E+03 -0.63670689534E+02 -0.15616395790E+03  0.47258662609E+03  0.00000000000E+00 0.  1.
        -11    1    3    3    0    0 -0.65323079098E+03  0.10516300982E+02 -0.26495145399E+03  0.70499668924E+03  0.00000000000E+00 0. -1.
         22    1    1    2    0    0  0.10947021725E+04  0.53154388552E+02  0.14121040537E+04  0.17875223338E+04  0.00000000000E+00 0.  1.
<mgrwt>
<rscale>  0 0.27946007E+04</rscale>
<asrwt>0</asrwt>
<pdfrwt beam="1">  1        2 0.30431495E+00 0.27946007E+04</pdfrwt>
<pdfrwt beam="2">  1       -2 0.15185515E+00 0.27946007E+04</pdfrwt>
<totfact> 0.17348789E+00</totfact>
</mgrwt>
</event>
<event>
 6    1  0.6091287E-004  0.1849101E+04  0.7818608E-02  0.8680615E-01
         -2   -1    0    0    0  501 -0.00000000000E+00  0.00000000000E+00  0.70072209607E+03  0.70072209607E+03  0.00000000000E+00 0. -1.
          2   -1    0    0  501    0  0.00000000000E+00 -0.00000000000E+00 -0.12198758507E+04  0.12198758507E+04  0.00000000000E+00 0.  1.
         23    2    1    2    0    0 -0.58929526109E+03  0.19184877074E+03  0.44926300168E+03  0.77085629340E+03  0.91144527124E+02 0.  0.
         13    1    3    3    0    0 -0.51738320161E+03  0.17021189780E+03  0.35417521173E+03  0.64969034782E+03  0.00000000000E+00 0.  1.
        -13    1    3    3    0    0 -0.71912059485E+02  0.21636872940E+02  0.95087789950E+02  0.12116594558E+03  0.00000000000E+00 0. -1.
         22    1    1    2    0    0  0.58929526109E+03 -0.19184877074E+03 -0.96841675628E+03  0.11497416533E+04  0.00000000000E+00 0.  1.
<mgrwt>
<rscale>  0 0.18491014E+04</rscale>
<asrwt>0</asrwt>
<pdfrwt beam="1">  1        2 0.18767321E+00 0.18491014E+04</pdfrwt>
<pdfrwt beam="2">  1       -2 0.10780340E+00 0.18491014E+04</pdfrwt>
<totfact> 0.11958717E+01</totfact>
</mgrwt>
</event>
<event>
 6    1  0.6091287E-004  0.2406883E+04  0.7818608E-02  0.8436931E-01
          2   -1    0    0  501    0  0.00000000000E+00  0.00000000000E+00  0.79221666152E+03  0.79221666152E+03  0.00000000000E+00 0.  1.
         -2   -1    0    0    0  501 -0.00000000000E+00 -0.00000000000E+00 -0.18281248647E+04  0.18281248647E+04  0.00000000000E+00 0. -1.
         23    2    1    2    0    0 -0.11885409097E+04  0.16573272457E+03 -0.58723242215E+03  0.13391675386E+04  0.91820198057E+02 0.  0.
         13    1    3    3    0    0 -0.10160445307E+04  0.11123607582E+03 -0.48450592317E+03  0.11311348030E+04  0.00000000000E+00 0. -1.
        -13    1    3    3    0    0 -0.17249637899E+03  0.54496648746E+02 -0.10272649897E+03  0.20803273560E+03  0.00000000000E+00 0.  1.
         22    1    1    2    0    0  0.11885409097E+04 -0.16573272457E+03 -0.44867578103E+03  0.12811739876E+04  0.00000000000E+00 0. -1.
<mgrwt>
<rscale>  0 0.24068826E+04</rscale>
<asrwt>0</asrwt>
<pdfrwt beam="1">  1        2 0.12187949E+00 0.24068826E+04</pdfrwt>
<pdfrwt beam="2">  1       -2 0.28124998E+00 0.24068826E+04</pdfrwt>
<totfact> 0.12978851E+00</totfact>
</mgrwt>
</event>
<event>
 6    1  0.6091287E-004  0.3529589E+04  0.7818608E-02  0.8106813E-01
          2   -1    0    0  501    0  0.00000000000E+00  0.00000000000E+00  0.43072916052E+04  0.43072916052E+04  0.00000000000E+00 0.  1.
         -2   -1    0    0    0  501 -0.00000000000E+00 -0.00000000000E+00 -0.72307612071E+03  0.72307612071E+03  0.00000000000E+00 0. -1.
         23    2    1    2    0    0  0.68418702384E+03 -0.16148953267E+04  0.15291456543E+04  0.23286440526E+04  0.91092765360E+02 0.  0.
         13    1    3    3    0    0  0.32103183688E+03 -0.64409035551E+03  0.61811620789E+03  0.94867353331E+03  0.00000000000E+00 0. -1.
        -13    1    3    3    0    0  0.36315518697E+03 -0.97080497120E+03  0.91102944642E+03  0.13799705193E+04  0.00000000000E+00 0.  1.
         22    1    1    2    0    0 -0.68418702384E+03  0.16148953267E+04  0.20550698302E+04  0.27017236733E+04  0.00000000000E+00 0. -1.
<mgrwt>
<rscale>  0 0.35295890E+04</rscale>
<asrwt>0</asrwt>
<pdfrwt beam="1">  1        2 0.66266023E+00 0.35295890E+04</pdfrwt>
<pdfrwt beam="2">  1       -2 0.11124248E+00 0.35295890E+04</pdfrwt>
<totfact> 0.97525885E-02</totfact>
</mgrwt>
</event>
<event>
 6    1  0.6091287E-004  0.7377935E+03  0.7818608E-02  0.9654697E-01
          4   -1    0    0  501    0  0.00000000000E+00  0.00000000000E+00  0.61700346451E+03  0.61700346451E+03  0.00000000000E+00 0.  1.
         -4   -1    0    0    0  501 -0.00000000000E+00 -0.00000000000E+00 -0.22055763901E+03  0.22055763901E+03  0.00000000000E+00 0. -1.
         23    2    1    2    0    0  0.20667460802E+03  0.27305158706E+03  0.33835324954E+03  0.49021932634E+03  0.92522989831E+02 0.  0.
         13    1    3    3    0    0  0.12464032546E+03  0.22690433994E+03  0.26872978007E+03  0.37314405383E+03  0.00000000000E+00 0. -1.
        -13    1    3    3    0    0  0.82034282558E+02  0.46147247121E+02  0.69623469470E+02  0.11707527251E+03  0.00000000000E+00 0.  1.
         22    1    1    2    0    0 -0.20667460802E+03 -0.27305158706E+03  0.58092575956E+02  0.34734177718E+03  0.00000000000E+00 0.  1.
<mgrwt>
<rscale>  0 0.73779354E+03</rscale>
<asrwt>0</asrwt>
<pdfrwt beam="1">  1        4 0.94923609E-01 0.73779354E+03</pdfrwt>
<pdfrwt beam="2">  1       -4 0.33931945E-01 0.73779354E+03</pdfrwt>
<totfact> 0.15706992E+01</totfact>
</mgrwt>
</event>
<event>
 6    1  0.6091287E-004  0.2672226E+04  0.7818608E-02  0.8344073E-01
         -2   -1    0    0    0  501 -0.00000000000E+00  0.00000000000E+00  0.53088618860E+03  0.53088618860E+03  0.00000000000E+00 0. -1.
          2   -1    0    0  501    0  0.00000000000E+00 -0.00000000000E+00 -0.33626762962E+04  0.33626762962E+04  0.00000000000E+00 0.  1.
         23    2    1    2    0    0 -0.46290335087E+03 -0.11403209697E+04 -0.21705983480E+04  0.24964991473E+04  0.79996112434E+02 0.  0.
         13    1    3    3    0    0 -0.74550614783E+02 -0.17571362048E+03 -0.28134126158E+03  0.33997937593E+03  0.00000000000E+00 0.  1.
        -13    1    3    3    0    0 -0.38835273609E+03 -0.96460734918E+03 -0.18892570864E+04  0.21565197713E+04  0.00000000000E+00 0. -1.
         22    1    1    2    0    0  0.46290335087E+03  0.11403209697E+04 -0.66119175966E+03  0.13970633376E+04  0.00000000000E+00 0. -1.
<mgrwt>
<rscale>  0 0.26722263E+04</rscale>
<asrwt>0</asrwt>
<pdfrwt beam="1">  1        2 0.51733480E+00 0.26722263E+04</pdfrwt>
<pdfrwt beam="2">  1       -2 0.81674800E-01 0.26722263E+04</pdfrwt>
<totfact> 0.11726174E+00</totfact>
</mgrwt>
</event>
<event>
 6    1  0.6091287E-004  0.1456515E+04  0.7818608E-02  0.8913896E-01
         -1   -1    0    0    0  501 -0.00000000000E+00  0.00000000000E+00  0.38037834394E+03  0.38037834394E+03  0.00000000000E+00 0. -1.
          1   -1    0    0  501    0  0.00000000000E+00 -0.00000000000E+00 -0.13942935547E+04  0.13942935547E+04  0.00000000000E+00 0.  1.
         23    2    1    2    0    0 -0.94783280963E+02  0.51889186004E+03 -0.11156157126E+04  0.12374795449E+04  0.92328614999E+02 0.  0.
         11    1    3    3    0    0 -0.32522119567E+02  0.19109915188E+03 -0.31151343297E+03  0.36690215730E+03  0.00000000000E+00 0. -1.
        -11    1    3    3    0    0 -0.62261161396E+02  0.32779270815E+03 -0.80410227965E+03  0.87057738764E+03  0.00000000000E+00 0.  1.
         22    1    1    2    0    0  0.94783280963E+02 -0.51889186004E+03  0.10170050188E+03  0.53719235367E+03  0.00000000000E+00 0. -1.
<mgrwt>
<rscale>  0 0.14565151E+04</rscale>
<asrwt>0</asrwt>
<pdfrwt beam="1">  1        1 0.21450670E+00 0.14565151E+04</pdfrwt>
<pdfrwt beam="2">  1       -1 0.58519747E-01 0.14565151E+04</pdfrwt>
<totfact> 0.22272454E+01</totfact>
</mgrwt>
</event>
<event>
 6    1  0.6091287E-004  0.2354098E+04  0.7818608E-02  0.8456891E-01
          2   -1    0    0  501    0  0.00000000000E+00  0.00000000000E+00  0.13584124057E+04  0.13584124057E+04  0.00000000000E+00 0.  1.
         -2   -1    0    0    0  501 -0.00000000000E+00 -0.00000000000E+00 -0.10199000846E+04  0.10199000846E+04  0.00000000000E+00 0. -1.
         23    2    1    2    0    0  0.14472038949E+03 -0.91300365177E+03  0.90237438904E+03  0.12955105273E+04  0.97715551902E+02 0.  0.
         13    1    3    3    0    0  0.99323966892E+01 -0.30445516503E+03  0.26066511832E+03  0.40092131887E+03  0.00000000000E+00 0. -1.
        -13    1    3    3    0    0  0.13478799280E+03 -0.60854848674E+03  0.64170927073E+03  0.89458920844E+03  0.00000000000E+00 0.  1.
         22    1    1    2    0    0 -0.14472038949E+03  0.91300365177E+03 -0.56386206796E+03  0.10828019630E+04  0.00000000000E+00 0. -1.
<mgrwt>
<rscale>  0 0.23540985E+04</rscale>
<asrwt>0</asrwt>
<pdfrwt beam="1">  1        2 0.20898653E+00 0.23540985E+04</pdfrwt>
<pdfrwt beam="2">  1       -2 0.15690770E+00 0.23540985E+04</pdfrwt>
<totfact> 0.36660846E+00</totfact>
</mgrwt>
</event>
<event>
 6    1  0.6091287E-004  0.1673752E+04  0.7818608E-02  0.8776478E-01
         -2   -1    0    0    0  501 -0.00000000000E+00  0.00000000000E+00  0.33672033628E+03  0.33672033628E+03  0.00000000000E+00 0.  1.
          2   -1    0    0  501    0  0.00000000000E+00 -0.00000000000E+00 -0.20799488085E+04  0.20799488085E+04  0.00000000000E+00 0. -1.
         23    2    1    2    0    0 -0.62770077749E+03 -0.25774961900E+02 -0.16668556315E+04  0.17838141649E+04  0.94406906467E+02 0.  0.
         11    1    3    3    0    0 -0.55949444563E+03 -0.36657824442E+02 -0.13984774628E+04  0.15066907595E+04  0.00000000000E+00 0. -1.
        -11    1    3    3    0    0 -0.68206331864E+02  0.10882862542E+02 -0.26837816863E+03  0.27712340536E+03  0.00000000000E+00 0.  1.
         22    1    1    2    0    0  0.62770077749E+03  0.25774961900E+02 -0.76372840724E+02  0.63285497985E+03  0.00000000000E+00 0.  1.
<mgrwt>
<rscale>  0 0.16737515E+04</rscale>
<asrwt>0</asrwt>
<pdfrwt beam="1">  1        2 0.31999212E+00 0.16737515E+04</pdfrwt>
<pdfrwt beam="2">  1       -2 0.51803129E-01 0.16737515E+04</pdfrwt>
<totfact> 0.20237508E+01</totfact>
</mgrwt>
</event>
<event>
 6    1  0.6091287E-004  0.2537399E+04  0.7818608E-02  0.8389782E-01
         -2   -1    0    0    0  501 -0.00000000000E+00  0.00000000000E+00  0.54447191085E+03  0.54447191085E+03  0.00000000000E+00 0. -1.
          2   -1    0    0  501    0  0.00000000000E+00 -0.00000000000E+00 -0.29562561072E+04  0.29562561072E+04  0.00000000000E+00 0.  1.
         23    2    1    2    0    0  0.16363131031E+03  0.75892582912E+03  0.17492162792E+03  0.80002613870E+03  0.81857356839E+02 0.  0.
         11    1    3    3    0    0  0.11509665555E+03  0.65450097720E+03  0.13475489363E+03  0.67806906037E+03  0.00000000000E+00 0. -1.
        -11    1    3    3    0    0  0.48534654754E+02  0.10442485192E+03  0.40166734292E+02  0.12195707833E+03  0.00000000000E+00 0.  1.
         22    1    1    2    0    0 -0.16363131031E+03 -0.75892582912E+03 -0.25867058243E+04  0.27007018794E+04  0.00000000000E+00 0.  1.
<mgrwt>
<rscale>  0 0.25373990E+04</rscale>
<asrwt>0</asrwt>
<pdfrwt beam="1">  1        2 0.45480863E+00 0.25373990E+04</pdfrwt>
<pdfrwt beam="2">  1       -2 0.83764910E-01 0.25373990E+04</pdfrwt>
<totfact> 0.20538367E+00</totfact>
</mgrwt>
</event>
<event>
 6    1  0.6379102E-004  0.4096600E+04  0.7818608E-02  0.7985338E-01
          2   -1    0    0  501    0  0.00000000000E+00  0.00000000000E+00  0.17567128741E+04  0.17567128741E+04  0.00000000000E+00 0.  1.
         -2   -1    0    0    0  501 -0.00000000000E+00 -0.00000000000E+00 -0.23882859380E+04  0.23882859380E+04  0.00000000000E+00 0. -1.
         23    2    1    2    0    0 -0.16475690079E+04  0.10871051376E+04  0.23378356056E+03  0.19897440004E+04  0.90250862895E+02 0.  0.
         11    1    3    3    0    0 -0.90425929379E+03  0.62907547156E+03  0.16637684228E+03  0.11140476080E+04  0.00000000000E+00 0. -1.
        -11    1    3    3    0    0 -0.74330971407E+03  0.45802966599E+03  0.67406718285E+02  0.87569639238E+03  0.00000000000E+00 0.  1.
         22    1    1    2    0    0  0.16475690079E+04 -0.10871051376E+04 -0.86535662441E+03  0.21552548117E+04  0.00000000000E+00 0. -1.
<mgrwt>
<rscale>  0 0.40965999E+04</rscale>
<asrwt>0</asrwt>
<pdfrwt beam="1">  1        2 0.27026352E+00 0.40965999E+04</pdfrwt>
<pdfrwt beam="2">  1       -2 0.36742860E+00 0.40965999E+04</pdfrwt>
<totfact> 0.86054837E-02</totfact>
</mgrwt>
</event>
<event>
 6    1  0.6091287E-004  0.2453469E+04  0.7818608E-02  0.8419753E-01
         -2   -1    0    0    0  501 -0.00000000000E+00  0.00000000000E+00  0.64986144157E+03  0.64986144157E+03  0.00000000000E+00 0. -1.
          2   -1    0    0  501    0  0.00000000000E+00 -0.00000000000E+00 -0.23156895004E+04  0.23156895004E+04  0.00000000000E+00 0.  1.
         23    2    1    2    0    0  0.60786011559E+03 -0.10594752126E+04 -0.94609478477E+03  0.15478070892E+04  0.92896703644E+02 0.  0.
         11    1    3    3    0    0  0.54312311837E+03 -0.88090369997E+03 -0.80867006981E+03  0.13133626050E+04  0.00000000000E+00 0.  1.
        -11    1    3    3    0    0  0.64736997221E+02 -0.17857151260E+03 -0.13742471497E+03  0.23444448427E+03  0.00000000000E+00 0. -1.
         22    1    1    2    0    0 -0.60786011559E+03  0.10594752126E+04 -0.71973327403E+03  0.14177438527E+04  0.00000000000E+00 0.  1.
<mgrwt>
<rscale>  0 0.24534688E+04</rscale>
<asrwt>0</asrwt>
<pdfrwt beam="1">  1        2 0.35625994E+00 0.24534688E+04</pdfrwt>
<pdfrwt beam="2">  1       -2 0.99978680E-01 0.24534688E+04</pdfrwt>
<totfact> 0.32857830E+00</totfact>
</mgrwt>
</event>
<event>
 6    1  0.6091287E-004  0.1330904E+04  0.7818608E-02  0.9005410E-01
          2   -1    0    0  501    0  0.00000000000E+00  0.00000000000E+00  0.87246863711E+03  0.87246863711E+03  0.00000000000E+00 0.  1.
         -2   -1    0    0    0  501 -0.00000000000E+00 -0.00000000000E+00 -0.50755596482E+03  0.50755596482E+03  0.00000000000E+00 0. -1.
         23    2    1    2    0    0  0.59692913223E+03  0.43096895579E+02 -0.10944174830E+03  0.61635330638E+03  0.98651764798E+02 0.  0.
         13    1    3    3    0    0  0.13851140868E+03  0.42495906303E+01  0.16000526643E+02  0.13949726236E+03  0.00000000000E+00 0.  1.
        -13    1    3    3    0    0  0.45841772355E+03  0.38847304949E+02 -0.12544227494E+03  0.47685604401E+03  0.00000000000E+00 0. -1.
         22    1    1    2    0    0 -0.59692913223E+03 -0.43096895579E+02  0.47435442059E+03  0.76367129555E+03  0.00000000000E+00 0. -1.
<mgrwt>
<rscale>  0 0.13309044E+04</rscale>
<asrwt>0</asrwt>
<pdfrwt beam="1">  1        2 0.13422594E+00 0.13309044E+04</pdfrwt>
<pdfrwt beam="2">  1       -2 0.78085533E-01 0.13309044E+04</pdfrwt>
<totfact> 0.43727174E+01</totfact>
</mgrwt>
</event>
<event>
 6    1  0.6091287E-004  0.2690742E+04  0.7818608E-02  0.8338015E-01
          2   -1    0    0  501    0  0.00000000000E+00  0.00000000000E+00  0.10055170428E+04  0.10055170428E+04  0.00000000000E+00 0.  1.
         -2   -1    0    0    0  501 -0.00000000000E+00 -0.00000000000E+00 -0.18000914041E+04  0.18000914041E+04  0.00000000000E+00 0. -1.
         23    2    1    2    0    0  0.10095438075E+03  0.10848561721E+04  0.42257528019E+03  0.11720363025E+04  0.89412112362E+02 0.  0.
         13    1    3    3    0    0 -0.61526564146E+01  0.37089982250E+03  0.13026576470E+03  0.39315862316E+03  0.00000000000E+00 0. -1.
        -13    1    3    3    0    0  0.10710703717E+03  0.71395634963E+03  0.29230951550E+03  0.77887767938E+03  0.00000000000E+00 0.  1.
         22    1    1    2    0    0 -0.10095438075E+03 -0.10848561721E+04 -0.12171496415E+04  0.16335721444E+04  0.00000000000E+00 0. -1.
<mgrwt>
<rscale>  0 0.26907416E+04</rscale>
<asrwt>0</asrwt>
<pdfrwt beam="1">  1        2 0.15469493E+00 0.26907416E+04</pdfrwt>
<pdfrwt beam="2">  1       -2 0.27693713E+00 0.26907416E+04</pdfrwt>
<totfact> 0.96430414E-01</totfact>
</mgrwt>
</event>
<event>
 6    1  0.6091287E-004  0.4307319E+04  0.7818608E-02  0.7945266E-01
         -2   -1    0    0    0  501 -0.00000000000E+00  0.00000000000E+00  0.46653215280E+04  0.46653215280E+04  0.00000000000E+00 0. -1.
          2   -1    0    0  501    0  0.00000000000E+00 -0.00000000000E+00 -0.99419705439E+03  0.99419705439E+03  0.00000000000E+00 0.  1.
         23    2    1    2    0    0  0.86359359746E+03  0.10901241475E+04  0.39953703665E+04  0.42314779815E+04  0.90867949331E+02 0.  0.
         11    1    3    3    0    0  0.42306387186E+03  0.60673641115E+03  0.21335484822E+04  0.22581278171E+04  0.00000000000E+00 0. -1.
        -11    1    3    3    0    0  0.44052972559E+03  0.48338773636E+03  0.18618218843E+04  0.19733501645E+04  0.00000000000E+00 0.  1.
         22    1    1    2    0    0 -0.86359359746E+03 -0.10901241475E+04 -0.32424589290E+03  0.14280406008E+04  0.00000000000E+00 0.  1.
<mgrwt>
<rscale>  0 0.43073189E+04</rscale>
<asrwt>0</asrwt>
<pdfrwt beam="1">  1        2 0.15295340E+00 0.43073189E+04</pdfrwt>
<pdfrwt beam="2">  1       -2 0.71774176E+00 0.43073189E+04</pdfrwt>
<totfact> 0.38319106E-03</totfact>
</mgrwt>
</event>
<event>
 6    1  0.6091287E-004  0.2443955E+04  0.7818608E-02  0.8423228E-01
          2   -1    0    0  501    0  0.00000000000E+00  0.00000000000E+00  0.32615943150E+04  0.32615943150E+04  0.00000000000E+00 0.  1.
         -2   -1    0    0    0  501 -0.00000000000E+00 -0.00000000000E+00 -0.45782192029E+03  0.45782192029E+03  0.00000000000E+00 0. -1.
         23    2    1    2    0    0  0.94156065536E+03  0.43578049898E+03  0.23814924959E+04  0.25992548969E+04  0.90434508652E+02 0.  0.
         13    1    3    3    0    0  0.30313950125E+03  0.16540462889E+03  0.70407093652E+03  0.78419903859E+03  0.00000000000E+00 0. -1.
        -13    1    3    3    0    0  0.63842115410E+03  0.27037587009E+03  0.16774215593E+04  0.18150558583E+04  0.00000000000E+00 0.  1.
         22    1    1    2    0    0 -0.94156065536E+03 -0.43578049898E+03  0.42227989884E+03  0.11201613384E+04  0.00000000000E+00 0.  1.
<mgrwt>
<rscale>  0 0.24439553E+04</rscale>
<asrwt>0</asrwt>
<pdfrwt beam="1">  1        2 0.50178373E+00 0.24439553E+04</pdfrwt>
<pdfrwt beam="2">  1       -2 0.70434144E-01 0.24439553E+04</pdfrwt>
<totfact> 0.19428777E+00</totfact>
</mgrwt>
</event>
<event>
 6    1  0.6091287E-004  0.1841035E+04  0.7818608E-02  0.8684777E-01
         -2   -1    0    0    0  501 -0.00000000000E+00  0.00000000000E+00  0.56580846229E+03  0.56580846229E+03  0.00000000000E+00 0. -1.
          2   -1    0    0  501    0  0.00000000000E+00 -0.00000000000E+00 -0.14975954666E+04  0.14975954666E+04  0.00000000000E+00 0.  1.
         23    2    1    2    0    0  0.35581162595E+03  0.65312904801E+03 -0.10705140876E+04  0.13068164124E+04  0.92678246851E+02 0.  0.
         11    1    3    3    0    0  0.72319328556E+02  0.12299832083E+03 -0.14691381868E+03  0.20479829669E+03  0.00000000000E+00 0. -1.
        -11    1    3    3    0    0  0.28349229739E+03  0.53013072718E+03 -0.92360026896E+03  0.11020181157E+04  0.00000000000E+00 0.  1.
         22    1    1    2    0    0 -0.35581162595E+03 -0.65312904801E+03  0.13872708328E+03  0.75658751651E+03  0.00000000000E+00 0. -1.
<mgrwt>
<rscale>  0 0.18410347E+04</rscale>
<asrwt>0</asrwt>
<pdfrwt beam="1">  1        2 0.23039930E+00 0.18410347E+04</pdfrwt>
<pdfrwt beam="2">  1       -2 0.87047456E-01 0.18410347E+04</pdfrwt>
<totfact> 0.13673226E+01</totfact>
</mgrwt>
</event>
<event>
 6    1  0.6091287E-004  0.1968168E+04  0.7818608E-02  0.8621650E-01
         -2   -1    0    0    0  501 -0.00000000000E+00  0.00000000000E+00  0.12771638297E+04  0.12771638297E+04  0.00000000000E+00 0. -1.
          2   -1    0    0  501    0  0.00000000000E+00 -0.00000000000E+00 -0.75825906858E+03  0.75825906858E+03  0.00000000000E+00 0.  1.
         23    2    1    2    0    0  0.21284072443E+03  0.27771198535E+03 -0.68848788602E+03  0.77835403574E+03  0.96924274412E+02 0.  0.
         11    1    3    3    0    0  0.75181451063E+02  0.69851185863E+02 -0.12193595033E+03  0.15937319327E+03  0.00000000000E+00 0.  1.
        -11    1    3    3    0    0  0.13765927336E+03  0.20786079949E+03 -0.56655193569E+03  0.61898084247E+03  0.00000000000E+00 0. -1.
         22    1    1    2    0    0 -0.21284072443E+03 -0.27771198535E+03  0.12073926472E+04  0.12570688625E+04  0.00000000000E+00 0. -1.
<mgrwt>
<rscale>  0 0.19681677E+04</rscale>
<asrwt>0</asrwt>
<pdfrwt beam="1">  1        2 0.11665524E+00 0.19681677E+04</pdfrwt>
<pdfrwt beam="2">  1       -2 0.19648674E+00 0.19681677E+04</pdfrwt>
<totfact> 0.48281193E+00</totfact>
</mgrwt>
</event>
<event>
 6    1  0.6091287E-004  0.3175525E+04  0.7818608E-02  0.8195311E-01
         -2   -1    0    0    0  501 -0.00000000000E+00  0.00000000000E+00  0.17966962934E+04  0.17966962934E+04  0.00000000000E+00 0. -1.
          2   -1    0    0  501    0  0.00000000000E+00 -0.00000000000E+00 -0.14031252545E+04  0.14031252545E+04  0.00000000000E+00 0.  1.
         23    2    1    2    0    0  0.11226063092E+04 -0.84074179684E+03 -0.55018131225E+03  0.15093304374E+04  0.91034050640E+02 0.  0.
         13    1    3    3    0    0  0.80255395257E+03 -0.59648481380E+03 -0.43583290450E+03  0.10907966357E+04  0.00000000000E+00 0.  1.
        -13    1    3    3    0    0  0.32005235662E+03 -0.24425698303E+03 -0.11434840775E+03  0.41853380161E+03  0.00000000000E+00 0. -1.
         22    1    1    2    0    0 -0.11226063092E+04  0.84074179684E+03  0.94375235122E+03  0.16904911105E+04  0.00000000000E+00 0. -1.
<mgrwt>
<rscale>  0 0.31755251E+04</rscale>
<asrwt>0</asrwt>
<pdfrwt beam="1">  1        2 0.21586542E+00 0.31755251E+04</pdfrwt>
<pdfrwt beam="2">  1       -2 0.27641481E+00 0.31755251E+04</pdfrwt>
<totfact> 0.53849829E-01</totfact>
</mgrwt>
</event>
<event>
 6    1  0.6091287E-004  0.1768528E+04  0.7818608E-02  0.8723217E-01
          2   -1    0    0  501    0  0.00000000000E+00  0.00000000000E+00  0.28820090970E+04  0.28820090970E+04  0.00000000000E+00 0.  1.
         -2   -1    0    0    0  501 -0.00000000000E+00 -0.00000000000E+00 -0.27131176503E+03  0.27131176503E+03  0.00000000000E+00 0. -1.
         23    2    1    2    0    0  0.46155326797E+03  0.91100849598E+02 -0.21193803096E+02  0.47971248929E+03  0.91346106228E+02 0.  0.
         11    1    3    3    0    0  0.38526901031E+03  0.42145477972E+02 -0.29515392762E+02  0.38868960628E+03  0.00000000000E+00 0. -1.
        -11    1    3    3    0    0  0.76284257659E+02  0.48955371626E+02  0.83215896665E+01  0.91022883014E+02  0.00000000000E+00 0.  1.
         22    1    1    2    0    0 -0.46155326797E+03 -0.91100849598E+02  0.26318911351E+04  0.26736083728E+04  0.00000000000E+00 0.  1.
<mgrwt>
<rscale>  0 0.17685282E+04</rscale>
<asrwt>0</asrwt>
<pdfrwt beam="1">  1        2 0.44338599E+00 0.17685282E+04</pdfrwt>
<pdfrwt beam="2">  1       -2 0.41740274E-01 0.17685282E+04</pdfrwt>
<totfact> 0.10643875E+01</totfact>
</mgrwt>
</event>
<event>
 6    1  0.6091287E-004  0.2633310E+04  0.7818608E-02  0.8356974E-01
         -2   -1    0    0    0  501 -0.00000000000E+00  0.00000000000E+00  0.72374268751E+03  0.72374268751E+03  0.00000000000E+00 0. -1.
          2   -1    0    0  501    0  0.00000000000E+00 -0.00000000000E+00 -0.23952990593E+04  0.23952990593E+04  0.00000000000E+00 0.  1.
         23    2    1    2    0    0 -0.11352106563E+04 -0.53098245615E+03 -0.36490927807E+03  0.13085246300E+04  0.91827681611E+02 0.  0.
         13    1    3    3    0    0 -0.76265251630E+03 -0.30892573150E+03 -0.24469612535E+03  0.85845801409E+03  0.00000000000E+00 0. -1.
        -13    1    3    3    0    0 -0.37255813999E+03 -0.22205672465E+03 -0.12021315272E+03  0.45006661587E+03  0.00000000000E+00 0.  1.
         22    1    1    2    0    0  0.11352106563E+04  0.53098245615E+03 -0.13066470937E+04  0.18105171169E+04  0.00000000000E+00 0.  1.
<mgrwt>
<rscale>  0 0.26333098E+04</rscale>
<asrwt>0</asrwt>
<pdfrwt beam="1">  1        2 0.36850755E+00 0.26333098E+04</pdfrwt>
<pdfrwt beam="2">  1       -2 0.11134503E+00 0.26333098E+04</pdfrwt>
<totfact> 0.22506362E+00</totfact>
</mgrwt>
</event>
<event>
 6    1  0.6091287E-004  0.4443042E+04  0.7818608E-02  0.7920685E-01
          2   -1    0    0  501    0  0.00000000000E+00  0.00000000000E+00  0.34092086651E+04  0.34092086651E+04  0.00000000000E+00 0.  1.
         -2   -1    0    0    0  501 -0.00000000000E+00 -0.00000000000E+00 -0.14475958487E+04  0.14475958487E+04  0.00000000000E+00 0. -1.
         23    2    1    2    0    0 -0.11581291000E+04 -0.15576070325E+04 -0.19776868360E+03  0.19533012604E+04  0.94184295131E+02 0.  0.
         13    1    3    3    0    0 -0.85312643398E+03 -0.12015265301E+04 -0.17421544781E+03  0.14838604170E+04  0.00000000000E+00 0. -1.
        -13    1    3    3    0    0 -0.30500266606E+03 -0.35608050238E+03 -0.23553235792E+02  0.46944084334E+03  0.00000000000E+00 0.  1.
         22    1    1    2    0    0  0.11581291000E+04  0.15576070325E+04  0.21593815000E+04  0.29035032534E+04  0.00000000000E+00 0.  1.
<mgrwt>
<rscale>  0 0.44430423E+04</rscale>
<asrwt>0</asrwt>
<pdfrwt beam="1">  1        2 0.52449364E+00 0.44430423E+04</pdfrwt>
<pdfrwt beam="2">  1       -2 0.22270706E+00 0.44430423E+04</pdfrwt>
<totfact> 0.67852924E-02</totfact>
</mgrwt>
</event>
<event>
 6    1  0.6091287E-004  0.1416636E+04  0.7818608E-02  0.8941864E-01
          1   -1    0    0  501    0  0.00000000000E+00  0.00000000000E+00  0.35598942887E+04  0.35598942887E+04  0.00000000000E+00 0.  1.
         -1   -1    0    0    0  501 -0.00000000000E+00 -0.00000000000E+00 -0.14093514884E+03  0.14093514884E+03  0.00000000000E+00 0. -1.
         23    2    1    2    0    0 -0.68308760840E+02 -0.61713063355E+03  0.84094282606E+03  0.10490970944E+04  0.88902030478E+02 0.  0.
         11    1    3    3    0    0  0.16163363495E+01 -0.32290184232E+03  0.47496084528E+03  0.57433092975E+03  0.00000000000E+00 0. -1.
        -11    1    3    3    0    0 -0.69925097190E+02 -0.29422879123E+03  0.36598198078E+03  0.47476616461E+03  0.00000000000E+00 0.  1.
         22    1    1    2    0    0  0.68308760840E+02  0.61713063355E+03  0.25780163138E+04  0.26517323432E+04  0.00000000000E+00 0.  1.
<mgrwt>
<rscale>  0 0.14166358E+04</rscale>
<asrwt>0</asrwt>
<pdfrwt beam="1">  1        1 0.54767598E+00 0.14166358E+04</pdfrwt>
<pdfrwt beam="2">  1       -1 0.21682333E-01 0.14166358E+04</pdfrwt>
<totfact> 0.39528008E+00</totfact>
</mgrwt>
</event>
<event>
 6    1  0.6091287E-004  0.3661124E+04  0.7818608E-02  0.8076632E-01
          2   -1    0    0  501    0  0.00000000000E+00  0.00000000000E+00  0.16521282854E+04  0.16521282854E+04  0.00000000000E+00 0.  1.
         -2   -1    0    0    0  501 -0.00000000000E+00 -0.00000000000E+00 -0.20282672003E+04  0.20282672003E+04  0.00000000000E+00 0. -1.
         23    2    1    2    0    0 -0.44709860776E+03  0.12846711277E+04 -0.14177470719E+04  0.19671457596E+04  0.96843214317E+02 0.  0.
         11    1    3    3    0    0 -0.26125540256E+03  0.64820509703E+03 -0.67732627711E+03  0.97323949717E+03  0.00000000000E+00 0. -1.
        -11    1    3    3    0    0 -0.18584320521E+03  0.63646603069E+03 -0.74042079475E+03  0.99390626241E+03  0.00000000000E+00 0.  1.
         22    1    1    2    0    0  0.44709860776E+03 -0.12846711277E+04  0.10416081570E+04  0.17132497262E+04  0.00000000000E+00 0.  1.
<mgrwt>
<rscale>  0 0.36611242E+04</rscale>
<asrwt>0</asrwt>
<pdfrwt beam="1">  1        2 0.25417358E+00 0.36611242E+04</pdfrwt>
<pdfrwt beam="2">  1       -2 0.31204111E+00 0.36611242E+04</pdfrwt>
<totfact> 0.22669434E-01</totfact>
</mgrwt>
</event>
<event>
 6    1  0.6091287E-004  0.1496220E+04  0.7818608E-02  0.8886970E-01
         -2   -1    0    0    0  501 -0.00000000000E+00  0.00000000000E+00  0.19943455658E+03  0.19943455658E+03  0.00000000000E+00 0. -1.
          2   -1    0    0  501    0  0.00000000000E+00 -0.00000000000E+00 -0.28062784082E+04  0.28062784082E+04  0.00000000000E+00 0.  1.
         23    2    1    2    0    0  0.37731897144E+02  0.44153606892E+03 -0.25121406898E+04  0.25525612407E+04  0.91324946567E+02 0.  0.
         11    1    3    3    0    0 -0.10166623540E+02  0.70574514664E+01 -0.13502867224E+03  0.13559465396E+03  0.00000000000E+00 0. -1.
        -11    1    3    3    0    0  0.47898520685E+02  0.43447861745E+03 -0.23771120176E+04  0.24169665867E+04  0.00000000000E+00 0.  1.
         22    1    1    2    0    0 -0.37731897144E+02 -0.44153606892E+03 -0.94703161853E+02  0.45315172413E+03  0.00000000000E+00 0. -1.
<mgrwt>
<rscale>  0 0.14962204E+04</rscale>
<asrwt>0</asrwt>
<pdfrwt beam="1">  1        2 0.43173514E+00 0.14962204E+04</pdfrwt>
<pdfrwt beam="2">  1       -2 0.30682239E-01 0.14962204E+04</pdfrwt>
<totfact> 0.21898596E+01</totfact>
</mgrwt>
</event>
<event>
 6    1  0.6585297E-004  0.3144545E+04  0.7818608E-02  0.8203618E-01
         -2   -1    0    0    0  501 -0.00000000000E+00  0.00000000000E+00  0.18720535732E+04  0.18720535732E+04  0.00000000000E+00 0. -1.
          2   -1    0    0  501    0  0.00000000000E+00 -0.00000000000E+00 -0.13204969977E+04  0.13204969977E+04  0.00000000000E+00 0.  1.
         23    2    1    2    0    0 -0.93864630859E+02  0.13224573509E+04  0.11317593615E+04  0.17453673459E+04  0.87885755000E+02 0.  0.
         13    1    3    3    0    0  0.59202570925E+01  0.51737192077E+03  0.44755329657E+03  0.68411454239E+03  0.00000000000E+00 0.  1.
        -13    1    3    3    0    0 -0.99784887952E+02  0.80508543010E+03  0.68420606495E+03  0.10612528035E+04  0.00000000000E+00 0. -1.
         22    1    1    2    0    0  0.93864630859E+02 -0.13224573509E+04 -0.58020278603E+03  0.14471832250E+04  0.00000000000E+00 0.  1.
<mgrwt>
<rscale>  0 0.31445452E+04</rscale>
<asrwt>0</asrwt>
<pdfrwt beam="1">  1        2 0.20315338E+00 0.31445452E+04</pdfrwt>
<pdfrwt beam="2">  1       -2 0.28800824E+00 0.31445452E+04</pdfrwt>
<totfact> 0.51190980E-01</totfact>
</mgrwt>
</event>
<event>
 6    1  0.6091287E-004  0.3569636E+04  0.7818608E-02  0.8097483E-01
          2   -1    0    0  501    0  0.00000000000E+00  0.00000000000E+00  0.23152445796E+04  0.23152445796E+04  0.00000000000E+00 0.  1.
         -2   -1    0    0    0  501 -0.00000000000E+00 -0.00000000000E+00 -0.13759131421E+04  0.13759131421E+04  0.00000000000E+00 0. -1.
         23    2    1    2    0    0  0.34583427481E+03  0.15344465906E+04  0.13396105393E+04  0.20680893176E+04  0.91155599666E+02 0.  0.
         13    1    3    3    0    0  0.20478774504E+03  0.97740778996E+03  0.90388499040E+03  0.13469491766E+04  0.00000000000E+00 0. -1.
        -13    1    3    3    0    0  0.14104652977E+03  0.55703880068E+03  0.43572554895E+03  0.72114014105E+03  0.00000000000E+00 0.  1.
         22    1    1    2    0    0 -0.34583427481E+03 -0.15344465906E+04 -0.40027910183E+03  0.16230684041E+04  0.00000000000E+00 0. -1.
<mgrwt>
<rscale>  0 0.35696361E+04</rscale>
<asrwt>0</asrwt>
<pdfrwt beam="1">  1        2 0.35619148E+00 0.35696361E+04</pdfrwt>
<pdfrwt beam="2">  1       -2 0.21167894E+00 0.35696361E+04</pdfrwt>
<totfact> 0.40557262E-01</totfact>
</mgrwt>
</event>
<event>
 6    1  0.6091287E-004  0.4578502E+04  0.7818608E-02  0.7897036E-01
          2   -1    0    0  501    0  0.00000000000E+00  0.00000000000E+00  0.21943191270E+04  0.21943191270E+04  0.00000000000E+00 0.  1.
         -2   -1    0    0    0  501 -0.00000000000E+00 -0.00000000000E+00 -0.23882894446E+04  0.23882894446E+04  0.00000000000E+00 0. -1.
         23    2    1    2    0    0 -0.79226376721E+03 -0.10960718325E+04 -0.19446363172E+04  0.23703954757E+04  0.90049797964E+02 0.  0.
         13    1    3    3    0    0 -0.66186424205E+02 -0.14034305435E+03 -0.22175470597E+03  0.27065100272E+03  0.00000000000E+00 0. -1.
        -13    1    3    3    0    0 -0.72607734301E+03 -0.95572877818E+03 -0.17228816113E+04  0.20997444730E+04  0.00000000000E+00 0.  1.
         22    1    1    2    0    0  0.79226376721E+03  0.10960718325E+04  0.17506659997E+04  0.22122130958E+04  0.00000000000E+00 0.  1.
<mgrwt>
<rscale>  0 0.45785016E+04</rscale>
<asrwt>0</asrwt>
<pdfrwt beam="1">  1        2 0.33758756E+00 0.45785016E+04</pdfrwt>
<pdfrwt beam="2">  1       -2 0.36742914E+00 0.45785016E+04</pdfrwt>
<totfact> 0.47229091E-02</totfact>
</mgrwt>
</event>
<event>
 6    1  0.6091287E-004  0.6957187E+03  0.7818608E-02  0.9724582E-01
          4   -1    0    0  501    0  0.00000000000E+00  0.00000000000E+00  0.67049458128E+03  0.67049458128E+03  0.00000000000E+00 0.  1.
         -4   -1    0    0    0  501 -0.00000000000E+00 -0.00000000000E+00 -0.18047292415E+03  0.18047292415E+03  0.00000000000E+00 0. -1.
         23    2    1    2    0    0 -0.13625764665E+03  0.14079589873E+03 -0.92639212878E+02  0.23624535616E+03  0.94022407850E+02 0.  0.
         11    1    3    3    0    0 -0.50263639220E+02  0.11768557107E+03 -0.48409012703E+02  0.13682017241E+03  0.00000000000E+00 0.  1.
        -11    1    3    3    0    0 -0.85994007426E+02  0.23110327654E+02 -0.44230200175E+02  0.99425183756E+02  0.00000000000E+00 0. -1.
         22    1    1    2    0    0  0.13625764665E+03 -0.14079589873E+03  0.58266087000E+03  0.61472214927E+03  0.00000000000E+00 0.  1.
<mgrwt>
<rscale>  0 0.69571867E+03</rscale>
<asrwt>0</asrwt>
<pdfrwt beam="1">  1        4 0.10315301E+00 0.69571867E+03</pdfrwt>
<pdfrwt beam="2">  1       -4 0.27765066E-01 0.69571867E+03</pdfrwt>
<totfact> 0.18998892E+01</totfact>
</mgrwt>
</event>
<event>
 6    1  0.6091287E-004  0.3338284E+04  0.7818608E-02  0.8153222E-01
          2   -1    0    0  501    0  0.00000000000E+00  0.00000000000E+00  0.10625319385E+04  0.10625319385E+04  0.00000000000E+00 0.  1.
         -2   -1    0    0    0  501 -0.00000000000E+00 -0.00000000000E+00 -0.26220715192E+04  0.26220715192E+04  0.00000000000E+00 0. -1.
         23    2    1    2    0    0 -0.75937473029E+03  0.74944923770E+03 -0.21953476830E+04  0.24425985930E+04  0.91718572010E+02 0.  0.
         11    1    3    3    0    0 -0.59265532342E+02  0.42507283455E+02 -0.10891237323E+03  0.13107699079E+03  0.00000000000E+00 0.  1.
        -11    1    3    3    0    0 -0.70010919795E+03  0.70694195424E+03 -0.20864353098E+04  0.23115216022E+04  0.00000000000E+00 0. -1.
         22    1    1    2    0    0  0.75937473029E+03 -0.74944923770E+03  0.63580810230E+03  0.12420048647E+04  0.00000000000E+00 0.  1.
<mgrwt>
<rscale>  0 0.33382838E+04</rscale>
<asrwt>0</asrwt>
<pdfrwt beam="1">  1        2 0.16346645E+00 0.33382838E+04</pdfrwt>
<pdfrwt beam="2">  1       -2 0.40339562E+00 0.33382838E+04</pdfrwt>
<totfact> 0.13484564E-01</totfact>
</mgrwt>
</event>
<event>
 6    1  0.6091287E-004  0.2233719E+04  0.7818608E-02  0.8504523E-01
          2   -1    0    0  501    0  0.00000000000E+00  0.00000000000E+00  0.78917306055E+03  0.78917306055E+03  0.00000000000E+00 0.  1.
         -2   -1    0    0    0  501 -0.00000000000E+00 -0.00000000000E+00 -0.15806102811E+04  0.15806102811E+04  0.00000000000E+00 0. -1.
         23    2    1    2    0    0  0.40423271574E+03  0.35686793214E+03  0.63903635348E+03  0.84105398187E+03  0.90804900194E+02 0.  0.
         11    1    3    3    0    0  0.19575815474E+03  0.11320199108E+03  0.26532219264E+03  0.34861413029E+03  0.00000000000E+00 0.  1.
        -11    1    3    3    0    0  0.20847456099E+03  0.24366594106E+03  0.37371416083E+03  0.49243985158E+03  0.00000000000E+00 0. -1.
         22    1    1    2    0    0 -0.40423271574E+03 -0.35686793214E+03 -0.14304735740E+04  0.15287293598E+04  0.00000000000E+00 0. -1.
<mgrwt>
<rscale>  0 0.22337189E+04</rscale>
<asrwt>0</asrwt>
<pdfrwt beam="1">  1        2 0.12141124E+00 0.22337189E+04</pdfrwt>
<pdfrwt beam="2">  1       -2 0.24317081E+00 0.22337189E+04</pdfrwt>
<totfact> 0.22632095E+00</totfact>
</mgrwt>
</event>
<event>
 6    1  0.6091287E-004  0.3539750E+04  0.7818608E-02  0.8104434E-01
         -2   -1    0    0    0  501 -0.00000000000E+00  0.00000000000E+00  0.17636699506E+04  0.17636699506E+04  0.00000000000E+00 0. -1.
          2   -1    0    0  501    0  0.00000000000E+00 -0.00000000000E+00 -0.17761022912E+04  0.17761022912E+04  0.00000000000E+00 0.  1.
         23    2    1    2    0    0  0.17501522371E+04  0.23559076252E+03  0.89293746769E+02  0.17709070527E+04  0.97992630825E+02 0.  0.
         13    1    3    3    0    0  0.12815761258E+04  0.18120477056E+03  0.10794571328E+03  0.12988166969E+04  0.00000000000E+00 0. -1.
        -13    1    3    3    0    0  0.46857611122E+03  0.54385991959E+02 -0.18651966512E+02  0.47209035574E+03  0.00000000000E+00 0.  1.
         22    1    1    2    0    0 -0.17501522371E+04 -0.23559076252E+03 -0.10172608737E+03  0.17688651891E+04  0.00000000000E+00 0. -1.
<mgrwt>
<rscale>  0 0.35397504E+04</rscale>
<asrwt>0</asrwt>
<pdfrwt beam="1">  1        2 0.27324651E+00 0.35397504E+04</pdfrwt>
<pdfrwt beam="2">  1       -2 0.27133384E+00 0.35397504E+04</pdfrwt>
<totfact> 0.34660863E-01</totfact>
</mgrwt>
</event>
<event>
 6    1  0.6091287E-004  0.1421167E+04  0.7818608E-02  0.8938637E-01
         -1   -1    0    0    0  501 -0.00000000000E+00  0.00000000000E+00  0.41900392074E+03  0.41900392074E+03  0.00000000000E+00 0. -1.
          1   -1    0    0  501    0  0.00000000000E+00 -0.00000000000E+00 -0.12050702348E+04  0.12050702348E+04  0.00000000000E+00 0.  1.
         23    2    1    2    0    0 -0.69868059029E+03 -0.45876475643E+01 -0.26602137807E+03  0.75308486214E+03  0.90519733956E+02 0.  0.
         11    1    3    3    0    0 -0.15788692376E+03  0.48334050434E+01 -0.21185622597E+02  0.15937525876E+03  0.00000000000E+00 0. -1.
        -11    1    3    3    0    0 -0.54079366653E+03 -0.94210526077E+01 -0.24483575548E+03  0.59370960338E+03  0.00000000000E+00 0.  1.
         22    1    1    2    0    0  0.69868059029E+03  0.45876475643E+01 -0.52004493598E+03  0.87098929339E+03  0.00000000000E+00 0.  1.
<mgrwt>
<rscale>  0 0.14211673E+04</rscale>
<asrwt>0</asrwt>
<pdfrwt beam="1">  1        1 0.18539542E+00 0.14211673E+04</pdfrwt>
<pdfrwt beam="2">  1       -1 0.64462142E-01 0.14211673E+04</pdfrwt>
<totfact> 0.25167661E+01</totfact>
</mgrwt>
</event>
<event>
 6    1  0.6091287E-004  0.1274678E+04  0.7818608E-02  0.9049890E-01
          2   -1    0    0  501    0  0.00000000000E+00  0.00000000000E+00  0.98459177495E+03  0.98459177495E+03  0.00000000000E+00 0. -1.
         -2   -1    0    0    0  501 -0.00000000000E+00 -0.00000000000E+00 -0.41255799741E+03  0.41255799741E+03  0.00000000000E+00 0.  1.
         23    2    1    2    0    0 -0.55247282615E+03  0.44963825662E+02 -0.50243728279E+02  0.56379674783E+03  0.89968724500E+02 0.  0.
         11    1    3    3    0    0 -0.25234712838E+03  0.46546766720E+02  0.13551326113E+02  0.25696169585E+03  0.00000000000E+00 0. -1.
        -11    1    3    3    0    0 -0.30012569776E+03 -0.15829410580E+01 -0.63795054391E+02  0.30683505198E+03  0.00000000000E+00 0.  1.
         22    1    1    2    0    0  0.55247282615E+03 -0.44963825662E+02  0.62227750581E+03  0.83335302453E+03  0.00000000000E+00 0. -1.
<mgrwt>
<rscale>  0 0.12746783E+04</rscale>
<asrwt>0</asrwt>
<pdfrwt beam="1">  1        2 0.15147566E+00 0.12746783E+04</pdfrwt>
<pdfrwt beam="2">  1       -2 0.63470462E-01 0.12746783E+04</pdfrwt>
<totfact> 0.58153875E+01</totfact>
</mgrwt>
</event>
<event>
 6    1  0.6091287E-004  0.5120804E+04  0.7818608E-02  0.7810138E-01
         -2   -1    0    0    0  501 -0.00000000000E+00  0.00000000000E+00  0.22731330605E+04  0.22731330605E+04  0.00000000000E+00 0. -1.
          2   -1    0    0  501    0  0.00000000000E+00 -0.00000000000E+00 -0.28839748186E+04  0.28839748186E+04  0.00000000000E+00 0.  1.
         23    2    1    2    0    0  0.20506631864E+04  0.14440438162E+04 -0.82045411021E+03  0.26402806333E+04  0.86341348918E+02 0.  0.
         13    1    3    3    0    0  0.14155427769E+04  0.95275094173E+03 -0.53891644376E+03  0.17893928142E+04  0.00000000000E+00 0.  1.
        -13    1    3    3    0    0  0.63512040952E+03  0.49129287444E+03 -0.28153766645E+03  0.85088781910E+03  0.00000000000E+00 0. -1.
         22    1    1    2    0    0 -0.20506631864E+04 -0.14440438162E+04  0.20961235208E+03  0.25168272458E+04  0.00000000000E+00 0.  1.
<mgrwt>
<rscale>  0 0.51208040E+04</rscale>
<asrwt>0</asrwt>
<pdfrwt beam="1">  1        2 0.44368843E+00 0.51208040E+04</pdfrwt>
<pdfrwt beam="2">  1       -2 0.34971278E+00 0.51208040E+04</pdfrwt>
<totfact> 0.23148896E-02</totfact>
</mgrwt>
</event>
<event>
 6    1  0.6091287E-004  0.4562467E+04  0.7818608E-02  0.7899791E-01
         -2   -1    0    0    0  501 -0.00000000000E+00  0.00000000000E+00  0.12866519097E+04  0.12866519097E+04  0.00000000000E+00 0. -1.
          2   -1    0    0  501    0  0.00000000000E+00 -0.00000000000E+00 -0.40446263125E+04  0.40446263125E+04  0.00000000000E+00 0.  1.
         23    2    1    2    0    0  0.80517097132E+03 -0.57003910827E+03  0.10231685323E+04  0.14235567924E+04  0.79970104488E+02 0.  0.
         11    1    3    3    0    0  0.41806716319E+03 -0.25895786799E+03  0.54675094746E+03  0.73537468605E+03  0.00000000000E+00 0.  1.
        -11    1    3    3    0    0  0.38710380814E+03 -0.31108124028E+03  0.47641758484E+03  0.68818210633E+03  0.00000000000E+00 0. -1.
         22    1    1    2    0    0 -0.80517097132E+03  0.57003910827E+03 -0.37811429350E+04  0.39077214298E+04  0.00000000000E+00 0.  1.
<mgrwt>
<rscale>  0 0.45624670E+04</rscale>
<asrwt>0</asrwt>
<pdfrwt beam="1">  1        2 0.62225019E+00 0.45624670E+04</pdfrwt>
<pdfrwt beam="2">  1       -2 0.19794645E+00 0.45624670E+04</pdfrwt>
<totfact> 0.32393277E-02</totfact>
</mgrwt>
</event>
<event>
 6    1  0.6091287E-004  0.2347583E+04  0.7818608E-02  0.8459392E-01
         -2   -1    0    0    0  501 -0.00000000000E+00  0.00000000000E+00  0.20473291219E+04  0.20473291219E+04  0.00000000000E+00 0. -1.
          2   -1    0    0  501    0  0.00000000000E+00 -0.00000000000E+00 -0.67296795077E+03  0.67296795077E+03  0.00000000000E+00 0.  1.
         23    2    1    2    0    0 -0.55770197658E+03 -0.31572945083E+03 -0.44888217044E+03  0.78769963312E+03  0.90878645919E+02 0.  0.
         11    1    3    3    0    0 -0.40794274580E+03 -0.26272275483E+03 -0.30327785930E+03  0.57220449989E+03  0.00000000000E+00 0. -1.
        -11    1    3    3    0    0 -0.14975923078E+03 -0.53006696004E+02 -0.14560431114E+03  0.21549513323E+03  0.00000000000E+00 0.  1.
         22    1    1    2    0    0  0.55770197658E+03  0.31572945083E+03  0.18232433416E+04  0.19325974396E+04  0.00000000000E+00 0. -1.
<mgrwt>
<rscale>  0 0.23475833E+04</rscale>
<asrwt>0</asrwt>
<pdfrwt beam="1">  1        2 0.10353353E+00 0.23475833E+04</pdfrwt>
<pdfrwt beam="2">  1       -2 0.31497371E+00 0.23475833E+04</pdfrwt>
<totfact> 0.10005466E+00</totfact>
</mgrwt>
</event>
<event>
 6    1  0.6091287E-004  0.2763966E+04  0.7818608E-02  0.8314544E-01
          1   -1    0    0  501    0  0.00000000000E+00  0.00000000000E+00  0.12354918098E+04  0.12354918098E+04  0.00000000000E+00 0.  1.
         -1   -1    0    0    0  501 -0.00000000000E+00 -0.00000000000E+00 -0.15458435952E+04  0.15458435952E+04  0.00000000000E+00 0. -1.
         23    2    1    2    0    0  0.10112409542E+04 -0.54728077618E+03  0.61325381768E+03  0.13064890316E+04  0.93321108647E+02 0.  0.
         13    1    3    3    0    0  0.84955514859E+03 -0.49201125831E+03  0.50259140578E+03  0.11029130292E+04  0.00000000000E+00 0. -1.
        -13    1    3    3    0    0  0.16168580560E+03 -0.55269517864E+02  0.11066241189E+03  0.20357600238E+03  0.00000000000E+00 0.  1.
         22    1    1    2    0    0 -0.10112409542E+04  0.54728077618E+03 -0.92360560304E+03  0.14748463735E+04  0.00000000000E+00 0.  1.
<mgrwt>
<rscale>  0 0.27639661E+04</rscale>
<asrwt>0</asrwt>
<pdfrwt beam="1">  1        1 0.19007566E+00 0.27639661E+04</pdfrwt>
<pdfrwt beam="2">  1       -1 0.23782209E+00 0.27639661E+04</pdfrwt>
<totfact> 0.73257495E-01</totfact>
</mgrwt>
</event>
<event>
 6    1  0.6091287E-004  0.1771942E+04  0.7818608E-02  0.8721364E-01
         -2   -1    0    0    0  501 -0.00000000000E+00  0.00000000000E+00  0.20984138699E+03  0.20984138699E+03  0.00000000000E+00 0. -1.
          2   -1    0    0  501    0  0.00000000000E+00 -0.00000000000E+00 -0.37406558637E+04  0.37406558637E+04  0.00000000000E+00 0.  1.
         23    2    1    2    0    0 -0.29961408816E+03 -0.82898210899E+03 -0.19053034675E+04  0.21013715168E+04  0.92741626685E+02 0.  0.
         13    1    3    3    0    0 -0.26683560804E+03 -0.71594086978E+03 -0.17167873351E+04  0.18791304704E+04  0.00000000000E+00 0.  1.
        -13    1    3    3    0    0 -0.32778480121E+02 -0.11304123920E+03 -0.18851613240E+03  0.22224104637E+03  0.00000000000E+00 0. -1.
         22    1    1    2    0    0  0.29961408816E+03  0.82898210899E+03 -0.16255110092E+04  0.18491257339E+04  0.00000000000E+00 0.  1.
<mgrwt>
<rscale>  0 0.17719418E+04</rscale>
<asrwt>0</asrwt>
<pdfrwt beam="1">  1        2 0.57548551E+00 0.17719418E+04</pdfrwt>
<pdfrwt beam="2">  1       -2 0.32283291E-01 0.17719418E+04</pdfrwt>
<totfact> 0.46562296E+00</totfact>
</mgrwt>
</event>
<event>
 6    1  0.6091287E-004  0.1325637E+04  0.7818608E-02  0.9009478E-01
         -2   -1    0    0    0  501 -0.00000000000E+00  0.00000000000E+00  0.54294029427E+03  0.54294029427E+03  0.00000000000E+00 0. -1.
          2   -1    0    0  501    0  0.00000000000E+00 -0.00000000000E+00 -0.80916536100E+03  0.80916536100E+03  0.00000000000E+00 0.  1.
         23    2    1    2    0    0 -0.27533104865E+02 -0.54488786114E+03  0.24457992916E+03  0.60472182021E+03  0.90599586153E+02 0.  0.
         13    1    3    3    0    0 -0.21087749755E+02 -0.30394232328E+03  0.87371989409E+02  0.31695345653E+03  0.00000000000E+00 0. -1.
        -13    1    3    3    0    0 -0.64453551099E+01 -0.24094553786E+03  0.15720793976E+03  0.28776836369E+03  0.00000000000E+00 0.  1.
         22    1    1    2    0    0  0.27533104865E+02  0.54488786114E+03 -0.51080499589E+03  0.74738383506E+03  0.00000000000E+00 0.  1.
<mgrwt>
<rscale>  0 0.13256372E+04</rscale>
<asrwt>0</asrwt>
<pdfrwt beam="1">  1        2 0.12448698E+00 0.13256372E+04</pdfrwt>
<pdfrwt beam="2">  1       -2 0.83529276E-01 0.13256372E+04</pdfrwt>
<totfact> 0.41632526E+01</totfact>
</mgrwt>
</event>
<event>
 6    1  0.6091287E-004  0.3749963E+04  0.7818608E-02  0.8056979E-01
          2   -1    0    0  501    0  0.00000000000E+00  0.00000000000E+00  0.10365206340E+04  0.10365206340E+04  0.00000000000E+00 0.  1.
         -2   -1    0    0    0  501 -0.00000000000E+00 -0.00000000000E+00 -0.33916881426E+04  0.33916881426E+04  0.00000000000E+00 0. -1.
         23    2    1    2    0    0  0.80087241658E+03  0.15246429771E+04 -0.30603582421E+03  0.17514806442E+04  0.89964914696E+02 0.  0.
         11    1    3    3    0    0  0.61362922514E+03  0.11584349406E+04 -0.19403044741E+03  0.13252019288E+04  0.00000000000E+00 0. -1.
        -11    1    3    3    0    0  0.18724319144E+03  0.36620803659E+03 -0.11200537680E+03  0.42627871544E+03  0.00000000000E+00 0.  1.
         22    1    1    2    0    0 -0.80087241658E+03 -0.15246429771E+04 -0.20491316844E+04  0.26767281325E+04  0.00000000000E+00 0. -1.
<mgrwt>
<rscale>  0 0.37499625E+04</rscale>
<asrwt>0</asrwt>
<pdfrwt beam="1">  1        2 0.15946471E+00 0.37499625E+04</pdfrwt>
<pdfrwt beam="2">  1       -2 0.52179817E+00 0.37499625E+04</pdfrwt>
<totfact> 0.23430147E-02</totfact>
</mgrwt>
</event>
<event>
 6    1  0.6091287E-004  0.1200554E+04  0.7818608E-02  0.9112372E-01
         -2   -1    0    0    0  501 -0.00000000000E+00  0.00000000000E+00  0.98094993024E+02  0.98094993024E+02  0.00000000000E+00 0. -1.
          2   -1    0    0  501    0  0.00000000000E+00 -0.00000000000E+00 -0.36733001833E+04  0.36733001833E+04  0.00000000000E+00 0.  1.
         23    2    1    2    0    0  0.46713722435E+03  0.33417435854E+03 -0.23067850886E+04  0.23789946440E+04  0.92023815358E+02 0.  0.
         11    1    3    3    0    0  0.74845837433E+02  0.97977729098E+02 -0.53002124899E+03  0.54417282104E+03  0.00000000000E+00 0.  1.
        -11    1    3    3    0    0  0.39229138691E+03  0.23619662945E+03 -0.17767638396E+04  0.18348218229E+04  0.00000000000E+00 0. -1.
         22    1    1    2    0    0 -0.46713722435E+03 -0.33417435854E+03 -0.12684201017E+04  0.13924005324E+04  0.00000000000E+00 0.  1.
<mgrwt>
<rscale>  0 0.12005538E+04</rscale>
<asrwt>0</asrwt>
<pdfrwt beam="1">  1        2 0.56512298E+00 0.12005538E+04</pdfrwt>
<pdfrwt beam="2">  1       -2 0.15091541E-01 0.12005538E+04</pdfrwt>
<totfact> 0.21589131E+01</totfact>
</mgrwt>
</event>
<event>
 6    1  0.6091287E-004  0.9630229E+03  0.7818608E-02  0.9350057E-01
         -2   -1    0    0    0  501 -0.00000000000E+00  0.00000000000E+00  0.81045450324E+02  0.81045450324E+02  0.00000000000E+00 0.  1.
          2   -1    0    0  501    0  0.00000000000E+00 -0.00000000000E+00 -0.28607809404E+04  0.28607809404E+04  0.00000000000E+00 0. -1.
         23    2    1    2    0    0  0.17209004013E+03 -0.41694941223E+03 -0.18713698589E+04  0.19276321715E+04  0.10138464266E+03 0.  0.
         13    1    3    3    0    0  0.13030090518E+03 -0.28570399991E+03 -0.10948679863E+04  0.11390087835E+04  0.00000000000E+00 0. -1.
        -13    1    3    3    0    0  0.41789134956E+02 -0.13124541233E+03 -0.77650187256E+03  0.78862338803E+03  0.00000000000E+00 0.  1.
         22    1    1    2    0    0 -0.17209004013E+03  0.41694941223E+03 -0.90836563115E+03  0.10141942191E+04  0.00000000000E+00 0.  1.
<mgrwt>
<rscale>  0 0.96302291E+03</rscale>
<asrwt>0</asrwt>
<pdfrwt beam="1">  1        2 0.44012012E+00 0.96302291E+03</pdfrwt>
<pdfrwt beam="2">  1       -2 0.12468532E-01 0.96302291E+03</pdfrwt>
<totfact> 0.10405460E+02</totfact>
</mgrwt>
</event>
<event>
 6    1  0.6091287E-004  0.1127658E+04  0.7818608E-02  0.9178646E-01
          2   -1    0    0  501    0  0.00000000000E+00  0.00000000000E+00  0.84094689326E+03  0.84094689326E+03  0.00000000000E+00 0.  1.
         -2   -1    0    0    0  501 -0.00000000000E+00 -0.00000000000E+00 -0.37802996933E+03  0.37802996933E+03  0.00000000000E+00 0. -1.
         23    2    1    2    0    0 -0.10657376611E+03 -0.53577132905E+03  0.10308017933E+03  0.56484280338E+03  0.10006490142E+03 0.  0.
         11    1    3    3    0    0 -0.10664512709E+03 -0.34125681906E+03  0.96013598645E+02  0.37019996057E+03  0.00000000000E+00 0.  1.
        -11    1    3    3    0    0  0.71360975036E-01 -0.19451451000E+03  0.70665806835E+01  0.19464284280E+03  0.00000000000E+00 0. -1.
         22    1    1    2    0    0  0.10657376611E+03  0.53577132905E+03  0.35983674461E+03  0.65413405922E+03  0.00000000000E+00 0.  1.
<mgrwt>
<rscale>  0 0.11276580E+04</rscale>
<asrwt>0</asrwt>
<pdfrwt beam="1">  1        2 0.12937644E+00 0.11276580E+04</pdfrwt>
<pdfrwt beam="2">  1       -2 0.58158457E-01 0.11276580E+04</pdfrwt>
<totfact> 0.88323743E+01</totfact>
</mgrwt>
</event>
<event>
 6    1  0.6091287E-004  0.3224289E+04  0.7818608E-02  0.8182432E-01
         -2   -1    0    0    0  501 -0.00000000000E+00  0.00000000000E+00  0.78282912692E+03  0.78282912692E+03  0.00000000000E+00 0. -1.
          2   -1    0    0  501    0  0.00000000000E+00 -0.00000000000E+00 -0.33200229649E+04  0.33200229649E+04  0.00000000000E+00 0.  1.
         23    2    1    2    0    0 -0.10661151551E+04 -0.29085809096E+03  0.22140925144E+03  0.11311369376E+04  0.96170483523E+02 0.  0.
         13    1    3    3    0    0 -0.21702898882E+03 -0.20702099861E+02  0.34731568303E+02  0.22076331389E+03  0.00000000000E+00 0. -1.
        -13    1    3    3    0    0 -0.84908616629E+03 -0.27015599110E+03  0.18667768314E+03  0.91037362368E+03  0.00000000000E+00 0.  1.
         22    1    1    2    0    0  0.10661151551E+04  0.29085809096E+03 -0.27586030894E+04  0.29717151542E+04  0.00000000000E+00 0.  1.
<mgrwt>
<rscale>  0 0.32242895E+04</rscale>
<asrwt>0</asrwt>
<pdfrwt beam="1">  1        2 0.51077275E+00 0.32242895E+04</pdfrwt>
<pdfrwt beam="2">  1       -2 0.12043525E+00 0.32242895E+04</pdfrwt>
<totfact> 0.47709403E-01</totfact>
</mgrwt>
</event>
<event>
 6    1  0.6091287E-004  0.2224372E+04  0.7818608E-02  0.8508352E-01
         -2   -1    0    0    0  501 -0.00000000000E+00  0.00000000000E+00  0.49027603737E+03  0.49027603737E+03  0.00000000000E+00 0. -1.
          2   -1    0    0  501    0  0.00000000000E+00 -0.00000000000E+00 -0.25229827594E+04  0.25229827594E+04  0.00000000000E+00 0.  1.
         23    2    1    2    0    0 -0.52981536208E+03 -0.52466528698E+03 -0.21325142639E+04  0.22609692736E+04  0.91580506719E+02 0.  0.
         13    1    3    3    0    0 -0.16486120093E+03 -0.22492402885E+03 -0.77378351166E+03  0.82250286154E+03  0.00000000000E+00 0.  1.
        -13    1    3    3    0    0 -0.36495416115E+03 -0.29974125813E+03 -0.13587307522E+04  0.14384664120E+04  0.00000000000E+00 0. -1.
         22    1    1    2    0    0  0.52981536208E+03  0.52466528698E+03  0.99807541868E+02  0.75228952317E+03  0.00000000000E+00 0. -1.
<mgrwt>
<rscale>  0 0.22243723E+04</rscale>
<asrwt>0</asrwt>
<pdfrwt beam="1">  1        2 0.38815119E+00 0.22243723E+04</pdfrwt>
<pdfrwt beam="2">  1       -2 0.75427083E-01 0.22243723E+04</pdfrwt>
<totfact> 0.48559714E+00</totfact>
</mgrwt>
</event>
<event>
 6    1  0.6091287E-004  0.3263314E+04  0.7818608E-02  0.8172293E-01
          2   -1    0    0  501    0  0.00000000000E+00  0.00000000000E+00  0.17381240819E+04  0.17381240819E+04  0.00000000000E+00 0.  1.
         -2   -1    0    0    0  501 -0.00000000000E+00 -0.00000000000E+00 -0.15317113109E+04  0.15317113109E+04  0.00000000000E+00 0. -1.
         23    2    1    2    0    0  0.35331747648E+03  0.76932205046E+03 -0.12928841695E+04  0.15480395361E+04  0.90483552361E+02 0.  0.
         13    1    3    3    0    0  0.31430160239E+03  0.65654708724E+03 -0.11597150775E+04  0.13692255607E+04  0.00000000000E+00 0.  1.
        -13    1    3    3    0    0  0.39015874086E+02  0.11277496322E+03 -0.13316909194E+03  0.17881397543E+03  0.00000000000E+00 0. -1.
         22    1    1    2    0    0 -0.35331747648E+03 -0.76932205046E+03  0.14992969404E+04  0.17217958567E+04  0.00000000000E+00 0.  1.
<mgrwt>
<rscale>  0 0.32633138E+04</rscale>
<asrwt>0</asrwt>
<pdfrwt beam="1">  1        2 0.26740370E+00 0.32633138E+04</pdfrwt>
<pdfrwt beam="2">  1       -2 0.23564789E+00 0.32633138E+04</pdfrwt>
<totfact> 0.61679532E-01</totfact>
</mgrwt>
</event>
<event>
 6    1  0.6091287E-004  0.1214669E+04  0.7818608E-02  0.9100113E-01
          2   -1    0    0  501    0  0.00000000000E+00  0.00000000000E+00  0.28805793808E+03  0.28805793808E+03  0.00000000000E+00 0.  1.
         -2   -1    0    0    0  501 -0.00000000000E+00 -0.00000000000E+00 -0.12804894462E+04  0.12804894462E+04  0.00000000000E+00 0. -1.
         23    2    1    2    0    0  0.32453840557E+02 -0.45164975459E+02 -0.12754870480E+04  0.12800797685E+04  0.92972454923E+02 0.  0.
         13    1    3    3    0    0  0.49463128904E+02 -0.54869067876E+01 -0.99936585002E+03  0.10006042222E+04  0.00000000000E+00 0. -1.
        -13    1    3    3    0    0 -0.17009288347E+02 -0.39678068672E+02 -0.27612119795E+03  0.27947554631E+03  0.00000000000E+00 0.  1.
         22    1    1    2    0    0 -0.32453840557E+02  0.45164975459E+02  0.28305553981E+03  0.28846761584E+03  0.00000000000E+00 0.  1.
<mgrwt>
<rscale>  0 0.12146689E+04</rscale>
<asrwt>0</asrwt>
<pdfrwt beam="1">  1        2 0.44316606E-01 0.12146689E+04</pdfrwt>
<pdfrwt beam="2">  1       -2 0.19699838E+00 0.12146689E+04</pdfrwt>
<totfact> 0.15753647E+01</totfact>
</mgrwt>
</event>
<event>
 6    1  0.6091287E-004  0.2946777E+04  0.7818608E-02  0.8259094E-01
          2   -1    0    0  501    0  0.00000000000E+00  0.00000000000E+00  0.33957969403E+04  0.33957969403E+04  0.00000000000E+00 0.  1.
         -2   -1    0    0    0  501 -0.00000000000E+00 -0.00000000000E+00 -0.63928253242E+03  0.63928253242E+03  0.00000000000E+00 0. -1.
         23    2    1    2    0    0 -0.37109334276E+03 -0.11244880160E+04  0.25767333699E+04  0.28373713327E+04  0.94539159258E+02 0.  0.
         11    1    3    3    0    0 -0.19673283767E+03 -0.59680661757E+03  0.12542221434E+04  0.14028382420E+04  0.00000000000E+00 0. -1.
        -11    1    3    3    0    0 -0.17436050509E+03 -0.52768139840E+03  0.13225112265E+04  0.14345330907E+04  0.00000000000E+00 0.  1.
         22    1    1    2    0    0  0.37109334276E+03  0.11244880160E+04  0.17978103793E+03  0.11977081400E+04  0.00000000000E+00 0.  1.
<mgrwt>
<rscale>  0 0.29467770E+04</rscale>
<asrwt>0</asrwt>
<pdfrwt beam="1">  1        2 0.52243029E+00 0.29467770E+04</pdfrwt>
<pdfrwt beam="2">  1       -2 0.98351161E-01 0.29467770E+04</pdfrwt>
<totfact> 0.70842722E-01</totfact>
</mgrwt>
</event>
<event>
 6    1  0.6091287E-004  0.2355285E+04  0.7818608E-02  0.8456436E-01
         -2   -1    0    0    0  501 -0.00000000000E+00  0.00000000000E+00  0.82212805106E+03  0.82212805106E+03  0.00000000000E+00 0. -1.
          2   -1    0    0  501    0  0.00000000000E+00 -0.00000000000E+00 -0.16868927033E+04  0.16868927033E+04  0.00000000000E+00 0.  1.
         23    2    1    2    0    0  0.28931280512E+03 -0.88370855439E+02 -0.16435355106E+04  0.16735595900E+04  0.89896715581E+02 0.  0.
         11    1    3    3    0    0  0.17678658400E+03 -0.25911992558E+02 -0.76129561752E+03  0.78198206175E+03  0.00000000000E+00 0. -1.
        -11    1    3    3    0    0  0.11252622113E+03 -0.62458862880E+02 -0.88223989308E+03  0.89157752828E+03  0.00000000000E+00 0.  1.
         22    1    1    2    0    0 -0.28931280512E+03  0.88370855439E+02  0.77877085835E+03  0.83546116434E+03  0.00000000000E+00 0. -1.
<mgrwt>
<rscale>  0 0.23552850E+04</rscale>
<asrwt>0</asrwt>
<pdfrwt beam="1">  1        2 0.25952195E+00 0.23552850E+04</pdfrwt>
<pdfrwt beam="2">  1       -2 0.12648124E+00 0.23552850E+04</pdfrwt>
<totfact> 0.41903674E+00</totfact>
</mgrwt>
</event>
<event>
 6    1  0.6091287E-004  0.3926365E+04  0.7818608E-02  0.8019568E-01
         -1   -1    0    0    0  501 -0.00000000000E+00  0.00000000000E+00  0.14625791891E+04  0.14625791891E+04  0.00000000000E+00 0. -1.
          1   -1    0    0  501    0  0.00000000000E+00 -0.00000000000E+00 -0.26351296788E+04  0.26351296788E+04  0.00000000000E+00 0.  1.
         23    2    1    2    0    0 -0.31286769473E+03 -0.61286298376E+03 -0.25042648413E+04  0.25987257640E+04  0.92444413514E+02 0.  0.
         13    1    3    3    0    0 -0.79790225557E+02 -0.25123323010E+03 -0.90625303122E+03  0.94381098351E+03  0.00000000000E+00 0. -1.
        -13    1    3    3    0    0 -0.23307746917E+03 -0.36162975367E+03 -0.15980118101E+04  0.16549147805E+04  0.00000000000E+00 0.  1.
         22    1    1    2    0    0  0.31286769473E+03  0.61286298376E+03  0.13317143517E+04  0.14989831039E+04  0.00000000000E+00 0. -1.
<mgrwt>
<rscale>  0 0.39263652E+04</rscale>
<asrwt>0</asrwt>
<pdfrwt beam="1">  1        1 0.40540456E+00 0.39263652E+04</pdfrwt>
<pdfrwt beam="2">  1       -1 0.22501218E+00 0.39263652E+04</pdfrwt>
<totfact> 0.87447381E-02</totfact>
</mgrwt>
</event>
<event>
 6    1  0.6091287E-004  0.2109138E+04  0.7818608E-02  0.8557229E-01
         -2   -1    0    0    0  501 -0.00000000000E+00  0.00000000000E+00  0.68760768010E+03  0.68760768010E+03  0.00000000000E+00 0. -1.
          2   -1    0    0  501    0  0.00000000000E+00 -0.00000000000E+00 -0.16173694735E+04  0.16173694735E+04  0.00000000000E+00 0.  1.
         23    2    1    2    0    0 -0.28971449482E+03 -0.62750948059E+02 -0.15694886321E+04  0.15999079385E+04  0.92404952893E+02 0.  0.
         11    1    3    3    0    0 -0.21854196518E+03 -0.11749390024E+02 -0.99503185204E+03  0.10188164826E+04  0.00000000000E+00 0. -1.
        -11    1    3    3    0    0 -0.71172529638E+02 -0.51001558034E+02 -0.57445678007E+03  0.58109145586E+03  0.00000000000E+00 0.  1.
         22    1    1    2    0    0  0.28971449482E+03  0.62750948059E+02  0.63972683868E+03  0.70506921513E+03  0.00000000000E+00 0. -1.
<mgrwt>
<rscale>  0 0.21091379E+04</rscale>
<asrwt>0</asrwt>
<pdfrwt beam="1">  1        2 0.24882607E+00 0.21091379E+04</pdfrwt>
<pdfrwt beam="2">  1       -2 0.10578580E+00 0.21091379E+04</pdfrwt>
<totfact> 0.72513016E+00</totfact>
</mgrwt>
</event>
<event>
 6    1  0.6091287E-004  0.3136385E+04  0.7818608E-02  0.8205823E-01
          2   -1    0    0  501    0  0.00000000000E+00  0.00000000000E+00  0.23962290775E+04  0.23962290775E+04  0.00000000000E+00 0.  1.
         -2   -1    0    0    0  501 -0.00000000000E+00 -0.00000000000E+00 -0.10262906483E+04  0.10262906483E+04  0.00000000000E+00 0. -1.
         23    2    1    2    0    0 -0.13096350732E+04 -0.80518557690E+03  0.10158327246E+04  0.18449080219E+04  0.91113373527E+02 0.  0.
         11    1    3    3    0    0 -0.84199169162E+03 -0.47296530793E+03  0.61065176735E+03  0.11426030685E+04  0.00000000000E+00 0. -1.
        -11    1    3    3    0    0 -0.46764338157E+03 -0.33222026897E+03  0.40518095728E+03  0.70230495340E+03  0.00000000000E+00 0.  1.
         22    1    1    2    0    0  0.13096350732E+04  0.80518557690E+03  0.35410570452E+03  0.15776117039E+04  0.00000000000E+00 0. -1.
<mgrwt>
<rscale>  0 0.31363849E+04</rscale>
<asrwt>0</asrwt>
<pdfrwt beam="1">  1        2 0.36865063E+00 0.31363849E+04</pdfrwt>
<pdfrwt beam="2">  1       -2 0.15789087E+00 0.31363849E+04</pdfrwt>
<totfact> 0.88308589E-01</totfact>
</mgrwt>
</event>
<event>
 6    1  0.6091287E-004  0.1080327E+04  0.7818608E-02  0.9224581E-01
          2   -1    0    0  501    0  0.00000000000E+00  0.00000000000E+00  0.91682539579E+03  0.91682539579E+03  0.00000000000E+00 0.  1.
         -2   -1    0    0    0  501 -0.00000000000E+00 -0.00000000000E+00 -0.31824684890E+03  0.31824684890E+03  0.00000000000E+00 0. -1.
         23    2    1    2    0    0 -0.43613345956E+03  0.19571383716E+03  0.57933354029E+03  0.75665122626E+03  0.91528283559E+02 0.  0.
         11    1    3    3    0    0 -0.16552016072E+03  0.11988978776E+03  0.21684040040E+03  0.29797691866E+03  0.00000000000E+00 0.  1.
        -11    1    3    3    0    0 -0.27061329884E+03  0.75824049400E+02  0.36249313990E+03  0.45867430759E+03  0.00000000000E+00 0. -1.
         22    1    1    2    0    0  0.43613345956E+03 -0.19571383716E+03  0.19245006591E+02  0.47842101843E+03  0.00000000000E+00 0. -1.
<mgrwt>
<rscale>  0 0.10803273E+04</rscale>
<asrwt>0</asrwt>
<pdfrwt beam="1">  1        2 0.14105006E+00 0.10803273E+04</pdfrwt>
<pdfrwt beam="2">  1       -2 0.48961054E-01 0.10803273E+04</pdfrwt>
<totfact> 0.11212983E+02</totfact>
</mgrwt>
</event>
<event>
 6    1  0.6091287E-004  0.7831824E+03  0.7818608E-02  0.9584684E-01
         -2   -1    0    0    0  501 -0.00000000000E+00  0.00000000000E+00  0.14785109358E+03  0.14785109358E+03  0.00000000000E+00 0. -1.
          2   -1    0    0  501    0  0.00000000000E+00 -0.00000000000E+00 -0.10371494394E+04  0.10371494394E+04  0.00000000000E+00 0.  1.
         23    2    1    2    0    0 -0.32478522888E+03 -0.77204116064E+02 -0.15684760783E+03  0.38005953885E+03  0.91641478354E+02 0.  0.
         13    1    3    3    0    0 -0.31921777056E+02  0.12852548075E+02  0.28718697948E+01  0.34531659076E+02  0.00000000000E+00 0. -1.
        -13    1    3    3    0    0 -0.29286345182E+03 -0.90056664139E+02 -0.15971947763E+03  0.34552787978E+03  0.00000000000E+00 0.  1.
         22    1    1    2    0    0  0.32478522888E+03  0.77204116064E+02 -0.73245073795E+03  0.80494099409E+03  0.00000000000E+00 0.  1.
<mgrwt>
<rscale>  0 0.78318243E+03</rscale>
<asrwt>0</asrwt>
<pdfrwt beam="1">  1        2 0.15956145E+00 0.78318243E+03</pdfrwt>
<pdfrwt beam="2">  1       -2 0.22746322E-01 0.78318243E+03</pdfrwt>
<totfact> 0.40737959E+02</totfact>
</mgrwt>
</event>
<event>
 6    1  0.6091287E-004  0.4494945E+04  0.7818608E-02  0.7911522E-01
          2   -1    0    0  501    0  0.00000000000E+00  0.00000000000E+00  0.19594043170E+04  0.19594043170E+04  0.00000000000E+00 0.  1.
         -2   -1    0    0    0  501 -0.00000000000E+00 -0.00000000000E+00 -0.25778925187E+04  0.25778925187E+04  0.00000000000E+00 0. -1.
         23    2    1    2    0    0  0.37069440356E+03  0.20951796124E+04  0.41847092589E+03  0.21703417914E+04  0.89853362877E+02 0.  0.
         11    1    3    3    0    0  0.15138283821E+03  0.69974700519E+03  0.10757263340E+03  0.72397134365E+03  0.00000000000E+00 0.  1.
        -11    1    3    3    0    0  0.21931156535E+03  0.13954326072E+04  0.31089829249E+03  0.14463704478E+04  0.00000000000E+00 0. -1.
         22    1    1    2    0    0 -0.37069440356E+03 -0.20951796124E+04 -0.10369591276E+04  0.23669550442E+04  0.00000000000E+00 0. -1.
<mgrwt>
<rscale>  0 0.44949455E+04</rscale>
<asrwt>0</asrwt>
<pdfrwt beam="1">  1        2 0.30144682E+00 0.44949455E+04</pdfrwt>
<pdfrwt beam="2">  1       -2 0.39659885E+00 0.44949455E+04</pdfrwt>
<totfact> 0.41679989E-02</totfact>
</mgrwt>
</event>
<event>
 6    1  0.6091287E-004  0.2146087E+04  0.7818608E-02  0.8541209E-01
         -1   -1    0    0    0  501 -0.00000000000E+00  0.00000000000E+00  0.10279718522E+04  0.10279718522E+04  0.00000000000E+00 0. -1.
          1   -1    0    0  501    0  0.00000000000E+00 -0.00000000000E+00 -0.11200911632E+04  0.11200911632E+04  0.00000000000E+00 0.  1.
         23    2    1    2    0    0 -0.20046166985E+03  0.60706572447E+03  0.81400440155E+03  0.10391113224E+04  0.91844976928E+02 0.  0.
         11    1    3    3    0    0 -0.12847960419E+03  0.43800733675E+03  0.51511371553E+03  0.68825836403E+03  0.00000000000E+00 0. -1.
        -11    1    3    3    0    0 -0.71982065658E+02  0.16905838773E+03  0.29889068602E+03  0.35085295841E+03  0.00000000000E+00 0.  1.
         22    1    1    2    0    0  0.20046166985E+03 -0.60706572447E+03 -0.90612371250E+03  0.11089516929E+04  0.00000000000E+00 0.  1.
<mgrwt>
<rscale>  0 0.21460868E+04</rscale>
<asrwt>0</asrwt>
<pdfrwt beam="1">  1        1 0.17232172E+00 0.21460868E+04</pdfrwt>
<pdfrwt beam="2">  1       -1 0.15814952E+00 0.21460868E+04</pdfrwt>
<totfact> 0.33862655E+00</totfact>
</mgrwt>
</event>
<event>
 6    1  0.6091287E-004  0.7964776E+03  0.7818608E-02  0.9565130E-01
         -2   -1    0    0    0  501 -0.00000000000E+00  0.00000000000E+00  0.12624586964E+03  0.12624586964E+03  0.00000000000E+00 0. -1.
          2   -1    0    0  501    0  0.00000000000E+00 -0.00000000000E+00 -0.12562323255E+04  0.12562323255E+04  0.00000000000E+00 0.  1.
         23    2    1    2    0    0  0.48887054868E+02  0.33339174670E+03 -0.22135675602E+03  0.41338174363E+03  0.91354538100E+02 0.  0.
         13    1    3    3    0    0  0.60247188737E+02  0.11540070525E+03 -0.70567018179E+02  0.14807684011E+03  0.00000000000E+00 0.  1.
        -13    1    3    3    0    0 -0.11360133868E+02  0.21799104145E+03 -0.15078973784E+03  0.26530490351E+03  0.00000000000E+00 0. -1.
         22    1    1    2    0    0 -0.48887054868E+02 -0.33339174670E+03 -0.90862969981E+03  0.96909645148E+03  0.00000000000E+00 0.  1.
<mgrwt>
<rscale>  0 0.79647760E+03</rscale>
<asrwt>0</asrwt>
<pdfrwt beam="1">  1        2 0.19326651E+00 0.79647760E+03</pdfrwt>
<pdfrwt beam="2">  1       -2 0.19422442E-01 0.79647760E+03</pdfrwt>
<totfact> 0.39662109E+02</totfact>
</mgrwt>
</event>
<event>
 6    1  0.6091287E-004  0.6110976E+03  0.7818608E-02  0.9882646E-01
         -2   -1    0    0    0  501 -0.00000000000E+00  0.00000000000E+00  0.99471117343E+02  0.99471117343E+02  0.00000000000E+00 0. -1.
          2   -1    0    0  501    0  0.00000000000E+00 -0.00000000000E+00 -0.93856461104E+03  0.93856461104E+03  0.00000000000E+00 0.  1.
         23    2    1    2    0    0  0.62114623547E+02 -0.29143720811E+03 -0.45783419584E+03  0.55414263592E+03  0.93102295016E+02 0.  0.
         13    1    3    3    0    0  0.13612567740E+02 -0.13173678745E+03 -0.28287125924E+03  0.31233961080E+03  0.00000000000E+00 0. -1.
        -13    1    3    3    0    0  0.48502055808E+02 -0.15970042066E+03 -0.17496293660E+03  0.24180302512E+03  0.00000000000E+00 0.  1.
         22    1    1    2    0    0 -0.62114623547E+02  0.29143720811E+03 -0.38125929785E+03  0.48389309246E+03  0.00000000000E+00 0. -1.
<mgrwt>
<rscale>  0 0.61109760E+03</rscale>
<asrwt>0</asrwt>
<pdfrwt beam="1">  1        2 0.14439455E+00 0.61109760E+03</pdfrwt>
<pdfrwt beam="2">  1       -2 0.15303249E-01 0.61109760E+03</pdfrwt>
<totfact> 0.94225438E+02</totfact>
</mgrwt>
</event>
<event>
 6    1  0.6091287E-004  0.1646652E+04  0.7818608E-02  0.8792390E-01
         -2   -1    0    0    0  501 -0.00000000000E+00  0.00000000000E+00  0.36000686061E+03  0.36000686061E+03  0.00000000000E+00 0. -1.
          2   -1    0    0  501    0  0.00000000000E+00 -0.00000000000E+00 -0.18829237646E+04  0.18829237646E+04  0.00000000000E+00 0.  1.
         23    2    1    2    0    0 -0.56206965370E+03  0.47717251515E+02 -0.15764372485E+04  0.16763058296E+04  0.81532841312E+02 0.  0.
         11    1    3    3    0    0 -0.25818576794E+03  0.32693158778E+02 -0.84323557601E+03  0.88248227746E+03  0.00000000000E+00 0.  1.
        -11    1    3    3    0    0 -0.30388388577E+03  0.15024092737E+02 -0.73320167253E+03  0.79382355217E+03  0.00000000000E+00 0. -1.
         22    1    1    2    0    0  0.56206965370E+03 -0.47717251515E+02  0.53520344518E+02  0.56662479560E+03  0.00000000000E+00 0. -1.
<mgrwt>
<rscale>  0 0.16466517E+04</rscale>
<asrwt>0</asrwt>
<pdfrwt beam="1">  1        2 0.28968059E+00 0.16466517E+04</pdfrwt>
<pdfrwt beam="2">  1       -2 0.55385670E-01 0.16466517E+04</pdfrwt>
<totfact> 0.22722050E+01</totfact>
</mgrwt>
</event>
<event>
 6    1  0.6091287E-004  0.4583096E+04  0.7818608E-02  0.7896249E-01
         -2   -1    0    0    0  501 -0.00000000000E+00  0.00000000000E+00  0.12398081095E+04  0.12398081095E+04  0.00000000000E+00 0. -1.
          2   -1    0    0  501    0  0.00000000000E+00 -0.00000000000E+00 -0.42354871548E+04  0.42354871548E+04  0.00000000000E+00 0.  1.
         23    2    1    2    0    0 -0.18950270559E+04 -0.74284699092E+03 -0.24306407655E+03  0.20518703184E+04  0.90235602073E+02 0.  0.
         13    1    3    3    0    0 -0.10692519883E+04 -0.44075110312E+03 -0.17825457012E+03  0.11701863275E+04  0.00000000000E+00 0. -1.
        -13    1    3    3    0    0 -0.82577506757E+03 -0.30209588780E+03 -0.64809506430E+02  0.88168399088E+03  0.00000000000E+00 0.  1.
         22    1    1    2    0    0  0.18950270559E+04  0.74284699092E+03 -0.27526149687E+04  0.34234249459E+04  0.00000000000E+00 0.  1.
<mgrwt>
<rscale>  0 0.45830956E+04</rscale>
<asrwt>0</asrwt>
<pdfrwt beam="1">  1        2 0.65161340E+00 0.45830956E+04</pdfrwt>
<pdfrwt beam="2">  1       -2 0.19073971E+00 0.45830956E+04</pdfrwt>
<totfact> 0.24818118E-02</totfact>
</mgrwt>
</event>
<event>
 6    1  0.6091287E-004  0.3129451E+04  0.7818608E-02  0.8207701E-01
         -2   -1    0    0    0  501 -0.00000000000E+00  0.00000000000E+00  0.82677519600E+03  0.82677519600E+03  0.00000000000E+00 0. -1.
          2   -1    0    0  501    0  0.00000000000E+00 -0.00000000000E+00 -0.29613449844E+04  0.29613449844E+04  0.00000000000E+00 0.  1.
         23    2    1    2    0    0  0.42869600391E+03 -0.14484340654E+04 -0.15559019858E+04  0.21705300186E+04  0.92887387505E+02 0.  0.
         13    1    3    3    0    0  0.23912672297E+03 -0.66581844634E+03 -0.69496311423E+03  0.99170031928E+03  0.00000000000E+00 0.  1.
        -13    1    3    3    0    0  0.18956928094E+03 -0.78261561910E+03 -0.86093887157E+03  0.11788296994E+04  0.00000000000E+00 0. -1.
         22    1    1    2    0    0 -0.42869600391E+03  0.14484340654E+04 -0.57866780264E+03  0.16175901618E+04  0.00000000000E+00 0. -1.
<mgrwt>
<rscale>  0 0.31294514E+04</rscale>
<asrwt>0</asrwt>
<pdfrwt beam="1">  1        2 0.45559154E+00 0.31294514E+04</pdfrwt>
<pdfrwt beam="2">  1       -2 0.12719618E+00 0.31294514E+04</pdfrwt>
<totfact> 0.71501764E-01</totfact>
</mgrwt>
</event>
<event>
 6    1  0.6091287E-004  0.1297924E+04  0.7818608E-02  0.9031213E-01
          2   -1    0    0  501    0  0.00000000000E+00  0.00000000000E+00  0.30594617400E+04  0.30594617400E+04  0.00000000000E+00 0. -1.
         -2   -1    0    0    0  501 -0.00000000000E+00 -0.00000000000E+00 -0.13765558295E+03  0.13765558295E+03  0.00000000000E+00 0.  1.
         23    2    1    2    0    0 -0.50462111662E+03  0.36545389564E+03  0.10522861286E+04  0.12265072250E+04  0.93887461802E+02 0.  0.
         11    1    3    3    0    0 -0.41383133419E+03  0.26433688219E+03  0.77067777328E+03  0.91382415741E+03  0.00000000000E+00 0. -1.
        -11    1    3    3    0    0 -0.90789782428E+02  0.10111701346E+03  0.28160835529E+03  0.31268306761E+03  0.00000000000E+00 0.  1.
         22    1    1    2    0    0  0.50462111662E+03 -0.36545389564E+03  0.18695200285E+04  0.19706100979E+04  0.00000000000E+00 0. -1.
<mgrwt>
<rscale>  0 0.12979245E+04</rscale>
<asrwt>0</asrwt>
<pdfrwt beam="1">  1        2 0.47068637E+00 0.12979245E+04</pdfrwt>
<pdfrwt beam="2">  1       -2 0.21177784E-01 0.12979245E+04</pdfrwt>
<totfact> 0.30627738E+01</totfact>
</mgrwt>
</event>
<event>
 6    1  0.6091287E-004  0.1044158E+04  0.7818608E-02  0.9261397E-01
          1   -1    0    0  501    0  0.00000000000E+00  0.00000000000E+00  0.11973888073E+04  0.11973888073E+04  0.00000000000E+00 0.  1.
         -1   -1    0    0    0  501 -0.00000000000E+00 -0.00000000000E+00 -0.22763399138E+03  0.22763399138E+03  0.00000000000E+00 0. -1.
         23    2    1    2    0    0  0.44615087878E+02 -0.35164754899E+01  0.11929403382E+04  0.11973944853E+04  0.92973282690E+02 0.  0.
         13    1    3    3    0    0  0.69928953070E+02  0.20452647252E+01  0.63290491758E+03  0.63675966917E+03  0.00000000000E+00 0. -1.
        -13    1    3    3    0    0 -0.25313865192E+02 -0.55617402151E+01  0.56003542066E+03  0.56063481618E+03  0.00000000000E+00 0.  1.
         22    1    1    2    0    0 -0.44615087878E+02  0.35164754899E+01 -0.22318552230E+03  0.22762831334E+03  0.00000000000E+00 0. -1.
<mgrwt>
<rscale>  0 0.10441578E+04</rscale>
<asrwt>0</asrwt>
<pdfrwt beam="1">  1        1 0.18421366E+00 0.10441578E+04</pdfrwt>
<pdfrwt beam="2">  1       -1 0.35020615E-01 0.10441578E+04</pdfrwt>
<totfact> 0.83118376E+01</totfact>
</mgrwt>
</event>
<event>
 6    1  0.6091287E-004  0.1846297E+04  0.7818608E-02  0.8682059E-01
         -2   -1    0    0    0  501 -0.00000000000E+00  0.00000000000E+00  0.88356107261E+03  0.88356107261E+03  0.00000000000E+00 0. -1.
          2   -1    0    0  501    0  0.00000000000E+00 -0.00000000000E+00 -0.96450978008E+03  0.96450978008E+03  0.00000000000E+00 0.  1.
         23    2    1    2    0    0 -0.15685123373E+03 -0.58907080750E+03  0.65120682983E+03  0.89535974403E+03  0.77408076114E+02 0.  0.
         11    1    3    3    0    0 -0.33474184971E+02 -0.17701492113E+03  0.24183375734E+03  0.30155989380E+03  0.00000000000E+00 0. -1.
        -11    1    3    3    0    0 -0.12337704876E+03 -0.41205588637E+03  0.40937307250E+03  0.59379985023E+03  0.00000000000E+00 0.  1.
         22    1    1    2    0    0  0.15685123373E+03  0.58907080750E+03 -0.73215553730E+03  0.95271110866E+03  0.00000000000E+00 0.  1.
<mgrwt>
<rscale>  0 0.18462972E+04</rscale>
<asrwt>0</asrwt>
<pdfrwt beam="1">  1        2 0.14838612E+00 0.18462972E+04</pdfrwt>
<pdfrwt beam="2">  1       -2 0.13593247E+00 0.18462972E+04</pdfrwt>
<totfact> 0.96830825E+00</totfact>
</mgrwt>
</event>
<event>
 6    1  0.6091287E-004  0.2772909E+04  0.7818608E-02  0.8311729E-01
         -2   -1    0    0    0  501 -0.00000000000E+00  0.00000000000E+00  0.94307860367E+03  0.94307860367E+03  0.00000000000E+00 0. -1.
          2   -1    0    0  501    0  0.00000000000E+00 -0.00000000000E+00 -0.20382782827E+04  0.20382782827E+04  0.00000000000E+00 0.  1.
         23    2    1    2    0    0 -0.24238798203E+03  0.83587358458E+03  0.61005678565E+03  0.10668501108E+04  0.92538068072E+02 0.  0.
         13    1    3    3    0    0 -0.18033575256E+03  0.46621133652E+03  0.36653262728E+03  0.61985495143E+03  0.00000000000E+00 0. -1.
        -13    1    3    3    0    0 -0.62052229472E+02  0.36966224806E+03  0.24352415837E+03  0.44699515941E+03  0.00000000000E+00 0.  1.
         22    1    1    2    0    0  0.24238798203E+03 -0.83587358458E+03 -0.17052564647E+04  0.19145067756E+04  0.00000000000E+00 0.  1.
<mgrwt>
<rscale>  0 0.27729094E+04</rscale>
<asrwt>0</asrwt>
<pdfrwt beam="1">  1        2 0.31358127E+00 0.27729094E+04</pdfrwt>
<pdfrwt beam="2">  1       -2 0.14508902E+00 0.27729094E+04</pdfrwt>
<totfact> 0.18149232E+00</totfact>
</mgrwt>
</event>
<event>
 6    1  0.6091287E-004  0.3843849E+04  0.7818608E-02  0.8036810E-01
          2   -1    0    0  501    0  0.00000000000E+00  0.00000000000E+00  0.12994426177E+04  0.12994426177E+04  0.00000000000E+00 0.  1.
         -2   -1    0    0    0  501 -0.00000000000E+00 -0.00000000000E+00 -0.28425979429E+04  0.28425979429E+04  0.00000000000E+00 0. -1.
         23    2    1    2    0    0  0.14265857937E+03 -0.19095946762E+04 -0.61078544855E+03  0.20122009224E+04  0.94817669158E+02 0.  0.
         11    1    3    3    0    0  0.22294358421E+02 -0.46393053607E+03 -0.10782157838E+03  0.47681660361E+03  0.00000000000E+00 0.  1.
        -11    1    3    3    0    0  0.12036422095E+03 -0.14456641401E+04 -0.50296387017E+03  0.15353843188E+04  0.00000000000E+00 0. -1.
         22    1    1    2    0    0 -0.14265857937E+03  0.19095946762E+04 -0.93236987669E+03  0.21298396382E+04  0.00000000000E+00 0.  1.
<mgrwt>
<rscale>  0 0.38438485E+04</rscale>
<asrwt>0</asrwt>
<pdfrwt beam="1">  1        2 0.19991425E+00 0.38438485E+04</pdfrwt>
<pdfrwt beam="2">  1       -2 0.43732276E+00 0.38438485E+04</pdfrwt>
<totfact> 0.55626776E-02</totfact>
</mgrwt>
</event>
<event>
 6    1  0.6091287E-004  0.3224026E+04  0.7818608E-02  0.8182501E-01
         -2   -1    0    0    0  501 -0.00000000000E+00  0.00000000000E+00  0.10821800272E+04  0.10821800272E+04  0.00000000000E+00 0. -1.
          2   -1    0    0  501    0  0.00000000000E+00 -0.00000000000E+00 -0.24012512318E+04  0.24012512318E+04  0.00000000000E+00 0.  1.
         23    2    1    2    0    0  0.15089920338E+04 -0.11718486000E+03 -0.12559712612E+04  0.19685811502E+04  0.84015989260E+02 0.  0.
         13    1    3    3    0    0  0.56430569349E+03 -0.20321806776E+02 -0.51177242199E+03  0.76207932884E+03  0.00000000000E+00 0. -1.
        -13    1    3    3    0    0  0.94468634027E+03 -0.96863053226E+02 -0.74419883920E+03  0.12065018213E+04  0.00000000000E+00 0.  1.
         22    1    1    2    0    0 -0.15089920338E+04  0.11718486000E+03 -0.63099943458E+02  0.15148501088E+04  0.00000000000E+00 0. -1.
<mgrwt>
<rscale>  0 0.32240261E+04</rscale>
<asrwt>0</asrwt>
<pdfrwt beam="1">  1        2 0.36942326E+00 0.32240261E+04</pdfrwt>
<pdfrwt beam="2">  1       -2 0.16648924E+00 0.32240261E+04</pdfrwt>
<totfact> 0.75321698E-01</totfact>
</mgrwt>
</event>
<event>
 6    1  0.6091287E-004  0.2415798E+04  0.7818608E-02  0.8433613E-01
          2   -1    0    0  501    0  0.00000000000E+00  0.00000000000E+00  0.13671303135E+04  0.13671303135E+04  0.00000000000E+00 0.  1.
         -2   -1    0    0    0  501 -0.00000000000E+00 -0.00000000000E+00 -0.10672137654E+04  0.10672137654E+04  0.00000000000E+00 0. -1.
         23    2    1    2    0    0  0.99739435536E+03  0.67888584185E+03  0.14678384884E+03  0.12181487368E+04  0.81604904414E+02 0.  0.
         13    1    3    3    0    0  0.36950899644E+03  0.25551245610E+03  0.15132986229E+02  0.44950252608E+03  0.00000000000E+00 0. -1.
        -13    1    3    3    0    0  0.62788535892E+03  0.42337338575E+03  0.13165086262E+03  0.76864621077E+03  0.00000000000E+00 0.  1.
         22    1    1    2    0    0 -0.99739435536E+03 -0.67888584185E+03  0.15313269928E+03  0.12161953420E+04  0.00000000000E+00 0.  1.
<mgrwt>
<rscale>  0 0.24157982E+04</rscale>
<asrwt>0</asrwt>
<pdfrwt beam="1">  1        2 0.21032774E+00 0.24157982E+04</pdfrwt>
<pdfrwt beam="2">  1       -2 0.16418673E+00 0.24157982E+04</pdfrwt>
<totfact> 0.31859058E+00</totfact>
</mgrwt>
</event>
<event>
 6    1  0.6091287E-004  0.2209455E+04  0.7818608E-02  0.8514503E-01
          2   -1    0    0  501    0  0.00000000000E+00  0.00000000000E+00  0.50778300537E+04  0.50778300537E+04  0.00000000000E+00 0.  1.
         -2   -1    0    0    0  501 -0.00000000000E+00 -0.00000000000E+00 -0.24034342221E+03  0.24034342221E+03  0.00000000000E+00 0. -1.
         23    2    1    2    0    0 -0.83010114369E+03 -0.10393207654E+03  0.69423253056E+03  0.10913041462E+04  0.95478520140E+02 0.  0.
         13    1    3    3    0    0 -0.52456004466E+03 -0.11165534258E+03  0.43579868498E+03  0.69105039600E+03  0.00000000000E+00 0. -1.
        -13    1    3    3    0    0 -0.30554109903E+03  0.77232660390E+01  0.25843384558E+03  0.40025375024E+03  0.00000000000E+00 0.  1.
         22    1    1    2    0    0  0.83010114369E+03  0.10393207654E+03  0.41432541009E+04  0.42268693297E+04  0.00000000000E+00 0.  1.
<mgrwt>
<rscale>  0 0.22094552E+04</rscale>
<asrwt>0</asrwt>
<pdfrwt beam="1">  1        2 0.78120455E+00 0.22094552E+04</pdfrwt>
<pdfrwt beam="2">  1       -2 0.36975915E-01 0.22094552E+04</pdfrwt>
<totfact> 0.17461707E-01</totfact>
</mgrwt>
</event>
<event>
 6    1  0.6091287E-004  0.1468085E+04  0.7818608E-02  0.8905958E-01
         -2   -1    0    0    0  501 -0.00000000000E+00  0.00000000000E+00  0.33056308129E+03  0.33056308129E+03  0.00000000000E+00 0. -1.
          2   -1    0    0  501    0  0.00000000000E+00 -0.00000000000E+00 -0.16300008112E+04  0.16300008112E+04  0.00000000000E+00 0.  1.
         23    2    1    2    0    0 -0.10411347630E+03 -0.72362652409E+03 -0.66953625739E+03  0.99555051052E+03  0.91471617069E+02 0.  0.
         13    1    3    3    0    0 -0.63373279820E+02 -0.33376773604E+03 -0.25306683444E+03  0.42362707292E+03  0.00000000000E+00 0.  1.
        -13    1    3    3    0    0 -0.40740196483E+02 -0.38985878805E+03 -0.41646942295E+03  0.57192343760E+03  0.00000000000E+00 0. -1.
         22    1    1    2    0    0  0.10411347630E+03  0.72362652409E+03 -0.62990147254E+03  0.96501338199E+03  0.00000000000E+00 0. -1.
<mgrwt>
<rscale>  0 0.14680846E+04</rscale>
<asrwt>0</asrwt>
<pdfrwt beam="1">  1        2 0.25076935E+00 0.14680846E+04</pdfrwt>
<pdfrwt beam="2">  1       -2 0.50855859E-01 0.14680846E+04</pdfrwt>
<totfact> 0.37973919E+01</totfact>
</mgrwt>
</event>
<event>
 6    1  0.6091287E-004  0.1043401E+04  0.7818608E-02  0.9262183E-01
          1   -1    0    0  501    0  0.00000000000E+00  0.00000000000E+00  0.14189551298E+04  0.14189551298E+04  0.00000000000E+00 0.  1.
         -1   -1    0    0    0  501 -0.00000000000E+00 -0.00000000000E+00 -0.19181124015E+03  0.19181124015E+03  0.00000000000E+00 0. -1.
         23    2    1    2    0    0  0.92466697475E+02 -0.38073184777E+03  0.11405621030E+04  0.12095142848E+04  0.92390823867E+02 0.  0.
         11    1    3    3    0    0 -0.14546976570E+02 -0.18749244508E+02  0.94394452324E+02  0.97331707714E+02  0.00000000000E+00 0.  1.
        -11    1    3    3    0    0  0.10701367404E+03 -0.36198260326E+03  0.10461676507E+04  0.11121825771E+04  0.00000000000E+00 0. -1.
         22    1    1    2    0    0 -0.92466697475E+02  0.38073184777E+03  0.86581786658E+02  0.40125208514E+03  0.00000000000E+00 0. -1.
<mgrwt>
<rscale>  0 0.10434013E+04</rscale>
<asrwt>0</asrwt>
<pdfrwt beam="1">  1        1 0.21830078E+00 0.10434013E+04</pdfrwt>
<pdfrwt beam="2">  1       -1 0.29509423E-01 0.10434013E+04</pdfrwt>
<totfact> 0.78225540E+01</totfact>
</mgrwt>
</event>
<event>
 6    1  0.6091287E-004  0.2944391E+04  0.7818608E-02  0.8259791E-01
         -2   -1    0    0    0  501 -0.00000000000E+00  0.00000000000E+00  0.11108211510E+04  0.11108211510E+04  0.00000000000E+00 0. -1.
          2   -1    0    0  501    0  0.00000000000E+00 -0.00000000000E+00 -0.19511331542E+04  0.19511331542E+04  0.00000000000E+00 0.  1.
         23    2    1    2    0    0 -0.51279393904E+03 -0.11323362988E+04  0.39720418728E+03  0.13079333705E+04  0.88178329137E+02 0.  0.
         13    1    3    3    0    0 -0.28550705669E+03 -0.56771043611E+03  0.16541760600E+03  0.65663719287E+03  0.00000000000E+00 0.  1.
        -13    1    3    3    0    0 -0.22728688235E+03 -0.56462586269E+03  0.23178658128E+03  0.65129617761E+03  0.00000000000E+00 0. -1.
         22    1    1    2    0    0  0.51279393904E+03  0.11323362988E+04 -0.12375161906E+04  0.17540209347E+04  0.00000000000E+00 0.  1.
<mgrwt>
<rscale>  0 0.29443913E+04</rscale>
<asrwt>0</asrwt>
<pdfrwt beam="1">  1        2 0.30017433E+00 0.29443913E+04</pdfrwt>
<pdfrwt beam="2">  1       -2 0.17089556E+00 0.29443913E+04</pdfrwt>
<totfact> 0.12847699E+00</totfact>
</mgrwt>
</event>
<event>
 6    1  0.6091287E-004  0.6838986E+03  0.7818608E-02  0.9745171E-01
         -2   -1    0    0    0  501 -0.00000000000E+00  0.00000000000E+00  0.50043810850E+02  0.50043810850E+02  0.00000000000E+00 0. -1.
          2   -1    0    0  501    0  0.00000000000E+00 -0.00000000000E+00 -0.23365392117E+04  0.23365392117E+04  0.00000000000E+00 0.  1.
         23    2    1    2    0    0 -0.19688709981E+03 -0.26047700005E+03 -0.89284019648E+03  0.95518942668E+03  0.92792385248E+02 0.  0.
         11    1    3    3    0    0 -0.90385877122E+02 -0.87424760866E+02 -0.23296066693E+03  0.26473263481E+03  0.00000000000E+00 0. -1.
        -11    1    3    3    0    0 -0.10650122269E+03 -0.17305223919E+03 -0.65987952956E+03  0.69045679188E+03  0.00000000000E+00 0.  1.
         22    1    1    2    0    0  0.19688709981E+03  0.26047700005E+03 -0.13936552043E+04  0.14313935958E+04  0.00000000000E+00 0.  1.
<mgrwt>
<rscale>  0 0.68389861E+03</rscale>
<asrwt>0</asrwt>
<pdfrwt beam="1">  1        2 0.35946760E+00 0.68389861E+03</pdfrwt>
<pdfrwt beam="2">  1       -2 0.76990471E-02 0.68389861E+03</pdfrwt>
<totfact> 0.46955535E+02</totfact>
</mgrwt>
</event>
<event>
 6    1  0.6091287E-004  0.3234517E+04  0.7818608E-02  0.8179760E-01
          2   -1    0    0  501    0  0.00000000000E+00  0.00000000000E+00  0.25996010545E+04  0.25996010545E+04  0.00000000000E+00 0.  1.
         -2   -1    0    0    0  501 -0.00000000000E+00 -0.00000000000E+00 -0.10061253490E+04  0.10061253490E+04  0.00000000000E+00 0. -1.
         23    2    1    2    0    0 -0.15201751357E+04  0.41944641409E+03  0.40412989390E+03  0.16305273763E+04  0.91819475033E+02 0.  0.
         13    1    3    3    0    0 -0.92718851495E+03  0.22419744606E+03  0.21017317853E+03  0.97678851449E+03  0.00000000000E+00 0. -1.
        -13    1    3    3    0    0 -0.59298662078E+03  0.19524896803E+03  0.19395671537E+03  0.65373886176E+03  0.00000000000E+00 0.  1.
         22    1    1    2    0    0  0.15201751357E+04 -0.41944641409E+03  0.11893458117E+04  0.19751990273E+04  0.00000000000E+00 0.  1.
<mgrwt>
<rscale>  0 0.32345167E+04</rscale>
<asrwt>0</asrwt>
<pdfrwt beam="1">  1        2 0.39993862E+00 0.32345167E+04</pdfrwt>
<pdfrwt beam="2">  1       -2 0.15478852E+00 0.32345167E+04</pdfrwt>
<totfact> 0.70425542E-01</totfact>
</mgrwt>
</event>
<event>
 6    1  0.6091287E-004  0.2688473E+04  0.7818608E-02  0.8338755E-01
         -2   -1    0    0    0  501 -0.00000000000E+00  0.00000000000E+00  0.10710759620E+04  0.10710759620E+04  0.00000000000E+00 0. -1.
          2   -1    0    0  501    0  0.00000000000E+00 -0.00000000000E+00 -0.16870616375E+04  0.16870616375E+04  0.00000000000E+00 0.  1.
         23    2    1    2    0    0 -0.41791865367E+03 -0.22138691733E+03  0.98083425078E+03  0.10927541466E+04  0.91693124548E+02 0.  0.
         11    1    3    3    0    0 -0.14002196057E+03 -0.12318472004E+03  0.35586916670E+03  0.40177542048E+03  0.00000000000E+00 0. -1.
        -11    1    3    3    0    0 -0.27789669310E+03 -0.98202197287E+02  0.62496508409E+03  0.69097872609E+03  0.00000000000E+00 0.  1.
         22    1    1    2    0    0  0.41791865367E+03  0.22138691733E+03 -0.15968199263E+04  0.16653834529E+04  0.00000000000E+00 0.  1.
<mgrwt>
<rscale>  0 0.26884726E+04</rscale>
<asrwt>0</asrwt>
<pdfrwt beam="1">  1        2 0.25954795E+00 0.26884726E+04</pdfrwt>
<pdfrwt beam="2">  1       -2 0.16478092E+00 0.26884726E+04</pdfrwt>
<totfact> 0.20348815E+00</totfact>
</mgrwt>
</event>
<event>
 6    1  0.6091287E-004  0.1323163E+04  0.7818608E-02  0.9011396E-01
          2   -1    0    0  501    0  0.00000000000E+00  0.00000000000E+00  0.17808257186E+04  0.17808257186E+04  0.00000000000E+00 0.  1.
         -2   -1    0    0    0  501 -0.00000000000E+00 -0.00000000000E+00 -0.24577930116E+03  0.24577930116E+03  0.00000000000E+00 0. -1.
         23    2    1    2    0    0 -0.16299420293E+03  0.63583397689E+03  0.68845757814E+03  0.95536059426E+03  0.88814817482E+02 0.  0.
         11    1    3    3    0    0 -0.21893051630E+02  0.25992308517E+03  0.26845748238E+03  0.37431101474E+03  0.00000000000E+00 0. -1.
        -11    1    3    3    0    0 -0.14110115130E+03  0.37591089172E+03  0.42000009576E+03  0.58104957951E+03  0.00000000000E+00 0.  1.
         22    1    1    2    0    0  0.16299420293E+03 -0.63583397689E+03  0.84658883931E+03  0.10712444255E+04  0.00000000000E+00 0. -1.
<mgrwt>
<rscale>  0 0.13231630E+04</rscale>
<asrwt>0</asrwt>
<pdfrwt beam="1">  1        2 0.27397318E+00 0.13231630E+04</pdfrwt>
<pdfrwt beam="2">  1       -2 0.37812201E-01 0.13231630E+04</pdfrwt>
<totfact> 0.57117850E+01</totfact>
</mgrwt>
</event>
<event>
 6    1  0.6091287E-004  0.4229999E+04  0.7818608E-02  0.7959690E-01
          2   -1    0    0  501    0  0.00000000000E+00  0.00000000000E+00  0.10828139515E+04  0.10828139515E+04  0.00000000000E+00 0.  1.
         -2   -1    0    0    0  501 -0.00000000000E+00 -0.00000000000E+00 -0.41311102214E+04  0.41311102214E+04  0.00000000000E+00 0. -1.
         23    2    1    2    0    0 -0.96428028445E+03  0.69010675341E+03  0.63227896210E+03  0.13470497456E+04  0.93180110877E+02 0.  0.
         13    1    3    3    0    0 -0.41753962952E+03  0.35593635985E+03  0.29223244132E+03  0.62163480778E+03  0.00000000000E+00 0. -1.
        -13    1    3    3    0    0 -0.54674065493E+03  0.33417039356E+03  0.34004652079E+03  0.72541493780E+03  0.00000000000E+00 0.  1.
         22    1    1    2    0    0  0.96428028445E+03 -0.69010675341E+03 -0.36805752320E+04  0.38668744273E+04  0.00000000000E+00 0. -1.
<mgrwt>
<rscale>  0 0.42299994E+04</rscale>
<asrwt>0</asrwt>
<pdfrwt beam="1">  1        2 0.16658676E+00 0.42299994E+04</pdfrwt>
<pdfrwt beam="2">  1       -2 0.63555542E+00 0.42299994E+04</pdfrwt>
<totfact> 0.65112294E-03</totfact>
</mgrwt>
</event>
<event>
 6    1  0.6091287E-004  0.2851033E+04  0.7818608E-02  0.8287598E-01
          2   -1    0    0  501    0  0.00000000000E+00  0.00000000000E+00  0.82367570048E+03  0.82367570048E+03  0.00000000000E+00 0.  1.
         -2   -1    0    0    0  501 -0.00000000000E+00 -0.00000000000E+00 -0.24671080580E+04  0.24671080580E+04  0.00000000000E+00 0. -1.
         23    2    1    2    0    0  0.62639134269E+03  0.12516551778E+04 -0.51961028182E+03  0.14957954977E+04  0.91665302592E+02 0.  0.
         13    1    3    3    0    0  0.12834274217E+03  0.25527928250E+03 -0.67287670205E+02  0.29354216410E+03  0.00000000000E+00 0.  1.
        -13    1    3    3    0    0  0.49804860051E+03  0.99637589532E+03 -0.45232261162E+03  0.12022533336E+04  0.00000000000E+00 0. -1.
         22    1    1    2    0    0 -0.62639134269E+03 -0.12516551778E+04 -0.11238220757E+04  0.17949882607E+04  0.00000000000E+00 0. -1.
<mgrwt>
<rscale>  0 0.28510328E+04</rscale>
<asrwt>0</asrwt>
<pdfrwt beam="1">  1        2 0.12671934E+00 0.28510328E+04</pdfrwt>
<pdfrwt beam="2">  1       -2 0.37955509E+00 0.28510328E+04</pdfrwt>
<totfact> 0.28920844E-01</totfact>
</mgrwt>
</event>
<event>
 6    1  0.6091287E-004  0.1062266E+04  0.7818608E-02  0.9242771E-01
         -2   -1    0    0    0  501 -0.00000000000E+00  0.00000000000E+00  0.30606765806E+03  0.30606765806E+03  0.00000000000E+00 0. -1.
          2   -1    0    0  501    0  0.00000000000E+00 -0.00000000000E+00 -0.92169973528E+03  0.92169973528E+03  0.00000000000E+00 0.  1.
         23    2    1    2    0    0 -0.16254719798E+03  0.22215006217E+03  0.20931791843E+03  0.35810381643E+03  0.93016722579E+02 0.  0.
         11    1    3    3    0    0 -0.88577050818E+02  0.16587281548E+03  0.18085441412E+03  0.26089845525E+03  0.00000000000E+00 0.  1.
        -11    1    3    3    0    0 -0.73970147157E+02  0.56277246690E+02  0.28463504311E+02  0.97205361185E+02  0.00000000000E+00 0. -1.
         22    1    1    2    0    0  0.16254719798E+03 -0.22215006217E+03 -0.82494999564E+03  0.86966357691E+03  0.00000000000E+00 0.  1.
<mgrwt>
<rscale>  0 0.10622664E+04</rscale>
<asrwt>0</asrwt>
<pdfrwt beam="1">  1        2 0.14179995E+00 0.10622664E+04</pdfrwt>
<pdfrwt beam="2">  1       -2 0.47087334E-01 0.10622664E+04</pdfrwt>
<totfact> 0.12056215E+02</totfact>
</mgrwt>
</event>
<event>
 6    1  0.6091287E-004  0.1194742E+04  0.7818608E-02  0.9117471E-01
          2   -1    0    0  501    0  0.00000000000E+00  0.00000000000E+00  0.21635254226E+03  0.21635254226E+03  0.00000000000E+00 0.  1.
         -2   -1    0    0    0  501 -0.00000000000E+00 -0.00000000000E+00 -0.16494018342E+04  0.16494018342E+04  0.00000000000E+00 0. -1.
         23    2    1    2    0    0 -0.74397093129E+02  0.34834311190E+03  0.20426226501E+02  0.36926884903E+03  0.95207148161E+02 0.  0.
         11    1    3    3    0    0 -0.14932464347E+02  0.26961701701E+03  0.16334760482E+02  0.27052382289E+03  0.00000000000E+00 0. -1.
        -11    1    3    3    0    0 -0.59464628782E+02  0.78726094895E+02  0.40914660199E+01  0.98745026142E+02  0.00000000000E+00 0.  1.
         22    1    1    2    0    0  0.74397093129E+02 -0.34834311190E+03 -0.14534755185E+04  0.14964855274E+04  0.00000000000E+00 0. -1.
<mgrwt>
<rscale>  0 0.11947423E+04</rscale>
<asrwt>0</asrwt>
<pdfrwt beam="1">  1        2 0.33285007E-01 0.11947423E+04</pdfrwt>
<pdfrwt beam="2">  1       -2 0.25375412E+00 0.11947423E+04</pdfrwt>
<totfact> 0.95546336E+00</totfact>
</mgrwt>
</event>
<event>
 6    1  0.6091287E-004  0.1661948E+04  0.7818608E-02  0.8783369E-01
         -2   -1    0    0    0  501 -0.00000000000E+00  0.00000000000E+00  0.16897560190E+04  0.16897560190E+04  0.00000000000E+00 0. -1.
          2   -1    0    0  501    0  0.00000000000E+00 -0.00000000000E+00 -0.40864951914E+03  0.40864951914E+03  0.00000000000E+00 0.  1.
         23    2    1    2    0    0  0.27717621767E+03  0.74712224609E+03  0.92850171315E+03  0.12269995238E+04  0.91619287102E+02 0.  0.
         13    1    3    3    0    0  0.19474532415E+03  0.54394781009E+03  0.73227921241E+03  0.93275817140E+03  0.00000000000E+00 0. -1.
        -13    1    3    3    0    0  0.82430893519E+02  0.20317443600E+03  0.19622250074E+03  0.29424135237E+03  0.00000000000E+00 0.  1.
         22    1    1    2    0    0 -0.27717621767E+03 -0.74712224609E+03  0.35260478672E+03  0.87140601436E+03  0.00000000000E+00 0.  1.
<mgrwt>
<rscale>  0 0.16619482E+04</rscale>
<asrwt>0</asrwt>
<pdfrwt beam="1">  1        2 0.62869158E-01 0.16619482E+04</pdfrwt>
<pdfrwt beam="2">  1       -2 0.25996246E+00 0.16619482E+04</pdfrwt>
<totfact> 0.41373194E+00</totfact>
</mgrwt>
</event>
<event>
 6    1  0.6091287E-004  0.3486049E+04  0.7818608E-02  0.8117104E-01
         -1   -1    0    0    0  501 -0.00000000000E+00  0.00000000000E+00  0.17737344689E+04  0.17737344689E+04  0.00000000000E+00 0. -1.
          1   -1    0    0  501    0  0.00000000000E+00 -0.00000000000E+00 -0.17128461214E+04  0.17128461214E+04  0.00000000000E+00 0.  1.
         23    2    1    2    0    0 -0.14277011178E+04 -0.42493488252E+02  0.10271489918E+04  0.17621108715E+04  0.99315123371E+02 0.  0.
         13    1    3    3    0    0 -0.11438279659E+04 -0.30847033982E+02  0.77266384037E+03  0.13806894529E+04  0.00000000000E+00 0.  1.
        -13    1    3    3    0    0 -0.28387315187E+03 -0.11646454270E+02  0.25448515145E+03  0.38142141859E+03  0.00000000000E+00 0. -1.
         22    1    1    2    0    0  0.14277011178E+04  0.42493488252E+02 -0.96626064433E+03  0.17244697188E+04  0.00000000000E+00 0.  1.
<mgrwt>
<rscale>  0 0.34860489E+04</rscale>
<asrwt>0</asrwt>
<pdfrwt beam="1">  1        1 0.26351479E+00 0.34860489E+04</pdfrwt>
<pdfrwt beam="2">  1       -1 0.27288222E+00 0.34860489E+04</pdfrwt>
<totfact> 0.18881176E-01</totfact>
</mgrwt>
</event>
<event>
 6    1  0.6091287E-004  0.2375648E+04  0.7818608E-02  0.8448677E-01
          2   -1    0    0  501    0  0.00000000000E+00  0.00000000000E+00  0.23682793067E+04  0.23682793067E+04  0.00000000000E+00 0.  1.
         -2   -1    0    0    0  501 -0.00000000000E+00 -0.00000000000E+00 -0.59575980772E+03  0.59575980772E+03  0.00000000000E+00 0. -1.
         23    2    1    2    0    0 -0.42836594521E+03 -0.97143599554E+03  0.22828774489E+03  0.10900495235E+04  0.94378985138E+02 0.  0.
         11    1    3    3    0    0 -0.28814619227E+03 -0.53875618239E+03  0.13710277617E+03  0.62616581144E+03  0.00000000000E+00 0.  1.
        -11    1    3    3    0    0 -0.14021975294E+03 -0.43267981315E+03  0.91184968716E+02  0.46388371209E+03  0.00000000000E+00 0. -1.
         22    1    1    2    0    0  0.42836594521E+03  0.97143599554E+03  0.15442317541E+04  0.18739895909E+04  0.00000000000E+00 0.  1.
<mgrwt>
<rscale>  0 0.23756478E+04</rscale>
<asrwt>0</asrwt>
<pdfrwt beam="1">  1        2 0.36435066E+00 0.23756478E+04</pdfrwt>
<pdfrwt beam="2">  1       -2 0.91655356E-01 0.23756478E+04</pdfrwt>
<totfact> 0.37836043E+00</totfact>
</mgrwt>
</event>
<event>
 6    1  0.6091287E-004  0.1761274E+04  0.7818608E-02  0.8727169E-01
         -2   -1    0    0    0  501 -0.00000000000E+00  0.00000000000E+00  0.39140776419E+03  0.39140776419E+03  0.00000000000E+00 0. -1.
          2   -1    0    0  501    0  0.00000000000E+00 -0.00000000000E+00 -0.19813649685E+04  0.19813649685E+04  0.00000000000E+00 0.  1.
         23    2    1    2    0    0 -0.81617587751E+03  0.11779232889E+03 -0.12043572152E+04  0.14624401301E+04  0.90756468237E+02 0.  0.
         11    1    3    3    0    0 -0.48156813018E+03  0.10707665658E+03 -0.67386678134E+03  0.83514652211E+03  0.00000000000E+00 0.  1.
        -11    1    3    3    0    0 -0.33460774733E+03  0.10715672311E+02 -0.53049043386E+03  0.62729360799E+03  0.00000000000E+00 0. -1.
         22    1    1    2    0    0  0.81617587751E+03 -0.11779232889E+03 -0.38559998915E+03  0.91033260263E+03  0.00000000000E+00 0.  1.
<mgrwt>
<rscale>  0 0.17612741E+04</rscale>
<asrwt>0</asrwt>
<pdfrwt beam="1">  1        2 0.30482538E+00 0.17612741E+04</pdfrwt>
<pdfrwt beam="2">  1       -2 0.60216579E-01 0.17612741E+04</pdfrwt>
<totfact> 0.16655061E+01</totfact>
</mgrwt>
</event>
<event>
 6    1  0.6091287E-004  0.1205924E+04  0.7818608E-02  0.9107687E-01
          2   -1    0    0  501    0  0.00000000000E+00  0.00000000000E+00  0.48891379864E+03  0.48891379864E+03  0.00000000000E+00 0.  1.
         -2   -1    0    0    0  501 -0.00000000000E+00 -0.00000000000E+00 -0.74361402968E+03  0.74361402968E+03  0.00000000000E+00 0. -1.
         23    2    1    2    0    0 -0.58761345496E+03 -0.28203970724E+02 -0.10170273328E+02  0.59544075685E+03  0.91439728981E+02 0.  0.
         11    1    3    3    0    0 -0.25863708351E+03  0.19833421889E+02  0.27492037923E+02  0.26084922415E+03  0.00000000000E+00 0. -1.
        -11    1    3    3    0    0 -0.32897637146E+03 -0.48037392613E+02 -0.37662311252E+02  0.33459153270E+03  0.00000000000E+00 0.  1.
         22    1    1    2    0    0  0.58761345496E+03  0.28203970724E+02 -0.24452995772E+03  0.63708707147E+03  0.00000000000E+00 0. -1.
<mgrwt>
<rscale>  0 0.12059240E+04</rscale>
<asrwt>0</asrwt>
<pdfrwt beam="1">  1        2 0.75217508E-01 0.12059240E+04</pdfrwt>
<pdfrwt beam="2">  1       -2 0.11440216E+00 0.12059240E+04</pdfrwt>
<totfact> 0.37226650E+01</totfact>
</mgrwt>
</event>
<event>
 6    1  0.6091287E-004  0.3324633E+04  0.7818608E-02  0.8156656E-01
         -2   -1    0    0    0  501 -0.00000000000E+00  0.00000000000E+00  0.15940893621E+04  0.15940893621E+04  0.00000000000E+00 0. -1.
          2   -1    0    0  501    0  0.00000000000E+00 -0.00000000000E+00 -0.17334639654E+04  0.17334639654E+04  0.00000000000E+00 0.  1.
         23    2    1    2    0    0  0.10288750349E+04 -0.28519321657E+03  0.12037253260E+04  0.16117921471E+04  0.94869683437E+02 0.  0.
         11    1    3    3    0    0  0.83268243532E+03 -0.20007248167E+03  0.99768194072E+03  0.13148225321E+04  0.00000000000E+00 0. -1.
        -11    1    3    3    0    0  0.19619259953E+03 -0.85120734905E+02  0.20604338524E+03  0.29696961498E+03  0.00000000000E+00 0.  1.
         22    1    1    2    0    0 -0.10288750349E+04  0.28519321657E+03 -0.13430999292E+04  0.17157611804E+04  0.00000000000E+00 0.  1.
<mgrwt>
<rscale>  0 0.33246332E+04</rscale>
<asrwt>0</asrwt>
<pdfrwt beam="1">  1        2 0.26668676E+00 0.33246332E+04</pdfrwt>
<pdfrwt beam="2">  1       -2 0.24524452E+00 0.33246332E+04</pdfrwt>
<totfact> 0.53841710E-01</totfact>
</mgrwt>
</event>
<event>
 6    1  0.6091287E-004  0.5963531E+03  0.7818608E-02  0.9913001E-01
          2   -1    0    0  501    0  0.00000000000E+00  0.00000000000E+00  0.20573599613E+03  0.20573599613E+03  0.00000000000E+00 0.  1.
         -2   -1    0    0    0  501 -0.00000000000E+00 -0.00000000000E+00 -0.43215218945E+03  0.43215218945E+03  0.00000000000E+00 0. -1.
         23    2    1    2    0    0  0.14075666699E+03  0.12837938385E+03  0.11925382499E+03  0.24319657551E+03  0.92894531959E+02 0.  0.
         13    1    3    3    0    0  0.59713975207E+02  0.41770187522E+02  0.98902261188E+02  0.12285017163E+03  0.00000000000E+00 0.  1.
        -13    1    3    3    0    0  0.81042691778E+02  0.86609196324E+02  0.20351563801E+02  0.12034640388E+03  0.00000000000E+00 0. -1.
         22    1    1    2    0    0 -0.14075666699E+03 -0.12837938385E+03 -0.34567001831E+03  0.39469161007E+03  0.00000000000E+00 0. -1.
<mgrwt>
<rscale>  0 0.59635312E+03</rscale>
<asrwt>0</asrwt>
<pdfrwt beam="1">  1        2 0.31651692E-01 0.59635312E+03</pdfrwt>
<pdfrwt beam="2">  1       -2 0.66484952E-01 0.59635312E+03</pdfrwt>
<totfact> 0.35183686E+02</totfact>
</mgrwt>
</event>
<event>
 6    1  0.6091287E-004  0.1773184E+04  0.7818608E-02  0.8720691E-01
         -2   -1    0    0    0  501 -0.00000000000E+00  0.00000000000E+00  0.50377108414E+03  0.50377108414E+03  0.00000000000E+00 0. -1.
          2   -1    0    0  501    0  0.00000000000E+00 -0.00000000000E+00 -0.15603233813E+04  0.15603233813E+04  0.00000000000E+00 0.  1.
         23    2    1    2    0    0 -0.53358405681E+03  0.66884540826E+03 -0.26950713231E+03  0.90155146952E+03  0.89971284270E+02 0.  0.
         13    1    3    3    0    0 -0.42527328037E+03  0.47087954419E+03 -0.20670556585E+03  0.66731709036E+03  0.00000000000E+00 0. -1.
        -13    1    3    3    0    0 -0.10831077644E+03  0.19796586407E+03 -0.62801566457E+02  0.23423437916E+03  0.00000000000E+00 0.  1.
         22    1    1    2    0    0  0.53358405681E+03 -0.66884540826E+03 -0.78704516483E+03  0.11625429959E+04  0.00000000000E+00 0.  1.
<mgrwt>
<rscale>  0 0.17731845E+04</rscale>
<asrwt>0</asrwt>
<pdfrwt beam="1">  1        2 0.24004975E+00 0.17731845E+04</pdfrwt>
<pdfrwt beam="2">  1       -2 0.77503243E-01 0.17731845E+04</pdfrwt>
<totfact> 0.16481770E+01</totfact>
</mgrwt>
</event>
<event>
 6    1  0.6091287E-004  0.8967391E+03  0.7818608E-02  0.9429667E-01
         -2   -1    0    0    0  501 -0.00000000000E+00  0.00000000000E+00  0.17453735468E+03  0.17453735468E+03  0.00000000000E+00 0. -1.
          2   -1    0    0  501    0  0.00000000000E+00 -0.00000000000E+00 -0.11518178528E+04  0.11518178528E+04  0.00000000000E+00 0.  1.
         23    2    1    2    0    0  0.38553772999E+03 -0.14535402485E+03 -0.25108458376E+03  0.49141350902E+03  0.93148456061E+02 0.  0.
         13    1    3    3    0    0  0.21506002853E+02 -0.16433397625E+02 -0.47949441893E+02  0.55060999756E+02  0.00000000000E+00 0.  1.
        -13    1    3    3    0    0  0.36403172713E+03 -0.12892062723E+03 -0.20313514186E+03  0.43635250927E+03  0.00000000000E+00 0. -1.
         22    1    1    2    0    0 -0.38553772999E+03  0.14535402485E+03 -0.72619591438E+03  0.83494169848E+03  0.00000000000E+00 0.  1.
<mgrwt>
<rscale>  0 0.89673907E+03</rscale>
<asrwt>0</asrwt>
<pdfrwt beam="1">  1        2 0.17720275E+00 0.89673907E+03</pdfrwt>
<pdfrwt beam="2">  1       -2 0.26851901E-01 0.89673907E+03</pdfrwt>
<totfact> 0.25528169E+02</totfact>
</mgrwt>
</event>
<event>
 6    1  0.6091287E-004  0.1889945E+04  0.7818608E-02  0.8659877E-01
          2   -1    0    0  501    0  0.00000000000E+00  0.00000000000E+00  0.27046021914E+04  0.27046021914E+04  0.00000000000E+00 0.  1.
         -2   -1    0    0    0  501 -0.00000000000E+00 -0.00000000000E+00 -0.33016810514E+03  0.33016810514E+03  0.00000000000E+00 0. -1.
         23    2    1    2    0    0 -0.23461791434E+03 -0.86583155724E+03  0.72411607709E+03  0.11564041494E+04  0.90645531886E+02 0.  0.
         11    1    3    3    0    0 -0.26491763786E+02 -0.35825908538E+02  0.22937319272E+02  0.50114168520E+02  0.00000000000E+00 0. -1.
        -11    1    3    3    0    0 -0.20812615055E+03 -0.83000564870E+03  0.70117875782E+03  0.11062899809E+04  0.00000000000E+00 0.  1.
         22    1    1    2    0    0  0.23461791434E+03  0.86583155724E+03  0.16503180091E+04  0.18783661471E+04  0.00000000000E+00 0. -1.
<mgrwt>
<rscale>  0 0.18899454E+04</rscale>
<asrwt>0</asrwt>
<pdfrwt beam="1">  1        2 0.41609263E+00 0.18899454E+04</pdfrwt>
<pdfrwt beam="2">  1       -2 0.50795095E-01 0.18899454E+04</pdfrwt>
<totfact> 0.90772138E+00</totfact>
</mgrwt>
</event>
<event>
 6    1  0.6091287E-004  0.2776897E+04  0.7818608E-02  0.8310477E-01
          1   -1    0    0  501    0  0.00000000000E+00  0.00000000000E+00  0.19976159094E+04  0.19976159094E+04  0.00000000000E+00 0.  1.
         -1   -1    0    0    0  501 -0.00000000000E+00 -0.00000000000E+00 -0.96504524979E+03  0.96504524979E+03  0.00000000000E+00 0. -1.
         23    2    1    2    0    0 -0.40803483470E+03 -0.12553889802E+04  0.62809149253E+02  0.13246955598E+04  0.91539166116E+02 0.  0.
         11    1    3    3    0    0 -0.16058893101E+03 -0.54075918909E+03  0.69825937927E+02  0.56840563593E+03  0.00000000000E+00 0.  1.
        -11    1    3    3    0    0 -0.24744590369E+03 -0.71462979111E+03 -0.70167886733E+01  0.75628992385E+03  0.00000000000E+00 0. -1.
         22    1    1    2    0    0  0.40803483470E+03  0.12553889802E+04  0.96976151037E+03  0.16379655994E+04  0.00000000000E+00 0.  1.
<mgrwt>
<rscale>  0 0.27768974E+04</rscale>
<asrwt>0</asrwt>
<pdfrwt beam="1">  1        1 0.30732552E+00 0.27768974E+04</pdfrwt>
<pdfrwt beam="2">  1       -1 0.14846850E+00 0.27768974E+04</pdfrwt>
<totfact> 0.93053930E-01</totfact>
</mgrwt>
</event>
<event>
 6    1  0.6091287E-004  0.7041797E+04  0.7818608E-02  0.7573140E-01
         -2   -1    0    0    0  501 -0.00000000000E+00  0.00000000000E+00  0.41876911657E+04  0.41876911657E+04  0.00000000000E+00 0. -1.
          2   -1    0    0  501    0  0.00000000000E+00 -0.00000000000E+00 -0.29602767194E+04  0.29602767194E+04  0.00000000000E+00 0.  1.
         23    2    1    2    0    0 -0.25570668269E+04  0.15835004592E+04 -0.12431399912E+04  0.32557058576E+04  0.90327913725E+02 0.  0.
         11    1    3    3    0    0 -0.20390118462E+04  0.12889471800E+04 -0.96609670862E+03  0.25985182301E+04  0.00000000000E+00 0. -1.
        -11    1    3    3    0    0 -0.51805498069E+03  0.29455327920E+03 -0.27704328260E+03  0.65718762750E+03  0.00000000000E+00 0.  1.
         22    1    1    2    0    0  0.25570668269E+04 -0.15835004592E+04  0.24705544376E+04  0.38922620275E+04  0.00000000000E+00 0.  1.
<mgrwt>
<rscale>  0 0.70417966E+04</rscale>
<asrwt>0</asrwt>
<pdfrwt beam="1">  1        2 0.45542719E+00 0.70417966E+04</pdfrwt>
<pdfrwt beam="2">  1       -2 0.64426018E+00 0.70417966E+04</pdfrwt>
<totfact> 0.41475617E-04</totfact>
</mgrwt>
</event>
<event>
 6    1  0.6091287E-004  0.3545672E+03  0.7818608E-02  0.1060756E+00
          1   -1    0    0  501    0  0.00000000000E+00  0.00000000000E+00  0.52177188437E+03  0.52177188437E+03  0.00000000000E+00 0.  1.
         -1   -1    0    0    0  501 -0.00000000000E+00 -0.00000000000E+00 -0.60236046505E+02  0.60236046505E+02  0.00000000000E+00 0. -1.
         23    2    1    2    0    0  0.36082266213E+00 -0.16314884614E+03  0.20420802948E+03  0.27731911067E+03  0.92667651578E+02 0.  0.
         13    1    3    3    0    0  0.43952969270E+02 -0.98994081015E+02  0.13733684887E+03  0.17490883809E+03  0.00000000000E+00 0.  1.
        -13    1    3    3    0    0 -0.43592146608E+02 -0.64154765126E+02  0.66871180608E+02  0.10241027258E+03  0.00000000000E+00 0. -1.
         22    1    1    2    0    0 -0.36082266213E+00  0.16314884614E+03  0.25732780838E+03  0.30468882020E+03  0.00000000000E+00 0.  1.
<mgrwt>
<rscale>  0 0.35456720E+03</rscale>
<asrwt>0</asrwt>
<pdfrwt beam="1">  1        1 0.80272594E-01 0.35456720E+03</pdfrwt>
<pdfrwt beam="2">  1       -1 0.92670844E-02 0.35456720E+03</pdfrwt>
<totfact> 0.29342778E+03</totfact>
</mgrwt>
</event>
<event>
 6    1  0.6091287E-004  0.2147731E+04  0.7818608E-02  0.8540504E-01
         -2   -1    0    0    0  501 -0.00000000000E+00  0.00000000000E+00  0.52969464091E+03  0.52969464091E+03  0.00000000000E+00 0. -1.
          2   -1    0    0  501    0  0.00000000000E+00 -0.00000000000E+00 -0.21770798224E+04  0.21770798224E+04  0.00000000000E+00 0.  1.
         23    2    1    2    0    0  0.48995137298E+03 -0.93050711000E+03 -0.56319297305E+03  0.11963544639E+04  0.90453572836E+02 0.  0.
         13    1    3    3    0    0  0.15063140333E+03 -0.24479095104E+03 -0.19469240845E+03  0.34715639601E+03  0.00000000000E+00 0. -1.
        -13    1    3    3    0    0  0.33931996965E+03 -0.68571615896E+03 -0.36850056460E+03  0.84919806792E+03  0.00000000000E+00 0.  1.
         22    1    1    2    0    0 -0.48995137298E+03  0.93050711000E+03 -0.10841922084E+04  0.15104199993E+04  0.00000000000E+00 0.  1.
<mgrwt>
<rscale>  0 0.21477314E+04</rscale>
<asrwt>0</asrwt>
<pdfrwt beam="1">  1        2 0.33493535E+00 0.21477314E+04</pdfrwt>
<pdfrwt beam="2">  1       -2 0.81491484E-01 0.21477314E+04</pdfrwt>
<totfact> 0.64737186E+00</totfact>
</mgrwt>
</event>
<event>
 6    1  0.6091287E-004  0.6173053E+04  0.7818608E-02  0.7669308E-01
         -2   -1    0    0    0  501 -0.00000000000E+00  0.00000000000E+00  0.33306152886E+04  0.33306152886E+04  0.00000000000E+00 0. -1.
          2   -1    0    0  501    0  0.00000000000E+00 -0.00000000000E+00 -0.28603260198E+04  0.28603260198E+04  0.00000000000E+00 0.  1.
         23    2    1    2    0    0 -0.13193510361E+04 -0.27530451509E+04 -0.21585415363E+03  0.30619258793E+04  0.94086744724E+02 0.  0.
         11    1    3    3    0    0 -0.87576676532E+03 -0.17943154322E+04 -0.18365211499E+03  0.20050594497E+04  0.00000000000E+00 0.  1.
        -11    1    3    3    0    0 -0.44358427075E+03 -0.95872971869E+03 -0.32202038645E+02  0.10568664296E+04  0.00000000000E+00 0. -1.
         22    1    1    2    0    0  0.13193510361E+04  0.27530451509E+04  0.68614342239E+03  0.31290154291E+04  0.00000000000E+00 0.  1.
<mgrwt>
<rscale>  0 0.61730529E+04</rscale>
<asrwt>0</asrwt>
<pdfrwt beam="1">  1        2 0.44005016E+00 0.61730529E+04</pdfrwt>
<pdfrwt beam="2">  1       -2 0.51240235E+00 0.61730529E+04</pdfrwt>
<totfact> 0.19830834E-03</totfact>
</mgrwt>
</event>
<event>
 6    1  0.6091287E-004  0.6743989E+03  0.7818608E-02  0.9762044E-01
          2   -1    0    0  501    0  0.00000000000E+00  0.00000000000E+00  0.10158547418E+04  0.10158547418E+04  0.00000000000E+00 0.  1.
         -2   -1    0    0    0  501 -0.00000000000E+00 -0.00000000000E+00 -0.11192887525E+03  0.11192887525E+03  0.00000000000E+00 0. -1.
         23    2    1    2    0    0 -0.18392903650E+03  0.27522292918E+03  0.45221804824E+03  0.56776798840E+03  0.91004254166E+02 0.  0.
         13    1    3    3    0    0 -0.26702805125E+02  0.95687632442E+02  0.18125737605E+03  0.20669639372E+03  0.00000000000E+00 0. -1.
        -13    1    3    3    0    0 -0.15722623138E+03  0.17953529674E+03  0.27096067219E+03  0.36107159468E+03  0.00000000000E+00 0.  1.
         22    1    1    2    0    0  0.18392903650E+03 -0.27522292918E+03  0.45170781832E+03  0.56001562867E+03  0.00000000000E+00 0.  1.
<mgrwt>
<rscale>  0 0.67439893E+03</rscale>
<asrwt>0</asrwt>
<pdfrwt beam="1">  1        2 0.15628534E+00 0.67439893E+03</pdfrwt>
<pdfrwt beam="2">  1       -2 0.17219828E-01 0.67439893E+03</pdfrwt>
<totfact> 0.68626981E+02</totfact>
</mgrwt>
</event>
<event>
 6    1  0.6091287E-004  0.3636844E+04  0.7818608E-02  0.8082104E-01
         -1   -1    0    0    0  501 -0.00000000000E+00  0.00000000000E+00  0.10351616099E+04  0.10351616099E+04  0.00000000000E+00 0.  1.
          1   -1    0    0  501    0  0.00000000000E+00 -0.00000000000E+00 -0.31943400408E+04  0.31943400408E+04  0.00000000000E+00 0. -1.
         23    2    1    2    0    0 -0.14222572031E+04  0.82777157083E+03 -0.19769689085E+04  0.25738381477E+04  0.90638952563E+02 0.  0.
         13    1    3    3    0    0 -0.27968481125E+03  0.12811392096E+03 -0.39886692397E+03  0.50371777160E+03  0.00000000000E+00 0.  1.
        -13    1    3    3    0    0 -0.11425723919E+04  0.69965764987E+03 -0.15781019846E+04  0.20701203761E+04  0.00000000000E+00 0. -1.
         22    1    1    2    0    0  0.14222572031E+04 -0.82777157083E+03 -0.18220952232E+03  0.16556635030E+04  0.00000000000E+00 0.  1.
<mgrwt>
<rscale>  0 0.36368438E+04</rscale>
<asrwt>0</asrwt>
<pdfrwt beam="1">  1        1 0.49143693E+00 0.36368438E+04</pdfrwt>
<pdfrwt beam="2">  1       -1 0.15925563E+00 0.36368438E+04</pdfrwt>
<totfact> 0.10240187E-01</totfact>
</mgrwt>
</event>
<event>
 6    1  0.6091287E-004  0.1659693E+04  0.7818608E-02  0.8784693E-01
          2   -1    0    0  501    0  0.00000000000E+00  0.00000000000E+00  0.34076989869E+04  0.34076989869E+04  0.00000000000E+00 0.  1.
         -2   -1    0    0    0  501 -0.00000000000E+00 -0.00000000000E+00 -0.20208502991E+03  0.20208502991E+03  0.00000000000E+00 0. -1.
         23    2    1    2    0    0 -0.73093907558E+03 -0.41459669247E+02  0.77057195166E+03  0.10670649202E+04  0.94104064350E+02 0.  0.
         13    1    3    3    0    0 -0.11131387067E+03  0.19556172842E+02  0.15190422459E+03  0.18933598482E+03  0.00000000000E+00 0. -1.
        -13    1    3    3    0    0 -0.61962520491E+03 -0.61015842090E+02  0.61866772708E+03  0.87772893542E+03  0.00000000000E+00 0.  1.
         22    1    1    2    0    0  0.73093907558E+03  0.41459669247E+02  0.24350420053E+04  0.25427190965E+04  0.00000000000E+00 0.  1.
<mgrwt>
<rscale>  0 0.16596927E+04</rscale>
<asrwt>0</asrwt>
<pdfrwt beam="1">  1        2 0.52426134E+00 0.16596927E+04</pdfrwt>
<pdfrwt beam="2">  1       -2 0.31090007E-01 0.16596927E+04</pdfrwt>
<totfact> 0.87060299E+00</totfact>
</mgrwt>
</event>
<event>
 6    1  0.6091287E-004  0.3284724E+04  0.7818608E-02  0.8166793E-01
          2   -1    0    0  501    0  0.00000000000E+00  0.00000000000E+00  0.11062869303E+04  0.11062869303E+04  0.00000000000E+00 0.  1.
         -2   -1    0    0    0  501 -0.00000000000E+00 -0.00000000000E+00 -0.24382044313E+04  0.24382044313E+04  0.00000000000E+00 0. -1.
         23    2    1    2    0    0 -0.98634144223E+03 -0.12262079013E+04 -0.11688653116E+04  0.19623910884E+04  0.90980268367E+02 0.  0.
         13    1    3    3    0    0 -0.94547643175E+03 -0.11862739985E+04 -0.11053500403E+04  0.18769577496E+04  0.00000000000E+00 0. -1.
        -13    1    3    3    0    0 -0.40865010480E+02 -0.39933902874E+02 -0.63515271315E+02  0.85433338753E+02  0.00000000000E+00 0.  1.
         22    1    1    2    0    0  0.98634144223E+03  0.12262079013E+04 -0.16305218936E+03  0.15821002732E+04  0.00000000000E+00 0.  1.
<mgrwt>
<rscale>  0 0.32847245E+04</rscale>
<asrwt>0</asrwt>
<pdfrwt beam="1">  1        2 0.17019799E+00 0.32847245E+04</pdfrwt>
<pdfrwt beam="2">  1       -2 0.37510837E+00 0.32847245E+04</pdfrwt>
<totfact> 0.19426740E-01</totfact>
</mgrwt>
</event>
<event>
 6    1  0.6091287E-004  0.2076322E+04  0.7818608E-02  0.8571746E-01
         -2   -1    0    0    0  501 -0.00000000000E+00  0.00000000000E+00  0.10761968819E+04  0.10761968819E+04  0.00000000000E+00 0. -1.
          2   -1    0    0  501    0  0.00000000000E+00 -0.00000000000E+00 -0.10014693855E+04  0.10014693855E+04  0.00000000000E+00 0.  1.
         23    2    1    2    0    0  0.80915140152E+03 -0.58435962083E+03  0.31572300140E+03  0.10508844061E+04  0.92059026895E+02 0.  0.
         11    1    3    3    0    0  0.44069608299E+03 -0.29308199640E+03  0.21036869111E+03  0.56953057896E+03  0.00000000000E+00 0. -1.
        -11    1    3    3    0    0  0.36845531854E+03 -0.29127762443E+03  0.10535431029E+03  0.48135382719E+03  0.00000000000E+00 0.  1.
         22    1    1    2    0    0 -0.80915140152E+03  0.58435962083E+03 -0.24099550501E+03  0.10267818612E+04  0.00000000000E+00 0.  1.
<mgrwt>
<rscale>  0 0.20763220E+04</rscale>
<asrwt>0</asrwt>
<pdfrwt beam="1">  1        2 0.15407221E+00 0.20763220E+04</pdfrwt>
<pdfrwt beam="2">  1       -2 0.16556875E+00 0.20763220E+04</pdfrwt>
<totfact> 0.53211033E+00</totfact>
</mgrwt>
</event>
<event>
 6    1  0.6091287E-004  0.1012601E+04  0.7818608E-02  0.9294831E-01
          2   -1    0    0  501    0  0.00000000000E+00  0.00000000000E+00  0.91994830975E+03  0.91994830975E+03  0.00000000000E+00 0.  1.
         -2   -1    0    0    0  501 -0.00000000000E+00 -0.00000000000E+00 -0.27864630690E+03  0.27864630690E+03  0.00000000000E+00 0. -1.
         23    2    1    2    0    0 -0.39331123821E+03  0.31165284035E+03  0.33539255617E+03  0.61088566438E+03  0.94190791563E+02 0.  0.
         13    1    3    3    0    0 -0.14207139440E+03  0.17121831393E+03  0.15609935180E+03  0.27178484093E+03  0.00000000000E+00 0. -1.
        -13    1    3    3    0    0 -0.25123984381E+03  0.14043452642E+03  0.17929320437E+03  0.33910082345E+03  0.00000000000E+00 0.  1.
         22    1    1    2    0    0  0.39331123821E+03 -0.31165284035E+03  0.30590944669E+03  0.58770895227E+03  0.00000000000E+00 0. -1.
<mgrwt>
<rscale>  0 0.10126010E+04</rscale>
<asrwt>0</asrwt>
<pdfrwt beam="1">  1        2 0.14153051E+00 0.10126010E+04</pdfrwt>
<pdfrwt beam="2">  1       -2 0.42868663E-01 0.10126010E+04</pdfrwt>
<totfact> 0.14623696E+02</totfact>
</mgrwt>
</event>
<event>
 6    1  0.6091287E-004  0.3911745E+04  0.7818608E-02  0.8022591E-01
         -2   -1    0    0    0  501 -0.00000000000E+00  0.00000000000E+00  0.15573833326E+04  0.15573833326E+04  0.00000000000E+00 0. -1.
          2   -1    0    0  501    0  0.00000000000E+00 -0.00000000000E+00 -0.24563230068E+04  0.24563230068E+04  0.00000000000E+00 0.  1.
         23    2    1    2    0    0  0.10721013290E+04  0.14428930706E+04 -0.12379152228E+04  0.21844315936E+04  0.89250294946E+02 0.  0.
         11    1    3    3    0    0  0.24784932504E+03  0.38827268966E+03 -0.34297891100E+03  0.57429914056E+03  0.00000000000E+00 0. -1.
        -11    1    3    3    0    0  0.82425200401E+03  0.10546203810E+04 -0.89493631181E+03  0.16101324530E+04  0.00000000000E+00 0.  1.
         22    1    1    2    0    0 -0.10721013290E+04 -0.14428930706E+04  0.33897554866E+03  0.18292747458E+04  0.00000000000E+00 0. -1.
<mgrwt>
<rscale>  0 0.39117446E+04</rscale>
<asrwt>0</asrwt>
<pdfrwt beam="1">  1        2 0.37789584E+00 0.39117446E+04</pdfrwt>
<pdfrwt beam="2">  1       -2 0.23959744E+00 0.39117446E+04</pdfrwt>
<totfact> 0.21840762E-01</totfact>
</mgrwt>
</event>
<event>
 6    1  0.6091287E-004  0.1264687E+04  0.7818608E-02  0.9058047E-01
          2   -1    0    0  501    0  0.00000000000E+00  0.00000000000E+00  0.12423021528E+04  0.12423021528E+04  0.00000000000E+00 0.  1.
         -2   -1    0    0    0  501 -0.00000000000E+00 -0.00000000000E+00 -0.32186890449E+03  0.32186890449E+03  0.00000000000E+00 0. -1.
         23    2    1    2    0    0 -0.38483128476E+03 -0.44913070992E+03  0.72821537174E+03  0.94226975931E+03  0.88097442371E+02 0.  0.
         11    1    3    3    0    0 -0.20812167762E+03 -0.26319123680E+03  0.34616867476E+03  0.48209647500E+03  0.00000000000E+00 0. -1.
        -11    1    3    3    0    0 -0.17670960715E+03 -0.18593947311E+03  0.38204669698E+03  0.46017328431E+03  0.00000000000E+00 0.  1.
         22    1    1    2    0    0  0.38483128476E+03  0.44913070992E+03  0.19221787655E+03  0.62190129795E+03  0.00000000000E+00 0. -1.
<mgrwt>
<rscale>  0 0.12646872E+04</rscale>
<asrwt>0</asrwt>
<pdfrwt beam="1">  1        2 0.19112341E+00 0.12646872E+04</pdfrwt>
<pdfrwt beam="2">  1       -2 0.49518294E-01 0.12646872E+04</pdfrwt>
<totfact> 0.67765142E+01</totfact>
</mgrwt>
</event>
<event>
 6    1  0.6091287E-004  0.3313846E+04  0.7818608E-02  0.8159381E-01
          1   -1    0    0  501    0  0.00000000000E+00  0.00000000000E+00  0.30779872655E+04  0.30779872655E+04  0.00000000000E+00 0.  1.
         -1   -1    0    0    0  501 -0.00000000000E+00 -0.00000000000E+00 -0.89194468386E+03  0.89194468386E+03  0.00000000000E+00 0. -1.
         23    2    1    2    0    0  0.55671513693E+03 -0.66136063412E+03  0.27854667780E+04  0.29179628437E+04  0.91391213399E+02 0.  0.
         13    1    3    3    0    0  0.38474649090E+03 -0.43644269307E+03  0.20058410146E+04  0.20885186765E+04  0.00000000000E+00 0.  1.
        -13    1    3    3    0    0  0.17196864604E+03 -0.22491794105E+03  0.77962576345E+03  0.82944416718E+03  0.00000000000E+00 0. -1.
         22    1    1    2    0    0 -0.55671513693E+03  0.66136063412E+03 -0.59942419636E+03  0.10519691056E+04  0.00000000000E+00 0. -1.
<mgrwt>
<rscale>  0 0.33138463E+04</rscale>
<asrwt>0</asrwt>
<pdfrwt beam="1">  1        1 0.47353650E+00 0.33138463E+04</pdfrwt>
<pdfrwt beam="2">  1       -1 0.13722226E+00 0.33138463E+04</pdfrwt>
<totfact> 0.19156829E-01</totfact>
</mgrwt>
</event>
<event>
 6    1  0.6091287E-004  0.3535779E+04  0.7818608E-02  0.8105363E-01
         -2   -1    0    0    0  501 -0.00000000000E+00  0.00000000000E+00  0.20757931375E+04  0.20757931375E+04  0.00000000000E+00 0. -1.
          2   -1    0    0  501    0  0.00000000000E+00 -0.00000000000E+00 -0.15056574808E+04  0.15056574808E+04  0.00000000000E+00 0.  1.
         23    2    1    2    0    0 -0.14767642961E+03  0.67176755199E+03 -0.13631479487E+04  0.15294600066E+04  0.89418174756E+02 0.  0.
         11    1    3    3    0    0 -0.10307065500E+03  0.52151425543E+03 -0.11262370584E+04  0.12453957565E+04  0.00000000000E+00 0.  1.
        -11    1    3    3    0    0 -0.44605774618E+02  0.15025329656E+03 -0.23691089032E+03  0.28406425014E+03  0.00000000000E+00 0. -1.
         22    1    1    2    0    0  0.14767642961E+03 -0.67176755199E+03  0.19332836054E+04  0.20519906117E+04  0.00000000000E+00 0. -1.
<mgrwt>
<rscale>  0 0.35357791E+04</rscale>
<asrwt>0</asrwt>
<pdfrwt beam="1">  1        2 0.23163961E+00 0.35357791E+04</pdfrwt>
<pdfrwt beam="2">  1       -2 0.31935279E+00 0.35357791E+04</pdfrwt>
<totfact> 0.24943616E-01</totfact>
</mgrwt>
</event>
<event>
 6    1  0.6091287E-004  0.4419249E+04  0.7818608E-02  0.7924928E-01
         -2   -1    0    0    0  501 -0.00000000000E+00  0.00000000000E+00  0.12629862358E+04  0.12629862358E+04  0.00000000000E+00 0. -1.
          2   -1    0    0  501    0  0.00000000000E+00 -0.00000000000E+00 -0.38657907893E+04  0.38657907893E+04  0.00000000000E+00 0.  1.
         23    2    1    2    0    0  0.21370472580E+04 -0.26771896135E+03 -0.18699015336E+04  0.28537404843E+04  0.93051496810E+02 0.  0.
         11    1    3    3    0    0  0.54625845366E+03 -0.29375138721E+02 -0.49011062763E+03  0.73448595922E+03  0.00000000000E+00 0.  1.
        -11    1    3    3    0    0  0.15907888043E+04 -0.23834382263E+03 -0.13797909060E+04  0.21192545251E+04  0.00000000000E+00 0. -1.
         22    1    1    2    0    0 -0.21370472580E+04  0.26771896135E+03 -0.73290301989E+03  0.22750365408E+04  0.00000000000E+00 0. -1.
<mgrwt>
<rscale>  0 0.44192491E+04</rscale>
<asrwt>0</asrwt>
<pdfrwt beam="1">  1        2 0.59473703E+00 0.44192491E+04</pdfrwt>
<pdfrwt beam="2">  1       -2 0.19430558E+00 0.44192491E+04</pdfrwt>
<totfact> 0.48194083E-02</totfact>
</mgrwt>
</event>
<event>
 6    1  0.6091287E-004  0.2533702E+04  0.7818608E-02  0.8391077E-01
         -2   -1    0    0    0  501 -0.00000000000E+00  0.00000000000E+00  0.10112331175E+04  0.10112331175E+04  0.00000000000E+00 0. -1.
          2   -1    0    0  501    0  0.00000000000E+00 -0.00000000000E+00 -0.15870830269E+04  0.15870830269E+04  0.00000000000E+00 0.  1.
         23    2    1    2    0    0 -0.25687261920E+03  0.12240512708E+04 -0.48370401281E+03  0.13442125114E+04  0.93019609252E+02 0.  0.
         13    1    3    3    0    0 -0.50398737141E+02  0.43790366180E+03 -0.15089577408E+03  0.46590684086E+03  0.00000000000E+00 0. -1.
        -13    1    3    3    0    0 -0.20647388205E+03  0.78614760903E+03 -0.33280823872E+03  0.87830567055E+03  0.00000000000E+00 0.  1.
         22    1    1    2    0    0  0.25687261920E+03 -0.12240512708E+04 -0.92145896535E+02  0.12541036330E+04  0.00000000000E+00 0. -1.
<mgrwt>
<rscale>  0 0.25337016E+04</rscale>
<asrwt>0</asrwt>
<pdfrwt beam="1">  1        2 0.24416662E+00 0.25337016E+04</pdfrwt>
<pdfrwt beam="2">  1       -2 0.15557433E+00 0.25337016E+04</pdfrwt>
<totfact> 0.27416613E+00</totfact>
</mgrwt>
</event>
<event>
 6    1  0.6091287E-004  0.1739217E+04  0.7818608E-02  0.8739308E-01
          2   -1    0    0  501    0  0.00000000000E+00  0.00000000000E+00  0.25053099573E+04  0.25053099573E+04  0.00000000000E+00 0.  1.
         -2   -1    0    0    0  501 -0.00000000000E+00 -0.00000000000E+00 -0.30184642205E+03  0.30184642205E+03  0.00000000000E+00 0. -1.
         23    2    1    2    0    0 -0.79724530050E+03 -0.91740710976E+02  0.57680621690E+03  0.99331226847E+03  0.99736771609E+02 0.  0.
         11    1    3    3    0    0 -0.36041914846E+03 -0.78989565312E+02  0.30458709875E+03  0.47845022179E+03  0.00000000000E+00 0.  1.
        -11    1    3    3    0    0 -0.43682615205E+03 -0.12751145664E+02  0.27221911815E+03  0.51486204668E+03  0.00000000000E+00 0. -1.
         22    1    1    2    0    0  0.79724530050E+03  0.91740710976E+02  0.16266573184E+04  0.18138441109E+04  0.00000000000E+00 0. -1.
<mgrwt>
<rscale>  0 0.17392169E+04</rscale>
<asrwt>0</asrwt>
<pdfrwt beam="1">  1        2 0.38543229E+00 0.17392169E+04</pdfrwt>
<pdfrwt beam="2">  1       -2 0.46437913E-01 0.17392169E+04</pdfrwt>
<totfact> 0.14436859E+01</totfact>
</mgrwt>
</event>
<event>
 6    1  0.6091287E-004  0.2500595E+04  0.7818608E-02  0.8402774E-01
          1   -1    0    0  501    0  0.00000000000E+00  0.00000000000E+00  0.16920970282E+04  0.16920970282E+04  0.00000000000E+00 0.  1.
         -1   -1    0    0    0  501 -0.00000000000E+00 -0.00000000000E+00 -0.92384976154E+03  0.92384976154E+03  0.00000000000E+00 0. -1.
         23    2    1    2    0    0  0.65448071770E+03 -0.93879151654E+03  0.90721379290E+03  0.14631301448E+04  0.89657310095E+02 0.  0.
         13    1    3    3    0    0  0.57528416150E+03 -0.86595810047E+03  0.80689299674E+03  0.13160211269E+04  0.00000000000E+00 0. -1.
        -13    1    3    3    0    0  0.79196556195E+02 -0.72833416072E+02  0.10032079615E+03  0.14710901791E+03  0.00000000000E+00 0.  1.
         22    1    1    2    0    0 -0.65448071770E+03  0.93879151654E+03 -0.13896652626E+03  0.11528166449E+04  0.00000000000E+00 0.  1.
<mgrwt>
<rscale>  0 0.25005947E+04</rscale>
<asrwt>0</asrwt>
<pdfrwt beam="1">  1        1 0.26032262E+00 0.25005947E+04</pdfrwt>
<pdfrwt beam="2">  1       -1 0.14213073E+00 0.25005947E+04</pdfrwt>
<totfact> 0.17269152E+00</totfact>
</mgrwt>
</event>
<event>
 6    1  0.6091287E-004  0.1174659E+04  0.7818608E-02  0.9135331E-01
          2   -1    0    0  501    0  0.00000000000E+00  0.00000000000E+00  0.74915481134E+03  0.74915481134E+03  0.00000000000E+00 0.  1.
         -2   -1    0    0    0  501 -0.00000000000E+00 -0.00000000000E+00 -0.46046039210E+03  0.46046039210E+03  0.00000000000E+00 0. -1.
         23    2    1    2    0    0 -0.24960321284E+03  0.30244486916E+03  0.59051638873E+03  0.71477061774E+03  0.91721141964E+02 0.  0.
         11    1    3    3    0    0 -0.10231612820E+03  0.19562066329E+03  0.32063350281E+03  0.38928380023E+03  0.00000000000E+00 0.  1.
        -11    1    3    3    0    0 -0.14728708464E+03  0.10682420587E+03  0.26988288592E+03  0.32548681751E+03  0.00000000000E+00 0. -1.
         22    1    1    2    0    0  0.24960321284E+03 -0.30244486916E+03 -0.30182196948E+03  0.49484458571E+03  0.00000000000E+00 0.  1.
<mgrwt>
<rscale>  0 0.11746593E+04</rscale>
<asrwt>0</asrwt>
<pdfrwt beam="1">  1        2 0.11525459E+00 0.11746593E+04</pdfrwt>
<pdfrwt beam="2">  1       -2 0.70840060E-01 0.11746593E+04</pdfrwt>
<totfact> 0.67252817E+01</totfact>
</mgrwt>
</event>
<event>
 6    1  0.6091287E-004  0.5499347E+04  0.7818608E-02  0.7755779E-01
          2   -1    0    0  501    0  0.00000000000E+00  0.00000000000E+00  0.29145471074E+04  0.29145471074E+04  0.00000000000E+00 0.  1.
         -2   -1    0    0    0  501 -0.00000000000E+00 -0.00000000000E+00 -0.25941266085E+04  0.25941266085E+04  0.00000000000E+00 0. -1.
         23    2    1    2    0    0  0.27421940738E+03 -0.25419264649E+04  0.11718578227E+04  0.28139507334E+04  0.92095262007E+02 0.  0.
         13    1    3    3    0    0  0.16540891878E+03 -0.13534158470E+04  0.57897838861E+03  0.14813205392E+04  0.00000000000E+00 0.  1.
        -13    1    3    3    0    0  0.10881048861E+03 -0.11885106179E+04  0.59287943412E+03  0.13326301942E+04  0.00000000000E+00 0. -1.
         22    1    1    2    0    0 -0.27421940738E+03  0.25419264649E+04 -0.85143732381E+03  0.26947229825E+04  0.00000000000E+00 0. -1.
<mgrwt>
<rscale>  0 0.54993469E+04</rscale>
<asrwt>0</asrwt>
<pdfrwt beam="1">  1        2 0.44839186E+00 0.54993469E+04</pdfrwt>
<pdfrwt beam="2">  1       -2 0.39909640E+00 0.54993469E+04</pdfrwt>
<totfact> 0.10370040E-02</totfact>
</mgrwt>
</event>
<event>
 6    1  0.6091287E-004  0.2155812E+04  0.7818608E-02  0.8537048E-01
         -2   -1    0    0    0  501 -0.00000000000E+00  0.00000000000E+00  0.42220138599E+03  0.42220138599E+03  0.00000000000E+00 0.  1.
          2   -1    0    0  501    0  0.00000000000E+00 -0.00000000000E+00 -0.27519605201E+04  0.27519605201E+04  0.00000000000E+00 0. -1.
         23    2    1    2    0    0 -0.68871910965E+03 -0.82311218874E+03 -0.10516464421E+04  0.15052042251E+04  0.88497643936E+02 0.  0.
         11    1    3    3    0    0 -0.70754053585E+02 -0.12927004965E+03 -0.15797309748E+03  0.21603791650E+03  0.00000000000E+00 0. -1.
        -11    1    3    3    0    0 -0.61796505607E+03 -0.69384213908E+03 -0.89367334461E+03  0.12891663086E+04  0.00000000000E+00 0.  1.
         22    1    1    2    0    0  0.68871910965E+03  0.82311218874E+03 -0.12781126920E+04  0.16689576809E+04  0.00000000000E+00 0.  1.
<mgrwt>
<rscale>  0 0.21558122E+04</rscale>
<asrwt>0</asrwt>
<pdfrwt beam="1">  1        2 0.42337854E+00 0.21558122E+04</pdfrwt>
<pdfrwt beam="2">  1       -2 0.64954059E-01 0.21558122E+04</pdfrwt>
<totfact> 0.49617235E+00</totfact>
</mgrwt>
</event>
<event>
 6    1  0.6091287E-004  0.1989924E+04  0.7818608E-02  0.8611346E-01
          2   -1    0    0  501    0  0.00000000000E+00  0.00000000000E+00  0.14941463938E+04  0.14941463938E+04  0.00000000000E+00 0. -1.
         -2   -1    0    0    0  501 -0.00000000000E+00 -0.00000000000E+00 -0.66255169414E+03  0.66255169414E+03  0.00000000000E+00 0.  1.
         23    2    1    2    0    0  0.54190470460E+03 -0.78327408466E+03  0.72047872796E+03  0.11977790300E+04  0.91684276927E+02 0.  0.
         11    1    3    3    0    0  0.26588774709E+03 -0.33404437809E+03  0.27814413427E+03  0.50955480570E+03  0.00000000000E+00 0. -1.
        -11    1    3    3    0    0  0.27601695750E+03 -0.44922970657E+03  0.44233459369E+03  0.68822422427E+03  0.00000000000E+00 0.  1.
         22    1    1    2    0    0 -0.54190470460E+03  0.78327408466E+03  0.11111597169E+03  0.95891905796E+03  0.00000000000E+00 0.  1.
<mgrwt>
<rscale>  0 0.19899238E+04</rscale>
<asrwt>0</asrwt>
<pdfrwt beam="1">  1        2 0.22986868E+00 0.19899238E+04</pdfrwt>
<pdfrwt beam="2">  1       -2 0.10193103E+00 0.19899238E+04</pdfrwt>
<totfact> 0.93874457E+00</totfact>
</mgrwt>
</event>
<event>
 6    1  0.6091287E-004  0.6048441E+04  0.7818608E-02  0.7684425E-01
         -2   -1    0    0    0  501 -0.00000000000E+00  0.00000000000E+00  0.24056013681E+04  0.24056013681E+04  0.00000000000E+00 0. -1.
          2   -1    0    0  501    0  0.00000000000E+00 -0.00000000000E+00 -0.38019225546E+04  0.38019225546E+04  0.00000000000E+00 0.  1.
         23    2    1    2    0    0  0.26025573218E+03 -0.13531624956E+04 -0.34603911135E+04  0.37257571227E+04  0.90430597315E+02 0.  0.
         13    1    3    3    0    0  0.13996438821E+03 -0.56283165810E+03 -0.13692483072E+04  0.14870139314E+04  0.00000000000E+00 0.  1.
        -13    1    3    3    0    0  0.12029134397E+03 -0.79033083753E+03 -0.20911428063E+04  0.22387431913E+04  0.00000000000E+00 0. -1.
         22    1    1    2    0    0 -0.26025573218E+03  0.13531624956E+04  0.20640699270E+04  0.24817668000E+04  0.00000000000E+00 0. -1.
<mgrwt>
<rscale>  0 0.60484412E+04</rscale>
<asrwt>0</asrwt>
<pdfrwt beam="1">  1        2 0.58491116E+00 0.60484412E+04</pdfrwt>
<pdfrwt beam="2">  1       -2 0.37009252E+00 0.60484412E+04</pdfrwt>
<totfact> 0.37923977E-03</totfact>
</mgrwt>
</event>
<event>
 6    1  0.6091287E-004  0.2516704E+04  0.7818608E-02  0.8397059E-01
          2   -1    0    0  501    0  0.00000000000E+00  0.00000000000E+00  0.16263707608E+04  0.16263707608E+04  0.00000000000E+00 0.  1.
         -2   -1    0    0    0  501 -0.00000000000E+00 -0.00000000000E+00 -0.97360921870E+03  0.97360921870E+03  0.00000000000E+00 0. -1.
         23    2    1    2    0    0  0.96236553893E+02 -0.36336890516E+03  0.15656700244E+04  0.16127108507E+04  0.90637890772E+02 0.  0.
         13    1    3    3    0    0  0.92313958405E+02 -0.19870013320E+03  0.98899304224E+03  0.10129712965E+04  0.00000000000E+00 0.  1.
        -13    1    3    3    0    0  0.39225954888E+01 -0.16466877197E+03  0.57667698213E+03  0.59973955425E+03  0.00000000000E+00 0. -1.
         22    1    1    2    0    0 -0.96236553893E+02  0.36336890516E+03 -0.91290848230E+03  0.98726912876E+03  0.00000000000E+00 0. -1.
<mgrwt>
<rscale>  0 0.25167038E+04</rscale>
<asrwt>0</asrwt>
<pdfrwt beam="1">  1        2 0.25021088E+00 0.25167038E+04</pdfrwt>
<pdfrwt beam="2">  1       -2 0.14978603E+00 0.25167038E+04</pdfrwt>
<totfact> 0.28879613E+00</totfact>
</mgrwt>
</event>
<event>
 6    1  0.6091287E-004  0.2571512E+04  0.7818608E-02  0.8377943E-01
         -2   -1    0    0    0  501 -0.00000000000E+00  0.00000000000E+00  0.15422792043E+04  0.15422792043E+04  0.00000000000E+00 0. -1.
          2   -1    0    0  501    0  0.00000000000E+00 -0.00000000000E+00 -0.10718998910E+04  0.10718998910E+04  0.00000000000E+00 0.  1.
         23    2    1    2    0    0  0.29444591143E+03 -0.19844082235E+03 -0.10188752487E+04  0.10831806286E+04  0.95374771183E+02 0.  0.
         11    1    3    3    0    0  0.18145825090E+03 -0.86105597921E+02 -0.45780636441E+03  0.49992793292E+03  0.00000000000E+00 0. -1.
        -11    1    3    3    0    0  0.11298766052E+03 -0.11233522443E+03 -0.56106888427E+03  0.58325269564E+03  0.00000000000E+00 0.  1.
         22    1    1    2    0    0 -0.29444591143E+03  0.19844082235E+03  0.14892545620E+04  0.15309984668E+04  0.00000000000E+00 0. -1.
<mgrwt>
<rscale>  0 0.25715123E+04</rscale>
<asrwt>0</asrwt>
<pdfrwt beam="1">  1        2 0.16490768E+00 0.25715123E+04</pdfrwt>
<pdfrwt beam="2">  1       -2 0.23727372E+00 0.25715123E+04</pdfrwt>
<totfact> 0.15485692E+00</totfact>
</mgrwt>
</event>
<event>
 6    1  0.6091287E-004  0.2476065E+04  0.7818608E-02  0.8411562E-01
          2   -1    0    0  501    0  0.00000000000E+00  0.00000000000E+00  0.82463190242E+03  0.82463190242E+03  0.00000000000E+00 0.  1.
         -2   -1    0    0    0  501 -0.00000000000E+00 -0.00000000000E+00 -0.18586770333E+04  0.18586770333E+04  0.00000000000E+00 0. -1.
         23    2    1    2    0    0 -0.73442109540E+03  0.35974466983E+03  0.48726246334E+03  0.95612412538E+03  0.89207971144E+02 0.  0.
         13    1    3    3    0    0 -0.54148101857E+03  0.29445931160E+03  0.33264456576E+03  0.70040016190E+03  0.00000000000E+00 0.  1.
        -13    1    3    3    0    0 -0.19294007683E+03  0.65285358233E+02  0.15461789759E+03  0.25572396349E+03  0.00000000000E+00 0. -1.
         22    1    1    2    0    0  0.73442109540E+03 -0.35974466983E+03 -0.15213075942E+04  0.17271848103E+04  0.00000000000E+00 0. -1.
<mgrwt>
<rscale>  0 0.24760649E+04</rscale>
<asrwt>0</asrwt>
<pdfrwt beam="1">  1        2 0.12686645E+00 0.24760649E+04</pdfrwt>
<pdfrwt beam="2">  1       -2 0.28595031E+00 0.24760649E+04</pdfrwt>
<totfact> 0.11448966E+00</totfact>
</mgrwt>
</event>
<event>
 6    1  0.6091287E-004  0.2256934E+04  0.7818608E-02  0.8495098E-01
         -2   -1    0    0    0  501 -0.00000000000E+00  0.00000000000E+00  0.10963417864E+04  0.10963417864E+04  0.00000000000E+00 0. -1.
          2   -1    0    0  501    0  0.00000000000E+00 -0.00000000000E+00 -0.11615332834E+04  0.11615332834E+04  0.00000000000E+00 0.  1.
         23    2    1    2    0    0 -0.69798201595E+03  0.79569505396E+03 -0.41879301128E+03  0.11419254543E+04  0.91085911949E+02 0.  0.
         13    1    3    3    0    0 -0.21095500155E+03  0.28582634819E+03 -0.17377870964E+03  0.39547155893E+03  0.00000000000E+00 0. -1.
        -13    1    3    3    0    0 -0.48702701439E+03  0.50986870577E+03 -0.24501430164E+03  0.74645389535E+03  0.00000000000E+00 0.  1.
         22    1    1    2    0    0  0.69798201595E+03 -0.79569505396E+03  0.35360151425E+03  0.11159496155E+04  0.00000000000E+00 0. -1.
<mgrwt>
<rscale>  0 0.22569337E+04</rscale>
<asrwt>0</asrwt>
<pdfrwt beam="1">  1        2 0.17869743E+00 0.22569337E+04</pdfrwt>
<pdfrwt beam="2">  1       -2 0.16866797E+00 0.22569337E+04</pdfrwt>
<totfact> 0.39596637E+00</totfact>
</mgrwt>
</event>
<event>
 6    1  0.6091287E-004  0.5790805E+04  0.7818608E-02  0.7716895E-01
         -2   -1    0    0    0  501 -0.00000000000E+00  0.00000000000E+00  0.27816491784E+04  0.27816491784E+04  0.00000000000E+00 0. -1.
          2   -1    0    0  501    0  0.00000000000E+00 -0.00000000000E+00 -0.30138076155E+04  0.30138076155E+04  0.00000000000E+00 0.  1.
         23    2    1    2    0    0  0.21119346351E+04 -0.33296716960E+02  0.18647800998E+04  0.28191288882E+04  0.93307521064E+02 0.  0.
         13    1    3    3    0    0  0.15998027230E+04  0.12635595614E+02  0.14284432855E+04  0.21447560772E+04  0.00000000000E+00 0.  1.
        -13    1    3    3    0    0  0.51213191212E+03 -0.45932312574E+02  0.43633681434E+03  0.67437281106E+03  0.00000000000E+00 0. -1.
         22    1    1    2    0    0 -0.21119346351E+04  0.33296716960E+02 -0.20969385369E+04  0.29763279056E+04  0.00000000000E+00 0.  1.
<mgrwt>
<rscale>  0 0.57908049E+04</rscale>
<asrwt>0</asrwt>
<pdfrwt beam="1">  1        2 0.46366271E+00 0.57908049E+04</pdfrwt>
<pdfrwt beam="2">  1       -2 0.42794603E+00 0.57908049E+04</pdfrwt>
<totfact> 0.56842781E-03</totfact>
</mgrwt>
</event>
<event>
 6    1  0.6091287E-004  0.1372472E+04  0.7818608E-02  0.8973990E-01
          2   -1    0    0  501    0  0.00000000000E+00  0.00000000000E+00  0.76885199538E+03  0.76885199538E+03  0.00000000000E+00 0.  1.
         -2   -1    0    0    0  501 -0.00000000000E+00 -0.00000000000E+00 -0.61249703726E+03  0.61249703726E+03  0.00000000000E+00 0. -1.
         23    2    1    2    0    0  0.45737580030E+03  0.11576922180E+02 -0.43271113301E+03  0.63547671948E+03  0.85235488736E+02 0.  0.
         11    1    3    3    0    0  0.29114127098E+03 -0.22899340403E+02 -0.31072145599E+03  0.42642167237E+03  0.00000000000E+00 0.  1.
        -11    1    3    3    0    0  0.16623452932E+03  0.34476262583E+02 -0.12198967703E+03  0.20905504711E+03  0.00000000000E+00 0. -1.
         22    1    1    2    0    0 -0.45737580030E+03 -0.11576922180E+02  0.58906609113E+03  0.74587231316E+03  0.00000000000E+00 0.  1.
<mgrwt>
<rscale>  0 0.13724716E+04</rscale>
<asrwt>0</asrwt>
<pdfrwt beam="1">  1        2 0.11828492E+00 0.13724716E+04</pdfrwt>
<pdfrwt beam="2">  1       -2 0.94230314E-01 0.13724716E+04</pdfrwt>
<totfact> 0.33640760E+01</totfact>
</mgrwt>
</event>
<event>
 6    1  0.6091287E-004  0.4069378E+04  0.7818608E-02  0.7990695E-01
         -2   -1    0    0    0  501 -0.00000000000E+00  0.00000000000E+00  0.23015135127E+04  0.23015135127E+04  0.00000000000E+00 0. -1.
          2   -1    0    0  501    0  0.00000000000E+00 -0.00000000000E+00 -0.17987983563E+04  0.17987983563E+04  0.00000000000E+00 0.  1.
         23    2    1    2    0    0 -0.15828799644E+03  0.13993888367E+04 -0.12267433347E+04  0.18699821000E+04  0.92680304370E+02 0.  0.
         13    1    3    3    0    0 -0.12293810831E+03  0.69185272273E+03 -0.62846980957E+03  0.94273446419E+03  0.00000000000E+00 0. -1.
        -13    1    3    3    0    0 -0.35349888131E+02  0.70753611400E+03 -0.59827352510E+03  0.92724763577E+03  0.00000000000E+00 0.  1.
         22    1    1    2    0    0  0.15828799644E+03 -0.13993888367E+04  0.17294584911E+04  0.22303297690E+04  0.00000000000E+00 0. -1.
<mgrwt>
<rscale>  0 0.40693777E+04</rscale>
<asrwt>0</asrwt>
<pdfrwt beam="1">  1        2 0.27673821E+00 0.40693777E+04</pdfrwt>
<pdfrwt beam="2">  1       -2 0.35407900E+00 0.40693777E+04</pdfrwt>
<totfact> 0.99377497E-02</totfact>
</mgrwt>
</event>
<event>
 6    1  0.6091287E-004  0.2279874E+04  0.7818608E-02  0.8485899E-01
          2   -1    0    0  501    0  0.00000000000E+00  0.00000000000E+00  0.15925600263E+04  0.15925600263E+04  0.00000000000E+00 0.  1.
         -2   -1    0    0    0  501 -0.00000000000E+00 -0.00000000000E+00 -0.81595420522E+03  0.81595420522E+03  0.00000000000E+00 0. -1.
         23    2    1    2    0    0 -0.74352066486E+03  0.57937443126E+03  0.10636977050E+04  0.14231617766E+04  0.73749061679E+02 0.  0.
         11    1    3    3    0    0 -0.39025092325E+03  0.35055931563E+03  0.58991314323E+03  0.78942075817E+03  0.00000000000E+00 0.  1.
        -11    1    3    3    0    0 -0.35326974161E+03  0.22881511563E+03  0.47378456179E+03  0.63374101845E+03  0.00000000000E+00 0. -1.
         22    1    1    2    0    0  0.74352066486E+03 -0.57937443126E+03 -0.28709188389E+03  0.98535245495E+03  0.00000000000E+00 0. -1.
<mgrwt>
<rscale>  0 0.22798737E+04</rscale>
<asrwt>0</asrwt>
<pdfrwt beam="1">  1        2 0.24500923E+00 0.22798737E+04</pdfrwt>
<pdfrwt beam="2">  1       -2 0.12553142E+00 0.22798737E+04</pdfrwt>
<totfact> 0.48513189E+00</totfact>
</mgrwt>
</event>
<event>
 6    1  0.6091287E-004  0.2547053E+04  0.7818608E-02  0.8386412E-01
          2   -1    0    0  501    0  0.00000000000E+00  0.00000000000E+00  0.22504286468E+04  0.22504286468E+04  0.00000000000E+00 0.  1.
         -2   -1    0    0    0  501 -0.00000000000E+00 -0.00000000000E+00 -0.72069348422E+03  0.72069348422E+03  0.00000000000E+00 0. -1.
         23    2    1    2    0    0  0.62126174736E+03 -0.43230413321E+03 -0.42614658991E+03  0.87390338896E+03  0.96193527974E+02 0.  0.
         13    1    3    3    0    0  0.24149328445E+03 -0.14207697334E+03 -0.11091652214E+03  0.30134257527E+03  0.00000000000E+00 0.  1.
        -13    1    3    3    0    0  0.37976846291E+03 -0.29022715988E+03 -0.31523006777E+03  0.57256081369E+03  0.00000000000E+00 0. -1.
         22    1    1    2    0    0 -0.62126174736E+03  0.43230413321E+03  0.19558817525E+04  0.20972187420E+04  0.00000000000E+00 0.  1.
<mgrwt>
<rscale>  0 0.25470526E+04</rscale>
<asrwt>0</asrwt>
<pdfrwt beam="1">  1        2 0.34621979E+00 0.25470526E+04</pdfrwt>
<pdfrwt beam="2">  1       -2 0.11087592E+00 0.25470526E+04</pdfrwt>
<totfact> 0.27689301E+00</totfact>
</mgrwt>
</event>
<event>
 6    1  0.6091287E-004  0.9865251E+03  0.7818608E-02  0.9323449E-01
         -2   -1    0    0    0  501 -0.00000000000E+00  0.00000000000E+00  0.25206085642E+03  0.25206085642E+03  0.00000000000E+00 0. -1.
          2   -1    0    0  501    0  0.00000000000E+00 -0.00000000000E+00 -0.96527454872E+03  0.96527454872E+03  0.00000000000E+00 0.  1.
         23    2    1    2    0    0  0.22005459556E+03 -0.26130813510E+03  0.72004717813E+02  0.36102125830E+03  0.91900506341E+02 0.  0.
         11    1    3    3    0    0  0.10746573399E+03 -0.93850866803E+02 -0.10400572768E+02  0.14305607675E+03  0.00000000000E+00 0. -1.
        -11    1    3    3    0    0  0.11258886158E+03 -0.16745726829E+03  0.82405290581E+02  0.21796518156E+03  0.00000000000E+00 0.  1.
         22    1    1    2    0    0 -0.22005459556E+03  0.26130813510E+03 -0.78521841011E+03  0.85631414684E+03  0.00000000000E+00 0.  1.
<mgrwt>
<rscale>  0 0.98652507E+03</rscale>
<asrwt>0</asrwt>
<pdfrwt beam="1">  1        2 0.14850378E+00 0.98652507E+03</pdfrwt>
<pdfrwt beam="2">  1       -2 0.38778593E-01 0.98652507E+03</pdfrwt>
<totfact> 0.16639448E+02</totfact>
</mgrwt>
</event>
<event>
 6    1  0.6091287E-004  0.7280992E+03  0.7818608E-02  0.9670350E-01
         -2   -1    0    0    0  501 -0.00000000000E+00  0.00000000000E+00  0.97934382644E+02  0.97934382644E+02  0.00000000000E+00 0. -1.
          2   -1    0    0  501    0  0.00000000000E+00 -0.00000000000E+00 -0.13532745518E+04  0.13532745518E+04  0.00000000000E+00 0.  1.
         23    2    1    2    0    0 -0.30026741182E+03  0.78609390045E+02 -0.99458059634E+03  0.10458257705E+04  0.90669867179E+02 0.  0.
         13    1    3    3    0    0 -0.13306359496E+03  0.79171798040E+02 -0.52548358458E+03  0.54782030957E+03  0.00000000000E+00 0.  1.
        -13    1    3    3    0    0 -0.16720381686E+03 -0.56240799565E+00 -0.46909701176E+03  0.49800546093E+03  0.00000000000E+00 0. -1.
         22    1    1    2    0    0  0.30026741182E+03 -0.78609390045E+02 -0.26075957285E+03  0.40538316398E+03  0.00000000000E+00 0. -1.
<mgrwt>
<rscale>  0 0.72809919E+03</rscale>
<asrwt>0</asrwt>
<pdfrwt beam="1">  1        2 0.20819609E+00 0.72809919E+03</pdfrwt>
<pdfrwt beam="2">  1       -2 0.15066828E-01 0.72809919E+03</pdfrwt>
<totfact> 0.54113090E+02</totfact>
</mgrwt>
</event>
<event>
 6    1  0.6091287E-004  0.3314038E+04  0.7818608E-02  0.8159333E-01
         -2   -1    0    0    0  501 -0.00000000000E+00  0.00000000000E+00  0.68021328739E+03  0.68021328739E+03  0.00000000000E+00 0. -1.
          2   -1    0    0  501    0  0.00000000000E+00 -0.00000000000E+00 -0.40365453183E+04  0.40365453183E+04  0.00000000000E+00 0.  1.
         23    2    1    2    0    0 -0.60114142030E+03  0.77115023572E+03  0.22227963943E+03  0.10069735472E+04  0.92432642332E+02 0.  0.
         13    1    3    3    0    0 -0.40096840729E+03  0.56415967427E+03  0.12715007777E+03  0.70371794349E+03  0.00000000000E+00 0. -1.
        -13    1    3    3    0    0 -0.20017301301E+03  0.20699056144E+03  0.95129561662E+02  0.30325560369E+03  0.00000000000E+00 0.  1.
         22    1    1    2    0    0  0.60114142030E+03 -0.77115023572E+03 -0.35786116703E+04  0.37097850585E+04  0.00000000000E+00 0.  1.
<mgrwt>
<rscale>  0 0.33140379E+04</rscale>
<asrwt>0</asrwt>
<pdfrwt beam="1">  1        2 0.62100696E+00 0.33140379E+04</pdfrwt>
<pdfrwt beam="2">  1       -2 0.10464820E+00 0.33140379E+04</pdfrwt>
<totfact> 0.19704678E-01</totfact>
</mgrwt>
</event>
<event>
 6    1  0.6091287E-004  0.2253614E+04  0.7818608E-02  0.8496438E-01
         -2   -1    0    0    0  501 -0.00000000000E+00  0.00000000000E+00  0.94737663760E+03  0.94737663760E+03  0.00000000000E+00 0. -1.
          2   -1    0    0  501    0  0.00000000000E+00 -0.00000000000E+00 -0.13402212916E+04  0.13402212916E+04  0.00000000000E+00 0.  1.
         23    2    1    2    0    0 -0.57838169304E+03  0.70717479583E+03 -0.86299150056E+03  0.12601449463E+04  0.92678912768E+02 0.  0.
         13    1    3    3    0    0 -0.32879178742E+03  0.38132881117E+03 -0.53567593703E+03  0.73516284673E+03  0.00000000000E+00 0. -1.
        -13    1    3    3    0    0 -0.24958990562E+03  0.32584598466E+03 -0.32731556353E+03  0.52498209953E+03  0.00000000000E+00 0.  1.
         22    1    1    2    0    0  0.57838169304E+03 -0.70717479583E+03  0.47014684659E+03  0.10274529829E+04  0.00000000000E+00 0. -1.
<mgrwt>
<rscale>  0 0.22536143E+04</rscale>
<asrwt>0</asrwt>
<pdfrwt beam="1">  1        2 0.20618789E+00 0.22536143E+04</pdfrwt>
<pdfrwt beam="2">  1       -2 0.14575025E+00 0.22536143E+04</pdfrwt>
<totfact> 0.46089858E+00</totfact>
</mgrwt>
</event>
<event>
 6    1  0.6091287E-004  0.3546633E+04  0.7818608E-02  0.8102827E-01
          2   -1    0    0  501    0  0.00000000000E+00  0.00000000000E+00  0.27292973677E+04  0.27292973677E+04  0.00000000000E+00 0.  1.
         -2   -1    0    0    0  501 -0.00000000000E+00 -0.00000000000E+00 -0.11521834335E+04  0.11521834335E+04  0.00000000000E+00 0. -1.
         23    2    1    2    0    0  0.11779254306E+03  0.17411138528E+04  0.11271555630E+04  0.20793112567E+04  0.87767349213E+02 0.  0.
         11    1    3    3    0    0  0.44846087223E+02  0.54043034258E+03  0.30342667634E+03  0.62140475910E+03  0.00000000000E+00 0. -1.
        -11    1    3    3    0    0  0.72946455842E+02  0.12006835102E+04  0.82372888664E+03  0.14579064976E+04  0.00000000000E+00 0.  1.
         22    1    1    2    0    0 -0.11779254306E+03 -0.17411138528E+04  0.44995837119E+03  0.18021695445E+04  0.00000000000E+00 0.  1.
<mgrwt>
<rscale>  0 0.35466329E+04</rscale>
<asrwt>0</asrwt>
<pdfrwt beam="1">  1        2 0.41989190E+00 0.35466329E+04</pdfrwt>
<pdfrwt beam="2">  1       -2 0.17725899E+00 0.35466329E+04</pdfrwt>
<totfact> 0.39543068E-01</totfact>
</mgrwt>
</event>
<event>
 6    1  0.6091287E-004  0.1252106E+04  0.7818608E-02  0.9068432E-01
         -2   -1    0    0    0  501 -0.00000000000E+00  0.00000000000E+00  0.38989050931E+03  0.38989050931E+03  0.00000000000E+00 0. -1.
          2   -1    0    0  501    0  0.00000000000E+00 -0.00000000000E+00 -0.10052630426E+04  0.10052630426E+04  0.00000000000E+00 0.  1.
         23    2    1    2    0    0  0.36146595392E+03  0.22062945148E+02 -0.87390749705E+03  0.95019879371E+03  0.89549007623E+02 0.  0.
         11    1    3    3    0    0  0.12457450090E+02  0.15093567084E+01 -0.10248180046E+03  0.10324720648E+03  0.00000000000E+00 0.  1.
        -11    1    3    3    0    0  0.34900850383E+03  0.20553588440E+02 -0.77142569659E+03  0.84695158723E+03  0.00000000000E+00 0. -1.
         22    1    1    2    0    0 -0.36146595392E+03 -0.22062945148E+02  0.25853496373E+03  0.44495475822E+03  0.00000000000E+00 0. -1.
<mgrwt>
<rscale>  0 0.12521063E+04</rscale>
<asrwt>0</asrwt>
<pdfrwt beam="1">  1        2 0.15465585E+00 0.12521063E+04</pdfrwt>
<pdfrwt beam="2">  1       -2 0.59983156E-01 0.12521063E+04</pdfrwt>
<totfact> 0.63698603E+01</totfact>
</mgrwt>
</event>
<event>
 6    1  0.6091287E-004  0.3401785E+03  0.7818608E-02  0.1066720E+00
          4   -1    0    0  501    0  0.00000000000E+00  0.00000000000E+00  0.28912589018E+03  0.28912589018E+03  0.00000000000E+00 0.  1.
         -4   -1    0    0    0  501 -0.00000000000E+00 -0.00000000000E+00 -0.10006146000E+03  0.10006146000E+03  0.00000000000E+00 0. -1.
         23    2    1    2    0    0 -0.22885820436E+02 -0.15173619497E+03  0.14398051453E+03  0.22924925875E+03  0.90979120862E+02 0.  0.
         13    1    3    3    0    0  0.95216970643E+01 -0.84170084748E+02  0.12659863733E+03  0.15232360571E+03  0.00000000000E+00 0. -1.
        -13    1    3    3    0    0 -0.32407517501E+02 -0.67566110224E+02  0.17381877196E+02  0.76925653044E+02  0.00000000000E+00 0.  1.
         22    1    1    2    0    0  0.22885820436E+02  0.15173619497E+03  0.45083915649E+02  0.15993809143E+03  0.00000000000E+00 0.  1.
<mgrwt>
<rscale>  0 0.34017853E+03</rscale>
<asrwt>0</asrwt>
<pdfrwt beam="1">  1        4 0.44480906E-01 0.34017853E+03</pdfrwt>
<pdfrwt beam="2">  1       -4 0.15394071E-01 0.34017853E+03</pdfrwt>
<totfact> 0.33992553E+02</totfact>
</mgrwt>
</event>
<event>
 6    1  0.6091287E-004  0.2178919E+04  0.7818608E-02  0.8527254E-01
         -2   -1    0    0    0  501 -0.00000000000E+00  0.00000000000E+00  0.44640866087E+03  0.44640866087E+03  0.00000000000E+00 0. -1.
          2   -1    0    0  501    0  0.00000000000E+00 -0.00000000000E+00 -0.26588230425E+04  0.26588230425E+04  0.00000000000E+00 0.  1.
         23    2    1    2    0    0 -0.67298492022E+03  0.69644407701E+03 -0.40326567182E+03  0.10531688122E+04  0.92726962744E+02 0.  0.
         13    1    3    3    0    0 -0.32354935232E+03  0.39820386328E+03 -0.19731003266E+03  0.54971060487E+03  0.00000000000E+00 0. -1.
        -13    1    3    3    0    0 -0.34943556790E+03  0.29824021373E+03 -0.20595563916E+03  0.50345820730E+03  0.00000000000E+00 0.  1.
         22    1    1    2    0    0  0.67298492022E+03 -0.69644407701E+03 -0.18091487098E+04  0.20520628912E+04  0.00000000000E+00 0.  1.
<mgrwt>
<rscale>  0 0.21789187E+04</rscale>
<asrwt>0</asrwt>
<pdfrwt beam="1">  1        2 0.40904970E+00 0.21789187E+04</pdfrwt>
<pdfrwt beam="2">  1       -2 0.68678256E-01 0.21789187E+04</pdfrwt>
<totfact> 0.49870438E+00</totfact>
</mgrwt>
</event>
<event>
 6    1  0.6091287E-004  0.9364333E+03  0.7818608E-02  0.9381150E-01
          2   -1    0    0  501    0  0.00000000000E+00  0.00000000000E+00  0.56432935823E+03  0.56432935823E+03  0.00000000000E+00 0.  1.
         -2   -1    0    0    0  501 -0.00000000000E+00 -0.00000000000E+00 -0.38847320643E+03  0.38847320643E+03  0.00000000000E+00 0. -1.
         23    2    1    2    0    0 -0.25253528885E+02  0.44854949333E+03  0.20567882943E+03  0.50255398800E+03  0.91773314691E+02 0.  0.
         11    1    3    3    0    0 -0.36926336132E+02  0.21686227087E+03  0.14256592167E+03  0.26214087977E+03  0.00000000000E+00 0.  1.
        -11    1    3    3    0    0  0.11672807246E+02  0.23168722246E+03  0.63112907764E+02  0.24041310823E+03  0.00000000000E+00 0. -1.
         22    1    1    2    0    0  0.25253528885E+02 -0.44854949333E+03 -0.29822677627E+02  0.45024857666E+03  0.00000000000E+00 0. -1.
<mgrwt>
<rscale>  0 0.93643331E+03</rscale>
<asrwt>0</asrwt>
<pdfrwt beam="1">  1        2 0.86819901E-01 0.93643331E+03</pdfrwt>
<pdfrwt beam="2">  1       -2 0.59765109E-01 0.93643331E+03</pdfrwt>
<totfact> 0.13973836E+02</totfact>
</mgrwt>
</event>
<event>
 6    1  0.6091287E-004  0.2694119E+04  0.7818608E-02  0.8336916E-01
         -2   -1    0    0    0  501 -0.00000000000E+00  0.00000000000E+00  0.18334566710E+04  0.18334566710E+04  0.00000000000E+00 0. -1.
          2   -1    0    0  501    0  0.00000000000E+00 -0.00000000000E+00 -0.98969873200E+03  0.98969873200E+03  0.00000000000E+00 0.  1.
         23    2    1    2    0    0 -0.64743815820E+02 -0.99621194320E+03  0.13673992451E+04  0.16958443479E+04  0.97351730352E+02 0.  0.
         13    1    3    3    0    0 -0.30094410246E+02 -0.69166545631E+03  0.87386628736E+03  0.11148762555E+04  0.00000000000E+00 0.  1.
        -13    1    3    3    0    0 -0.34649405574E+02 -0.30454648688E+03  0.49353295778E+03  0.58096809241E+03  0.00000000000E+00 0. -1.
         22    1    1    2    0    0  0.64743815820E+02  0.99621194320E+03 -0.52364130610E+03  0.11273110551E+04  0.00000000000E+00 0.  1.
<mgrwt>
<rscale>  0 0.26941193E+04</rscale>
<asrwt>0</asrwt>
<pdfrwt beam="1">  1        2 0.15226134E+00 0.26941193E+04</pdfrwt>
<pdfrwt beam="2">  1       -2 0.28207026E+00 0.26941193E+04</pdfrwt>
<totfact> 0.91828451E-01</totfact>
</mgrwt>
</event>
<event>
 6    1  0.6091287E-004  0.2100554E+04  0.7818608E-02  0.8560999E-01
         -2   -1    0    0    0  501 -0.00000000000E+00  0.00000000000E+00  0.87813449541E+03  0.87813449541E+03  0.00000000000E+00 0. -1.
          2   -1    0    0  501    0  0.00000000000E+00 -0.00000000000E+00 -0.12561650259E+04  0.12561650259E+04  0.00000000000E+00 0.  1.
         23    2    1    2    0    0  0.97318649956E+02 -0.69619752821E+03 -0.97948063851E+03  0.12091486415E+04  0.92174824138E+02 0.  0.
         11    1    3    3    0    0  0.71073031991E+02 -0.34058534102E+03 -0.41592711016E+03  0.54225926582E+03  0.00000000000E+00 0.  1.
        -11    1    3    3    0    0  0.26245617965E+02 -0.35561218719E+03 -0.56355352835E+03  0.66688937572E+03  0.00000000000E+00 0. -1.
         22    1    1    2    0    0 -0.97318649956E+02  0.69619752821E+03  0.60145010801E+03  0.92515087977E+03  0.00000000000E+00 0. -1.
<mgrwt>
<rscale>  0 0.21005541E+04</rscale>
<asrwt>0</asrwt>
<pdfrwt beam="1">  1        2 0.19325616E+00 0.21005541E+04</pdfrwt>
<pdfrwt beam="2">  1       -2 0.13509762E+00 0.21005541E+04</pdfrwt>
<totfact> 0.63658329E+00</totfact>
</mgrwt>
</event>
<event>
 6    1  0.6091287E-004  0.1984872E+04  0.7818608E-02  0.8613726E-01
         -2   -1    0    0    0  501 -0.00000000000E+00  0.00000000000E+00  0.16056569790E+04  0.16056569790E+04  0.00000000000E+00 0. -1.
          2   -1    0    0  501    0  0.00000000000E+00 -0.00000000000E+00 -0.61341175086E+03  0.61341175086E+03  0.00000000000E+00 0.  1.
         23    2    1    2    0    0  0.44716953910E+03 -0.75788055475E+03  0.10047425997E+04  0.13390120747E+04  0.95404992682E+02 0.  0.
         11    1    3    3    0    0  0.21916713699E+03 -0.46132802614E+03  0.59747935385E+03  0.78602758216E+03  0.00000000000E+00 0. -1.
        -11    1    3    3    0    0  0.22800240211E+03 -0.29655252861E+03  0.40726324588E+03  0.55298449258E+03  0.00000000000E+00 0.  1.
         22    1    1    2    0    0 -0.44716953910E+03  0.75788055475E+03 -0.12497371549E+02  0.88005665515E+03  0.00000000000E+00 0.  1.
<mgrwt>
<rscale>  0 0.19848716E+04</rscale>
<asrwt>0</asrwt>
<pdfrwt beam="1">  1        2 0.94371039E-01 0.19848716E+04</pdfrwt>
<pdfrwt beam="2">  1       -2 0.24702415E+00 0.19848716E+04</pdfrwt>
<totfact> 0.30098118E+00</totfact>
</mgrwt>
</event>
<event>
 6    1  0.6091287E-004  0.2360056E+04  0.7818608E-02  0.8454611E-01
         -2   -1    0    0    0  501 -0.00000000000E+00  0.00000000000E+00  0.12039108953E+04  0.12039108953E+04  0.00000000000E+00 0. -1.
          2   -1    0    0  501    0  0.00000000000E+00 -0.00000000000E+00 -0.11566188883E+04  0.11566188883E+04  0.00000000000E+00 0.  1.
         23    2    1    2    0    0  0.47160113605E+03 -0.39187945048E+03 -0.98268201233E+03  0.11618540077E+04  0.90904689204E+02 0.  0.
         13    1    3    3    0    0  0.40164499373E+03 -0.32984309866E+03 -0.88716263699E+03  0.10281890464E+04  0.00000000000E+00 0. -1.
        -13    1    3    3    0    0  0.69956142321E+02 -0.62036351815E+02 -0.95519375343E+02  0.13366496123E+03  0.00000000000E+00 0.  1.
         22    1    1    2    0    0 -0.47160113605E+03  0.39187945048E+03  0.10299740194E+04  0.11986757759E+04  0.00000000000E+00 0. -1.
<mgrwt>
<rscale>  0 0.23600560E+04</rscale>
<asrwt>0</asrwt>
<pdfrwt beam="1">  1        2 0.17794137E+00 0.23600560E+04</pdfrwt>
<pdfrwt beam="2">  1       -2 0.18521706E+00 0.23600560E+04</pdfrwt>
<totfact> 0.30302137E+00</totfact>
</mgrwt>
</event>
<event>
 6    1  0.6091287E-004  0.1275975E+04  0.7818608E-02  0.9048837E-01
          2   -1    0    0  501    0  0.00000000000E+00  0.00000000000E+00  0.13969526630E+04  0.13969526630E+04  0.00000000000E+00 0.  1.
         -2   -1    0    0    0  501 -0.00000000000E+00 -0.00000000000E+00 -0.29136847659E+03  0.29136847659E+03  0.00000000000E+00 0. -1.
         23    2    1    2    0    0 -0.12350901298E+03 -0.56464092273E+03  0.20826029898E+03  0.62095803041E+03  0.90236774629E+02 0.  0.
         11    1    3    3    0    0 -0.37535098688E+02 -0.29382688103E+03  0.67224722482E+02  0.30374707071E+03  0.00000000000E+00 0. -1.
        -11    1    3    3    0    0 -0.85973914291E+02 -0.27081404170E+03  0.14103557650E+03  0.31721095970E+03  0.00000000000E+00 0.  1.
         22    1    1    2    0    0  0.12350901298E+03  0.56464092273E+03  0.89732388746E+03  0.10673631092E+04  0.00000000000E+00 0.  1.
<mgrwt>
<rscale>  0 0.12759749E+04</rscale>
<asrwt>0</asrwt>
<pdfrwt beam="1">  1        2 0.21491579E+00 0.12759749E+04</pdfrwt>
<pdfrwt beam="2">  1       -2 0.44825920E-01 0.12759749E+04</pdfrwt>
<totfact> 0.67294796E+01</totfact>
</mgrwt>
</event>
<event>
 6    1  0.6091287E-004  0.7269057E+03  0.7818608E-02  0.9672295E-01
         -2   -1    0    0    0  501 -0.00000000000E+00  0.00000000000E+00  0.22964945841E+03  0.22964945841E+03  0.00000000000E+00 0. -1.
          2   -1    0    0  501    0  0.00000000000E+00 -0.00000000000E+00 -0.57521565114E+03  0.57521565114E+03  0.00000000000E+00 0.  1.
         23    2    1    2    0    0  0.16059982654E+03 -0.39669831142E+02  0.17563220029E+03  0.25804359874E+03  0.91508629568E+02 0.  0.
         11    1    3    3    0    0  0.13615013226E+03  0.25403695663E+01  0.10384584389E+03  0.17125206943E+03  0.00000000000E+00 0. -1.
        -11    1    3    3    0    0  0.24449694278E+02 -0.42210200709E+02  0.71786356407E+02  0.86791529312E+02  0.00000000000E+00 0.  1.
         22    1    1    2    0    0 -0.16059982654E+03  0.39669831142E+02 -0.52119839303E+03  0.54682151081E+03  0.00000000000E+00 0.  1.
<mgrwt>
<rscale>  0 0.72690567E+03</rscale>
<asrwt>0</asrwt>
<pdfrwt beam="1">  1        2 0.88494716E-01 0.72690567E+03</pdfrwt>
<pdfrwt beam="2">  1       -2 0.35330686E-01 0.72690567E+03</pdfrwt>
<totfact> 0.39530065E+02</totfact>
</mgrwt>
</event>
<event>
 6    1  0.6091287E-004  0.4964998E+04  0.7818608E-02  0.7833929E-01
         -2   -1    0    0    0  501 -0.00000000000E+00  0.00000000000E+00  0.23778243681E+04  0.23778243681E+04  0.00000000000E+00 0. -1.
          2   -1    0    0  501    0  0.00000000000E+00 -0.00000000000E+00 -0.25917810530E+04  0.25917810530E+04  0.00000000000E+00 0.  1.
         23    2    1    2    0    0  0.14016452761E+04 -0.19754536242E+04 -0.64777096858E+03  0.25088694876E+04  0.88274438804E+02 0.  0.
         11    1    3    3    0    0  0.84924804906E+03 -0.12378744341E+04 -0.43826908264E+03  0.15638526632E+04  0.00000000000E+00 0.  1.
        -11    1    3    3    0    0  0.55239722708E+03 -0.73757919015E+03 -0.20950188594E+03  0.94501682442E+03  0.00000000000E+00 0. -1.
         22    1    1    2    0    0 -0.14016452761E+04  0.19754536242E+04  0.43381428364E+03  0.24607359335E+04  0.00000000000E+00 0.  1.
<mgrwt>
<rscale>  0 0.49649975E+04</rscale>
<asrwt>0</asrwt>
<pdfrwt beam="1">  1        2 0.39873554E+00 0.49649975E+04</pdfrwt>
<pdfrwt beam="2">  1       -2 0.36581914E+00 0.49649975E+04</pdfrwt>
<totfact> 0.27742656E-02</totfact>
</mgrwt>
</event>
<event>
 6    1  0.6091287E-004  0.3505728E+04  0.7818608E-02  0.8112434E-01
          2   -1    0    0  501    0  0.00000000000E+00  0.00000000000E+00  0.22808338951E+04  0.22808338951E+04  0.00000000000E+00 0.  1.
         -2   -1    0    0    0  501 -0.00000000000E+00 -0.00000000000E+00 -0.13471088716E+04  0.13471088716E+04  0.00000000000E+00 0. -1.
         23    2    1    2    0    0 -0.14417682272E+04 -0.54687765126E+03 -0.39289649610E+03  0.15938101647E+04  0.89957756372E+02 0.  0.
         13    1    3    3    0    0 -0.80605836957E+03 -0.35151207931E+03 -0.23646386644E+03  0.91060748799E+03  0.00000000000E+00 0. -1.
        -13    1    3    3    0    0 -0.63570985765E+03 -0.19536557195E+03 -0.15643262966E+03  0.68320267669E+03  0.00000000000E+00 0.  1.
         22    1    1    2    0    0  0.14417682272E+04  0.54687765126E+03  0.13266215195E+04  0.20341326020E+04  0.00000000000E+00 0.  1.
<mgrwt>
<rscale>  0 0.35057276E+04</rscale>
<asrwt>0</asrwt>
<pdfrwt beam="1">  1        2 0.35089752E+00 0.35057276E+04</pdfrwt>
<pdfrwt beam="2">  1       -2 0.20724752E+00 0.35057276E+04</pdfrwt>
<totfact> 0.45544434E-01</totfact>
</mgrwt>
</event>
<event>
 6    1  0.6091287E-004  0.2695820E+04  0.7818608E-02  0.8336363E-01
          2   -1    0    0  501    0  0.00000000000E+00  0.00000000000E+00  0.23661146574E+04  0.23661146574E+04  0.00000000000E+00 0.  1.
         -2   -1    0    0    0  501 -0.00000000000E+00 -0.00000000000E+00 -0.76786673337E+03  0.76786673337E+03  0.00000000000E+00 0. -1.
         23    2    1    2    0    0 -0.34833108831E+01 -0.72468744057E+03 -0.51951884112E+03  0.89565163589E+03  0.84308994816E+02 0.  0.
         13    1    3    3    0    0  0.39866386076E+02 -0.30056302089E+03 -0.21055024969E+03  0.36913258582E+03  0.00000000000E+00 0. -1.
        -13    1    3    3    0    0 -0.43349696959E+02 -0.42412441968E+03 -0.30896859143E+03  0.52651905007E+03  0.00000000000E+00 0.  1.
         22    1    1    2    0    0  0.34833108831E+01  0.72468744057E+03  0.21177667652E+04  0.22383297549E+04  0.00000000000E+00 0.  1.
<mgrwt>
<rscale>  0 0.26958195E+04</rscale>
<asrwt>0</asrwt>
<pdfrwt beam="1">  1        2 0.36401764E+00 0.26958195E+04</pdfrwt>
<pdfrwt beam="2">  1       -2 0.11813334E+00 0.26958195E+04</pdfrwt>
<totfact> 0.20137022E+00</totfact>
</mgrwt>
</event>
<event>
 6    1  0.6091287E-004  0.1235198E+04  0.7818608E-02  0.9082593E-01
         -2   -1    0    0    0  501 -0.00000000000E+00  0.00000000000E+00  0.81500718292E+03  0.81500718292E+03  0.00000000000E+00 0. -1.
          2   -1    0    0  501    0  0.00000000000E+00 -0.00000000000E+00 -0.46800662713E+03  0.46800662713E+03  0.00000000000E+00 0.  1.
         23    2    1    2    0    0 -0.35047641771E+03  0.74161002557E+02  0.69266476462E+03  0.78520127613E+03  0.91776871973E+02 0.  0.
         13    1    3    3    0    0 -0.63055364205E+02  0.14951031038E+02  0.21538037903E+03  0.22491825171E+03  0.00000000000E+00 0. -1.
        -13    1    3    3    0    0 -0.28742105350E+03  0.59209971519E+02  0.47728438559E+03  0.56028302442E+03  0.00000000000E+00 0.  1.
         22    1    1    2    0    0  0.35047641771E+03 -0.74161002557E+02 -0.34566420882E+03  0.49781253392E+03  0.00000000000E+00 0.  1.
<mgrwt>
<rscale>  0 0.12351984E+04</rscale>
<asrwt>0</asrwt>
<pdfrwt beam="1">  1        2 0.72001019E-01 0.12351984E+04</pdfrwt>
<pdfrwt beam="2">  1       -2 0.12538572E+00 0.12351984E+04</pdfrwt>
<totfact> 0.31125750E+01</totfact>
</mgrwt>
</event>
<event>
 6    1  0.6091287E-004  0.3921183E+04  0.7818608E-02  0.8020638E-01
          1   -1    0    0  501    0  0.00000000000E+00  0.00000000000E+00  0.24784805709E+04  0.24784805709E+04  0.00000000000E+00 0.  1.
         -1   -1    0    0    0  501 -0.00000000000E+00 -0.00000000000E+00 -0.15509178871E+04  0.15509178871E+04  0.00000000000E+00 0. -1.
         23    2    1    2    0    0 -0.18196463487E+04 -0.32142122595E+03 -0.20617105374E+03  0.18615016370E+04  0.90870251023E+02 0.  0.
         13    1    3    3    0    0 -0.36721702019E+03 -0.70975979710E+02 -0.56157298613E+01  0.37405543176E+03  0.00000000000E+00 0. -1.
        -13    1    3    3    0    0 -0.14524293285E+04 -0.25044524624E+03 -0.20055532388E+03  0.14874462053E+04  0.00000000000E+00 0.  1.
         22    1    1    2    0    0  0.18196463487E+04  0.32142122595E+03  0.11337337375E+04  0.21678968209E+04  0.00000000000E+00 0.  1.
<mgrwt>
<rscale>  0 0.39211834E+04</rscale>
<asrwt>0</asrwt>
<pdfrwt beam="1">  1        1 0.38130470E+00 0.39211834E+04</pdfrwt>
<pdfrwt beam="2">  1       -1 0.23860275E+00 0.39211834E+04</pdfrwt>
<totfact> 0.91458483E-02</totfact>
</mgrwt>
</event>
<event>
 6    1  0.6091287E-004  0.2514143E+04  0.7818608E-02  0.8397964E-01
         -2   -1    0    0    0  501 -0.00000000000E+00  0.00000000000E+00  0.15830034855E+04  0.15830034855E+04  0.00000000000E+00 0. -1.
          2   -1    0    0  501    0  0.00000000000E+00 -0.00000000000E+00 -0.99824678409E+03  0.99824678409E+03  0.00000000000E+00 0.  1.
         23    2    1    2    0    0 -0.76605327270E+03  0.99362889548E+03  0.33761135926E+03  0.13024943043E+04  0.91509476289E+02 0.  0.
         13    1    3    3    0    0 -0.18381536858E+03  0.28091554803E+03  0.58281225421E+02  0.34073205908E+03  0.00000000000E+00 0.  1.
        -13    1    3    3    0    0 -0.58223790412E+03  0.71271334746E+03  0.27933013384E+03  0.96176224521E+03  0.00000000000E+00 0. -1.
         22    1    1    2    0    0  0.76605327270E+03 -0.99362889548E+03  0.24714534211E+03  0.12787559653E+04  0.00000000000E+00 0.  1.
<mgrwt>
<rscale>  0 0.25141425E+04</rscale>
<asrwt>0</asrwt>
<pdfrwt beam="1">  1        2 0.15357643E+00 0.25141425E+04</pdfrwt>
<pdfrwt beam="2">  1       -2 0.24353900E+00 0.25141425E+04</pdfrwt>
<totfact> 0.15843767E+00</totfact>
</mgrwt>
</event>
<event>
 6    1  0.6426556E-004  0.3197419E+04  0.7818608E-02  0.8189499E-01
         -2   -1    0    0    0  501 -0.00000000000E+00  0.00000000000E+00  0.20342203549E+04  0.20342203549E+04  0.00000000000E+00 0. -1.
          2   -1    0    0  501    0  0.00000000000E+00 -0.00000000000E+00 -0.12564384873E+04  0.12564384873E+04  0.00000000000E+00 0.  1.
         23    2    1    2    0    0  0.61599293437E+03  0.24640948772E+01  0.19060961339E+04  0.20051447620E+04  0.89160966179E+02 0.  0.
         13    1    3    3    0    0  0.43619282998E+03 -0.22442311980E+01  0.14717812215E+04  0.15350599941E+04  0.00000000000E+00 0. -1.
        -13    1    3    3    0    0  0.17980010438E+03  0.47083260753E+01  0.43431491240E+03  0.47008476789E+03  0.00000000000E+00 0.  1.
         22    1    1    2    0    0 -0.61599293437E+03 -0.24640948772E+01 -0.11283142663E+04  0.12855140803E+04  0.00000000000E+00 0.  1.
<mgrwt>
<rscale>  0 0.31974194E+04</rscale>
<asrwt>0</asrwt>
<pdfrwt beam="1">  1        2 0.19329823E+00 0.31974194E+04</pdfrwt>
<pdfrwt beam="2">  1       -2 0.31295698E+00 0.31974194E+04</pdfrwt>
<totfact> 0.39072693E-01</totfact>
</mgrwt>
</event>
<event>
 6    1  0.6091287E-004  0.9004201E+03  0.7818608E-02  0.9425056E-01
          2   -1    0    0  501    0  0.00000000000E+00  0.00000000000E+00  0.16136678276E+04  0.16136678276E+04  0.00000000000E+00 0.  1.
         -2   -1    0    0    0  501 -0.00000000000E+00 -0.00000000000E+00 -0.12560768582E+03  0.12560768582E+03  0.00000000000E+00 0. -1.
         23    2    1    2    0    0 -0.24109107815E+03  0.22135054463E+03  0.13357059944E+04  0.13782592287E+04  0.91471452764E+02 0.  0.
         13    1    3    3    0    0 -0.16712984107E+03  0.12900958615E+03  0.10074018898E+04  0.10292883098E+04  0.00000000000E+00 0.  1.
        -13    1    3    3    0    0 -0.73961237084E+02  0.92340958477E+02  0.32830410453E+03  0.34897091893E+03  0.00000000000E+00 0. -1.
         22    1    1    2    0    0  0.24109107815E+03 -0.22135054463E+03  0.15235414743E+03  0.36101628469E+03  0.00000000000E+00 0. -1.
<mgrwt>
<rscale>  0 0.90042008E+03</rscale>
<asrwt>0</asrwt>
<pdfrwt beam="1">  1        2 0.24825657E+00 0.90042008E+03</pdfrwt>
<pdfrwt beam="2">  1       -2 0.19324261E-01 0.90042008E+03</pdfrwt>
<totfact> 0.24969563E+02</totfact>
</mgrwt>
</event>
<event>
 6    1  0.6091287E-004  0.3635045E+04  0.7818608E-02  0.8082511E-01
         -2   -1    0    0    0  501 -0.00000000000E+00  0.00000000000E+00  0.87607634967E+03  0.87607634967E+03  0.00000000000E+00 0.  1.
          2   -1    0    0  501    0  0.00000000000E+00 -0.00000000000E+00 -0.37706627735E+04  0.37706627735E+04  0.00000000000E+00 0. -1.
         23    2    1    2    0    0 -0.83410500801E+02 -0.17853146280E+04 -0.18618899110E+04  0.25825764067E+04  0.93601405287E+02 0.  0.
         11    1    3    3    0    0 -0.92454666009E+02 -0.15855623165E+04 -0.16858291536E+04  0.23161553618E+04  0.00000000000E+00 0.  1.
        -11    1    3    3    0    0  0.90441652078E+01 -0.19975231145E+03 -0.17606075745E+03  0.26642104490E+03  0.00000000000E+00 0. -1.
         22    1    1    2    0    0  0.83410500801E+02  0.17853146280E+04 -0.10326965127E+04  0.20641627164E+04  0.00000000000E+00 0. -1.
<mgrwt>
<rscale>  0 0.36350452E+04</rscale>
<asrwt>0</asrwt>
<pdfrwt beam="1">  1        2 0.58010197E+00 0.36350452E+04</pdfrwt>
<pdfrwt beam="2">  1       -2 0.13478098E+00 0.36350452E+04</pdfrwt>
<totfact> 0.16603217E-01</totfact>
</mgrwt>
</event>
<event>
 6    1  0.6091287E-004  0.1258193E+04  0.7818608E-02  0.9063392E-01
         -2   -1    0    0    0  501 -0.00000000000E+00  0.00000000000E+00  0.54775986400E+03  0.54775986400E+03  0.00000000000E+00 0. -1.
          2   -1    0    0  501    0  0.00000000000E+00 -0.00000000000E+00 -0.72251068160E+03  0.72251068160E+03  0.00000000000E+00 0.  1.
         23    2    1    2    0    0 -0.35308149730E+03  0.40940113107E+03  0.23057999247E+03  0.59457172552E+03  0.89847504166E+02 0.  0.
         11    1    3    3    0    0 -0.15097061317E+03  0.12543176777E+03  0.11431612694E+03  0.22714187479E+03  0.00000000000E+00 0. -1.
        -11    1    3    3    0    0 -0.20211088413E+03  0.28396936330E+03  0.11626386553E+03  0.36742985073E+03  0.00000000000E+00 0.  1.
         22    1    1    2    0    0  0.35308149730E+03 -0.40940113107E+03 -0.40533081007E+03  0.67569882008E+03  0.00000000000E+00 0.  1.
<mgrwt>
<rscale>  0 0.12581929E+04</rscale>
<asrwt>0</asrwt>
<pdfrwt beam="1">  1        2 0.11115549E+00 0.12581929E+04</pdfrwt>
<pdfrwt beam="2">  1       -2 0.84270749E-01 0.12581929E+04</pdfrwt>
<totfact> 0.47552472E+01</totfact>
</mgrwt>
</event>
<event>
 6    1  0.6091287E-004  0.2737679E+04  0.7818608E-02  0.8322882E-01
          2   -1    0    0  501    0  0.00000000000E+00  0.00000000000E+00  0.15007034016E+04  0.15007034016E+04  0.00000000000E+00 0.  1.
         -2   -1    0    0    0  501 -0.00000000000E+00 -0.00000000000E+00 -0.12485621134E+04  0.12485621134E+04  0.00000000000E+00 0. -1.
         23    2    1    2    0    0 -0.15805835300E+03  0.97492554552E+03 -0.82331564084E+03  0.12891046101E+04  0.92085769692E+02 0.  0.
         11    1    3    3    0    0 -0.47187192737E+02  0.33617885238E+03 -0.22795129439E+03  0.40890664529E+03  0.00000000000E+00 0.  1.
        -11    1    3    3    0    0 -0.11087116026E+03  0.63874669313E+03 -0.59536434645E+03  0.88019796477E+03  0.00000000000E+00 0. -1.
         22    1    1    2    0    0  0.15805835300E+03 -0.97492554552E+03  0.10754569291E+04  0.14601609050E+04  0.00000000000E+00 0.  1.
<mgrwt>
<rscale>  0 0.27376789E+04</rscale>
<asrwt>0</asrwt>
<pdfrwt beam="1">  1        2 0.23087745E+00 0.27376789E+04</pdfrwt>
<pdfrwt beam="2">  1       -2 0.19208648E+00 0.27376789E+04</pdfrwt>
<totfact> 0.16649895E+00</totfact>
</mgrwt>
</event>
<event>
 6    1  0.6091287E-004  0.3824173E+04  0.7818608E-02  0.8040987E-01
          2   -1    0    0  501    0  0.00000000000E+00  0.00000000000E+00  0.29334044020E+04  0.29334044020E+04  0.00000000000E+00 0.  1.
         -2   -1    0    0    0  501 -0.00000000000E+00 -0.00000000000E+00 -0.12463586857E+04  0.12463586857E+04  0.00000000000E+00 0. -1.
         23    2    1    2    0    0 -0.14962210181E+04  0.16636886506E+03 -0.44263521348E+03  0.15717184569E+04  0.89537932010E+02 0.  0.
         11    1    3    3    0    0 -0.44270981463E+03  0.77313430904E+02 -0.16344269349E+03  0.47820796796E+03  0.00000000000E+00 0.  1.
        -11    1    3    3    0    0 -0.10535112034E+04  0.89055434156E+02 -0.27919252000E+03  0.10935104889E+04  0.00000000000E+00 0. -1.
         22    1    1    2    0    0  0.14962210181E+04 -0.16636886506E+03  0.21296809297E+04  0.26080446309E+04  0.00000000000E+00 0.  1.
<mgrwt>
<rscale>  0 0.38241726E+04</rscale>
<asrwt>0</asrwt>
<pdfrwt beam="1">  1        2 0.45129298E+00 0.38241726E+04</pdfrwt>
<pdfrwt beam="2">  1       -2 0.19174749E+00 0.38241726E+04</pdfrwt>
<totfact> 0.23118857E-01</totfact>
</mgrwt>
</event>
<event>
 6    1  0.6091287E-004  0.3029977E+04  0.7818608E-02  0.8235222E-01
         -2   -1    0    0    0  501 -0.00000000000E+00  0.00000000000E+00  0.18862270328E+04  0.18862270328E+04  0.00000000000E+00 0. -1.
          2   -1    0    0  501    0  0.00000000000E+00 -0.00000000000E+00 -0.12168152424E+04  0.12168152424E+04  0.00000000000E+00 0.  1.
         23    2    1    2    0    0  0.87098899669E+03  0.22255458493E+03  0.15820644648E+04  0.18219929866E+04  0.92618015746E+02 0.  0.
         13    1    3    3    0    0  0.41666476697E+03  0.14076061235E+03  0.83696600569E+03  0.94548145022E+03  0.00000000000E+00 0.  1.
        -13    1    3    3    0    0  0.45432422973E+03  0.81793972584E+02  0.74509845915E+03  0.87651153643E+03  0.00000000000E+00 0. -1.
         22    1    1    2    0    0 -0.87098899669E+03 -0.22255458493E+03 -0.91265267437E+03  0.12810492885E+04  0.00000000000E+00 0.  1.
<mgrwt>
<rscale>  0 0.30299768E+04</rscale>
<asrwt>0</asrwt>
<pdfrwt beam="1">  1        2 0.18720234E+00 0.30299768E+04</pdfrwt>
<pdfrwt beam="2">  1       -2 0.29018877E+00 0.30299768E+04</pdfrwt>
<totfact> 0.57670445E-01</totfact>
</mgrwt>
</event>
<event>
 6    1  0.6091287E-004  0.1965809E+04  0.7818608E-02  0.8622775E-01
          2   -1    0    0  501    0  0.00000000000E+00  0.00000000000E+00  0.15765191773E+04  0.15765191773E+04  0.00000000000E+00 0.  1.
         -2   -1    0    0    0  501 -0.00000000000E+00 -0.00000000000E+00 -0.61280672091E+03  0.61280672091E+03  0.00000000000E+00 0. -1.
         23    2    1    2    0    0  0.17999888507E+03 -0.61073243816E+03  0.13137526214E+04  0.14627436064E+04  0.90990099008E+02 0.  0.
         11    1    3    3    0    0  0.73598563107E+02 -0.16805038908E+03  0.45877983131E+03  0.49410182694E+03  0.00000000000E+00 0. -1.
        -11    1    3    3    0    0  0.10640032196E+03 -0.44268204909E+03  0.85497279008E+03  0.96864177944E+03  0.00000000000E+00 0.  1.
         22    1    1    2    0    0 -0.17999888507E+03  0.61073243816E+03 -0.35004016503E+03  0.72658229182E+03  0.00000000000E+00 0. -1.
<mgrwt>
<rscale>  0 0.19658093E+04</rscale>
<asrwt>0</asrwt>
<pdfrwt beam="1">  1        2 0.24254141E+00 0.19658093E+04</pdfrwt>
<pdfrwt beam="2">  1       -2 0.94277958E-01 0.19658093E+04</pdfrwt>
<totfact> 0.10161064E+01</totfact>
</mgrwt>
</event>
<event>
 6    1  0.6091287E-004  0.1327342E+04  0.7818608E-02  0.9008159E-01
          2   -1    0    0  501    0  0.00000000000E+00  0.00000000000E+00  0.15957890988E+04  0.15957890988E+04  0.00000000000E+00 0.  1.
         -2   -1    0    0    0  501 -0.00000000000E+00 -0.00000000000E+00 -0.27601346443E+03  0.27601346443E+03  0.00000000000E+00 0. -1.
         23    2    1    2    0    0  0.25712780332E+03  0.54686055067E+03  0.10396201956E+04  0.12057258117E+04  0.88280307733E+02 0.  0.
         13    1    3    3    0    0  0.23690958788E+03  0.42970244552E+03  0.80653437041E+03  0.94406993129E+03  0.00000000000E+00 0.  1.
        -13    1    3    3    0    0  0.20218215441E+02  0.11715810515E+03  0.23308582518E+03  0.26165588038E+03  0.00000000000E+00 0. -1.
         22    1    1    2    0    0 -0.25712780332E+03 -0.54686055067E+03  0.28015543882E+03  0.66607675160E+03  0.00000000000E+00 0. -1.
<mgrwt>
<rscale>  0 0.13273421E+04</rscale>
<asrwt>0</asrwt>
<pdfrwt beam="1">  1        2 0.24550601E+00 0.13273421E+04</pdfrwt>
<pdfrwt beam="2">  1       -2 0.42463611E-01 0.13273421E+04</pdfrwt>
<totfact> 0.57650821E+01</totfact>
</mgrwt>
</event>
<event>
 6    1  0.6091287E-004  0.1984331E+04  0.7818608E-02  0.8613982E-01
          2   -1    0    0  501    0  0.00000000000E+00  0.00000000000E+00  0.34488589629E+04  0.34488589629E+04  0.00000000000E+00 0. -1.
         -2   -1    0    0    0  501 -0.00000000000E+00 -0.00000000000E+00 -0.28542544651E+03  0.28542544651E+03  0.00000000000E+00 0.  1.
         23    2    1    2    0    0  0.31236834465E+03 -0.93977887161E+03  0.15617797580E+04  0.18511877385E+04  0.83556689609E+02 0.  0.
         13    1    3    3    0    0  0.48373093503E+02 -0.20392257953E+03  0.38597738813E+03  0.43920714790E+03  0.00000000000E+00 0.  1.
        -13    1    3    3    0    0  0.26399525114E+03 -0.73585629207E+03  0.11758023699E+04  0.14119805906E+04  0.00000000000E+00 0. -1.
         22    1    1    2    0    0 -0.31236834465E+03  0.93977887161E+03  0.16016537584E+04  0.18830966709E+04  0.00000000000E+00 0. -1.
<mgrwt>
<rscale>  0 0.19843307E+04</rscale>
<asrwt>0</asrwt>
<pdfrwt beam="1">  1        2 0.53059366E+00 0.19843307E+04</pdfrwt>
<pdfrwt beam="2">  1       -2 0.43911610E-01 0.19843307E+04</pdfrwt>
<totfact> 0.40589633E+00</totfact>
</mgrwt>
</event>
<event>
 6    1  0.6091287E-004  0.3691972E+04  0.7818608E-02  0.8069743E-01
          2   -1    0    0  501    0  0.00000000000E+00  0.00000000000E+00  0.19174682558E+04  0.19174682558E+04  0.00000000000E+00 0. -1.
         -2   -1    0    0    0  501 -0.00000000000E+00 -0.00000000000E+00 -0.17771687235E+04  0.17771687235E+04  0.00000000000E+00 0.  1.
         23    2    1    2    0    0  0.10077814465E+04  0.15452598095E+04  0.67255815689E+02  0.18483469947E+04  0.91716657986E+02 0.  0.
         13    1    3    3    0    0  0.44597773058E+03  0.73545418623E+03  0.67396665461E+02  0.86274637451E+03  0.00000000000E+00 0. -1.
        -13    1    3    3    0    0  0.56180371593E+03  0.80980562325E+03 -0.14084977216E+00  0.98560062019E+03  0.00000000000E+00 0.  1.
         22    1    1    2    0    0 -0.10077814465E+04 -0.15452598095E+04  0.73043716547E+02  0.18462899846E+04  0.00000000000E+00 0. -1.
<mgrwt>
<rscale>  0 0.36919722E+04</rscale>
<asrwt>0</asrwt>
<pdfrwt beam="1">  1        2 0.29499511E+00 0.36919722E+04</pdfrwt>
<pdfrwt beam="2">  1       -2 0.27341057E+00 0.36919722E+04</pdfrwt>
<totfact> 0.27751579E-01</totfact>
</mgrwt>
</event>
<event>
 6    1  0.6091287E-004  0.4643523E+04  0.7818608E-02  0.7885981E-01
         -1   -1    0    0    0  501 -0.00000000000E+00  0.00000000000E+00  0.31366502887E+04  0.31366502887E+04  0.00000000000E+00 0.  1.
          1   -1    0    0  501    0  0.00000000000E+00 -0.00000000000E+00 -0.17185775150E+04  0.17185775150E+04  0.00000000000E+00 0. -1.
         23    2    1    2    0    0  0.12768221740E+04 -0.18234122067E+04  0.13960562073E+04  0.26291119782E+04  0.90276909928E+02 0.  0.
         11    1    3    3    0    0  0.39231152270E+03 -0.53096447455E+03  0.45880817098E+03  0.80395058420E+03  0.00000000000E+00 0.  1.
        -11    1    3    3    0    0  0.88451065133E+03 -0.12924477321E+04  0.93724803635E+03  0.18251613940E+04  0.00000000000E+00 0. -1.
         22    1    1    2    0    0 -0.12768221740E+04  0.18234122067E+04  0.22016566348E+02  0.22261158255E+04  0.00000000000E+00 0. -1.
<mgrwt>
<rscale>  0 0.46435231E+04</rscale>
<asrwt>0</asrwt>
<pdfrwt beam="1">  1        1 0.26439654E+00 0.46435231E+04</pdfrwt>
<pdfrwt beam="2">  1       -1 0.48256158E+00 0.46435231E+04</pdfrwt>
<totfact> 0.66943408E-03</totfact>
</mgrwt>
</event>
<event>
 6    1  0.6091287E-004  0.2928529E+04  0.7818608E-02  0.8264439E-01
         -2   -1    0    0    0  501 -0.00000000000E+00  0.00000000000E+00  0.68859106203E+03  0.68859106203E+03  0.00000000000E+00 0. -1.
          2   -1    0    0  501    0  0.00000000000E+00 -0.00000000000E+00 -0.31137069628E+04  0.31137069628E+04  0.00000000000E+00 0.  1.
         23    2    1    2    0    0  0.74781941963E+03 -0.12049961472E+04 -0.74907174197E+03  0.16067630965E+04  0.96589722829E+02 0.  0.
         13    1    3    3    0    0  0.46472619180E+03 -0.77677244374E+03 -0.42780267441E+03  0.10011797995E+04  0.00000000000E+00 0. -1.
        -13    1    3    3    0    0  0.28309322783E+03 -0.42822370346E+03 -0.32126906756E+03  0.60558329701E+03  0.00000000000E+00 0.  1.
         22    1    1    2    0    0 -0.74781941963E+03  0.12049961472E+04 -0.16760441588E+04  0.21955349283E+04  0.00000000000E+00 0.  1.
<mgrwt>
<rscale>  0 0.29285292E+04</rscale>
<asrwt>0</asrwt>
<pdfrwt beam="1">  1        2 0.47903185E+00 0.29285292E+04</pdfrwt>
<pdfrwt beam="2">  1       -2 0.10593709E+00 0.29285292E+04</pdfrwt>
<totfact> 0.91314675E-01</totfact>
</mgrwt>
</event>
<event>
 6    1  0.6091287E-004  0.3739233E+04  0.7818608E-02  0.8059323E-01
          2   -1    0    0  501    0  0.00000000000E+00  0.00000000000E+00  0.43373398863E+04  0.43373398863E+04  0.00000000000E+00 0.  1.
         -2   -1    0    0    0  501 -0.00000000000E+00 -0.00000000000E+00 -0.80590074533E+03  0.80590074533E+03  0.00000000000E+00 0. -1.
         23    2    1    2    0    0 -0.12560931121E+04  0.66869100486E+02 -0.13373140317E+03  0.12682288251E+04  0.90988360920E+02 0.  0.
         13    1    3    3    0    0 -0.38461762644E+03 -0.13619163949E+02 -0.65454912378E+02  0.39038512491E+03  0.00000000000E+00 0. -1.
        -13    1    3    3    0    0 -0.87147548567E+03  0.80488264435E+02 -0.68276490788E+02  0.87784370022E+03  0.00000000000E+00 0.  1.
         22    1    1    2    0    0  0.12560931121E+04 -0.66869100486E+02  0.36651705442E+04  0.38750118065E+04  0.00000000000E+00 0.  1.
<mgrwt>
<rscale>  0 0.37392328E+04</rscale>
<asrwt>0</asrwt>
<pdfrwt beam="1">  1        2 0.66728305E+00 0.37392328E+04</pdfrwt>
<pdfrwt beam="2">  1       -2 0.12398473E+00 0.37392328E+04</pdfrwt>
<totfact> 0.68839421E-02</totfact>
</mgrwt>
</event>
<event>
 6    1  0.6091287E-004  0.3007188E+04  0.7818608E-02  0.8241681E-01
         -2   -1    0    0    0  501 -0.00000000000E+00  0.00000000000E+00  0.10024780832E+04  0.10024780832E+04  0.00000000000E+00 0. -1.
          2   -1    0    0  501    0  0.00000000000E+00 -0.00000000000E+00 -0.22552060615E+04  0.22552060615E+04  0.00000000000E+00 0.  1.
         23    2    1    2    0    0  0.44148680852E+03 -0.29072827875E+03 -0.21503251306E+04  0.22159960042E+04  0.85478588909E+02 0.  0.
         11    1    3    3    0    0  0.23375903796E+03 -0.16793464909E+03 -0.99803832688E+03  0.10387135486E+04  0.00000000000E+00 0.  1.
        -11    1    3    3    0    0  0.20772777055E+03 -0.12279362965E+03 -0.11522868038E+04  0.11772824556E+04  0.00000000000E+00 0. -1.
         22    1    1    2    0    0 -0.44148680852E+03  0.29072827875E+03  0.89759715228E+03  0.10416881404E+04  0.00000000000E+00 0. -1.
<mgrwt>
<rscale>  0 0.30071878E+04</rscale>
<asrwt>0</asrwt>
<pdfrwt beam="1">  1        2 0.34695478E+00 0.30071878E+04</pdfrwt>
<pdfrwt beam="2">  1       -2 0.15422740E+00 0.30071878E+04</pdfrwt>
<totfact> 0.11439978E+00</totfact>
</mgrwt>
</event>
<event>
 6    1  0.6091287E-004  0.6058538E+03  0.7818608E-02  0.9893335E-01
          4   -1    0    0  501    0  0.00000000000E+00  0.00000000000E+00  0.19486459667E+03  0.19486459667E+03  0.00000000000E+00 0.  1.
         -4   -1    0    0    0  501 -0.00000000000E+00 -0.00000000000E+00 -0.47091530327E+03  0.47091530327E+03  0.00000000000E+00 0. -1.
         23    2    1    2    0    0 -0.14845485591E+03  0.12770577379E+03 -0.38500088295E+03  0.44168672774E+03  0.92270670750E+02 0.  0.
         13    1    3    3    0    0 -0.43850986074E+02 -0.50981276499E+01 -0.11436939547E+03  0.12259387630E+03  0.00000000000E+00 0. -1.
        -13    1    3    3    0    0 -0.10460386984E+03  0.13280390144E+03 -0.27063148748E+03  0.31909285144E+03  0.00000000000E+00 0.  1.
         22    1    1    2    0    0  0.14845485591E+03 -0.12770577379E+03  0.10895017635E+03  0.22409317221E+03  0.00000000000E+00 0.  1.
<mgrwt>
<rscale>  0 0.60585385E+03</rscale>
<asrwt>0</asrwt>
<pdfrwt beam="1">  1        4 0.29979169E-01 0.60585385E+03</pdfrwt>
<pdfrwt beam="2">  1       -4 0.72448507E-01 0.60585385E+03</pdfrwt>
<totfact> 0.36858451E+01</totfact>
</mgrwt>
</event>
<event>
 6    1  0.7530961E-004  0.3197787E+04  0.7818608E-02  0.8189402E-01
         -2   -1    0    0    0  501 -0.00000000000E+00  0.00000000000E+00  0.10489297902E+04  0.10489297902E+04  0.00000000000E+00 0. -1.
          2   -1    0    0  501    0  0.00000000000E+00 -0.00000000000E+00 -0.24372079906E+04  0.24372079906E+04  0.00000000000E+00 0.  1.
         23    2    1    2    0    0 -0.25451324355E+03 -0.15062594704E+04 -0.18488521199E+03  0.15414657602E+04  0.91321218907E+02 0.  0.
         11    1    3    3    0    0 -0.19142321573E+03 -0.10798580290E+04 -0.92138140738E+02  0.11005569714E+04  0.00000000000E+00 0. -1.
        -11    1    3    3    0    0 -0.63090027820E+02 -0.42640144139E+03 -0.92747071253E+02  0.44090878882E+03  0.00000000000E+00 0.  1.
         22    1    1    2    0    0  0.25451324355E+03  0.15062594704E+04 -0.12033929884E+04  0.19446720207E+04  0.00000000000E+00 0.  1.
<mgrwt>
<rscale>  0 0.31977868E+04</rscale>
<asrwt>0</asrwt>
<pdfrwt beam="1">  1        2 0.37495507E+00 0.31977868E+04</pdfrwt>
<pdfrwt beam="2">  1       -2 0.16137381E+00 0.31977868E+04</pdfrwt>
<totfact> 0.78423690E-01</totfact>
</mgrwt>
</event>
<event>
 6    1  0.6091287E-004  0.2413554E+04  0.7818608E-02  0.8434447E-01
          2   -1    0    0  501    0  0.00000000000E+00  0.00000000000E+00  0.15741521758E+04  0.15741521758E+04  0.00000000000E+00 0.  1.
         -2   -1    0    0    0  501 -0.00000000000E+00 -0.00000000000E+00 -0.92513939504E+03  0.92513939504E+03  0.00000000000E+00 0. -1.
         23    2    1    2    0    0  0.18073866569E+02  0.10780826537E+04  0.88234473648E+03  0.13960995321E+04  0.89290518749E+02 0.  0.
         11    1    3    3    0    0 -0.84427481938E+01  0.78822167766E+03  0.68627308873E+03  0.10451485279E+04  0.00000000000E+00 0. -1.
        -11    1    3    3    0    0  0.26516614763E+02  0.28986097604E+03  0.19607164776E+03  0.35095100419E+03  0.00000000000E+00 0.  1.
         22    1    1    2    0    0 -0.18073866569E+02 -0.10780826537E+04 -0.23333195567E+03  0.11031920388E+04  0.00000000000E+00 0. -1.
<mgrwt>
<rscale>  0 0.24135536E+04</rscale>
<asrwt>0</asrwt>
<pdfrwt beam="1">  1        2 0.24217726E+00 0.24135536E+04</pdfrwt>
<pdfrwt beam="2">  1       -2 0.14232914E+00 0.24135536E+04</pdfrwt>
<totfact> 0.35637399E+00</totfact>
</mgrwt>
</event>
<event>
 6    1  0.6091287E-004  0.2446838E+04  0.7818608E-02  0.8422173E-01
          2   -1    0    0  501    0  0.00000000000E+00  0.00000000000E+00  0.18565820608E+04  0.18565820608E+04  0.00000000000E+00 0.  1.
         -2   -1    0    0    0  501 -0.00000000000E+00 -0.00000000000E+00 -0.80618809691E+03  0.80618809691E+03  0.00000000000E+00 0. -1.
         23    2    1    2    0    0 -0.96964471522E+03 -0.69024106466E+03  0.22611883013E+03  0.12149880273E+04  0.91774615284E+02 0.  0.
         13    1    3    3    0    0 -0.73995722649E+02 -0.27516165583E+02  0.51802559500E+01  0.79115999585E+02  0.00000000000E+00 0. -1.
        -13    1    3    3    0    0 -0.89564899257E+03 -0.66272489907E+03  0.22093857418E+03  0.11358720277E+04  0.00000000000E+00 0.  1.
         22    1    1    2    0    0  0.96964471522E+03  0.69024106466E+03  0.82427513379E+03  0.14477821305E+04  0.00000000000E+00 0.  1.
<mgrwt>
<rscale>  0 0.24468383E+04</rscale>
<asrwt>0</asrwt>
<pdfrwt beam="1">  1        2 0.28562801E+00 0.24468383E+04</pdfrwt>
<pdfrwt beam="2">  1       -2 0.12402894E+00 0.24468383E+04</pdfrwt>
<totfact> 0.35159899E+00</totfact>
</mgrwt>
</event>
<event>
 6    1  0.6091287E-004  0.3790865E+04  0.7818608E-02  0.8048118E-01
          2   -1    0    0  501    0  0.00000000000E+00  0.00000000000E+00  0.41616382557E+04  0.41616382557E+04  0.00000000000E+00 0.  1.
         -2   -1    0    0    0  501 -0.00000000000E+00 -0.00000000000E+00 -0.86328126232E+03  0.86328126232E+03  0.00000000000E+00 0. -1.
         23    2    1    2    0    0  0.26363422363E+03  0.13437754399E+04  0.33851421351E+04  0.36527799124E+04  0.91533472606E+02 0.  0.
         11    1    3    3    0    0  0.18160312708E+03  0.96003188170E+03  0.25208041041E+04  0.27035336582E+04  0.00000000000E+00 0.  1.
        -11    1    3    3    0    0  0.82031096556E+02  0.38374355817E+03  0.86433803099E+03  0.94924625416E+03  0.00000000000E+00 0. -1.
         22    1    1    2    0    0 -0.26363422363E+03 -0.13437754399E+04 -0.86785141701E+02  0.13721396057E+04  0.00000000000E+00 0. -1.
<mgrwt>
<rscale>  0 0.37908650E+04</rscale>
<asrwt>0</asrwt>
<pdfrwt beam="1">  1        2 0.64025203E+00 0.37908650E+04</pdfrwt>
<pdfrwt beam="2">  1       -2 0.13281250E+00 0.37908650E+04</pdfrwt>
<totfact> 0.82479942E-02</totfact>
</mgrwt>
</event>
<event>
 6    1  0.6091287E-004  0.2615826E+04  0.7818608E-02  0.8362845E-01
          2   -1    0    0  501    0  0.00000000000E+00  0.00000000000E+00  0.17343321412E+04  0.17343321412E+04  0.00000000000E+00 0.  1.
         -2   -1    0    0    0  501 -0.00000000000E+00 -0.00000000000E+00 -0.98633748568E+03  0.98633748568E+03  0.00000000000E+00 0. -1.
         23    2    1    2    0    0 -0.18048711359E+03  0.87952079531E+03 -0.61228468934E+03  0.10907946858E+04  0.93851362160E+02 0.  0.
         13    1    3    3    0    0 -0.23046218067E+02  0.32384604834E+03 -0.23832369646E+03  0.40274753318E+03  0.00000000000E+00 0. -1.
        -13    1    3    3    0    0 -0.15744089552E+03  0.55567474697E+03 -0.37396099288E+03  0.68804715260E+03  0.00000000000E+00 0.  1.
         22    1    1    2    0    0  0.18048711359E+03 -0.87952079531E+03  0.13602793449E+04  0.16298749411E+04  0.00000000000E+00 0.  1.
<mgrwt>
<rscale>  0 0.26158263E+04</rscale>
<asrwt>0</asrwt>
<pdfrwt beam="1">  1        2 0.26682033E+00 0.26158263E+04</pdfrwt>
<pdfrwt beam="2">  1       -2 0.15174423E+00 0.26158263E+04</pdfrwt>
<totfact> 0.24092327E+00</totfact>
</mgrwt>
</event>
<event>
 6    1  0.6091287E-004  0.3882557E+04  0.7818608E-02  0.8028667E-01
         -2   -1    0    0    0  501 -0.00000000000E+00  0.00000000000E+00  0.10417777033E+04  0.10417777033E+04  0.00000000000E+00 0. -1.
          2   -1    0    0  501    0  0.00000000000E+00 -0.00000000000E+00 -0.36174332905E+04  0.36174332905E+04  0.00000000000E+00 0.  1.
         23    2    1    2    0    0 -0.10754603945E+04 -0.11940902406E+04 -0.25932293869E+04  0.30521094410E+04  0.89815497921E+02 0.  0.
         11    1    3    3    0    0 -0.96048471669E+03 -0.10995179195E+04 -0.23265584298E+04  0.27466970480E+04  0.00000000000E+00 0. -1.
        -11    1    3    3    0    0 -0.11497567778E+03 -0.94572321160E+02 -0.26667095712E+03  0.30541239298E+03  0.00000000000E+00 0.  1.
         22    1    1    2    0    0  0.10754603945E+04  0.11940902406E+04  0.17573799759E+02  0.16071015529E+04  0.00000000000E+00 0. -1.
<mgrwt>
<rscale>  0 0.38825566E+04</rscale>
<asrwt>0</asrwt>
<pdfrwt beam="1">  1        2 0.55652820E+00 0.38825566E+04</pdfrwt>
<pdfrwt beam="2">  1       -2 0.16027349E+00 0.38825566E+04</pdfrwt>
<totfact> 0.13363602E-01</totfact>
</mgrwt>
</event>
<event>
 6    1  0.6091287E-004  0.1729689E+04  0.7818608E-02  0.8744611E-01
          2   -1    0    0  501    0  0.00000000000E+00  0.00000000000E+00  0.20795959866E+04  0.20795959866E+04  0.00000000000E+00 0.  1.
         -2   -1    0    0    0  501 -0.00000000000E+00 -0.00000000000E+00 -0.35966394416E+03  0.35966394416E+03  0.00000000000E+00 0. -1.
         23    2    1    2    0    0  0.63460882065E+03  0.60075274384E+02  0.42972744813E+02  0.64523376604E+03  0.90236146852E+02 0.  0.
         11    1    3    3    0    0  0.19662283474E+03  0.54200522780E+02  0.36274777453E+02  0.20715717532E+03  0.00000000000E+00 0. -1.
        -11    1    3    3    0    0  0.43798598591E+03  0.58747516039E+01  0.66979673598E+01  0.43807659071E+03  0.00000000000E+00 0.  1.
         22    1    1    2    0    0 -0.63460882065E+03 -0.60075274384E+02  0.16769592976E+04  0.17940261647E+04  0.00000000000E+00 0.  1.
<mgrwt>
<rscale>  0 0.17296886E+04</rscale>
<asrwt>0</asrwt>
<pdfrwt beam="1">  1        2 0.31993784E+00 0.17296886E+04</pdfrwt>
<pdfrwt beam="2">  1       -2 0.55332915E-01 0.17296886E+04</pdfrwt>
<totfact> 0.17584843E+01</totfact>
</mgrwt>
</event>
<event>
 6    1  0.6091287E-004  0.2017793E+04  0.7818608E-02  0.8598347E-01
         -2   -1    0    0    0  501 -0.00000000000E+00  0.00000000000E+00  0.55538268440E+03  0.55538268440E+03  0.00000000000E+00 0. -1.
          2   -1    0    0  501    0  0.00000000000E+00 -0.00000000000E+00 -0.18327398819E+04  0.18327398819E+04  0.00000000000E+00 0.  1.
         23    2    1    2    0    0  0.89568323442E+03 -0.41089695888E+03 -0.39622562581E+03  0.10662006269E+04  0.93296639747E+02 0.  0.
         13    1    3    3    0    0  0.32531580102E+03 -0.18821450502E+03 -0.18126348777E+03  0.41726672799E+03  0.00000000000E+00 0. -1.
        -13    1    3    3    0    0  0.57036743340E+03 -0.22268245386E+03 -0.21496213804E+03  0.64893389890E+03  0.00000000000E+00 0.  1.
         22    1    1    2    0    0 -0.89568323442E+03  0.41089695888E+03 -0.88113157167E+03  0.13219219394E+04  0.00000000000E+00 0. -1.
<mgrwt>
<rscale>  0 0.20177928E+04</rscale>
<asrwt>0</asrwt>
<pdfrwt beam="1">  1        2 0.28195998E+00 0.20177928E+04</pdfrwt>
<pdfrwt beam="2">  1       -2 0.85443490E-01 0.20177928E+04</pdfrwt>
<totfact> 0.91404314E+00</totfact>
</mgrwt>
</event>
<event>
 6    1  0.6091287E-004  0.1925297E+04  0.7818608E-02  0.8642366E-01
         -2   -1    0    0    0  501 -0.00000000000E+00  0.00000000000E+00  0.51143502878E+03  0.51143502878E+03  0.00000000000E+00 0. -1.
          2   -1    0    0  501    0  0.00000000000E+00 -0.00000000000E+00 -0.18119444566E+04  0.18119444566E+04  0.00000000000E+00 0.  1.
         23    2    1    2    0    0 -0.35928601013E+03 -0.40792137993E+03  0.30403041247E+03  0.62926190140E+03  0.89720452361E+02 0.  0.
         13    1    3    3    0    0 -0.36301730493E+03 -0.39251017514E+03  0.29927253666E+03  0.61270698744E+03  0.00000000000E+00 0. -1.
        -13    1    3    3    0    0  0.37312947975E+01 -0.15411204794E+02  0.47578758164E+01  0.16554913963E+02  0.00000000000E+00 0.  1.
         22    1    1    2    0    0  0.35928601013E+03  0.40792137993E+03 -0.16045398403E+04  0.16941175840E+04  0.00000000000E+00 0.  1.
<mgrwt>
<rscale>  0 0.19252967E+04</rscale>
<asrwt>0</asrwt>
<pdfrwt beam="1">  1        2 0.27876068E+00 0.19252967E+04</pdfrwt>
<pdfrwt beam="2">  1       -2 0.78682313E-01 0.19252967E+04</pdfrwt>
<totfact> 0.11395888E+01</totfact>
</mgrwt>
</event>
<event>
 6    1  0.6091287E-004  0.7646893E+03  0.7818608E-02  0.9612583E-01
          2   -1    0    0  501    0  0.00000000000E+00  0.00000000000E+00  0.54660144582E+03  0.54660144582E+03  0.00000000000E+00 0.  1.
         -2   -1    0    0    0  501 -0.00000000000E+00 -0.00000000000E+00 -0.26744794111E+03  0.26744794111E+03  0.00000000000E+00 0. -1.
         23    2    1    2    0    0  0.17551839105E+03  0.23536018098E+03 -0.10958657577E+03  0.32689441102E+03  0.93003322432E+02 0.  0.
         11    1    3    3    0    0  0.12437220598E+03  0.18967559712E+03 -0.42120876549E+02  0.23069340261E+03  0.00000000000E+00 0. -1.
        -11    1    3    3    0    0  0.51146185067E+02  0.45684583853E+02 -0.67465699224E+02  0.96201008418E+02  0.00000000000E+00 0.  1.
         22    1    1    2    0    0 -0.17551839105E+03 -0.23536018098E+03  0.38874008048E+03  0.48715497591E+03  0.00000000000E+00 0.  1.
<mgrwt>
<rscale>  0 0.76468930E+03</rscale>
<asrwt>0</asrwt>
<pdfrwt beam="1">  1        2 0.84092530E-01 0.76468930E+03</pdfrwt>
<pdfrwt beam="2">  1       -2 0.41145837E-01 0.76468930E+03</pdfrwt>
<totfact> 0.31246235E+02</totfact>
</mgrwt>
</event>
<event>
 6    1  0.6091287E-004  0.4366285E+04  0.7818608E-02  0.7934474E-01
          1   -1    0    0  501    0  0.00000000000E+00  0.00000000000E+00  0.23420025254E+04  0.23420025254E+04  0.00000000000E+00 0.  1.
         -1   -1    0    0    0  501 -0.00000000000E+00 -0.00000000000E+00 -0.20350584534E+04  0.20350584534E+04  0.00000000000E+00 0. -1.
         23    2    1    2    0    0  0.60776913696E+03 -0.95280853370E+03  0.20248267216E+04  0.23207661986E+04  0.93835336268E+02 0.  0.
         13    1    3    3    0    0  0.45264268969E+03 -0.63297932326E+03  0.14182322678E+04  0.16176931086E+04  0.00000000000E+00 0.  1.
        -13    1    3    3    0    0  0.15512644727E+03 -0.31982921044E+03  0.60659445377E+03  0.70307308997E+03  0.00000000000E+00 0. -1.
         22    1    1    2    0    0 -0.60776913696E+03  0.95280853370E+03 -0.17178826495E+04  0.20562947802E+04  0.00000000000E+00 0. -1.
<mgrwt>
<rscale>  0 0.43662854E+04</rscale>
<asrwt>0</asrwt>
<pdfrwt beam="1">  1        1 0.36030808E+00 0.43662854E+04</pdfrwt>
<pdfrwt beam="2">  1       -1 0.31308592E+00 0.43662854E+04</pdfrwt>
<totfact> 0.35923048E-02</totfact>
</mgrwt>
</event>
<event>
 6    1  0.6091287E-004  0.3327693E+04  0.7818608E-02  0.8155884E-01
          2   -1    0    0  501    0  0.00000000000E+00  0.00000000000E+00  0.18416132525E+04  0.18416132525E+04  0.00000000000E+00 0.  1.
         -2   -1    0    0    0  501 -0.00000000000E+00 -0.00000000000E+00 -0.15032393372E+04  0.15032393372E+04  0.00000000000E+00 0. -1.
         23    2    1    2    0    0 -0.13361109497E+04 -0.91657849961E+03 -0.20567855170E+03  0.16356710011E+04  0.88359162268E+02 0.  0.
         13    1    3    3    0    0 -0.50055743771E+03 -0.29302060765E+03 -0.81833916486E+02  0.58576071466E+03  0.00000000000E+00 0.  1.
        -13    1    3    3    0    0 -0.83555351197E+03 -0.62355789196E+03 -0.12384463522E+03  0.10499102865E+04  0.00000000000E+00 0. -1.
         22    1    1    2    0    0  0.13361109497E+04  0.91657849961E+03  0.54405246702E+03  0.17091815886E+04  0.00000000000E+00 0.  1.
<mgrwt>
<rscale>  0 0.33276932E+04</rscale>
<asrwt>0</asrwt>
<pdfrwt beam="1">  1        2 0.28332512E+00 0.33276932E+04</pdfrwt>
<pdfrwt beam="2">  1       -2 0.23126759E+00 0.33276932E+04</pdfrwt>
<totfact> 0.57243112E-01</totfact>
</mgrwt>
</event>
<event>
 6    1  0.6091287E-004  0.2748191E+04  0.7818608E-02  0.8319536E-01
          2   -1    0    0  501    0  0.00000000000E+00  0.00000000000E+00  0.31799217908E+04  0.31799217908E+04  0.00000000000E+00 0.  1.
         -2   -1    0    0    0  501 -0.00000000000E+00 -0.00000000000E+00 -0.59376902110E+03  0.59376902110E+03  0.00000000000E+00 0. -1.
         23    2    1    2    0    0  0.33078611061E+03 -0.48799934284E+03  0.29965640256E+04  0.30553592668E+04  0.90892687730E+02 0.  0.
         11    1    3    3    0    0  0.21746417048E+03 -0.37953282869E+03  0.23166652596E+04  0.23575991514E+04  0.00000000000E+00 0. -1.
        -11    1    3    3    0    0  0.11332194014E+03 -0.10846651415E+03  0.67989876592E+03  0.69776011545E+03  0.00000000000E+00 0.  1.
         22    1    1    2    0    0 -0.33078611061E+03  0.48799934284E+03 -0.41041125589E+03  0.71833154501E+03  0.00000000000E+00 0. -1.
<mgrwt>
<rscale>  0 0.27481914E+04</rscale>
<asrwt>0</asrwt>
<pdfrwt beam="1">  1        2 0.48921873E+00 0.27481914E+04</pdfrwt>
<pdfrwt beam="2">  1       -2 0.91349082E-01 0.27481914E+04</pdfrwt>
<totfact> 0.11920849E+00</totfact>
</mgrwt>
</event>
<event>
 6    1  0.6972772E-004  0.3465622E+04  0.7818608E-02  0.8121986E-01
         -4   -1    0    0    0  501 -0.00000000000E+00  0.00000000000E+00  0.17035008188E+04  0.17035008188E+04  0.00000000000E+00 0. -1.
          4   -1    0    0  501    0  0.00000000000E+00 -0.00000000000E+00 -0.17626253936E+04  0.17626253936E+04  0.00000000000E+00 0.  1.
         23    2    1    2    0    0  0.12774568605E+04 -0.17873854729E+03 -0.11850838122E+04  0.17539265444E+04  0.89393414792E+02 0.  0.
         13    1    3    3    0    0  0.44647563864E+03 -0.57837029788E+02 -0.47193401569E+03  0.65223257591E+03  0.00000000000E+00 0.  1.
        -13    1    3    3    0    0  0.83098122183E+03 -0.12090151751E+03 -0.71314979646E+03  0.11016939685E+04  0.00000000000E+00 0. -1.
         22    1    1    2    0    0 -0.12774568605E+04  0.17873854729E+03  0.11259592374E+04  0.17121996679E+04  0.00000000000E+00 0. -1.
<mgrwt>
<rscale>  0 0.34656219E+04</rscale>
<asrwt>0</asrwt>
<pdfrwt beam="1">  1        4 0.27117314E+00 0.34656219E+04</pdfrwt>
<pdfrwt beam="2">  1       -4 0.26207705E+00 0.34656219E+04</pdfrwt>
<totfact> 0.40297607E-03</totfact>
</mgrwt>
</event>
<event>
 6    1  0.6091287E-004  0.2477494E+04  0.7818608E-02  0.8411047E-01
         -2   -1    0    0    0  501 -0.00000000000E+00  0.00000000000E+00  0.11937192669E+04  0.11937192669E+04  0.00000000000E+00 0. -1.
          2   -1    0    0  501    0  0.00000000000E+00 -0.00000000000E+00 -0.12854737007E+04  0.12854737007E+04  0.00000000000E+00 0.  1.
         23    2    1    2    0    0 -0.42722313500E+03  0.10983103407E+04 -0.42257466541E+03  0.12551638678E+04  0.89787390553E+02 0.  0.
         11    1    3    3    0    0 -0.17931280262E+03  0.53916158087E+03 -0.24046657022E+03  0.61698659861E+03  0.00000000000E+00 0. -1.
        -11    1    3    3    0    0 -0.24791033238E+03  0.55914875987E+03 -0.18210809519E+03  0.63817726918E+03  0.00000000000E+00 0.  1.
         22    1    1    2    0    0  0.42722313500E+03 -0.10983103407E+04  0.33082023152E+03  0.12240290998E+04  0.00000000000E+00 0. -1.
<mgrwt>
<rscale>  0 0.24774945E+04</rscale>
<asrwt>0</asrwt>
<pdfrwt beam="1">  1        2 0.19776518E+00 0.24774945E+04</pdfrwt>
<pdfrwt beam="2">  1       -2 0.18364912E+00 0.24774945E+04</pdfrwt>
<totfact> 0.25781453E+00</totfact>
</mgrwt>
</event>
<event>
 6    1  0.6091287E-004  0.1789238E+04  0.7818608E-02  0.8712043E-01
          2   -1    0    0  501    0  0.00000000000E+00  0.00000000000E+00  0.94724482271E+03  0.94724482271E+03  0.00000000000E+00 0.  1.
         -2   -1    0    0    0  501 -0.00000000000E+00 -0.00000000000E+00 -0.84491730769E+03  0.84491730769E+03  0.00000000000E+00 0. -1.
         23    2    1    2    0    0  0.11461442033E+03  0.82658142819E+03  0.36778628048E+03  0.91646716129E+03  0.90950463662E+02 0.  0.
         11    1    3    3    0    0  0.75715139654E+02  0.25609638068E+03  0.10148175412E+03  0.28568634022E+03  0.00000000000E+00 0.  1.
        -11    1    3    3    0    0  0.38899280680E+02  0.57048504751E+03  0.26630452636E+03  0.63078082107E+03  0.00000000000E+00 0. -1.
         22    1    1    2    0    0 -0.11461442033E+03 -0.82658142819E+03 -0.26545876546E+03  0.87569496912E+03  0.00000000000E+00 0. -1.
<mgrwt>
<rscale>  0 0.17892384E+04</rscale>
<asrwt>0</asrwt>
<pdfrwt beam="1">  1        2 0.14572997E+00 0.17892384E+04</pdfrwt>
<pdfrwt beam="2">  1       -2 0.12998728E+00 0.17892384E+04</pdfrwt>
<totfact> 0.11190348E+01</totfact>
</mgrwt>
</event>
<event>
 6    1  0.6091287E-004  0.7512133E+04  0.7818608E-02  0.7526808E-01
          2   -1    0    0  501    0  0.00000000000E+00  0.00000000000E+00  0.30149106250E+04  0.30149106250E+04  0.00000000000E+00 0.  1.
         -2   -1    0    0    0  501 -0.00000000000E+00 -0.00000000000E+00 -0.46794202649E+04  0.46794202649E+04  0.00000000000E+00 0. -1.
         23    2    1    2    0    0 -0.19817024092E+04 -0.25101252350E+04  0.11841162384E+04  0.34115114297E+04  0.91683343321E+02 0.  0.
         11    1    3    3    0    0 -0.52324397629E+03 -0.65269093115E+03  0.35240575882E+03  0.90773318171E+03  0.00000000000E+00 0. -1.
        -11    1    3    3    0    0 -0.14584584329E+04 -0.18574343038E+04  0.83171047955E+03  0.25037782480E+04  0.00000000000E+00 0.  1.
         22    1    1    2    0    0  0.19817024092E+04  0.25101252350E+04 -0.28486258783E+04  0.42828194602E+04  0.00000000000E+00 0. -1.
<mgrwt>
<rscale>  0 0.75121326E+04</rscale>
<asrwt>0</asrwt>
<pdfrwt beam="1">  1        2 0.46383241E+00 0.75121326E+04</pdfrwt>
<pdfrwt beam="2">  1       -2 0.71991081E+00 0.75121326E+04</pdfrwt>
<totfact> 0.20128455E-04</totfact>
</mgrwt>
</event>
<event>
 6    1  0.6261633E-004  0.2993713E+04  0.7818608E-02  0.8245528E-01
         -2   -1    0    0    0  501 -0.00000000000E+00  0.00000000000E+00  0.10197568282E+04  0.10197568282E+04  0.00000000000E+00 0. -1.
          2   -1    0    0  501    0  0.00000000000E+00 -0.00000000000E+00 -0.21971703750E+04  0.21971703750E+04  0.00000000000E+00 0.  1.
         23    2    1    2    0    0 -0.82437259516E+03 -0.53639971241E+03 -0.17997748436E+04  0.20530335607E+04  0.91883003903E+02 0.  0.
         13    1    3    3    0    0 -0.36186645526E+03 -0.28838326668E+03 -0.81925698903E+03  0.94090076736E+03  0.00000000000E+00 0. -1.
        -13    1    3    3    0    0 -0.46250613990E+03 -0.24801644573E+03 -0.98051785461E+03  0.11121327933E+04  0.00000000000E+00 0.  1.
         22    1    1    2    0    0  0.82437259516E+03  0.53639971241E+03  0.62236129685E+03  0.11638936425E+04  0.00000000000E+00 0. -1.
<mgrwt>
<rscale>  0 0.29937131E+04</rscale>
<asrwt>0</asrwt>
<pdfrwt beam="1">  1        2 0.33802621E+00 0.29937131E+04</pdfrwt>
<pdfrwt beam="2">  1       -2 0.15688567E+00 0.29937131E+04</pdfrwt>
<totfact> 0.11794092E+00</totfact>
</mgrwt>
</event>
<event>
 6    1  0.6091287E-004  0.2440786E+04  0.7818608E-02  0.8424390E-01
         -2   -1    0    0    0  501 -0.00000000000E+00  0.00000000000E+00  0.69616613641E+03  0.69616613641E+03  0.00000000000E+00 0. -1.
          2   -1    0    0  501    0  0.00000000000E+00 -0.00000000000E+00 -0.21393738772E+04  0.21393738772E+04  0.00000000000E+00 0.  1.
         23    2    1    2    0    0 -0.77174938164E+03 -0.27366863947E+03 -0.17712484309E+04  0.19534389272E+04  0.90061124578E+02 0.  0.
         13    1    3    3    0    0 -0.24395782140E+03 -0.58768060290E+02 -0.46756026288E+03  0.53064272629E+03  0.00000000000E+00 0.  1.
        -13    1    3    3    0    0 -0.52779156024E+03 -0.21490057918E+03 -0.13036881680E+04  0.14227962010E+04  0.00000000000E+00 0. -1.
         22    1    1    2    0    0  0.77174938164E+03  0.27366863947E+03  0.32804069009E+03  0.88210108641E+03  0.00000000000E+00 0. -1.
<mgrwt>
<rscale>  0 0.24407865E+04</rscale>
<asrwt>0</asrwt>
<pdfrwt beam="1">  1        2 0.32913445E+00 0.24407865E+04</pdfrwt>
<pdfrwt beam="2">  1       -2 0.10710248E+00 0.24407865E+04</pdfrwt>
<totfact> 0.35076124E+00</totfact>
</mgrwt>
</event>
<event>
 6    1  0.6091287E-004  0.2714431E+04  0.7818608E-02  0.8330338E-01
          2   -1    0    0  501    0  0.00000000000E+00  0.00000000000E+00  0.12242840651E+04  0.12242840651E+04  0.00000000000E+00 0.  1.
         -2   -1    0    0    0  501 -0.00000000000E+00 -0.00000000000E+00 -0.15045805124E+04  0.15045805124E+04  0.00000000000E+00 0. -1.
         23    2    1    2    0    0 -0.54661454908E+03  0.11316298954E+04  0.37084839235E+03  0.13134624130E+04  0.91001619989E+02 0.  0.
         11    1    3    3    0    0 -0.19516106529E+03  0.50026926869E+03  0.17534755862E+03  0.56489286499E+03  0.00000000000E+00 0. -1.
        -11    1    3    3    0    0 -0.35145348379E+03  0.63136062666E+03  0.19550083373E+03  0.74856954798E+03  0.00000000000E+00 0.  1.
         22    1    1    2    0    0  0.54661454908E+03 -0.11316298954E+04 -0.65114483968E+03  0.14154021646E+04  0.00000000000E+00 0. -1.
<mgrwt>
<rscale>  0 0.27144310E+04</rscale>
<asrwt>0</asrwt>
<pdfrwt beam="1">  1        2 0.18835139E+00 0.27144310E+04</pdfrwt>
<pdfrwt beam="2">  1       -2 0.23147393E+00 0.27144310E+04</pdfrwt>
<totfact> 0.13436211E+00</totfact>
</mgrwt>
</event>
<event>
 6    1  0.6091287E-004  0.3079419E+04  0.7818608E-02  0.8221409E-01
          2   -1    0    0  501    0  0.00000000000E+00  0.00000000000E+00  0.18547380336E+04  0.18547380336E+04  0.00000000000E+00 0.  1.
         -2   -1    0    0    0  501 -0.00000000000E+00 -0.00000000000E+00 -0.12781885717E+04  0.12781885717E+04  0.00000000000E+00 0. -1.
         23    2    1    2    0    0  0.21904337021E+03  0.29235656190E+03 -0.12317827925E+04  0.12880640360E+04  0.91475437535E+02 0.  0.
         13    1    3    3    0    0  0.72041282782E+02  0.17074760531E+03 -0.57435544735E+03  0.60351377038E+03  0.00000000000E+00 0.  1.
        -13    1    3    3    0    0  0.14700208743E+03  0.12160895660E+03 -0.65742734518E+03  0.68455026566E+03  0.00000000000E+00 0. -1.
         22    1    1    2    0    0 -0.21904337021E+03 -0.29235656190E+03  0.18083322544E+04  0.18448625693E+04  0.00000000000E+00 0.  1.
<mgrwt>
<rscale>  0 0.30794187E+04</rscale>
<asrwt>0</asrwt>
<pdfrwt beam="1">  1        2 0.28534431E+00 0.30794187E+04</pdfrwt>
<pdfrwt beam="2">  1       -2 0.19664440E+00 0.30794187E+04</pdfrwt>
<totfact> 0.95775329E-01</totfact>
</mgrwt>
</event>
<event>
 6    1  0.6091287E-004  0.9681527E+03  0.7818608E-02  0.9344181E-01
          2   -1    0    0  501    0  0.00000000000E+00  0.00000000000E+00  0.10005426968E+04  0.10005426968E+04  0.00000000000E+00 0.  1.
         -2   -1    0    0    0  501 -0.00000000000E+00 -0.00000000000E+00 -0.23420281415E+03  0.23420281415E+03  0.00000000000E+00 0. -1.
         23    2    1    2    0    0  0.45726297221E+03  0.14113307758E+03  0.34870263441E+03  0.59958502536E+03  0.94343542709E+02 0.  0.
         13    1    3    3    0    0  0.20640887394E+03  0.16394465555E+02  0.16224274146E+03  0.26305153278E+03  0.00000000000E+00 0. -1.
        -13    1    3    3    0    0  0.25085409826E+03  0.12473861203E+03  0.18645989295E+03  0.33653349257E+03  0.00000000000E+00 0.  1.
         22    1    1    2    0    0 -0.45726297221E+03 -0.14113307758E+03  0.41763724827E+03  0.63516048561E+03  0.00000000000E+00 0.  1.
<mgrwt>
<rscale>  0 0.96815271E+03</rscale>
<asrwt>0</asrwt>
<pdfrwt beam="1">  1        2 0.15392964E+00 0.96815271E+03</pdfrwt>
<pdfrwt beam="2">  1       -2 0.36031203E-01 0.96815271E+03</pdfrwt>
<totfact> 0.18211955E+02</totfact>
</mgrwt>
</event>
<event>
 6    1  0.6091287E-004  0.2605372E+04  0.7818608E-02  0.8366379E-01
          2   -1    0    0  501    0  0.00000000000E+00  0.00000000000E+00  0.18100716204E+04  0.18100716204E+04  0.00000000000E+00 0.  1.
         -2   -1    0    0    0  501 -0.00000000000E+00 -0.00000000000E+00 -0.93752715183E+03  0.93752715183E+03  0.00000000000E+00 0. -1.
         23    2    1    2    0    0  0.39590598837E+03  0.11168121478E+04  0.10034819283E+04  0.15554764867E+04  0.92304903709E+02 0.  0.
         11    1    3    3    0    0  0.21525909659E+03  0.73845779133E+03  0.64337163335E+03  0.10027878374E+04  0.00000000000E+00 0. -1.
        -11    1    3    3    0    0  0.18064689179E+03  0.37835435649E+03  0.36011029492E+03  0.55268864933E+03  0.00000000000E+00 0.  1.
         22    1    1    2    0    0 -0.39590598837E+03 -0.11168121478E+04 -0.13093745973E+03  0.11921222855E+04  0.00000000000E+00 0. -1.
<mgrwt>
<rscale>  0 0.26053724E+04</rscale>
<asrwt>0</asrwt>
<pdfrwt beam="1">  1        2 0.27847256E+00 0.26053724E+04</pdfrwt>
<pdfrwt beam="2">  1       -2 0.14423495E+00 0.26053724E+04</pdfrwt>
<totfact> 0.25028143E+00</totfact>
</mgrwt>
</event>
<event>
 6    1  0.6091287E-004  0.1541765E+04  0.7818608E-02  0.8857145E-01
         -2   -1    0    0    0  501 -0.00000000000E+00  0.00000000000E+00  0.88256997654E+03  0.88256997654E+03  0.00000000000E+00 0. -1.
          2   -1    0    0  501    0  0.00000000000E+00 -0.00000000000E+00 -0.67332854215E+03  0.67332854215E+03  0.00000000000E+00 0.  1.
         23    2    1    2    0    0 -0.53302241008E+03 -0.54805261637E+03  0.28198094757E+02  0.77024512769E+03  0.89486670617E+02 0.  0.
         13    1    3    3    0    0 -0.31258564927E+03 -0.37720356144E+03 -0.38665900619E+00  0.48989025750E+03  0.00000000000E+00 0. -1.
        -13    1    3    3    0    0 -0.22043676081E+03 -0.17084905493E+03  0.28584753763E+02  0.28035487018E+03  0.00000000000E+00 0.  1.
         22    1    1    2    0    0  0.53302241008E+03  0.54805261637E+03  0.18104333963E+03  0.78565339100E+03  0.00000000000E+00 0.  1.
<mgrwt>
<rscale>  0 0.15417646E+04</rscale>
<asrwt>0</asrwt>
<pdfrwt beam="1">  1        2 0.10358901E+00 0.15417646E+04</pdfrwt>
<pdfrwt beam="2">  1       -2 0.13578000E+00 0.15417646E+04</pdfrwt>
<totfact> 0.16104460E+01</totfact>
</mgrwt>
</event>
<event>
 6    1  0.6091287E-004  0.3840275E+04  0.7818608E-02  0.8037567E-01
          2   -1    0    0  501    0  0.00000000000E+00  0.00000000000E+00  0.23225293851E+04  0.23225293851E+04  0.00000000000E+00 0.  1.
         -2   -1    0    0    0  501 -0.00000000000E+00 -0.00000000000E+00 -0.15874621628E+04  0.15874621628E+04  0.00000000000E+00 0. -1.
         23    2    1    2    0    0 -0.16377861798E+04  0.35829073476E+03  0.13185703524E+04  0.21348319145E+04  0.90353236820E+02 0.  0.
         13    1    3    3    0    0 -0.99290278162E+03  0.24079016487E+03  0.85072581884E+03  0.13295000023E+04  0.00000000000E+00 0.  1.
        -13    1    3    3    0    0 -0.64488339822E+03  0.11750056988E+03  0.46784453355E+03  0.80533191219E+03  0.00000000000E+00 0. -1.
         22    1    1    2    0    0  0.16377861798E+04 -0.35829073476E+03 -0.58350313011E+03  0.17751596335E+04  0.00000000000E+00 0. -1.
<mgrwt>
<rscale>  0 0.38402747E+04</rscale>
<asrwt>0</asrwt>
<pdfrwt beam="1">  1        2 0.35731221E+00 0.38402747E+04</pdfrwt>
<pdfrwt beam="2">  1       -2 0.24422495E+00 0.38402747E+04</pdfrwt>
<totfact> 0.24538680E-01</totfact>
</mgrwt>
</event>
<event>
 6    1  0.6091287E-004  0.2376853E+04  0.7818608E-02  0.8448221E-01
          2   -1    0    0  501    0  0.00000000000E+00  0.00000000000E+00  0.23168935074E+04  0.23168935074E+04  0.00000000000E+00 0.  1.
         -2   -1    0    0    0  501 -0.00000000000E+00 -0.00000000000E+00 -0.60959103669E+03  0.60959103669E+03  0.00000000000E+00 0. -1.
         23    2    1    2    0    0  0.87174976765E+03  0.46999546551E+03  0.49917082753E+02  0.99574123666E+03  0.90363157518E+02 0.  0.
         13    1    3    3    0    0  0.57359930710E+03  0.34104132362E+03  0.65438386599E+02  0.67052780103E+03  0.00000000000E+00 0. -1.
        -13    1    3    3    0    0  0.29815046055E+03  0.12895414189E+03 -0.15521303845E+02  0.32521343562E+03  0.00000000000E+00 0.  1.
         22    1    1    2    0    0 -0.87174976765E+03 -0.46999546551E+03  0.16573853880E+04  0.19307433075E+04  0.00000000000E+00 0.  1.
<mgrwt>
<rscale>  0 0.23768530E+04</rscale>
<asrwt>0</asrwt>
<pdfrwt beam="1">  1        2 0.35644515E+00 0.23768530E+04</pdfrwt>
<pdfrwt beam="2">  1       -2 0.93783238E-01 0.23768530E+04</pdfrwt>
<totfact> 0.38368292E+00</totfact>
</mgrwt>
</event>
<event>
 6    1  0.6091287E-004  0.2123537E+04  0.7818608E-02  0.8550946E-01
         -2   -1    0    0    0  501 -0.00000000000E+00  0.00000000000E+00  0.11606295241E+04  0.11606295241E+04  0.00000000000E+00 0. -1.
          2   -1    0    0  501    0  0.00000000000E+00 -0.00000000000E+00 -0.97132816807E+03  0.97132816807E+03  0.00000000000E+00 0.  1.
         23    2    1    2    0    0  0.28022711699E+03  0.80487349992E+03 -0.53758599126E+03  0.10118176100E+04  0.91801906380E+02 0.  0.
         13    1    3    3    0    0  0.17592960408E+03  0.44480585667E+03 -0.34947311005E+03  0.59239761171E+03  0.00000000000E+00 0. -1.
        -13    1    3    3    0    0  0.10429751290E+03  0.36006764325E+03 -0.18811288121E+03  0.41941999832E+03  0.00000000000E+00 0.  1.
         22    1    1    2    0    0 -0.28022711699E+03 -0.80487349992E+03  0.72688734731E+03  0.11201400822E+04  0.00000000000E+00 0. -1.
<mgrwt>
<rscale>  0 0.21235368E+04</rscale>
<asrwt>0</asrwt>
<pdfrwt beam="1">  1        2 0.14943510E+00 0.21235368E+04</pdfrwt>
<pdfrwt beam="2">  1       -2 0.17855839E+00 0.21235368E+04</pdfrwt>
<totfact> 0.44855299E+00</totfact>
</mgrwt>
</event>
<event>
 6    1  0.6091287E-004  0.1286756E+04  0.7818608E-02  0.9040134E-01
          1   -1    0    0  501    0  0.00000000000E+00  0.00000000000E+00  0.36066110501E+03  0.36066110501E+03  0.00000000000E+00 0.  1.
         -1   -1    0    0    0  501 -0.00000000000E+00 -0.00000000000E+00 -0.11477121178E+04  0.11477121178E+04  0.00000000000E+00 0. -1.
         23    2    1    2    0    0  0.55626731431E+03 -0.65774776305E+02 -0.75874231953E+03  0.94751581821E+03  0.91305378561E+02 0.  0.
         11    1    3    3    0    0  0.43278091722E+03 -0.12404034679E+02 -0.57347355799E+03  0.71855765537E+03  0.00000000000E+00 0.  1.
        -11    1    3    3    0    0  0.12348639709E+03 -0.53370741626E+02 -0.18526876154E+03  0.22895816284E+03  0.00000000000E+00 0. -1.
         22    1    1    2    0    0 -0.55626731431E+03  0.65774776305E+02 -0.28308693251E+02  0.56085740459E+03  0.00000000000E+00 0.  1.
<mgrwt>
<rscale>  0 0.12867558E+04</rscale>
<asrwt>0</asrwt>
<pdfrwt beam="1">  1        1 0.55486323E-01 0.12867558E+04</pdfrwt>
<pdfrwt beam="2">  1       -1 0.17657110E+00 0.12867558E+04</pdfrwt>
<totfact> 0.14914921E+01</totfact>
</mgrwt>
</event>
<event>
 6    1  0.6091287E-004  0.2238121E+04  0.7818608E-02  0.8502727E-01
         -1   -1    0    0    0  501 -0.00000000000E+00  0.00000000000E+00  0.15473831581E+04  0.15473831581E+04  0.00000000000E+00 0.  1.
          1   -1    0    0  501    0  0.00000000000E+00 -0.00000000000E+00 -0.80929985155E+03  0.80929985155E+03  0.00000000000E+00 0. -1.
         23    2    1    2    0    0  0.42060464542E+03  0.10253970475E+04  0.22149400937E+03  0.11338944446E+04  0.91157240709E+02 0.  0.
         13    1    3    3    0    0  0.36120866720E+03  0.78017292656E+03  0.17227354595E+03  0.87682362607E+03  0.00000000000E+00 0. -1.
        -13    1    3    3    0    0  0.59395978219E+02  0.24522412097E+03  0.49220463415E+02  0.25707081855E+03  0.00000000000E+00 0.  1.
         22    1    1    2    0    0 -0.42060464542E+03 -0.10253970475E+04  0.51658929721E+03  0.12227885651E+04  0.00000000000E+00 0. -1.
<mgrwt>
<rscale>  0 0.22381215E+04</rscale>
<asrwt>0</asrwt>
<pdfrwt beam="1">  1        1 0.12450767E+00 0.22381215E+04</pdfrwt>
<pdfrwt beam="2">  1       -1 0.23805895E+00 0.22381215E+04</pdfrwt>
<totfact> 0.16463829E+00</totfact>
</mgrwt>
</event>
<event>
 6    1  0.6091287E-004  0.2165277E+04  0.7818608E-02  0.8533021E-01
          2   -1    0    0  501    0  0.00000000000E+00  0.00000000000E+00  0.80291387295E+03  0.80291387295E+03  0.00000000000E+00 0.  1.
         -2   -1    0    0    0  501 -0.00000000000E+00 -0.00000000000E+00 -0.14598149992E+04  0.14598149992E+04  0.00000000000E+00 0. -1.
         23    2    1    2    0    0  0.60113913183E+03 -0.84329959248E+03 -0.65199123863E+03  0.12270906315E+04  0.90201907660E+02 0.  0.
         11    1    3    3    0    0  0.37942077603E+03 -0.51549130727E+03 -0.35188566243E+03  0.73042106527E+03  0.00000000000E+00 0. -1.
        -11    1    3    3    0    0  0.22171835579E+03 -0.32780828521E+03 -0.30010557620E+03  0.49666956622E+03  0.00000000000E+00 0.  1.
         22    1    1    2    0    0 -0.60113913183E+03  0.84329959248E+03 -0.49098875982E+01  0.10356382406E+04  0.00000000000E+00 0.  1.
<mgrwt>
<rscale>  0 0.21652766E+04</rscale>
<asrwt>0</asrwt>
<pdfrwt beam="1">  1        2 0.12352521E+00 0.21652766E+04</pdfrwt>
<pdfrwt beam="2">  1       -2 0.22458692E+00 0.21652766E+04</pdfrwt>
<totfact> 0.29040554E+00</totfact>
</mgrwt>
</event>
<event>
 6    1  0.6091287E-004  0.1588095E+04  0.7818608E-02  0.8827895E-01
         -2   -1    0    0    0  501 -0.00000000000E+00  0.00000000000E+00  0.42995866620E+03  0.42995866620E+03  0.00000000000E+00 0. -1.
          2   -1    0    0  501    0  0.00000000000E+00 -0.00000000000E+00 -0.14664470160E+04  0.14664470160E+04  0.00000000000E+00 0.  1.
         23    2    1    2    0    0 -0.19709018287E+03 -0.74908397126E+03 -0.32589578248E+03  0.84525719938E+03  0.90996350933E+02 0.  0.
         11    1    3    3    0    0 -0.14978497124E+03 -0.57888762343E+03 -0.29178523684E+03  0.66534580679E+03  0.00000000000E+00 0.  1.
        -11    1    3    3    0    0 -0.47305211633E+02 -0.17019634783E+03 -0.34110545649E+02  0.17991139260E+03  0.00000000000E+00 0. -1.
         22    1    1    2    0    0  0.19709018287E+03  0.74908397126E+03 -0.71059256727E+03  0.10511484828E+04  0.00000000000E+00 0.  1.
<mgrwt>
<rscale>  0 0.15880952E+04</rscale>
<asrwt>0</asrwt>
<pdfrwt beam="1">  1        2 0.22560723E+00 0.15880952E+04</pdfrwt>
<pdfrwt beam="2">  1       -2 0.66147487E-01 0.15880952E+04</pdfrwt>
<totfact> 0.26757089E+01</totfact>
</mgrwt>
</event>
<event>
 6    1  0.6091287E-004  0.2384885E+04  0.7818608E-02  0.8445184E-01
         -2   -1    0    0    0  501 -0.00000000000E+00  0.00000000000E+00  0.67936315313E+03  0.67936315313E+03  0.00000000000E+00 0. -1.
          2   -1    0    0  501    0  0.00000000000E+00 -0.00000000000E+00 -0.20930184211E+04  0.20930184211E+04  0.00000000000E+00 0.  1.
         23    2    1    2    0    0 -0.18596591136E+03  0.60677141134E+03  0.46328419406E+03  0.79105459215E+03  0.91543746216E+02 0.  0.
         11    1    3    3    0    0 -0.13923240358E+03  0.46982477795E+03  0.40237916434E+03  0.63405833806E+03  0.00000000000E+00 0.  1.
        -11    1    3    3    0    0 -0.46733507788E+02  0.13694663340E+03  0.60905029728E+02  0.15699625408E+03  0.00000000000E+00 0. -1.
         22    1    1    2    0    0  0.18596591136E+03 -0.60677141134E+03 -0.18769394620E+04  0.19813269821E+04  0.00000000000E+00 0.  1.
<mgrwt>
<rscale>  0 0.23848854E+04</rscale>
<asrwt>0</asrwt>
<pdfrwt beam="1">  1        2 0.32200283E+00 0.23848854E+04</pdfrwt>
<pdfrwt beam="2">  1       -2 0.10451741E+00 0.23848854E+04</pdfrwt>
<totfact> 0.39672341E+00</totfact>
</mgrwt>
</event>
<event>
 6    1  0.6091287E-004  0.2069088E+04  0.7818608E-02  0.8574984E-01
         -2   -1    0    0    0  501 -0.00000000000E+00  0.00000000000E+00  0.16394001369E+04  0.16394001369E+04  0.00000000000E+00 0.  1.
          2   -1    0    0  501    0  0.00000000000E+00 -0.00000000000E+00 -0.65284947075E+03  0.65284947075E+03  0.00000000000E+00 0. -1.
         23    2    1    2    0    0 -0.53639757398E+03  0.10859766520E+03 -0.47571435378E+03  0.73092491407E+03  0.91821965548E+02 0.  0.
         11    1    3    3    0    0 -0.36543168642E+03  0.11531582661E+03 -0.31248066790E+03  0.49445143859E+03  0.00000000000E+00 0.  1.
        -11    1    3    3    0    0 -0.17096588756E+03 -0.67181614145E+01 -0.16323368588E+03  0.23647347548E+03  0.00000000000E+00 0. -1.
         22    1    1    2    0    0  0.53639757398E+03 -0.10859766520E+03  0.14622650199E+04  0.15613246936E+04  0.00000000000E+00 0.  1.
<mgrwt>
<rscale>  0 0.20690882E+04</rscale>
<asrwt>0</asrwt>
<pdfrwt beam="1">  1        2 0.10043838E+00 0.20690882E+04</pdfrwt>
<pdfrwt beam="2">  1       -2 0.25221541E+00 0.20690882E+04</pdfrwt>
<totfact> 0.25725157E+00</totfact>
</mgrwt>
</event>
<event>
 6    1  0.6091287E-004  0.2188151E+04  0.7818608E-02  0.8523376E-01
         -2   -1    0    0    0  501 -0.00000000000E+00  0.00000000000E+00  0.19535936547E+04  0.19535936547E+04  0.00000000000E+00 0. -1.
          2   -1    0    0  501    0  0.00000000000E+00 -0.00000000000E+00 -0.61271735428E+03  0.61271735428E+03  0.00000000000E+00 0.  1.
         23    2    1    2    0    0 -0.33922793107E+03 -0.10346545011E+04  0.77319730135E+03  0.13383676179E+04  0.88364517242E+02 0.  0.
         11    1    3    3    0    0 -0.18993275061E+03 -0.50748396042E+03  0.33779161117E+03  0.63852767553E+03  0.00000000000E+00 0. -1.
        -11    1    3    3    0    0 -0.14929518047E+03 -0.52717054065E+03  0.43540569017E+03  0.69983994232E+03  0.00000000000E+00 0.  1.
         22    1    1    2    0    0  0.33922793107E+03  0.10346545011E+04  0.56767899907E+03  0.12279433911E+04  0.00000000000E+00 0.  1.
<mgrwt>
<rscale>  0 0.21881506E+04</rscale>
<asrwt>0</asrwt>
<pdfrwt beam="1">  1        2 0.94264209E-01 0.21881506E+04</pdfrwt>
<pdfrwt beam="2">  1       -2 0.30055287E+00 0.21881506E+04</pdfrwt>
<totfact> 0.13958541E+00</totfact>
</mgrwt>
</event>
<event>
 6    1  0.6091287E-004  0.2005648E+04  0.7818608E-02  0.8603985E-01
         -1   -1    0    0    0  501 -0.00000000000E+00  0.00000000000E+00  0.10038651018E+04  0.10038651018E+04  0.00000000000E+00 0. -1.
          1   -1    0    0  501    0  0.00000000000E+00 -0.00000000000E+00 -0.10017840731E+04  0.10017840731E+04  0.00000000000E+00 0.  1.
         23    2    1    2    0    0  0.80709205218E+03 -0.56993978702E+03 -0.15838044965E+03  0.10046612491E+04  0.89615383899E+02 0.  0.
         13    1    3    3    0    0  0.63854513800E+03 -0.42310307526E+03 -0.15257912076E+03  0.78104832990E+03  0.00000000000E+00 0.  1.
        -13    1    3    3    0    0  0.16854691418E+03 -0.14683671176E+03 -0.58013288925E+01  0.22361291917E+03  0.00000000000E+00 0. -1.
         22    1    1    2    0    0 -0.80709205218E+03  0.56993978702E+03  0.16046147833E+03  0.10009879258E+04  0.00000000000E+00 0. -1.
<mgrwt>
<rscale>  0 0.20056481E+04</rscale>
<asrwt>0</asrwt>
<pdfrwt beam="1">  1        1 0.15412063E+00 0.20056481E+04</pdfrwt>
<pdfrwt beam="2">  1       -1 0.15444079E+00 0.20056481E+04</pdfrwt>
<totfact> 0.45075068E+00</totfact>
</mgrwt>
</event>
<event>
 6    1  0.6091287E-004  0.2315606E+04  0.7818608E-02  0.8471793E-01
          2   -1    0    0  501    0  0.00000000000E+00  0.00000000000E+00  0.10099163941E+04  0.10099163941E+04  0.00000000000E+00 0.  1.
         -2   -1    0    0    0  501 -0.00000000000E+00 -0.00000000000E+00 -0.13273457544E+04  0.13273457544E+04  0.00000000000E+00 0. -1.
         23    2    1    2    0    0 -0.57836122500E+03  0.83471545430E+03  0.39844140519E+03  0.10947958314E+04  0.92578414609E+02 0.  0.
         13    1    3    3    0    0 -0.18648192381E+03  0.21618960752E+03  0.81367980094E+02  0.29687405157E+03  0.00000000000E+00 0. -1.
        -13    1    3    3    0    0 -0.39187930119E+03  0.61852584677E+03  0.31707342510E+03  0.79792177983E+03  0.00000000000E+00 0.  1.
         22    1    1    2    0    0  0.57836122500E+03 -0.83471545430E+03 -0.71587076555E+03  0.12424663171E+04  0.00000000000E+00 0. -1.
<mgrwt>
<rscale>  0 0.23156064E+04</rscale>
<asrwt>0</asrwt>
<pdfrwt beam="1">  1        2 0.15537175E+00 0.23156064E+04</pdfrwt>
<pdfrwt beam="2">  1       -2 0.20420704E+00 0.23156064E+04</pdfrwt>
<totfact> 0.28050571E+00</totfact>
</mgrwt>
</event>
<event>
 6    1  0.6091287E-004  0.3163666E+04  0.7818608E-02  0.8198479E-01
         -2   -1    0    0    0  501 -0.00000000000E+00  0.00000000000E+00  0.10472741078E+04  0.10472741078E+04  0.00000000000E+00 0. -1.
          2   -1    0    0  501    0  0.00000000000E+00 -0.00000000000E+00 -0.23892464069E+04  0.23892464069E+04  0.00000000000E+00 0.  1.
         23    2    1    2    0    0 -0.18762132570E+03 -0.76589173137E+03 -0.21594299843E+04  0.23007260908E+04  0.91710314319E+02 0.  0.
         11    1    3    3    0    0 -0.13338140263E+03 -0.66742921170E+03 -0.18880931404E+04  0.20070246780E+04  0.00000000000E+00 0. -1.
        -11    1    3    3    0    0 -0.54239923069E+02 -0.98462519673E+02 -0.27133684393E+03  0.29370141285E+03  0.00000000000E+00 0.  1.
         22    1    1    2    0    0  0.18762132570E+03  0.76589173137E+03  0.81745768527E+03  0.11357944238E+04  0.00000000000E+00 0. -1.
<mgrwt>
<rscale>  0 0.31636662E+04</rscale>
<asrwt>0</asrwt>
<pdfrwt beam="1">  1        2 0.36757637E+00 0.31636662E+04</pdfrwt>
<pdfrwt beam="2">  1       -2 0.16111910E+00 0.31636662E+04</pdfrwt>
<totfact> 0.84158951E-01</totfact>
</mgrwt>
</event>
<event>
 6    1  0.6091287E-004  0.1965816E+04  0.7818608E-02  0.8622772E-01
         -2   -1    0    0    0  501 -0.00000000000E+00  0.00000000000E+00  0.60637864909E+03  0.60637864909E+03  0.00000000000E+00 0.  1.
          2   -1    0    0  501    0  0.00000000000E+00 -0.00000000000E+00 -0.15932425494E+04  0.15932425494E+04  0.00000000000E+00 0. -1.
         23    2    1    2    0    0 -0.19944025502E+03 -0.95793492770E+03 -0.41610266939E+03  0.10668440255E+04  0.87172255716E+02 0.  0.
         13    1    3    3    0    0 -0.15926963908E+03 -0.65480577779E+03 -0.32227570353E+03  0.74699334244E+03  0.00000000000E+00 0.  1.
        -13    1    3    3    0    0 -0.40170615940E+02 -0.30312914991E+03 -0.93826965854E+02  0.31985068303E+03  0.00000000000E+00 0. -1.
         22    1    1    2    0    0  0.19944025502E+03  0.95793492770E+03 -0.57076123094E+03  0.11327771730E+04  0.00000000000E+00 0.  1.
<mgrwt>
<rscale>  0 0.19658161E+04</rscale>
<asrwt>0</asrwt>
<pdfrwt beam="1">  1        2 0.24511424E+00 0.19658161E+04</pdfrwt>
<pdfrwt beam="2">  1       -2 0.93289024E-01 0.19658161E+04</pdfrwt>
<totfact> 0.10191500E+01</totfact>
</mgrwt>
</event>
<event>
 6    1  0.6091287E-004  0.1089624E+04  0.7818608E-02  0.9215364E-01
         -4   -1    0    0    0  501 -0.00000000000E+00  0.00000000000E+00  0.21954686745E+03  0.21954686745E+03  0.00000000000E+00 0. -1.
          4   -1    0    0  501    0  0.00000000000E+00 -0.00000000000E+00 -0.13519670389E+04  0.13519670389E+04  0.00000000000E+00 0.  1.
         23    2    1    2    0    0 -0.49106224477E+03  0.20430490303E+03 -0.42668263911E+03  0.68780123462E+03  0.90165637492E+02 0.  0.
         13    1    3    3    0    0 -0.39321493974E+03  0.12310623163E+03 -0.33518110234E+03  0.53114922994E+03  0.00000000000E+00 0.  1.
        -13    1    3    3    0    0 -0.97847305029E+02  0.81198671395E+02 -0.91501536772E+02  0.15665200468E+03  0.00000000000E+00 0. -1.
         22    1    1    2    0    0  0.49106224477E+03 -0.20430490303E+03 -0.70573753234E+03  0.88371267174E+03  0.00000000000E+00 0. -1.
<mgrwt>
<rscale>  0 0.10896240E+04</rscale>
<asrwt>0</asrwt>
<pdfrwt beam="1">  1        4 0.20799493E+00 0.10896240E+04</pdfrwt>
<pdfrwt beam="2">  1       -4 0.33776441E-01 0.10896240E+04</pdfrwt>
<totfact> 0.19772003E+00</totfact>
</mgrwt>
</event>
<event>
 6    1  0.6091287E-004  0.9844276E+03  0.7818608E-02  0.9325791E-01
         -2   -1    0    0    0  501 -0.00000000000E+00  0.00000000000E+00  0.14710772313E+03  0.14710772313E+03  0.00000000000E+00 0. -1.
          2   -1    0    0  501    0  0.00000000000E+00 -0.00000000000E+00 -0.16469186090E+04  0.16469186090E+04  0.00000000000E+00 0.  1.
         23    2    1    2    0    0 -0.23871126314E+03  0.19124849790E+03 -0.64280205899E+02  0.32627043000E+03  0.93602315798E+02 0.  0.
         11    1    3    3    0    0 -0.20242129277E+03  0.15978469276E+03 -0.16332174075E+02  0.25840330438E+03  0.00000000000E+00 0. -1.
        -11    1    3    3    0    0 -0.36289970366E+02  0.31463805144E+02 -0.47948031824E+02  0.67867125614E+02  0.00000000000E+00 0.  1.
         22    1    1    2    0    0  0.23871126314E+03 -0.19124849790E+03 -0.14355306800E+04  0.14677559021E+04  0.00000000000E+00 0.  1.
<mgrwt>
<rscale>  0 0.98442764E+03</rscale>
<asrwt>0</asrwt>
<pdfrwt beam="1">  1        2 0.25337210E+00 0.98442764E+03</pdfrwt>
<pdfrwt beam="2">  1       -2 0.22631957E-01 0.98442764E+03</pdfrwt>
<totfact> 0.18007842E+02</totfact>
</mgrwt>
</event>
<event>
 6    1  0.6091287E-004  0.5606804E+03  0.7818608E-02  0.9990516E-01
          2   -1    0    0  501    0  0.00000000000E+00  0.00000000000E+00  0.10701388695E+04  0.10701388695E+04  0.00000000000E+00 0. -1.
         -2   -1    0    0    0  501 -0.00000000000E+00 -0.00000000000E+00 -0.73439654568E+02  0.73439654568E+02  0.00000000000E+00 0.  1.
         23    2    1    2    0    0 -0.11431285908E+03 -0.22506748267E+02  0.10150120667E+04  0.10256406421E+04  0.90084669560E+02 0.  0.
         13    1    3    3    0    0 -0.51626691282E+02 -0.43529036535E+02  0.72735207544E+03  0.73048007086E+03  0.00000000000E+00 0.  1.
        -13    1    3    3    0    0 -0.62686167797E+02  0.21022288268E+02  0.28765999122E+03  0.29516057119E+03  0.00000000000E+00 0. -1.
         22    1    1    2    0    0  0.11431285908E+03  0.22506748267E+02 -0.18312851758E+02  0.11793788199E+03  0.00000000000E+00 0.  1.
<mgrwt>
<rscale>  0 0.56068040E+03</rscale>
<asrwt>0</asrwt>
<pdfrwt beam="1">  1        2 0.16463674E+00 0.56068040E+03</pdfrwt>
<pdfrwt beam="2">  1       -2 0.11298409E-01 0.56068040E+03</pdfrwt>
<totfact> 0.12897757E+03</totfact>
</mgrwt>
</event>
<event>
 6    1  0.6091287E-004  0.1811754E+04  0.7818608E-02  0.8700074E-01
         -2   -1    0    0    0  501 -0.00000000000E+00  0.00000000000E+00  0.41103685271E+03  0.41103685271E+03  0.00000000000E+00 0. -1.
          2   -1    0    0  501    0  0.00000000000E+00 -0.00000000000E+00 -0.19964456079E+04  0.19964456079E+04  0.00000000000E+00 0.  1.
         23    2    1    2    0    0 -0.52669297969E+03  0.25850619167E+03  0.11836430613E+03  0.60551864563E+03  0.91715730614E+02 0.  0.
         11    1    3    3    0    0 -0.31217615175E+03  0.19727326310E+03  0.94338205226E+02  0.38114352549E+03  0.00000000000E+00 0. -1.
        -11    1    3    3    0    0 -0.21451682794E+03  0.61232928575E+02  0.24026100908E+02  0.22437512014E+03  0.00000000000E+00 0.  1.
         22    1    1    2    0    0  0.52669297969E+03 -0.25850619167E+03 -0.17037730613E+04  0.18019638150E+04  0.00000000000E+00 0.  1.
<mgrwt>
<rscale>  0 0.18117535E+04</rscale>
<asrwt>0</asrwt>
<pdfrwt beam="1">  1        2 0.30714548E+00 0.18117535E+04</pdfrwt>
<pdfrwt beam="2">  1       -2 0.63236438E-01 0.18117535E+04</pdfrwt>
<totfact> 0.14660419E+01</totfact>
</mgrwt>
</event>
<event>
 6    1  0.6091287E-004  0.2735170E+04  0.7818608E-02  0.8323683E-01
         -2   -1    0    0    0  501 -0.00000000000E+00  0.00000000000E+00  0.14691002052E+04  0.14691002052E+04  0.00000000000E+00 0.  1.
          2   -1    0    0  501    0  0.00000000000E+00 -0.00000000000E+00 -0.12730842748E+04  0.12730842748E+04  0.00000000000E+00 0. -1.
         23    2    1    2    0    0  0.88673401496E+03 -0.35965085214E+03 -0.87925135550E+03  0.13027937461E+04  0.92426457655E+02 0.  0.
         13    1    3    3    0    0  0.56825660996E+03 -0.19591914019E+03 -0.59276097153E+03  0.84419515139E+03  0.00000000000E+00 0. -1.
        -13    1    3    3    0    0  0.31847740499E+03 -0.16373171195E+03 -0.28649038397E+03  0.45859859474E+03  0.00000000000E+00 0.  1.
         22    1    1    2    0    0 -0.88673401496E+03  0.35965085214E+03  0.10752672859E+04  0.14393907339E+04  0.00000000000E+00 0.  1.
<mgrwt>
<rscale>  0 0.27351697E+04</rscale>
<asrwt>0</asrwt>
<pdfrwt beam="1">  1        2 0.19585912E+00 0.27351697E+04</pdfrwt>
<pdfrwt beam="2">  1       -2 0.22601542E+00 0.27351697E+04</pdfrwt>
<totfact> 0.13580800E+00</totfact>
</mgrwt>
</event>
<event>
 6    1  0.6091287E-004  0.3323376E+04  0.7818608E-02  0.8156973E-01
          2   -1    0    0  501    0  0.00000000000E+00  0.00000000000E+00  0.20196534229E+04  0.20196534229E+04  0.00000000000E+00 0.  1.
         -2   -1    0    0    0  501 -0.00000000000E+00 -0.00000000000E+00 -0.13671690069E+04  0.13671690069E+04  0.00000000000E+00 0. -1.
         23    2    1    2    0    0  0.11568101401E+04  0.12042976503E+03 -0.88119679963E+03  0.14620130626E+04  0.90892062114E+02 0.  0.
         11    1    3    3    0    0  0.63943259599E+03  0.37897288310E+02 -0.52854590912E+03  0.83046434440E+03  0.00000000000E+00 0. -1.
        -11    1    3    3    0    0  0.51737754415E+03  0.82532476723E+02 -0.35265089051E+03  0.63154871822E+03  0.00000000000E+00 0.  1.
         22    1    1    2    0    0 -0.11568101401E+04 -0.12042976503E+03  0.15336812156E+04  0.19248093671E+04  0.00000000000E+00 0.  1.
<mgrwt>
<rscale>  0 0.33233763E+04</rscale>
<asrwt>0</asrwt>
<pdfrwt beam="1">  1        2 0.31071591E+00 0.33233763E+04</pdfrwt>
<pdfrwt beam="2">  1       -2 0.21033369E+00 0.33233763E+04</pdfrwt>
<totfact> 0.61887660E-01</totfact>
</mgrwt>
</event>
<event>
 6    1  0.6091287E-004  0.3290015E+04  0.7818608E-02  0.8165441E-01
         -2   -1    0    0    0  501 -0.00000000000E+00  0.00000000000E+00  0.10751132500E+04  0.10751132500E+04  0.00000000000E+00 0. -1.
          2   -1    0    0  501    0  0.00000000000E+00 -0.00000000000E+00 -0.25169908876E+04  0.25169908876E+04  0.00000000000E+00 0.  1.
         23    2    1    2    0    0 -0.98446548343E+03 -0.81724948257E+03 -0.18482531456E+04  0.22496399637E+04  0.88154814715E+02 0.  0.
         11    1    3    3    0    0 -0.67031624690E+03 -0.56250518596E+03 -0.11909778051E+04  0.14778917712E+04  0.00000000000E+00 0.  1.
        -11    1    3    3    0    0 -0.31414923652E+03 -0.25474429661E+03 -0.65727534048E+03  0.77174819253E+03  0.00000000000E+00 0. -1.
         22    1    1    2    0    0  0.98446548343E+03  0.81724948257E+03  0.40637550800E+03  0.13424641739E+04  0.00000000000E+00 0.  1.
<mgrwt>
<rscale>  0 0.32900154E+04</rscale>
<asrwt>0</asrwt>
<pdfrwt beam="1">  1        2 0.38722937E+00 0.32900154E+04</pdfrwt>
<pdfrwt beam="2">  1       -2 0.16540204E+00 0.32900154E+04</pdfrwt>
<totfact> 0.65401580E-01</totfact>
</mgrwt>
</event>
<event>
 6    1  0.6091287E-004  0.2593998E+04  0.7818608E-02  0.8370243E-01
          2   -1    0    0  501    0  0.00000000000E+00  0.00000000000E+00  0.10517685344E+04  0.10517685344E+04  0.00000000000E+00 0.  1.
         -2   -1    0    0    0  501 -0.00000000000E+00 -0.00000000000E+00 -0.15994071034E+04  0.15994071034E+04  0.00000000000E+00 0. -1.
         23    2    1    2    0    0 -0.93651302914E+03  0.88646039990E+03 -0.15009638209E+03  0.13017652166E+04  0.95890880339E+02 0.  0.
         11    1    3    3    0    0 -0.15430318289E+03  0.16676748515E+03  0.69064355468E+01  0.22730720447E+03  0.00000000000E+00 0.  1.
        -11    1    3    3    0    0 -0.78220984624E+03  0.71969291476E+03 -0.15700281764E+03  0.10744580121E+04  0.00000000000E+00 0. -1.
         22    1    1    2    0    0  0.93651302914E+03 -0.88646039990E+03 -0.39754218693E+03  0.13494104212E+04  0.00000000000E+00 0. -1.
<mgrwt>
<rscale>  0 0.25939977E+04</rscale>
<asrwt>0</asrwt>
<pdfrwt beam="1">  1        2 0.16181054E+00 0.25939977E+04</pdfrwt>
<pdfrwt beam="2">  1       -2 0.24606263E+00 0.25939977E+04</pdfrwt>
<totfact> 0.14040267E+00</totfact>
</mgrwt>
</event>
<event>
 6    1  0.6091287E-004  0.3606375E+04  0.7818608E-02  0.8089033E-01
          2   -1    0    0  501    0  0.00000000000E+00  0.00000000000E+00  0.35423302967E+04  0.35423302967E+04  0.00000000000E+00 0.  1.
         -2   -1    0    0    0  501 -0.00000000000E+00 -0.00000000000E+00 -0.91789431937E+03  0.91789431937E+03  0.00000000000E+00 0. -1.
         23    2    1    2    0    0  0.74918859486E+03 -0.37644226049E+03  0.32859192629E+04  0.33922581077E+04  0.84601068000E+02 0.  0.
         13    1    3    3    0    0  0.16823595049E+03 -0.12534872511E+03  0.82573541833E+03  0.85197102005E+03  0.00000000000E+00 0. -1.
        -13    1    3    3    0    0  0.58095264438E+03 -0.25109353538E+03  0.24601838445E+04  0.25402870876E+04  0.00000000000E+00 0.  1.
         22    1    1    2    0    0 -0.74918859486E+03  0.37644226049E+03 -0.66148328551E+03  0.10679665084E+04  0.00000000000E+00 0. -1.
<mgrwt>
<rscale>  0 0.36063748E+04</rscale>
<asrwt>0</asrwt>
<pdfrwt beam="1">  1        2 0.54497389E+00 0.36063748E+04</pdfrwt>
<pdfrwt beam="2">  1       -2 0.14121451E+00 0.36063748E+04</pdfrwt>
<totfact> 0.21674786E-01</totfact>
</mgrwt>
</event>
<event>
 6    1  0.6091287E-004  0.5633051E+03  0.7818608E-02  0.9984604E-01
         -2   -1    0    0    0  501 -0.00000000000E+00  0.00000000000E+00  0.14787751645E+03  0.14787751645E+03  0.00000000000E+00 0. -1.
          2   -1    0    0  501    0  0.00000000000E+00 -0.00000000000E+00 -0.53644511028E+03  0.53644511028E+03  0.00000000000E+00 0.  1.
         23    2    1    2    0    0 -0.29510601028E+02 -0.24519000831E+03 -0.54531162475E+02  0.26890795050E+03  0.91371890710E+02 0.  0.
         13    1    3    3    0    0  0.19168711646E+02 -0.16796977508E+03 -0.15965187833E+02  0.16981216702E+03  0.00000000000E+00 0.  1.
        -13    1    3    3    0    0 -0.48679312674E+02 -0.77220233235E+02 -0.38565974643E+02  0.99095783480E+02  0.00000000000E+00 0. -1.
         22    1    1    2    0    0  0.29510601028E+02  0.24519000831E+03 -0.33403643136E+03  0.41541467623E+03  0.00000000000E+00 0. -1.
<mgrwt>
<rscale>  0 0.56330514E+03</rscale>
<asrwt>0</asrwt>
<pdfrwt beam="1">  1        2 0.82530017E-01 0.56330514E+03</pdfrwt>
<pdfrwt beam="2">  1       -2 0.22750387E-01 0.56330514E+03</pdfrwt>
<totfact> 0.96629673E+02</totfact>
</mgrwt>
</event>
<event>
 6    1  0.6091287E-004  0.1278704E+04  0.7818608E-02  0.9046626E-01
         -2   -1    0    0    0  501 -0.00000000000E+00  0.00000000000E+00  0.48509871500E+03  0.48509871500E+03  0.00000000000E+00 0. -1.
          2   -1    0    0  501    0  0.00000000000E+00 -0.00000000000E+00 -0.84265468089E+03  0.84265468089E+03  0.00000000000E+00 0.  1.
         23    2    1    2    0    0 -0.32630552447E+03  0.24992819986E+03 -0.68381855822E+03  0.80298041684E+03  0.90721160034E+02 0.  0.
         11    1    3    3    0    0 -0.79763933046E+02  0.73972337005E+02 -0.11346656683E+03  0.15719050050E+03  0.00000000000E+00 0. -1.
        -11    1    3    3    0    0 -0.24654159143E+03  0.17595586286E+03 -0.57035199138E+03  0.64578991634E+03  0.00000000000E+00 0.  1.
         22    1    1    2    0    0  0.32630552447E+03 -0.24992819986E+03  0.32626259233E+03  0.52477297905E+03  0.00000000000E+00 0. -1.
<mgrwt>
<rscale>  0 0.12787036E+04</rscale>
<asrwt>0</asrwt>
<pdfrwt beam="1">  1        2 0.12963918E+00 0.12787036E+04</pdfrwt>
<pdfrwt beam="2">  1       -2 0.74630573E-01 0.12787036E+04</pdfrwt>
<totfact> 0.50916033E+01</totfact>
</mgrwt>
</event>
<event>
 6    1  0.6091287E-004  0.1372440E+04  0.7818608E-02  0.8974013E-01
         -2   -1    0    0    0  501 -0.00000000000E+00  0.00000000000E+00  0.80375071051E+03  0.80375071051E+03  0.00000000000E+00 0. -1.
          2   -1    0    0  501    0  0.00000000000E+00 -0.00000000000E+00 -0.58587555305E+03  0.58587555305E+03  0.00000000000E+00 0.  1.
         23    2    1    2    0    0  0.42878474407E+03  0.50157835616E+03 -0.70000134665E+02  0.66968919135E+03  0.90257354473E+02 0.  0.
         13    1    3    3    0    0  0.21605015341E+03  0.31964158474E+03 -0.50295482733E+02  0.38907331837E+03  0.00000000000E+00 0.  1.
        -13    1    3    3    0    0  0.21273459066E+03  0.18193677142E+03 -0.19704651932E+02  0.28061587298E+03  0.00000000000E+00 0. -1.
         22    1    1    2    0    0 -0.42878474407E+03 -0.50157835616E+03  0.28787529212E+03  0.71993707220E+03  0.00000000000E+00 0. -1.
<mgrwt>
<rscale>  0 0.13724400E+04</rscale>
<asrwt>0</asrwt>
<pdfrwt beam="1">  1        2 0.90134700E-01 0.13724400E+04</pdfrwt>
<pdfrwt beam="2">  1       -2 0.12365396E+00 0.13724400E+04</pdfrwt>
<totfact> 0.24518722E+01</totfact>
</mgrwt>
</event>
<event>
 6    1  0.6091287E-004  0.2705885E+04  0.7818608E-02  0.8333098E-01
         -2   -1    0    0    0  501 -0.00000000000E+00  0.00000000000E+00  0.14169596469E+04  0.14169596469E+04  0.00000000000E+00 0. -1.
          2   -1    0    0  501    0  0.00000000000E+00 -0.00000000000E+00 -0.12918172308E+04  0.12918172308E+04  0.00000000000E+00 0.  1.
         23    2    1    2    0    0  0.11784813881E+04 -0.22351517208E+03  0.68669022191E+03  0.13843474336E+04  0.78082916340E+02 0.  0.
         13    1    3    3    0    0  0.23262296136E+03 -0.64722083377E+02  0.11110995294E+03  0.26579656106E+03  0.00000000000E+00 0.  1.
        -13    1    3    3    0    0  0.94585842675E+03 -0.15879308871E+03  0.57558026896E+03  0.11185508726E+04  0.00000000000E+00 0. -1.
         22    1    1    2    0    0 -0.11784813881E+04  0.22351517208E+03 -0.56154780575E+03  0.13244294441E+04  0.00000000000E+00 0.  1.
<mgrwt>
<rscale>  0 0.27058846E+04</rscale>
<asrwt>0</asrwt>
<pdfrwt beam="1">  1        2 0.19874111E+00 0.27058846E+04</pdfrwt>
<pdfrwt beam="2">  1       -2 0.21799379E+00 0.27058846E+04</pdfrwt>
<totfact> 0.14917332E+00</totfact>
</mgrwt>
</event>
<event>
 6    1  0.6091287E-004  0.4184954E+04  0.7818608E-02  0.7968240E-01
         -2   -1    0    0    0  501 -0.00000000000E+00  0.00000000000E+00  0.21739504655E+04  0.21739504655E+04  0.00000000000E+00 0. -1.
          2   -1    0    0  501    0  0.00000000000E+00 -0.00000000000E+00 -0.20140568177E+04  0.20140568177E+04  0.00000000000E+00 0.  1.
         23    2    1    2    0    0  0.11617271476E+04  0.43563416620E+03  0.17653953057E+04  0.21589625165E+04  0.71494544450E+02 0.  0.
         13    1    3    3    0    0  0.30435971606E+03  0.80959106322E+02  0.44539837744E+03  0.54549878852E+03  0.00000000000E+00 0.  1.
        -13    1    3    3    0    0  0.85736743158E+03  0.35467505988E+03  0.13199969282E+04  0.16134637279E+04  0.00000000000E+00 0. -1.
         22    1    1    2    0    0 -0.11617271476E+04 -0.43563416620E+03 -0.16055016578E+04  0.20290447668E+04  0.00000000000E+00 0.  1.
<mgrwt>
<rscale>  0 0.41849539E+04</rscale>
<asrwt>0</asrwt>
<pdfrwt beam="1">  1        2 0.30985489E+00 0.41849539E+04</pdfrwt>
<pdfrwt beam="2">  1       -2 0.33445392E+00 0.41849539E+04</pdfrwt>
<totfact> 0.99310127E-02</totfact>
</mgrwt>
</event>
<event>
 6    1  0.6091287E-004  0.2330922E+04  0.7818608E-02  0.8465828E-01
         -1   -1    0    0    0  501 -0.00000000000E+00  0.00000000000E+00  0.58326651813E+03  0.58326651813E+03  0.00000000000E+00 0. -1.
          1   -1    0    0  501    0  0.00000000000E+00 -0.00000000000E+00 -0.23287790485E+04  0.23287790485E+04  0.00000000000E+00 0.  1.
         23    2    1    2    0    0  0.29889433970E+03  0.95297608227E+03 -0.12741700640E+03  0.10105371222E+04  0.86307253889E+02 0.  0.
         11    1    3    3    0    0  0.51713026931E+02  0.11329553344E+03  0.80961219564E+01  0.12480249294E+03  0.00000000000E+00 0. -1.
        -11    1    3    3    0    0  0.24718131277E+03  0.83968054883E+03 -0.13551312835E+03  0.88573462923E+03  0.00000000000E+00 0.  1.
         22    1    1    2    0    0 -0.29889433970E+03 -0.95297608227E+03 -0.16180955240E+04  0.19015084445E+04  0.00000000000E+00 0.  1.
<mgrwt>
<rscale>  0 0.23309216E+04</rscale>
<asrwt>0</asrwt>
<pdfrwt beam="1">  1        1 0.35827371E+00 0.23309216E+04</pdfrwt>
<pdfrwt beam="2">  1       -1 0.89733309E-01 0.23309216E+04</pdfrwt>
<totfact> 0.19489381E+00</totfact>
</mgrwt>
</event>
<event>
 6    1  0.6091287E-004  0.2403153E+04  0.7818608E-02  0.8438324E-01
          2   -1    0    0  501    0  0.00000000000E+00  0.00000000000E+00  0.24996501403E+04  0.24996501403E+04  0.00000000000E+00 0.  1.
         -2   -1    0    0    0  501 -0.00000000000E+00 -0.00000000000E+00 -0.57759514378E+03  0.57759514378E+03  0.00000000000E+00 0. -1.
         23    2    1    2    0    0 -0.90341567543E+03 -0.66545344534E+03  0.15068971145E+04  0.18808572878E+04  0.88865363732E+02 0.  0.
         13    1    3    3    0    0 -0.70104999153E+03 -0.49331878474E+03  0.10935036523E+04  0.13894548397E+04  0.00000000000E+00 0. -1.
        -13    1    3    3    0    0 -0.20236568391E+03 -0.17213466061E+03  0.41339346227E+03  0.49140244816E+03  0.00000000000E+00 0.  1.
         22    1    1    2    0    0  0.90341567543E+03  0.66545344534E+03  0.41515788196E+03  0.11963879962E+04  0.00000000000E+00 0. -1.
<mgrwt>
<rscale>  0 0.24031527E+04</rscale>
<asrwt>0</asrwt>
<pdfrwt beam="1">  1        2 0.38456155E+00 0.24031527E+04</pdfrwt>
<pdfrwt beam="2">  1       -2 0.88860793E-01 0.24031527E+04</pdfrwt>
<totfact> 0.34071180E+00</totfact>
</mgrwt>
</event>
<event>
 6    1  0.6091287E-004  0.3115494E+04  0.7818608E-02  0.8211499E-01
         -2   -1    0    0    0  501 -0.00000000000E+00  0.00000000000E+00  0.75589604152E+03  0.75589604152E+03  0.00000000000E+00 0. -1.
          2   -1    0    0  501    0  0.00000000000E+00 -0.00000000000E+00 -0.32101970998E+04  0.32101970998E+04  0.00000000000E+00 0.  1.
         23    2    1    2    0    0 -0.11905398353E+04  0.34752793472E+03 -0.24253079785E+04  0.27255282041E+04  0.90688676476E+02 0.  0.
         13    1    3    3    0    0 -0.61676206823E+03  0.15683423626E+03 -0.11570271011E+04  0.13204938997E+04  0.00000000000E+00 0. -1.
        -13    1    3    3    0    0 -0.57377776707E+03  0.19069369846E+03 -0.12682808774E+04  0.14050343044E+04  0.00000000000E+00 0.  1.
         22    1    1    2    0    0  0.11905398353E+04 -0.34752793472E+03 -0.28993079832E+02  0.12405649372E+04  0.00000000000E+00 0. -1.
<mgrwt>
<rscale>  0 0.31154937E+04</rscale>
<asrwt>0</asrwt>
<pdfrwt beam="1">  1        2 0.49387648E+00 0.31154937E+04</pdfrwt>
<pdfrwt beam="2">  1       -2 0.11629170E+00 0.31154937E+04</pdfrwt>
<totfact> 0.62073480E-01</totfact>
</mgrwt>
</event>
<event>
 6    1  0.6091287E-004  0.4722715E+04  0.7818608E-02  0.7872765E-01
         -2   -1    0    0    0  501 -0.00000000000E+00  0.00000000000E+00  0.25071488421E+04  0.25071488421E+04  0.00000000000E+00 0. -1.
          2   -1    0    0  501    0  0.00000000000E+00 -0.00000000000E+00 -0.22240435883E+04  0.22240435883E+04  0.00000000000E+00 0.  1.
         23    2    1    2    0    0 -0.32721662658E+03 -0.19006312557E+04 -0.12219032810E+04  0.22848644515E+04  0.89933545095E+02 0.  0.
         11    1    3    3    0    0 -0.34576518493E+02 -0.41848568476E+03 -0.26977514641E+03  0.49910363012E+03  0.00000000000E+00 0.  1.
        -11    1    3    3    0    0 -0.29264010808E+03 -0.14821455710E+04 -0.95212813454E+03  0.17857608213E+04  0.00000000000E+00 0. -1.
         22    1    1    2    0    0  0.32721662658E+03  0.19006312557E+04  0.15050085347E+04  0.24463279790E+04  0.00000000000E+00 0. -1.
<mgrwt>
<rscale>  0 0.47227146E+04</rscale>
<asrwt>0</asrwt>
<pdfrwt beam="1">  1        2 0.34216055E+00 0.47227146E+04</pdfrwt>
<pdfrwt beam="2">  1       -2 0.38571520E+00 0.47227146E+04</pdfrwt>
<totfact> 0.34260019E-02</totfact>
</mgrwt>
</event>
<event>
 6    1  0.6091287E-004  0.2552741E+04  0.7818608E-02  0.8384433E-01
          2   -1    0    0  501    0  0.00000000000E+00  0.00000000000E+00  0.21907601705E+04  0.21907601705E+04  0.00000000000E+00 0.  1.
         -2   -1    0    0    0  501 -0.00000000000E+00 -0.00000000000E+00 -0.74363322620E+03  0.74363322620E+03  0.00000000000E+00 0. -1.
         23    2    1    2    0    0  0.98213880558E+03 -0.60580345451E+03  0.10187159592E+03  0.11620202951E+04  0.91207923321E+02 0.  0.
         13    1    3    3    0    0  0.25001493594E+03 -0.19877050189E+03  0.13166966479E+02  0.31967256626E+03  0.00000000000E+00 0.  1.
        -13    1    3    3    0    0  0.73212386965E+03 -0.40703295263E+03  0.88704629444E+02  0.84234772886E+03  0.00000000000E+00 0. -1.
         22    1    1    2    0    0 -0.98213880558E+03  0.60580345451E+03  0.13452553484E+04  0.17723731016E+04  0.00000000000E+00 0.  1.
<mgrwt>
<rscale>  0 0.25527413E+04</rscale>
<asrwt>0</asrwt>
<pdfrwt beam="1">  1        2 0.33704002E+00 0.25527413E+04</pdfrwt>
<pdfrwt beam="2">  1       -2 0.11440511E+00 0.25527413E+04</pdfrwt>
<totfact> 0.27710333E+00</totfact>
</mgrwt>
</event>
<event>
 6    1  0.6091287E-004  0.2699684E+04  0.7818608E-02  0.8335107E-01
         -2   -1    0    0    0  501 -0.00000000000E+00  0.00000000000E+00  0.91497124565E+03  0.91497124565E+03  0.00000000000E+00 0. -1.
          2   -1    0    0  501    0  0.00000000000E+00 -0.00000000000E+00 -0.19914002701E+04  0.19914002701E+04  0.00000000000E+00 0.  1.
         23    2    1    2    0    0 -0.80837173646E+03 -0.39685870781E+03 -0.16188930341E+04  0.18550728427E+04  0.97564836231E+02 0.  0.
         11    1    3    3    0    0 -0.16182892174E+03 -0.37551737904E+02 -0.29735621751E+03  0.34061628414E+03  0.00000000000E+00 0. -1.
        -11    1    3    3    0    0 -0.64654281471E+03 -0.35930696991E+03 -0.13215368166E+04  0.15144565585E+04  0.00000000000E+00 0.  1.
         22    1    1    2    0    0  0.80837173646E+03  0.39685870781E+03  0.54246400968E+03  0.10512986731E+04  0.00000000000E+00 0. -1.
<mgrwt>
<rscale>  0 0.26996844E+04</rscale>
<asrwt>0</asrwt>
<pdfrwt beam="1">  1        2 0.30636927E+00 0.26996844E+04</pdfrwt>
<pdfrwt beam="2">  1       -2 0.14076481E+00 0.26996844E+04</pdfrwt>
<totfact> 0.20987253E+00</totfact>
</mgrwt>
</event>
<event>
 6    1  0.6091287E-004  0.3007778E+04  0.7818608E-02  0.8241513E-01
          2   -1    0    0  501    0  0.00000000000E+00  0.00000000000E+00  0.21308060959E+04  0.21308060959E+04  0.00000000000E+00 0. -1.
         -2   -1    0    0    0  501 -0.00000000000E+00 -0.00000000000E+00 -0.10614208337E+04  0.10614208337E+04  0.00000000000E+00 0.  1.
         23    2    1    2    0    0  0.60283116002E+03  0.13749018606E+04  0.60037909994E+03  0.16194181956E+04  0.91102660379E+02 0.  0.
         13    1    3    3    0    0  0.26748062800E+03  0.58251668972E+03  0.20942967016E+03  0.67433846613E+03  0.00000000000E+00 0.  1.
        -13    1    3    3    0    0  0.33535053201E+03  0.79238517088E+03  0.39094942978E+03  0.94507972944E+03  0.00000000000E+00 0. -1.
         22    1    1    2    0    0 -0.60283116002E+03 -0.13749018606E+04  0.46900616223E+03  0.15728087341E+04  0.00000000000E+00 0.  1.
<mgrwt>
<rscale>  0 0.30077779E+04</rscale>
<asrwt>0</asrwt>
<pdfrwt beam="1">  1        2 0.32781632E+00 0.30077779E+04</pdfrwt>
<pdfrwt beam="2">  1       -2 0.16329551E+00 0.30077779E+04</pdfrwt>
<totfact> 0.11508919E+00</totfact>
</mgrwt>
</event>
<event>
 6    1  0.6091287E-004  0.4496430E+04  0.7818608E-02  0.7911262E-01
         -2   -1    0    0    0  501 -0.00000000000E+00  0.00000000000E+00  0.33711742546E+04  0.33711742546E+04  0.00000000000E+00 0. -1.
          2   -1    0    0  501    0  0.00000000000E+00 -0.00000000000E+00 -0.14993206112E+04  0.14993206112E+04  0.00000000000E+00 0.  1.
         23    2    1    2    0    0  0.16039784644E+04 -0.15591450558E+04  0.70676513808E+03  0.23483704747E+04  0.10791990802E+03 0.  0.
         13    1    3    3    0    0  0.25130628401E+03 -0.21848748978E+03  0.70300940723E+02  0.34034372896E+03  0.00000000000E+00 0.  1.
        -13    1    3    3    0    0  0.13526721804E+04 -0.13406575660E+04  0.63646419736E+03  0.20080267457E+04  0.00000000000E+00 0. -1.
         22    1    1    2    0    0 -0.16039784644E+04  0.15591450558E+04  0.11650885053E+04  0.25221243912E+04  0.00000000000E+00 0. -1.
<mgrwt>
<rscale>  0 0.44964302E+04</rscale>
<asrwt>0</asrwt>
<pdfrwt beam="1">  1        2 0.23066471E+00 0.44964302E+04</pdfrwt>
<pdfrwt beam="2">  1       -2 0.51864219E+00 0.44964302E+04</pdfrwt>
<totfact> 0.12311429E-02</totfact>
</mgrwt>
</event>
<event>
 6    1  0.6091287E-004  0.1713138E+04  0.7818608E-02  0.8753907E-01
         -2   -1    0    0    0  501 -0.00000000000E+00  0.00000000000E+00  0.61170932632E+03  0.61170932632E+03  0.00000000000E+00 0. -1.
          2   -1    0    0  501    0  0.00000000000E+00 -0.00000000000E+00 -0.11994424407E+04  0.11994424407E+04  0.00000000000E+00 0.  1.
         23    2    1    2    0    0 -0.52685992839E+03 -0.30309143683E+02  0.41530713731E+03  0.67775431914E+03  0.91492461370E+02 0.  0.
         11    1    3    3    0    0 -0.27273170957E+03 -0.59103317883E+02  0.19833413465E+03  0.34236269738E+03  0.00000000000E+00 0.  1.
        -11    1    3    3    0    0 -0.25412821882E+03  0.28794174199E+02  0.21697300265E+03  0.33539162176E+03  0.00000000000E+00 0. -1.
         22    1    1    2    0    0  0.52685992839E+03  0.30309143683E+02 -0.10030402517E+04  0.11333974479E+04  0.00000000000E+00 0. -1.
<mgrwt>
<rscale>  0 0.17131376E+04</rscale>
<asrwt>0</asrwt>
<pdfrwt beam="1">  1        2 0.18452961E+00 0.17131376E+04</pdfrwt>
<pdfrwt beam="2">  1       -2 0.94109127E-01 0.17131376E+04</pdfrwt>
<totfact> 0.17170027E+01</totfact>
</mgrwt>
</event>
<event>
 6    1  0.6091287E-004  0.2827107E+04  0.7818608E-02  0.8294902E-01
         -2   -1    0    0    0  501 -0.00000000000E+00  0.00000000000E+00  0.17919235949E+04  0.17919235949E+04  0.00000000000E+00 0. -1.
          2   -1    0    0  501    0  0.00000000000E+00 -0.00000000000E+00 -0.11150777582E+04  0.11150777582E+04  0.00000000000E+00 0.  1.
         23    2    1    2    0    0  0.15804615656E+03 -0.55646029768E+03  0.16634179998E+04  0.17633443751E+04  0.88302279678E+02 0.  0.
         13    1    3    3    0    0  0.15504069292E+02 -0.19697613583E+03  0.60881741409E+03  0.64007704064E+03  0.00000000000E+00 0. -1.
        -13    1    3    3    0    0  0.14254208727E+03 -0.35948416185E+03  0.10546005857E+04  0.11232673345E+04  0.00000000000E+00 0.  1.
         22    1    1    2    0    0 -0.15804615656E+03  0.55646029768E+03 -0.98657216311E+03  0.11436569781E+04  0.00000000000E+00 0.  1.
<mgrwt>
<rscale>  0 0.28271075E+04</rscale>
<asrwt>0</asrwt>
<pdfrwt beam="1">  1        2 0.17155042E+00 0.28271075E+04</pdfrwt>
<pdfrwt beam="2">  1       -2 0.27568055E+00 0.28271075E+04</pdfrwt>
<totfact> 0.82846359E-01</totfact>
</mgrwt>
</event>
<event>
 6    1  0.6091287E-004  0.1412909E+04  0.7818608E-02  0.8944527E-01
          2   -1    0    0  501    0  0.00000000000E+00  0.00000000000E+00  0.70096040287E+03  0.70096040287E+03  0.00000000000E+00 0.  1.
         -2   -1    0    0    0  501 -0.00000000000E+00 -0.00000000000E+00 -0.71199133026E+03  0.71199133026E+03  0.00000000000E+00 0. -1.
         23    2    1    2    0    0  0.15548609760E+03 -0.47753304632E+03  0.48713973107E+03  0.70557083020E+03  0.91166561687E+02 0.  0.
         13    1    3    3    0    0  0.10511702209E+02 -0.15917580322E+03  0.13165870969E+03  0.20683676669E+03  0.00000000000E+00 0. -1.
        -13    1    3    3    0    0  0.14497439540E+03 -0.31835724310E+03  0.35548102137E+03  0.49873406351E+03  0.00000000000E+00 0.  1.
         22    1    1    2    0    0 -0.15548609760E+03  0.47753304632E+03 -0.49817065846E+03  0.70738090293E+03  0.00000000000E+00 0. -1.
<mgrwt>
<rscale>  0 0.14129087E+04</rscale>
<asrwt>0</asrwt>
<pdfrwt beam="1">  1        2 0.10784006E+00 0.14129087E+04</pdfrwt>
<pdfrwt beam="2">  1       -2 0.10953713E+00 0.14129087E+04</pdfrwt>
<totfact> 0.26401825E+01</totfact>
</mgrwt>
</event>
<event>
 6    1  0.6091287E-004  0.1413288E+04  0.7818608E-02  0.8944256E-01
          2   -1    0    0  501    0  0.00000000000E+00  0.00000000000E+00  0.43982888710E+04  0.43982888710E+04  0.00000000000E+00 0.  1.
         -2   -1    0    0    0  501 -0.00000000000E+00 -0.00000000000E+00 -0.11353186218E+03  0.11353186218E+03  0.00000000000E+00 0. -1.
         23    2    1    2    0    0  0.58576616124E+02 -0.13699287225E+03  0.43468857781E+04  0.43503950507E+04  0.91229723337E+02 0.  0.
         11    1    3    3    0    0  0.23849418511E+02 -0.55151057878E+02  0.29879980109E+04  0.29886021059E+04  0.00000000000E+00 0. -1.
        -11    1    3    3    0    0  0.34727197614E+02 -0.81841814373E+02  0.13588877671E+04  0.13617929448E+04  0.00000000000E+00 0.  1.
         22    1    1    2    0    0 -0.58576616124E+02  0.13699287225E+03 -0.62128769244E+02  0.16142568250E+03  0.00000000000E+00 0. -1.
<mgrwt>
<rscale>  0 0.14132883E+04</rscale>
<asrwt>0</asrwt>
<pdfrwt beam="1">  1        2 0.67665970E+00 0.14132883E+04</pdfrwt>
<pdfrwt beam="2">  1       -2 0.17466444E-01 0.14132883E+04</pdfrwt>
<totfact> 0.42111324E+00</totfact>
</mgrwt>
</event>
<event>
 6    1  0.6091287E-004  0.1365355E+04  0.7818608E-02  0.8979285E-01
         -2   -1    0    0    0  501 -0.00000000000E+00  0.00000000000E+00  0.76586804422E+03  0.76586804422E+03  0.00000000000E+00 0. -1.
          2   -1    0    0  501    0  0.00000000000E+00 -0.00000000000E+00 -0.60852357766E+03  0.60852357766E+03  0.00000000000E+00 0.  1.
         23    2    1    2    0    0 -0.49993571445E+03 -0.42066699828E+03 -0.10712038996E+03  0.66952418585E+03  0.99455595445E+02 0.  0.
         13    1    3    3    0    0 -0.31264433708E+03 -0.24921554023E+03 -0.17312080998E+02  0.40019317229E+03  0.00000000000E+00 0.  1.
        -13    1    3    3    0    0 -0.18729137738E+03 -0.17145145805E+03 -0.89808308965E+02  0.26933101356E+03  0.00000000000E+00 0. -1.
         22    1    1    2    0    0  0.49993571445E+03  0.42066699828E+03  0.26446485653E+03  0.70486743603E+03  0.00000000000E+00 0. -1.
<mgrwt>
<rscale>  0 0.13653553E+04</rscale>
<asrwt>0</asrwt>
<pdfrwt beam="1">  1        2 0.93619012E-01 0.13653553E+04</pdfrwt>
<pdfrwt beam="2">  1       -2 0.11782585E+00 0.13653553E+04</pdfrwt>
<totfact> 0.26425969E+01</totfact>
</mgrwt>
</event>
<event>
 6    1  0.6091287E-004  0.2262196E+04  0.7818608E-02  0.8492978E-01
          2   -1    0    0  501    0  0.00000000000E+00  0.00000000000E+00  0.17197603412E+04  0.17197603412E+04  0.00000000000E+00 0.  1.
         -2   -1    0    0    0  501 -0.00000000000E+00 -0.00000000000E+00 -0.74393051858E+03  0.74393051858E+03  0.00000000000E+00 0. -1.
         23    2    1    2    0    0  0.22104906919E+03  0.56546762858E+03 -0.54996672221E+03  0.82153635238E+03  0.61985907879E+02 0.  0.
         13    1    3    3    0    0  0.94050988753E+02  0.21004399970E+03 -0.24652864042E+03  0.33725426735E+03  0.00000000000E+00 0. -1.
        -13    1    3    3    0    0  0.12699808044E+03  0.35542362888E+03 -0.30343808179E+03  0.48428208503E+03  0.00000000000E+00 0.  1.
         22    1    1    2    0    0 -0.22104906919E+03 -0.56546762858E+03  0.15257965448E+04  0.16421545074E+04  0.00000000000E+00 0.  1.
<mgrwt>
<rscale>  0 0.22621956E+04</rscale>
<asrwt>0</asrwt>
<pdfrwt beam="1">  1        2 0.26457851E+00 0.22621956E+04</pdfrwt>
<pdfrwt beam="2">  1       -2 0.11445085E+00 0.22621956E+04</pdfrwt>
<totfact> 0.51880715E+00</totfact>
</mgrwt>
</event>
<event>
 6    1  0.6091287E-004  0.5275029E+04  0.7818608E-02  0.7787427E-01
         -2   -1    0    0    0  501 -0.00000000000E+00  0.00000000000E+00  0.24784586442E+04  0.24784586442E+04  0.00000000000E+00 0. -1.
          2   -1    0    0  501    0  0.00000000000E+00 -0.00000000000E+00 -0.28067777483E+04  0.28067777483E+04  0.00000000000E+00 0.  1.
         23    2    1    2    0    0  0.59294349531E+03  0.11597395599E+04 -0.24611364561E+04  0.27861390170E+04  0.93809015565E+02 0.  0.
         11    1    3    3    0    0  0.17434374293E+03  0.34817316372E+03 -0.82967631942E+03  0.91650591249E+03  0.00000000000E+00 0.  1.
        -11    1    3    3    0    0  0.41859975238E+03  0.81156639614E+03 -0.16314601367E+04  0.18696331045E+04  0.00000000000E+00 0. -1.
         22    1    1    2    0    0 -0.59294349531E+03 -0.11597395599E+04  0.21328173520E+04  0.24990973755E+04  0.00000000000E+00 0. -1.
<mgrwt>
<rscale>  0 0.52750289E+04</rscale>
<asrwt>0</asrwt>
<pdfrwt beam="1">  1        2 0.43181196E+00 0.52750289E+04</pdfrwt>
<pdfrwt beam="2">  1       -2 0.38130133E+00 0.52750289E+04</pdfrwt>
<totfact> 0.16029049E-02</totfact>
</mgrwt>
</event>
<event>
 6    1  0.6091287E-004  0.5212826E+04  0.7818608E-02  0.7796490E-01
         -2   -1    0    0    0  501 -0.00000000000E+00  0.00000000000E+00  0.28189348464E+04  0.28189348464E+04  0.00000000000E+00 0.  1.
          2   -1    0    0  501    0  0.00000000000E+00 -0.00000000000E+00 -0.24099137684E+04  0.24099137684E+04  0.00000000000E+00 0. -1.
         23    2    1    2    0    0 -0.82051876938E+03 -0.56290664202E+02 -0.22753885440E+04  0.24212740907E+04  0.93570862495E+02 0.  0.
         13    1    3    3    0    0 -0.25833579861E+03  0.52515995298E+01 -0.82539692953E+03  0.86489597953E+03  0.00000000000E+00 0.  1.
        -13    1    3    3    0    0 -0.56218297077E+03 -0.61542263732E+02 -0.14499916144E+04  0.15563781111E+04  0.00000000000E+00 0. -1.
         22    1    1    2    0    0  0.82051876938E+03  0.56290664202E+02  0.26844096220E+04  0.28075745241E+04  0.00000000000E+00 0.  1.
<mgrwt>
<rscale>  0 0.52128264E+04</rscale>
<asrwt>0</asrwt>
<pdfrwt beam="1">  1        2 0.37075597E+00 0.52128264E+04</pdfrwt>
<pdfrwt beam="2">  1       -2 0.43368228E+00 0.52128264E+04</pdfrwt>
<totfact> 0.12531588E-02</totfact>
</mgrwt>
</event>
<event>
 6    1  0.6091287E-004  0.1619538E+04  0.7818608E-02  0.8808634E-01
         -2   -1    0    0    0  501 -0.00000000000E+00  0.00000000000E+00  0.87625353999E+03  0.87625353999E+03  0.00000000000E+00 0. -1.
          2   -1    0    0  501    0  0.00000000000E+00 -0.00000000000E+00 -0.74832888593E+03  0.74832888593E+03  0.00000000000E+00 0.  1.
         23    2    1    2    0    0 -0.14974803453E+03  0.68350766283E+02 -0.72852180356E+03  0.75246039555E+03  0.91412950501E+02 0.  0.
         11    1    3    3    0    0 -0.14655363409E+03  0.85951895821E+02 -0.64137155800E+03  0.66349315857E+03  0.00000000000E+00 0.  1.
        -11    1    3    3    0    0 -0.31944004375E+01 -0.17601129538E+02 -0.87150245560E+02  0.88967236983E+02  0.00000000000E+00 0. -1.
         22    1    1    2    0    0  0.14974803453E+03 -0.68350766283E+02  0.85644645761E+03  0.87212203037E+03  0.00000000000E+00 0. -1.
<mgrwt>
<rscale>  0 0.16195380E+04</rscale>
<asrwt>0</asrwt>
<pdfrwt beam="1">  1        2 0.11512752E+00 0.16195380E+04</pdfrwt>
<pdfrwt beam="2">  1       -2 0.13480824E+00 0.16195380E+04</pdfrwt>
<totfact> 0.14253914E+01</totfact>
</mgrwt>
</event>
<event>
 6    1  0.6091287E-004  0.2957648E+04  0.7818608E-02  0.8255929E-01
          2   -1    0    0  501    0  0.00000000000E+00  0.00000000000E+00  0.10299386502E+04  0.10299386502E+04  0.00000000000E+00 0.  1.
         -2   -1    0    0    0  501 -0.00000000000E+00 -0.00000000000E+00 -0.21233502779E+04  0.21233502779E+04  0.00000000000E+00 0. -1.
         23    2    1    2    0    0  0.10938389138E+04  0.35703688527E+03  0.44071282548E+03  0.12356088858E+04  0.92426280535E+02 0.  0.
         11    1    3    3    0    0  0.94030972389E+03  0.31607529472E+03  0.34597962074E+03  0.10506130909E+04  0.00000000000E+00 0.  1.
        -11    1    3    3    0    0  0.15352918991E+03  0.40961590549E+02  0.94733204737E+02  0.18499579491E+03  0.00000000000E+00 0. -1.
         22    1    1    2    0    0 -0.10938389138E+04 -0.35703688527E+03 -0.15341244531E+04  0.19176800423E+04  0.00000000000E+00 0. -1.
<mgrwt>
<rscale>  0 0.29576481E+04</rscale>
<asrwt>0</asrwt>
<pdfrwt beam="1">  1        2 0.15845210E+00 0.29576481E+04</pdfrwt>
<pdfrwt beam="2">  1       -2 0.32666927E+00 0.29576481E+04</pdfrwt>
<totfact> 0.45070026E-01</totfact>
</mgrwt>
</event>
<event>
 6    1  0.6091287E-004  0.3743596E+04  0.7818608E-02  0.8058368E-01
         -2   -1    0    0    0  501 -0.00000000000E+00  0.00000000000E+00  0.20168333101E+04  0.20168333101E+04  0.00000000000E+00 0. -1.
          2   -1    0    0  501    0  0.00000000000E+00 -0.00000000000E+00 -0.17371928028E+04  0.17371928028E+04  0.00000000000E+00 0.  1.
         23    2    1    2    0    0 -0.91947611723E+03  0.12774349732E+04 -0.87278561502E+03  0.18032923002E+04  0.11327819495E+03 0.  0.
         13    1    3    3    0    0 -0.17907568339E+03  0.17842136027E+03 -0.13369491532E+03  0.28596610388E+03  0.00000000000E+00 0. -1.
        -13    1    3    3    0    0 -0.74040043384E+03  0.10990136129E+04 -0.73909069970E+03  0.15173261964E+04  0.00000000000E+00 0.  1.
         22    1    1    2    0    0  0.91947611723E+03 -0.12774349732E+04  0.11524261223E+04  0.19507338128E+04  0.00000000000E+00 0. -1.
<mgrwt>
<rscale>  0 0.37435963E+04</rscale>
<asrwt>0</asrwt>
<pdfrwt beam="1">  1        2 0.26726043E+00 0.37435963E+04</pdfrwt>
<pdfrwt beam="2">  1       -2 0.31028205E+00 0.37435963E+04</pdfrwt>
<totfact> 0.20700376E-01</totfact>
</mgrwt>
</event>
<event>
 6    1  0.6091287E-004  0.3767386E+04  0.7818608E-02  0.8053190E-01
          2   -1    0    0  501    0  0.00000000000E+00  0.00000000000E+00  0.15929192346E+04  0.15929192346E+04  0.00000000000E+00 0.  1.
         -2   -1    0    0    0  501 -0.00000000000E+00 -0.00000000000E+00 -0.22275449254E+04  0.22275449254E+04  0.00000000000E+00 0. -1.
         23    2    1    2    0    0  0.41186914345E+03  0.14283923459E+04  0.85389072456E+03  0.17167479234E+04  0.90294950418E+02 0.  0.
         13    1    3    3    0    0  0.13061150415E+03  0.35191409780E+03  0.24744155800E+03  0.44958894768E+03  0.00000000000E+00 0. -1.
        -13    1    3    3    0    0  0.28125763930E+03  0.10764782481E+04  0.60644916656E+03  0.12671589758E+04  0.00000000000E+00 0.  1.
         22    1    1    2    0    0 -0.41186914345E+03 -0.14283923459E+04 -0.14885164154E+04  0.21037162366E+04  0.00000000000E+00 0. -1.
<mgrwt>
<rscale>  0 0.37673859E+04</rscale>
<asrwt>0</asrwt>
<pdfrwt beam="1">  1        2 0.24506450E+00 0.37673859E+04</pdfrwt>
<pdfrwt beam="2">  1       -2 0.34269922E+00 0.37673859E+04</pdfrwt>
<totfact> 0.15642448E-01</totfact>
</mgrwt>
</event>
<event>
 6    1  0.6091287E-004  0.3168809E+04  0.7818608E-02  0.8197103E-01
          2   -1    0    0  501    0  0.00000000000E+00  0.00000000000E+00  0.87569767768E+03  0.87569767768E+03  0.00000000000E+00 0.  1.
         -2   -1    0    0    0  501 -0.00000000000E+00 -0.00000000000E+00 -0.28666718527E+04  0.28666718527E+04  0.00000000000E+00 0. -1.
         23    2    1    2    0    0  0.37392534461E+03 -0.15279149203E+04 -0.12074421287E+04  0.19850230549E+04  0.89754483012E+02 0.  0.
         13    1    3    3    0    0  0.24006925881E+03 -0.11353553132E+04 -0.90784744432E+03  0.14733811179E+04  0.00000000000E+00 0. -1.
        -13    1    3    3    0    0  0.13385608580E+03 -0.39255960709E+03 -0.29959468441E+03  0.51164193705E+03  0.00000000000E+00 0.  1.
         22    1    1    2    0    0 -0.37392534461E+03  0.15279149203E+04 -0.78353204624E+03  0.17573464754E+04  0.00000000000E+00 0. -1.
<mgrwt>
<rscale>  0 0.31688092E+04</rscale>
<asrwt>0</asrwt>
<pdfrwt beam="1">  1        2 0.13472272E+00 0.31688092E+04</pdfrwt>
<pdfrwt beam="2">  1       -2 0.44102644E+00 0.31688092E+04</pdfrwt>
<totfact> 0.10220529E-01</totfact>
</mgrwt>
</event>
<event>
 6    1  0.6091287E-004  0.2567352E+04  0.7818608E-02  0.8379376E-01
         -2   -1    0    0    0  501 -0.00000000000E+00  0.00000000000E+00  0.71517825132E+03  0.71517825132E+03  0.00000000000E+00 0. -1.
          2   -1    0    0  501    0  0.00000000000E+00 -0.00000000000E+00 -0.23040743309E+04  0.23040743309E+04  0.00000000000E+00 0.  1.
         23    2    1    2    0    0 -0.44814745058E+03 -0.97296672860E+03 -0.16237688402E+04  0.19474706539E+04  0.92283851154E+02 0.  0.
         13    1    3    3    0    0 -0.10124180315E+03 -0.32077380966E+03 -0.52017776136E+03  0.61945996084E+03  0.00000000000E+00 0. -1.
        -13    1    3    3    0    0 -0.34690564743E+03 -0.65219291894E+03 -0.11035910788E+04  0.13280106931E+04  0.00000000000E+00 0.  1.
         22    1    1    2    0    0  0.44814745058E+03  0.97296672860E+03  0.34872760572E+02  0.10717819283E+04  0.00000000000E+00 0. -1.
<mgrwt>
<rscale>  0 0.25673518E+04</rscale>
<asrwt>0</asrwt>
<pdfrwt beam="1">  1        2 0.35447297E+00 0.25673518E+04</pdfrwt>
<pdfrwt beam="2">  1       -2 0.11002743E+00 0.25673518E+04</pdfrwt>
<totfact> 0.26258735E+00</totfact>
</mgrwt>
</event>
<event>
 6    1  0.6091287E-004  0.1857002E+04  0.7818608E-02  0.8676561E-01
          2   -1    0    0  501    0  0.00000000000E+00  0.00000000000E+00  0.22804316516E+04  0.22804316516E+04  0.00000000000E+00 0.  1.
         -2   -1    0    0    0  501 -0.00000000000E+00 -0.00000000000E+00 -0.37804845222E+03  0.37804845222E+03  0.00000000000E+00 0. -1.
         23    2    1    2    0    0  0.38624881434E+03  0.56003274443E+03  0.53419117258E+02  0.68832960237E+03  0.90106703449E+02 0.  0.
         11    1    3    3    0    0  0.10246030025E+03  0.12590821926E+03 -0.23440108389E+02  0.16401351007E+03  0.00000000000E+00 0.  1.
        -11    1    3    3    0    0  0.28378851409E+03  0.43412452517E+03  0.76859225647E+02  0.52431609231E+03  0.00000000000E+00 0. -1.
         22    1    1    2    0    0 -0.38624881434E+03 -0.56003274443E+03  0.18489640821E+04  0.19701505014E+04  0.00000000000E+00 0.  1.
<mgrwt>
<rscale>  0 0.18570015E+04</rscale>
<asrwt>0</asrwt>
<pdfrwt beam="1">  1        2 0.35083563E+00 0.18570015E+04</pdfrwt>
<pdfrwt beam="2">  1       -2 0.58161302E-01 0.18570015E+04</pdfrwt>
<totfact> 0.12093161E+01</totfact>
</mgrwt>
</event>
<event>
 6    1  0.6091287E-004  0.4089853E+04  0.7818608E-02  0.7986662E-01
         -2   -1    0    0    0  501 -0.00000000000E+00  0.00000000000E+00  0.97475339259E+03  0.97475339259E+03  0.00000000000E+00 0. -1.
          2   -1    0    0  501    0  0.00000000000E+00 -0.00000000000E+00 -0.42900341189E+04  0.42900341189E+04  0.00000000000E+00 0.  1.
         23    2    1    2    0    0 -0.19678406231E+04 -0.58829087525E+02 -0.23656345485E+04  0.30789957917E+04  0.90170331658E+02 0.  0.
         11    1    3    3    0    0 -0.11806213555E+04  0.87908213675E+01 -0.14120567472E+04  0.18406108553E+04  0.00000000000E+00 0.  1.
        -11    1    3    3    0    0 -0.78721926760E+03 -0.67619908893E+02 -0.95357780134E+03  0.12383849364E+04  0.00000000000E+00 0. -1.
         22    1    1    2    0    0  0.19678406231E+04  0.58829087525E+02 -0.94964617777E+03  0.21857917198E+04  0.00000000000E+00 0. -1.
<mgrwt>
<rscale>  0 0.40898535E+04</rscale>
<asrwt>0</asrwt>
<pdfrwt beam="1">  1        2 0.66000527E+00 0.40898535E+04</pdfrwt>
<pdfrwt beam="2">  1       -2 0.14996206E+00 0.40898535E+04</pdfrwt>
<totfact> 0.45211754E-02</totfact>
</mgrwt>
</event>
<event>
 6    1  0.8475221E-004  0.3264114E+04  0.7818608E-02  0.8172087E-01
         -2   -1    0    0    0  501 -0.00000000000E+00  0.00000000000E+00  0.99609354475E+03  0.99609354475E+03  0.00000000000E+00 0. -1.
          2   -1    0    0  501    0  0.00000000000E+00 -0.00000000000E+00 -0.26740557861E+04  0.26740557861E+04  0.00000000000E+00 0.  1.
         23    2    1    2    0    0  0.12936004915E+04 -0.92594622461E+03 -0.12429357396E+04  0.20208989861E+04  0.91459372616E+02 0.  0.
         11    1    3    3    0    0  0.60395342827E+03 -0.47236170417E+03 -0.55794161232E+03  0.94825321821E+03  0.00000000000E+00 0. -1.
        -11    1    3    3    0    0  0.68964706321E+03 -0.45358452045E+03 -0.68499412731E+03  0.10726457679E+04  0.00000000000E+00 0.  1.
         22    1    1    2    0    0 -0.12936004915E+04  0.92594622461E+03 -0.43502650174E+03  0.16492503447E+04  0.00000000000E+00 0. -1.
<mgrwt>
<rscale>  0 0.32641138E+04</rscale>
<asrwt>0</asrwt>
<pdfrwt beam="1">  1        2 0.41139319E+00 0.32641138E+04</pdfrwt>
<pdfrwt beam="2">  1       -2 0.15324516E+00 0.32641138E+04</pdfrwt>
<totfact> 0.65210331E-01</totfact>
</mgrwt>
</event>
<event>
 6    1  0.6091287E-004  0.9596358E+03  0.7818608E-02  0.9353958E-01
         -2   -1    0    0    0  501 -0.00000000000E+00  0.00000000000E+00  0.15879298108E+03  0.15879298108E+03  0.00000000000E+00 0. -1.
          2   -1    0    0  501    0  0.00000000000E+00 -0.00000000000E+00 -0.14498451168E+04  0.14498451168E+04  0.00000000000E+00 0.  1.
         23    2    1    2    0    0  0.89103332332E+02 -0.18653126183E+03 -0.13691928155E+04  0.13876419863E+04  0.90155426108E+02 0.  0.
         11    1    3    3    0    0  0.79350873724E+02 -0.18308949909E+03 -0.10809634399E+04  0.10992271304E+04  0.00000000000E+00 0.  1.
        -11    1    3    3    0    0  0.97524586085E+01 -0.34417627474E+01 -0.28822937561E+03  0.28841485597E+03  0.00000000000E+00 0. -1.
         22    1    1    2    0    0 -0.89103332332E+02  0.18653126183E+03  0.78140679763E+02  0.22099611152E+03  0.00000000000E+00 0. -1.
<mgrwt>
<rscale>  0 0.95963582E+03</rscale>
<asrwt>0</asrwt>
<pdfrwt beam="1">  1        2 0.22305309E+00 0.95963582E+03</pdfrwt>
<pdfrwt beam="2">  1       -2 0.24429690E-01 0.95963582E+03</pdfrwt>
<totfact> 0.20260619E+02</totfact>
</mgrwt>
</event>
<event>
 6    1  0.6091287E-004  0.2679640E+04  0.7818608E-02  0.8341641E-01
          2   -1    0    0  501    0  0.00000000000E+00  0.00000000000E+00  0.10647047720E+04  0.10647047720E+04  0.00000000000E+00 0.  1.
         -2   -1    0    0    0  501 -0.00000000000E+00 -0.00000000000E+00 -0.16860242567E+04  0.16860242567E+04  0.00000000000E+00 0. -1.
         23    2    1    2    0    0 -0.12276791862E+04  0.33688419767E+03 -0.73472050984E+03  0.14726261614E+04  0.90146751564E+02 0.  0.
         11    1    3    3    0    0 -0.46430288186E+03  0.85876125230E+02 -0.29165026552E+03  0.55498806506E+03  0.00000000000E+00 0. -1.
        -11    1    3    3    0    0 -0.76337630431E+03  0.25100807244E+03 -0.44307024432E+03  0.91763809632E+03  0.00000000000E+00 0.  1.
         22    1    1    2    0    0  0.12276791862E+04 -0.33688419767E+03  0.11340102515E+03  0.12781028673E+04  0.00000000000E+00 0.  1.
<mgrwt>
<rscale>  0 0.26796403E+04</rscale>
<asrwt>0</asrwt>
<pdfrwt beam="1">  1        2 0.16380073E+00 0.26796403E+04</pdfrwt>
<pdfrwt beam="2">  1       -2 0.25938835E+00 0.26796403E+04</pdfrwt>
<totfact> 0.11331973E+00</totfact>
</mgrwt>
</event>
<event>
 6    1  0.6091287E-004  0.1989024E+04  0.7818608E-02  0.8611769E-01
          2   -1    0    0  501    0  0.00000000000E+00  0.00000000000E+00  0.97779141228E+03  0.97779141228E+03  0.00000000000E+00 0.  1.
         -2   -1    0    0    0  501 -0.00000000000E+00 -0.00000000000E+00 -0.10115189051E+04  0.10115189051E+04  0.00000000000E+00 0. -1.
         23    2    1    2    0    0 -0.72481485915E+03  0.27042766384E+03 -0.63858311420E+03  0.10073031769E+04  0.91561973722E+02 0.  0.
         13    1    3    3    0    0 -0.17685726119E+03  0.35787902183E+02 -0.11541021348E+03  0.21419332892E+03  0.00000000000E+00 0. -1.
        -13    1    3    3    0    0 -0.54795759796E+03  0.23463976165E+03 -0.52317290071E+03  0.79310984797E+03  0.00000000000E+00 0.  1.
         22    1    1    2    0    0  0.72481485915E+03 -0.27042766384E+03  0.60485562133E+03  0.98200714053E+03  0.00000000000E+00 0.  1.
<mgrwt>
<rscale>  0 0.19890244E+04</rscale>
<asrwt>0</asrwt>
<pdfrwt beam="1">  1        2 0.15042945E+00 0.19890244E+04</pdfrwt>
<pdfrwt beam="2">  1       -2 0.15561829E+00 0.19890244E+04</pdfrwt>
<totfact> 0.65743081E+00</totfact>
</mgrwt>
</event>
<event>
 6    1  0.6091287E-004  0.8498057E+03  0.7818608E-02  0.9490598E-01
          1   -1    0    0  501    0  0.00000000000E+00  0.00000000000E+00  0.67722910074E+03  0.67722910074E+03  0.00000000000E+00 0. -1.
         -1   -1    0    0    0  501 -0.00000000000E+00 -0.00000000000E+00 -0.26658991242E+03  0.26658991242E+03  0.00000000000E+00 0.  1.
         23    2    1    2    0    0  0.30168727601E+03  0.14428181890E+03  0.49066127154E+03  0.59996440788E+03  0.85885688925E+02 0.  0.
         13    1    3    3    0    0  0.22438680450E+03  0.63791120324E+02  0.34503345632E+03  0.41649349460E+03  0.00000000000E+00 0.  1.
        -13    1    3    3    0    0  0.77300471509E+02  0.80490698580E+02  0.14562781522E+03  0.18347091328E+03  0.00000000000E+00 0. -1.
         22    1    1    2    0    0 -0.30168727601E+03 -0.14428181890E+03 -0.80022083224E+02  0.34385460528E+03  0.00000000000E+00 0.  1.
<mgrwt>
<rscale>  0 0.84980573E+03</rscale>
<asrwt>0</asrwt>
<pdfrwt beam="1">  1        1 0.10418909E+00 0.84980573E+03</pdfrwt>
<pdfrwt beam="2">  1       -1 0.41013833E-01 0.84980573E+03</pdfrwt>
<totfact> 0.16811932E+02</totfact>
</mgrwt>
</event>
<event>
 6    1  0.6091287E-004  0.4626327E+04  0.7818608E-02  0.7888886E-01
          2   -1    0    0  501    0  0.00000000000E+00  0.00000000000E+00  0.33879167950E+04  0.33879167950E+04  0.00000000000E+00 0.  1.
         -2   -1    0    0    0  501 -0.00000000000E+00 -0.00000000000E+00 -0.15793556467E+04  0.15793556467E+04  0.00000000000E+00 0. -1.
         23    2    1    2    0    0  0.82961099716E+03  0.11080777068E+04 -0.10840367451E+04  0.17605274901E+04  0.90723578313E+02 0.  0.
         13    1    3    3    0    0  0.57651068323E+03  0.75464769171E+03 -0.69065431758E+03  0.11742491613E+04  0.00000000000E+00 0.  1.
        -13    1    3    3    0    0  0.25310031392E+03  0.35343001513E+03 -0.39338242754E+03  0.58627832878E+03  0.00000000000E+00 0. -1.
         22    1    1    2    0    0 -0.82961099716E+03 -0.11080777068E+04  0.28925978934E+04  0.32067449515E+04  0.00000000000E+00 0.  1.
<mgrwt>
<rscale>  0 0.46263271E+04</rscale>
<asrwt>0</asrwt>
<pdfrwt beam="1">  1        2 0.52121797E+00 0.46263271E+04</pdfrwt>
<pdfrwt beam="2">  1       -2 0.24297779E+00 0.46263271E+04</pdfrwt>
<totfact> 0.51663116E-02</totfact>
</mgrwt>
</event>
<event>
 6    1  0.6091287E-004  0.1049861E+04  0.7818608E-02  0.9255488E-01
         -2   -1    0    0    0  501 -0.00000000000E+00  0.00000000000E+00  0.17998593823E+03  0.17998593823E+03  0.00000000000E+00 0. -1.
          2   -1    0    0  501    0  0.00000000000E+00 -0.00000000000E+00 -0.15309638419E+04  0.15309638419E+04  0.00000000000E+00 0.  1.
         23    2    1    2    0    0 -0.24044122651E+03  0.34194189467E+03 -0.11873108152E+04  0.12620364716E+04  0.91065037003E+02 0.  0.
         11    1    3    3    0    0 -0.12528715707E+03  0.17060116533E+03 -0.46704636215E+03  0.51277083940E+03  0.00000000000E+00 0. -1.
        -11    1    3    3    0    0 -0.11515406944E+03  0.17134072933E+03 -0.72026445302E+03  0.74926563215E+03  0.00000000000E+00 0.  1.
         22    1    1    2    0    0  0.24044122651E+03 -0.34194189467E+03 -0.16366708845E+03  0.44891330853E+03  0.00000000000E+00 0. -1.
<mgrwt>
<rscale>  0 0.10498609E+04</rscale>
<asrwt>0</asrwt>
<pdfrwt beam="1">  1        2 0.23553290E+00 0.10498609E+04</pdfrwt>
<pdfrwt beam="2">  1       -2 0.27690144E-01 0.10498609E+04</pdfrwt>
<totfact> 0.14436044E+02</totfact>
</mgrwt>
</event>
<event>
 6    1  0.9002186E-004  0.2692374E+04  0.7818608E-02  0.8337483E-01
         -2   -1    0    0    0  501 -0.00000000000E+00  0.00000000000E+00  0.10834668478E+04  0.10834668478E+04  0.00000000000E+00 0. -1.
          2   -1    0    0  501    0  0.00000000000E+00 -0.00000000000E+00 -0.16726121720E+04  0.16726121720E+04  0.00000000000E+00 0.  1.
         23    2    1    2    0    0 -0.49474292161E+03  0.11518357936E+04  0.20269532523E+03  0.12733424053E+04  0.93910768046E+02 0.  0.
         13    1    3    3    0    0 -0.27177167975E+03  0.67118958874E+03  0.16137432248E+03  0.74188744558E+03  0.00000000000E+00 0. -1.
        -13    1    3    3    0    0 -0.22297124186E+03  0.48064620481E+03  0.41321002747E+02  0.53145495968E+03  0.00000000000E+00 0.  1.
         22    1    1    2    0    0  0.49474292161E+03 -0.11518357936E+04 -0.79184064943E+03  0.14827366145E+04  0.00000000000E+00 0.  1.
<mgrwt>
<rscale>  0 0.26923743E+04</rscale>
<asrwt>0</asrwt>
<pdfrwt beam="1">  1        2 0.25732495E+00 0.26923743E+04</pdfrwt>
<pdfrwt beam="2">  1       -2 0.16668721E+00 0.26923743E+04</pdfrwt>
<totfact> 0.20075288E+00</totfact>
</mgrwt>
</event>
<event>
 6    1  0.6091287E-004  0.5565891E+04  0.7818608E-02  0.7746687E-01
          2   -1    0    0  501    0  0.00000000000E+00  0.00000000000E+00  0.18306078931E+04  0.18306078931E+04  0.00000000000E+00 0.  1.
         -2   -1    0    0    0  501 -0.00000000000E+00 -0.00000000000E+00 -0.42307175261E+04  0.42307175261E+04  0.00000000000E+00 0. -1.
         23    2    1    2    0    0 -0.11082227647E+04 -0.22152614316E+04  0.18016073452E+03  0.24845480881E+04  0.70571986488E+02 0.  0.
         13    1    3    3    0    0 -0.16300171043E+03 -0.31633879002E+03  0.14729246893E+01  0.35586789288E+03  0.00000000000E+00 0.  1.
        -13    1    3    3    0    0 -0.94522105427E+03 -0.18989226416E+04  0.17868780983E+03  0.21286801952E+04  0.00000000000E+00 0. -1.
         22    1    1    2    0    0  0.11082227647E+04  0.22152614316E+04 -0.25802703675E+04  0.35767773311E+04  0.00000000000E+00 0. -1.
<mgrwt>
<rscale>  0 0.55658907E+04</rscale>
<asrwt>0</asrwt>
<pdfrwt beam="1">  1        2 0.28163198E+00 0.55658907E+04</pdfrwt>
<pdfrwt beam="2">  1       -2 0.65087962E+00 0.55658907E+04</pdfrwt>
<totfact> 0.19598599E-03</totfact>
</mgrwt>
</event>
<event>
 6    1  0.6091287E-004  0.7053417E+03  0.7818608E-02  0.9708140E-01
          2   -1    0    0  501    0  0.00000000000E+00  0.00000000000E+00  0.55307682105E+03  0.55307682105E+03  0.00000000000E+00 0.  1.
         -2   -1    0    0    0  501 -0.00000000000E+00 -0.00000000000E+00 -0.22488148719E+03  0.22488148719E+03  0.00000000000E+00 0. -1.
         23    2    1    2    0    0 -0.27368808741E+03  0.21140278667E+03  0.15772554395E+03  0.39239864143E+03  0.97483532856E+02 0.  0.
         11    1    3    3    0    0 -0.70923999796E+02  0.21440607583E+02  0.25098217648E+01  0.74136445868E+02  0.00000000000E+00 0. -1.
        -11    1    3    3    0    0 -0.20276408762E+03  0.18996217909E+03  0.15521572218E+03  0.31826219556E+03  0.00000000000E+00 0.  1.
         22    1    1    2    0    0  0.27368808741E+03 -0.21140278667E+03  0.17046978991E+03  0.38555966682E+03  0.00000000000E+00 0.  1.
<mgrwt>
<rscale>  0 0.70534173E+03</rscale>
<asrwt>0</asrwt>
<pdfrwt beam="1">  1        2 0.85088742E-01 0.70534173E+03</pdfrwt>
<pdfrwt beam="2">  1       -2 0.34597152E-01 0.70534173E+03</pdfrwt>
<totfact> 0.43130333E+02</totfact>
</mgrwt>
</event>
<event>
 6    1  0.6091287E-004  0.3011858E+04  0.7818608E-02  0.8240353E-01
          2   -1    0    0  501    0  0.00000000000E+00  0.00000000000E+00  0.18472601659E+04  0.18472601659E+04  0.00000000000E+00 0.  1.
         -2   -1    0    0    0  501 -0.00000000000E+00 -0.00000000000E+00 -0.12276679233E+04  0.12276679233E+04  0.00000000000E+00 0. -1.
         23    2    1    2    0    0 -0.69171948862E+03  0.11148369484E+02  0.16740944555E+04  0.18137480647E+04  0.92139345278E+02 0.  0.
         11    1    3    3    0    0 -0.47582444042E+03  0.21636296446E+01  0.10356959323E+04  0.11397717507E+04  0.00000000000E+00 0.  1.
        -11    1    3    3    0    0 -0.21589504820E+03  0.89847398392E+01  0.63839852324E+03  0.67397631402E+03  0.00000000000E+00 0. -1.
         22    1    1    2    0    0  0.69171948862E+03 -0.11148369484E+02 -0.10545022130E+04  0.12611800245E+04  0.00000000000E+00 0. -1.
<mgrwt>
<rscale>  0 0.30118579E+04</rscale>
<asrwt>0</asrwt>
<pdfrwt beam="1">  1        2 0.28419387E+00 0.30118579E+04</pdfrwt>
<pdfrwt beam="2">  1       -2 0.18887199E+00 0.30118579E+04</pdfrwt>
<totfact> 0.10958393E+00</totfact>
</mgrwt>
</event>
<event>
 6    1  0.6091287E-004  0.1604381E+04  0.7818608E-02  0.8817861E-01
         -2   -1    0    0    0  501 -0.00000000000E+00  0.00000000000E+00  0.47921544331E+03  0.47921544331E+03  0.00000000000E+00 0. -1.
          2   -1    0    0  501    0  0.00000000000E+00 -0.00000000000E+00 -0.13428394407E+04  0.13428394407E+04  0.00000000000E+00 0.  1.
         23    2    1    2    0    0  0.24027603834E+03 -0.42326989114E+03 -0.11542111160E+04  0.12551943642E+04  0.80122508330E+02 0.  0.
         11    1    3    3    0    0  0.56335962764E+02 -0.76025657318E+02 -0.30776773618E+03  0.32198543555E+03  0.00000000000E+00 0.  1.
        -11    1    3    3    0    0  0.18394007558E+03 -0.34724423382E+03 -0.84644337984E+03  0.93320892870E+03  0.00000000000E+00 0. -1.
         22    1    1    2    0    0 -0.24027603834E+03  0.42326989114E+03  0.29058711864E+03  0.56686051976E+03  0.00000000000E+00 0. -1.
<mgrwt>
<rscale>  0 0.16043808E+04</rscale>
<asrwt>0</asrwt>
<pdfrwt beam="1">  1        2 0.20659068E+00 0.16043808E+04</pdfrwt>
<pdfrwt beam="2">  1       -2 0.73725453E-01 0.16043808E+04</pdfrwt>
<totfact> 0.24819970E+01</totfact>
</mgrwt>
</event>
<event>
 6    1  0.6091287E-004  0.3111046E+04  0.7818608E-02  0.8212713E-01
          2   -1    0    0  501    0  0.00000000000E+00  0.00000000000E+00  0.12966583218E+04  0.12966583218E+04  0.00000000000E+00 0.  1.
         -2   -1    0    0    0  501 -0.00000000000E+00 -0.00000000000E+00 -0.18660670600E+04  0.18660670600E+04  0.00000000000E+00 0. -1.
         23    2    1    2    0    0 -0.12188425031E+04  0.82713763403E+03 -0.78901960342E+03  0.16734427877E+04  0.90139425815E+02 0.  0.
         11    1    3    3    0    0 -0.10219898748E+04  0.70988136727E+03 -0.63171805612E+03  0.13955151601E+04  0.00000000000E+00 0.  1.
        -11    1    3    3    0    0 -0.19685262831E+03  0.11725626676E+03 -0.15730154730E+03  0.27792762754E+03  0.00000000000E+00 0. -1.
         22    1    1    2    0    0  0.12188425031E+04 -0.82713763403E+03  0.21961086516E+03  0.14892825941E+04  0.00000000000E+00 0.  1.
<mgrwt>
<rscale>  0 0.31110457E+04</rscale>
<asrwt>0</asrwt>
<pdfrwt beam="1">  1        2 0.19948590E+00 0.31110457E+04</pdfrwt>
<pdfrwt beam="2">  1       -2 0.28708724E+00 0.31110457E+04</pdfrwt>
<totfact> 0.53692401E-01</totfact>
</mgrwt>
</event>
<event>
 6    1  0.6091287E-004  0.3835536E+04  0.7818608E-02  0.8038572E-01
         -2   -1    0    0    0  501 -0.00000000000E+00  0.00000000000E+00  0.17821495689E+04  0.17821495689E+04  0.00000000000E+00 0. -1.
          2   -1    0    0  501    0  0.00000000000E+00 -0.00000000000E+00 -0.20637072529E+04  0.20637072529E+04  0.00000000000E+00 0.  1.
         23    2    1    2    0    0  0.12128209897E+04 -0.14670122808E+04 -0.36653453664E+03  0.19405272308E+04  0.90766633346E+02 0.  0.
         13    1    3    3    0    0  0.81534987418E+03 -0.93646412239E+03 -0.20897187639E+03  0.12591384813E+04  0.00000000000E+00 0. -1.
        -13    1    3    3    0    0  0.39747111556E+03 -0.53054815838E+03 -0.15756266025E+03  0.68138874952E+03  0.00000000000E+00 0.  1.
         22    1    1    2    0    0 -0.12128209897E+04  0.14670122808E+04  0.84976852674E+02  0.19053295911E+04  0.00000000000E+00 0. -1.
<mgrwt>
<rscale>  0 0.38355365E+04</rscale>
<asrwt>0</asrwt>
<pdfrwt beam="1">  1        2 0.31749342E+00 0.38355365E+04</pdfrwt>
<pdfrwt beam="2">  1       -2 0.27417686E+00 0.38355365E+04</pdfrwt>
<totfact> 0.22497168E-01</totfact>
</mgrwt>
</event>
<event>
 6    1  0.6091287E-004  0.3471820E+04  0.7818608E-02  0.8120501E-01
         -2   -1    0    0    0  501 -0.00000000000E+00  0.00000000000E+00  0.13651883690E+04  0.13651883690E+04  0.00000000000E+00 0. -1.
          2   -1    0    0  501    0  0.00000000000E+00 -0.00000000000E+00 -0.22073019355E+04  0.22073019355E+04  0.00000000000E+00 0.  1.
         23    2    1    2    0    0  0.63997062786E+02 -0.15894306990E+04 -0.11334785262E+04  0.19553078440E+04  0.89831088171E+02 0.  0.
         11    1    3    3    0    0  0.55501864320E+02 -0.80948858835E+03 -0.62531037256E+03  0.10243853248E+04  0.00000000000E+00 0. -1.
        -11    1    3    3    0    0  0.84951984668E+01 -0.77994211065E+03 -0.50816815364E+03  0.93092251919E+03  0.00000000000E+00 0.  1.
         22    1    1    2    0    0 -0.63997062786E+02  0.15894306990E+04  0.29136495972E+03  0.16171824606E+04  0.00000000000E+00 0.  1.
<mgrwt>
<rscale>  0 0.34718197E+04</rscale>
<asrwt>0</asrwt>
<pdfrwt beam="1">  1        2 0.33958491E+00 0.34718197E+04</pdfrwt>
<pdfrwt beam="2">  1       -2 0.21002898E+00 0.34718197E+04</pdfrwt>
<totfact> 0.48221810E-01</totfact>
</mgrwt>
</event>
<event>
 6    1  0.6091287E-004  0.2677953E+04  0.7818608E-02  0.8342194E-01
          2   -1    0    0  501    0  0.00000000000E+00  0.00000000000E+00  0.16257612561E+04  0.16257612561E+04  0.00000000000E+00 0.  1.
         -2   -1    0    0    0  501 -0.00000000000E+00 -0.00000000000E+00 -0.11027802891E+04  0.11027802891E+04  0.00000000000E+00 0. -1.
         23    2    1    2    0    0 -0.40468098811E+03 -0.32438354103E+03 -0.99442158281E+03  0.11249512353E+04  0.87462068968E+02 0.  0.
         11    1    3    3    0    0 -0.10572757340E+03 -0.54082762389E+02 -0.29013058058E+03  0.31349484646E+03  0.00000000000E+00 0. -1.
        -11    1    3    3    0    0 -0.29895341471E+03 -0.27030077865E+03 -0.70429100222E+03  0.81145638879E+03  0.00000000000E+00 0.  1.
         22    1    1    2    0    0  0.40468098811E+03  0.32438354103E+03  0.15174025498E+04  0.16035903099E+04  0.00000000000E+00 0.  1.
<mgrwt>
<rscale>  0 0.26779526E+04</rscale>
<asrwt>0</asrwt>
<pdfrwt beam="1">  1        2 0.25011712E+00 0.26779526E+04</pdfrwt>
<pdfrwt beam="2">  1       -2 0.16965851E+00 0.26779526E+04</pdfrwt>
<totfact> 0.20324736E+00</totfact>
</mgrwt>
</event>
<event>
 6    1  0.6091287E-004  0.6602243E+04  0.7818608E-02  0.7619908E-01
         -2   -1    0    0    0  501 -0.00000000000E+00  0.00000000000E+00  0.36579780800E+04  0.36579780800E+04  0.00000000000E+00 0. -1.
          2   -1    0    0  501    0  0.00000000000E+00 -0.00000000000E+00 -0.29790783153E+04  0.29790783153E+04  0.00000000000E+00 0.  1.
         23    2    1    2    0    0  0.66345404342E+02 -0.23957421994E+04  0.26209652205E+04  0.35523196751E+04  0.74390780914E+02 0.  0.
         11    1    3    3    0    0 -0.26689644415E+01 -0.10496367761E+04  0.11754474476E+04  0.15758874284E+04  0.00000000000E+00 0. -1.
        -11    1    3    3    0    0  0.69014368783E+02 -0.13461054233E+04  0.14455177729E+04  0.19764322466E+04  0.00000000000E+00 0.  1.
         22    1    1    2    0    0 -0.66345404342E+02  0.23957421994E+04 -0.19420654558E+04  0.30847367202E+04  0.00000000000E+00 0.  1.
<mgrwt>
<rscale>  0 0.66022430E+04</rscale>
<asrwt>0</asrwt>
<pdfrwt beam="1">  1        2 0.45831974E+00 0.66022430E+04</pdfrwt>
<pdfrwt beam="2">  1       -2 0.56276586E+00 0.66022430E+04</pdfrwt>
<totfact> 0.87046048E-04</totfact>
</mgrwt>
</event>
<event>
 6    1  0.6091287E-004  0.5214871E+03  0.7818608E-02  0.1008318E+00
         -2   -1    0    0    0  501 -0.00000000000E+00  0.00000000000E+00  0.31254314061E+02  0.31254314061E+02  0.00000000000E+00 0. -1.
          2   -1    0    0  501    0  0.00000000000E+00 -0.00000000000E+00 -0.21752901124E+04  0.21752901124E+04  0.00000000000E+00 0.  1.
         23    2    1    2    0    0 -0.28584686228E+01  0.22998786999E+03 -0.15447046104E+04  0.15645939112E+04  0.94547249852E+02 0.  0.
         13    1    3    3    0    0 -0.36232606828E+02  0.11230213233E+03 -0.55837312908E+03  0.57070581039E+03  0.00000000000E+00 0.  1.
        -13    1    3    3    0    0  0.33374138205E+02  0.11768573765E+03 -0.98633148131E+03  0.99388810083E+03  0.00000000000E+00 0. -1.
         22    1    1    2    0    0  0.28584686228E+01 -0.22998786999E+03 -0.59933118799E+03  0.64195051529E+03  0.00000000000E+00 0. -1.
<mgrwt>
<rscale>  0 0.52148711E+03</rscale>
<asrwt>0</asrwt>
<pdfrwt beam="1">  1        2 0.33466011E+00 0.52148711E+03</pdfrwt>
<pdfrwt beam="2">  1       -2 0.48083546E-02 0.52148711E+03</pdfrwt>
<totfact> 0.12200526E+03</totfact>
</mgrwt>
</event>
<event>
 6    1  0.6091287E-004  0.1677484E+04  0.7818608E-02  0.8774311E-01
         -2   -1    0    0    0  501 -0.00000000000E+00  0.00000000000E+00  0.32436802813E+03  0.32436802813E+03  0.00000000000E+00 0. -1.
          2   -1    0    0  501    0  0.00000000000E+00 -0.00000000000E+00 -0.21687963420E+04  0.21687963420E+04  0.00000000000E+00 0.  1.
         23    2    1    2    0    0  0.77531516904E+03 -0.23327501970E+03 -0.12361171870E+04  0.14804584537E+04  0.90778229017E+02 0.  0.
         13    1    3    3    0    0  0.35923471907E+03 -0.11368001848E+03 -0.65743990506E+03  0.75775982920E+03  0.00000000000E+00 0.  1.
        -13    1    3    3    0    0  0.41608044997E+03 -0.11959500122E+03 -0.57867728196E+03  0.72269862448E+03  0.00000000000E+00 0. -1.
         22    1    1    2    0    0 -0.77531516904E+03  0.23327501970E+03 -0.60831112684E+03  0.10127059164E+04  0.00000000000E+00 0.  1.
<mgrwt>
<rscale>  0 0.16774841E+04</rscale>
<asrwt>0</asrwt>
<pdfrwt beam="1">  1        2 0.33366097E+00 0.16774841E+04</pdfrwt>
<pdfrwt beam="2">  1       -2 0.49902774E-01 0.16774841E+04</pdfrwt>
<totfact> 0.19481803E+01</totfact>
</mgrwt>
</event>
<event>
 6    1  0.6091287E-004  0.1747320E+04  0.7818608E-02  0.8734827E-01
          1   -1    0    0  501    0  0.00000000000E+00  0.00000000000E+00  0.14192596760E+04  0.14192596760E+04  0.00000000000E+00 0.  1.
         -1   -1    0    0    0  501 -0.00000000000E+00 -0.00000000000E+00 -0.53780307761E+03  0.53780307761E+03  0.00000000000E+00 0. -1.
         23    2    1    2    0    0  0.66831976776E+03  0.33395035988E+03 -0.60135417006E+02  0.75507703061E+03  0.91383253001E+02 0.  0.
         11    1    3    3    0    0  0.58299501348E+03  0.27528136195E+03 -0.23195382556E+02  0.64513645049E+03  0.00000000000E+00 0. -1.
        -11    1    3    3    0    0  0.85324754277E+02  0.58668997930E+02 -0.36940034451E+02  0.10994058011E+03  0.00000000000E+00 0.  1.
         22    1    1    2    0    0 -0.66831976776E+03 -0.33395035988E+03  0.94159201542E+03  0.12019857230E+04  0.00000000000E+00 0.  1.
<mgrwt>
<rscale>  0 0.17473205E+04</rscale>
<asrwt>0</asrwt>
<pdfrwt beam="1">  1        1 0.21834764E+00 0.17473205E+04</pdfrwt>
<pdfrwt beam="2">  1       -1 0.82738935E-01 0.17473205E+04</pdfrwt>
<totfact> 0.10244354E+01</totfact>
</mgrwt>
</event>
<event>
 6    1  0.6091287E-004  0.1152397E+04  0.7818608E-02  0.9155575E-01
          2   -1    0    0  501    0  0.00000000000E+00  0.00000000000E+00  0.32855055305E+03  0.32855055305E+03  0.00000000000E+00 0.  1.
         -2   -1    0    0    0  501 -0.00000000000E+00 -0.00000000000E+00 -0.10105127625E+04  0.10105127625E+04  0.00000000000E+00 0. -1.
         23    2    1    2    0    0 -0.72356284002E+02 -0.33361198144E+03  0.19071435415E+03  0.40199513733E+03  0.93250949382E+02 0.  0.
         11    1    3    3    0    0 -0.40838403336E+02 -0.84502529762E+02  0.13864813216E+02  0.94871944055E+02  0.00000000000E+00 0. -1.
        -11    1    3    3    0    0 -0.31517880667E+02 -0.24910945168E+03  0.17684954093E+03  0.30712319327E+03  0.00000000000E+00 0.  1.
         22    1    1    2    0    0  0.72356284002E+02  0.33361198144E+03 -0.87267656365E+03  0.93706817827E+03  0.00000000000E+00 0. -1.
<mgrwt>
<rscale>  0 0.11523967E+04</rscale>
<asrwt>0</asrwt>
<pdfrwt beam="1">  1        2 0.50546239E-01 0.11523967E+04</pdfrwt>
<pdfrwt beam="2">  1       -2 0.15546350E+00 0.11523967E+04</pdfrwt>
<totfact> 0.26703531E+01</totfact>
</mgrwt>
</event>
<event>
 6    1  0.6091287E-004  0.2968846E+04  0.7818608E-02  0.8252683E-01
          2   -1    0    0  501    0  0.00000000000E+00  0.00000000000E+00  0.19558903536E+04  0.19558903536E+04  0.00000000000E+00 0.  1.
         -2   -1    0    0    0  501 -0.00000000000E+00 -0.00000000000E+00 -0.11266030030E+04  0.11266030030E+04  0.00000000000E+00 0. -1.
         23    2    1    2    0    0  0.19691324499E+03 -0.10676745275E+04  0.14638959678E+04  0.18249434292E+04  0.93399104184E+02 0.  0.
         11    1    3    3    0    0  0.17697970665E+03 -0.76519053395E+03  0.10932870766E+04  0.13461482094E+04  0.00000000000E+00 0.  1.
        -11    1    3    3    0    0  0.19933538341E+02 -0.30248399355E+03  0.37060889119E+03  0.47879521983E+03  0.00000000000E+00 0. -1.
         22    1    1    2    0    0 -0.19691324499E+03  0.10676745275E+04 -0.63460861715E+03  0.12575499273E+04  0.00000000000E+00 0. -1.
<mgrwt>
<rscale>  0 0.29688462E+04</rscale>
<asrwt>0</asrwt>
<pdfrwt beam="1">  1        2 0.30090621E+00 0.29688462E+04</pdfrwt>
<pdfrwt beam="2">  1       -2 0.17332354E+00 0.29688462E+04</pdfrwt>
<totfact> 0.12250346E+00</totfact>
</mgrwt>
</event>
<event>
 6    1  0.6091287E-004  0.3256236E+04  0.7818608E-02  0.8174121E-01
         -2   -1    0    0    0  501 -0.00000000000E+00  0.00000000000E+00  0.67071261664E+03  0.67071261664E+03  0.00000000000E+00 0. -1.
          2   -1    0    0  501    0  0.00000000000E+00 -0.00000000000E+00 -0.39521675001E+04  0.39521675001E+04  0.00000000000E+00 0.  1.
         23    2    1    2    0    0 -0.15875269931E+04 -0.34483574151E+03 -0.15194429971E+04  0.22262492461E+04  0.91241666792E+02 0.  0.
         11    1    3    3    0    0 -0.75156917012E+03 -0.20144474128E+03 -0.69122614369E+03  0.10407832546E+04  0.00000000000E+00 0.  1.
        -11    1    3    3    0    0 -0.83595782299E+03 -0.14339100024E+03 -0.82821685340E+03  0.11854659915E+04  0.00000000000E+00 0. -1.
         22    1    1    2    0    0  0.15875269931E+04  0.34483574151E+03 -0.17620118863E+04  0.23966308706E+04  0.00000000000E+00 0. -1.
<mgrwt>
<rscale>  0 0.32562362E+04</rscale>
<asrwt>0</asrwt>
<pdfrwt beam="1">  1        2 0.60802577E+00 0.32562362E+04</pdfrwt>
<pdfrwt beam="2">  1       -2 0.10318656E+00 0.32562362E+04</pdfrwt>
<totfact> 0.23969116E-01</totfact>
</mgrwt>
</event>
<event>
 6    1  0.6091287E-004  0.2947563E+04  0.7818608E-02  0.8258865E-01
          2   -1    0    0  501    0  0.00000000000E+00  0.00000000000E+00  0.21990196458E+04  0.21990196458E+04  0.00000000000E+00 0.  1.
         -2   -1    0    0    0  501 -0.00000000000E+00 -0.00000000000E+00 -0.98772746702E+03  0.98772746702E+03  0.00000000000E+00 0. -1.
         23    2    1    2    0    0  0.80390785397E+03 -0.12328079719E+04  0.65620198734E+03  0.16137854305E+04  0.87287080079E+02 0.  0.
         13    1    3    3    0    0  0.26622359620E+03 -0.48241415848E+03  0.25835416132E+03  0.60856001852E+03  0.00000000000E+00 0.  1.
        -13    1    3    3    0    0  0.53768425778E+03 -0.75039381344E+03  0.39784782602E+03  0.10052254120E+04  0.00000000000E+00 0. -1.
         22    1    1    2    0    0 -0.80390785397E+03  0.12328079719E+04  0.55509019145E+03  0.15729616823E+04  0.00000000000E+00 0.  1.
<mgrwt>
<rscale>  0 0.29475631E+04</rscale>
<asrwt>0</asrwt>
<pdfrwt beam="1">  1        2 0.33831071E+00 0.29475631E+04</pdfrwt>
<pdfrwt beam="2">  1       -2 0.15195807E+00 0.29475631E+04</pdfrwt>
<totfact> 0.12866262E+00</totfact>
</mgrwt>
</event>
<event>
 6    1  0.6091287E-004  0.2328502E+04  0.7818608E-02  0.8466767E-01
          1   -1    0    0  501    0  0.00000000000E+00  0.00000000000E+00  0.17592895794E+04  0.17592895794E+04  0.00000000000E+00 0.  1.
         -1   -1    0    0    0  501 -0.00000000000E+00 -0.00000000000E+00 -0.77047027808E+03  0.77047027808E+03  0.00000000000E+00 0. -1.
         23    2    1    2    0    0  0.45764766870E+03  0.53226171116E+03  0.15018135969E+04  0.16603306969E+04  0.92249798692E+02 0.  0.
         11    1    3    3    0    0  0.17046591770E+03  0.13657340330E+03  0.49701566666E+03  0.54289547474E+03  0.00000000000E+00 0. -1.
        -11    1    3    3    0    0  0.28718175100E+03  0.39568830785E+03  0.10047979303E+04  0.11174352222E+04  0.00000000000E+00 0.  1.
         22    1    1    2    0    0 -0.45764766870E+03 -0.53226171116E+03 -0.51299429564E+03  0.86942916054E+03  0.00000000000E+00 0. -1.
<mgrwt>
<rscale>  0 0.23285019E+04</rscale>
<asrwt>0</asrwt>
<pdfrwt beam="1">  1        1 0.27065993E+00 0.23285019E+04</pdfrwt>
<pdfrwt beam="2">  1       -1 0.11853389E+00 0.23285019E+04</pdfrwt>
<totfact> 0.24977855E+00</totfact>
</mgrwt>
</event>
<event>
 6    1  0.6091287E-004  0.1850723E+04  0.7818608E-02  0.8679781E-01
         -2   -1    0    0    0  501 -0.00000000000E+00  0.00000000000E+00  0.45734978054E+03  0.45734978054E+03  0.00000000000E+00 0. -1.
          2   -1    0    0  501    0  0.00000000000E+00 -0.00000000000E+00 -0.18722953604E+04  0.18722953604E+04  0.00000000000E+00 0.  1.
         23    2    1    2    0    0 -0.42377716825E+03  0.74517953705E+03 -0.27476938411E+03  0.90315245322E+03  0.72845786122E+02 0.  0.
         11    1    3    3    0    0 -0.29145988786E+03  0.48507713409E+03 -0.21434669334E+03  0.60513898998E+03  0.00000000000E+00 0. -1.
        -11    1    3    3    0    0 -0.13231728039E+03  0.26010240296E+03 -0.60422690763E+02  0.29801346324E+03  0.00000000000E+00 0.  1.
         22    1    1    2    0    0  0.42377716825E+03 -0.74517953705E+03 -0.11401761958E+04  0.14264926877E+04  0.00000000000E+00 0.  1.
<mgrwt>
<rscale>  0 0.18507230E+04</rscale>
<asrwt>0</asrwt>
<pdfrwt beam="1">  1        2 0.28804544E+00 0.18507230E+04</pdfrwt>
<pdfrwt beam="2">  1       -2 0.70361504E-01 0.18507230E+04</pdfrwt>
<totfact> 0.13595212E+01</totfact>
</mgrwt>
</event>
<event>
 6    1  0.6091287E-004  0.2420209E+04  0.7818608E-02  0.8431976E-01
         -2   -1    0    0    0  501 -0.00000000000E+00  0.00000000000E+00  0.68295220666E+03  0.68295220666E+03  0.00000000000E+00 0. -1.
          2   -1    0    0  501    0  0.00000000000E+00 -0.00000000000E+00 -0.21441505714E+04  0.21441505714E+04  0.00000000000E+00 0.  1.
         23    2    1    2    0    0  0.24481705571E+03  0.94030810240E+03 -0.15708712301E+04  0.18492772028E+04  0.89861187919E+02 0.  0.
         11    1    3    3    0    0  0.13055859428E+03  0.37349878087E+03 -0.69590609089E+03  0.80051993928E+03  0.00000000000E+00 0. -1.
        -11    1    3    3    0    0  0.11425846143E+03  0.56680932152E+03 -0.87496513922E+03  0.10487572635E+04  0.00000000000E+00 0.  1.
         22    1    1    2    0    0 -0.24481705571E+03 -0.94030810240E+03  0.10967286537E+03  0.97782557524E+03  0.00000000000E+00 0. -1.
<mgrwt>
<rscale>  0 0.24202086E+04</rscale>
<asrwt>0</asrwt>
<pdfrwt beam="1">  1        2 0.32986932E+00 0.24202086E+04</pdfrwt>
<pdfrwt beam="2">  1       -2 0.10506957E+00 0.24202086E+04</pdfrwt>
<totfact> 0.36567976E+00</totfact>
</mgrwt>
</event>
<event>
 6    1  0.6091287E-004  0.1742460E+04  0.7818608E-02  0.8737511E-01
         -2   -1    0    0    0  501 -0.00000000000E+00  0.00000000000E+00  0.56514544505E+03  0.56514544505E+03  0.00000000000E+00 0.  1.
          2   -1    0    0  501    0  0.00000000000E+00 -0.00000000000E+00 -0.13430913335E+04  0.13430913335E+04  0.00000000000E+00 0. -1.
         23    2    1    2    0    0 -0.81185478403E+03 -0.18598902764E+03 -0.66110944174E+03  0.10671952433E+04  0.90221309384E+02 0.  0.
         13    1    3    3    0    0 -0.30358005218E+03 -0.29141444473E+02 -0.21785495383E+03  0.37479441401E+03  0.00000000000E+00 0.  1.
        -13    1    3    3    0    0 -0.50827473186E+03 -0.15684758316E+03 -0.44325448791E+03  0.69240082932E+03  0.00000000000E+00 0. -1.
         22    1    1    2    0    0  0.81185478403E+03  0.18598902764E+03 -0.11683644675E+03  0.84104153527E+03  0.00000000000E+00 0.  1.
<mgrwt>
<rscale>  0 0.17424603E+04</rscale>
<asrwt>0</asrwt>
<pdfrwt beam="1">  1        2 0.20662943E+00 0.17424603E+04</pdfrwt>
<pdfrwt beam="2">  1       -2 0.86945454E-01 0.17424603E+04</pdfrwt>
<totfact> 0.16934682E+01</totfact>
</mgrwt>
</event>
<event>
 6    1  0.6091287E-004  0.1222575E+04  0.7818608E-02  0.9093323E-01
         -2   -1    0    0    0  501 -0.00000000000E+00  0.00000000000E+00  0.51878735219E+03  0.51878735219E+03  0.00000000000E+00 0. -1.
          2   -1    0    0  501    0  0.00000000000E+00 -0.00000000000E+00 -0.72028023139E+03  0.72028023139E+03  0.00000000000E+00 0.  1.
         23    2    1    2    0    0  0.33407198197E+03 -0.50535802655E+03 -0.15612800141E+03  0.63157371836E+03  0.86709773213E+02 0.  0.
         11    1    3    3    0    0  0.16989714639E+03 -0.30425174907E+03 -0.12449148661E+03  0.37004364257E+03  0.00000000000E+00 0.  1.
        -11    1    3    3    0    0  0.16417483558E+03 -0.20110627748E+03 -0.31636514794E+02  0.26153007580E+03  0.00000000000E+00 0. -1.
         22    1    1    2    0    0 -0.33407198197E+03  0.50535802655E+03 -0.45364877802E+02  0.60749386521E+03  0.00000000000E+00 0. -1.
<mgrwt>
<rscale>  0 0.12225748E+04</rscale>
<asrwt>0</asrwt>
<pdfrwt beam="1">  1        2 0.11081234E+00 0.12225748E+04</pdfrwt>
<pdfrwt beam="2">  1       -2 0.79813439E-01 0.12225748E+04</pdfrwt>
<totfact> 0.54118936E+01</totfact>
</mgrwt>
</event>
<event>
 6    1  0.6091287E-004  0.2305464E+04  0.7818608E-02  0.8475770E-01
          2   -1    0    0  501    0  0.00000000000E+00  0.00000000000E+00  0.25549323231E+04  0.25549323231E+04  0.00000000000E+00 0.  1.
         -2   -1    0    0    0  501 -0.00000000000E+00 -0.00000000000E+00 -0.52008874193E+03  0.52008874193E+03  0.00000000000E+00 0. -1.
         23    2    1    2    0    0 -0.89844599194E+02  0.48333542920E+03 -0.36955967202E+03  0.62087351587E+03  0.84996366979E+02 0.  0.
         11    1    3    3    0    0 -0.87215501236E+02  0.25457345357E+03 -0.21957881551E+03  0.34731692032E+03  0.00000000000E+00 0.  1.
        -11    1    3    3    0    0 -0.26290979577E+01  0.22876197563E+03 -0.14998085651E+03  0.27355659555E+03  0.00000000000E+00 0. -1.
         22    1    1    2    0    0  0.89844599194E+02 -0.48333542920E+03  0.24044032532E+04  0.24541475491E+04  0.00000000000E+00 0.  1.
<mgrwt>
<rscale>  0 0.23054644E+04</rscale>
<asrwt>0</asrwt>
<pdfrwt beam="1">  1        2 0.39306650E+00 0.23054644E+04</pdfrwt>
<pdfrwt beam="2">  1       -2 0.80013654E-01 0.23054644E+04</pdfrwt>
<totfact> 0.40495928E+00</totfact>
</mgrwt>
</event>
<event>
 6    1  0.6091287E-004  0.1456189E+04  0.7818608E-02  0.8914121E-01
         -2   -1    0    0    0  501 -0.00000000000E+00  0.00000000000E+00  0.66314909796E+03  0.66314909796E+03  0.00000000000E+00 0. -1.
          2   -1    0    0  501    0  0.00000000000E+00 -0.00000000000E+00 -0.79939988917E+03  0.79939988917E+03  0.00000000000E+00 0.  1.
         23    2    1    2    0    0 -0.15752086721E+03  0.69759074805E+03 -0.18979025897E+03  0.74539339037E+03  0.90251252811E+02 0.  0.
         13    1    3    3    0    0 -0.11483428963E+03  0.30485080830E+03 -0.87877512990E+02  0.33740685631E+03  0.00000000000E+00 0.  1.
        -13    1    3    3    0    0 -0.42686577586E+02  0.39273993975E+03 -0.10191274598E+03  0.40798653406E+03  0.00000000000E+00 0. -1.
         22    1    1    2    0    0  0.15752086721E+03 -0.69759074805E+03  0.53539467757E+02  0.71715559677E+03  0.00000000000E+00 0. -1.
<mgrwt>
<rscale>  0 0.14561886E+04</rscale>
<asrwt>0</asrwt>
<pdfrwt beam="1">  1        2 0.12298460E+00 0.14561886E+04</pdfrwt>
<pdfrwt beam="2">  1       -2 0.10202294E+00 0.14561886E+04</pdfrwt>
<totfact> 0.26326741E+01</totfact>
</mgrwt>
</event>
<event>
 6    1  0.6091287E-004  0.1266096E+04  0.7818608E-02  0.9056892E-01
         -2   -1    0    0    0  501 -0.00000000000E+00  0.00000000000E+00  0.11552920702E+03  0.11552920702E+03  0.00000000000E+00 0. -1.
          2   -1    0    0  501    0  0.00000000000E+00 -0.00000000000E+00 -0.34688160577E+04  0.34688160577E+04  0.00000000000E+00 0.  1.
         23    2    1    2    0    0 -0.31890832264E+03 -0.12560410479E+03 -0.31810387281E+04  0.32007460923E+04  0.91045306427E+02 0.  0.
         11    1    3    3    0    0 -0.23606174329E+03 -0.81297598938E+02 -0.26228426847E+04  0.26346988813E+04  0.00000000000E+00 0.  1.
        -11    1    3    3    0    0 -0.82846579342E+02 -0.44306505855E+02 -0.55819604346E+03  0.56604721102E+03  0.00000000000E+00 0. -1.
         22    1    1    2    0    0  0.31890832264E+03  0.12560410479E+03 -0.17224812254E+03  0.38359917245E+03  0.00000000000E+00 0. -1.
<mgrwt>
<rscale>  0 0.12660957E+04</rscale>
<asrwt>0</asrwt>
<pdfrwt beam="1">  1        2 0.53366400E+00 0.12660957E+04</pdfrwt>
<pdfrwt beam="2">  1       -2 0.17773725E-01 0.12660957E+04</pdfrwt>
<totfact> 0.22535686E+01</totfact>
</mgrwt>
</event>
<event>
 6    1  0.6091287E-004  0.2288657E+04  0.7818608E-02  0.8482407E-01
         -2   -1    0    0    0  501 -0.00000000000E+00  0.00000000000E+00  0.80466286900E+03  0.80466286900E+03  0.00000000000E+00 0. -1.
          2   -1    0    0  501    0  0.00000000000E+00 -0.00000000000E+00 -0.16273746904E+04  0.16273746904E+04  0.00000000000E+00 0.  1.
         23    2    1    2    0    0  0.10504135434E+04 -0.33380350278E+03 -0.92310101786E+02  0.11098121388E+04  0.91479166637E+02 0.  0.
         11    1    3    3    0    0  0.21376742706E+03 -0.34010407129E+02 -0.16381327584E+01  0.21646224647E+03  0.00000000000E+00 0. -1.
        -11    1    3    3    0    0  0.83664611637E+03 -0.29979309565E+03 -0.90671969027E+02  0.89334989237E+03  0.00000000000E+00 0.  1.
         22    1    1    2    0    0 -0.10504135434E+04  0.33380350278E+03 -0.73040171957E+03  0.13222254205E+04  0.00000000000E+00 0.  1.
<mgrwt>
<rscale>  0 0.22886572E+04</rscale>
<asrwt>0</asrwt>
<pdfrwt beam="1">  1        2 0.25036534E+00 0.22886572E+04</pdfrwt>
<pdfrwt beam="2">  1       -2 0.12379429E+00 0.22886572E+04</pdfrwt>
<totfact> 0.48001678E+00</totfact>
</mgrwt>
</event>
<event>
 6    1  0.6091287E-004  0.4046537E+04  0.7818608E-02  0.7995224E-01
         -2   -1    0    0    0  501 -0.00000000000E+00  0.00000000000E+00  0.14491910920E+04  0.14491910920E+04  0.00000000000E+00 0. -1.
          2   -1    0    0  501    0  0.00000000000E+00 -0.00000000000E+00 -0.28247584179E+04  0.28247584179E+04  0.00000000000E+00 0.  1.
         23    2    1    2    0    0 -0.57021975549E+03  0.61119209268E+03 -0.26330126908E+04  0.27640239524E+04  0.91467127817E+02 0.  0.
         11    1    3    3    0    0 -0.10027168295E+03  0.14584718113E+03 -0.64792020109E+03  0.67165943575E+03  0.00000000000E+00 0.  1.
        -11    1    3    3    0    0 -0.46994807253E+03  0.46534491155E+03 -0.19850924898E+04  0.20923645166E+04  0.00000000000E+00 0. -1.
         22    1    1    2    0    0  0.57021975549E+03 -0.61119209268E+03  0.12574453649E+04  0.15099255576E+04  0.00000000000E+00 0. -1.
<mgrwt>
<rscale>  0 0.40465367E+04</rscale>
<asrwt>0</asrwt>
<pdfrwt beam="1">  1        2 0.43457822E+00 0.40465367E+04</pdfrwt>
<pdfrwt beam="2">  1       -2 0.22295248E+00 0.40465367E+04</pdfrwt>
<totfact> 0.16616019E-01</totfact>
</mgrwt>
</event>
<event>
 6    1  0.6091287E-004  0.1654012E+04  0.7818608E-02  0.8788036E-01
          2   -1    0    0  501    0  0.00000000000E+00  0.00000000000E+00  0.17251317271E+04  0.17251317271E+04  0.00000000000E+00 0.  1.
         -2   -1    0    0    0  501 -0.00000000000E+00 -0.00000000000E+00 -0.39645613565E+03  0.39645613565E+03  0.00000000000E+00 0. -1.
         23    2    1    2    0    0 -0.25021921629E+03 -0.78204779353E+03  0.76288049085E+03  0.11244256375E+04  0.90210661593E+02 0.  0.
         11    1    3    3    0    0 -0.59887782466E+02 -0.32776641222E+03  0.29282451484E+03  0.44358039177E+03  0.00000000000E+00 0.  1.
        -11    1    3    3    0    0 -0.19033143382E+03 -0.45428138131E+03  0.47005597601E+03  0.68084524577E+03  0.00000000000E+00 0. -1.
         22    1    1    2    0    0  0.25021921629E+03  0.78204779353E+03  0.56579510065E+03  0.99716222526E+03  0.00000000000E+00 0.  1.
<mgrwt>
<rscale>  0 0.16540122E+04</rscale>
<asrwt>0</asrwt>
<pdfrwt beam="1">  1        2 0.26540488E+00 0.16540122E+04</pdfrwt>
<pdfrwt beam="2">  1       -2 0.60993253E-01 0.16540122E+04</pdfrwt>
<totfact> 0.22680564E+01</totfact>
</mgrwt>
</event>
<event>
 6    1  0.6091287E-004  0.7671582E+03  0.7818608E-02  0.9608810E-01
         -2   -1    0    0    0  501 -0.00000000000E+00  0.00000000000E+00  0.86363027502E+02  0.86363027502E+02  0.00000000000E+00 0. -1.
          2   -1    0    0  501    0  0.00000000000E+00 -0.00000000000E+00 -0.17036562594E+04  0.17036562594E+04  0.00000000000E+00 0.  1.
         23    2    1    2    0    0  0.23716388296E+03 -0.22249755354E+03 -0.36987513427E+03  0.50090960227E+03  0.91383510495E+02 0.  0.
         11    1    3    3    0    0  0.28418428498E+01 -0.28744657002E+02 -0.11910395811E+02  0.31244021914E+02  0.00000000000E+00 0. -1.
        -11    1    3    3    0    0  0.23432204011E+03 -0.19375289654E+03 -0.35796473846E+03  0.46966558036E+03  0.00000000000E+00 0.  1.
         22    1    1    2    0    0 -0.23716388296E+03  0.22249755354E+03 -0.12474180976E+04  0.12891096846E+04  0.00000000000E+00 0. -1.
<mgrwt>
<rscale>  0 0.76715816E+03</rscale>
<asrwt>0</asrwt>
<pdfrwt beam="1">  1        2 0.26210095E+00 0.76715816E+03</pdfrwt>
<pdfrwt beam="2">  1       -2 0.13286620E-01 0.76715816E+03</pdfrwt>
<totfact> 0.42587598E+02</totfact>
</mgrwt>
</event>
<event>
 6    1  0.6091287E-004  0.3959173E+04  0.7818608E-02  0.8012834E-01
          2   -1    0    0  501    0  0.00000000000E+00  0.00000000000E+00  0.15635807360E+04  0.15635807360E+04  0.00000000000E+00 0.  1.
         -2   -1    0    0    0  501 -0.00000000000E+00 -0.00000000000E+00 -0.25062739931E+04  0.25062739931E+04  0.00000000000E+00 0. -1.
         23    2    1    2    0    0  0.10826488611E+04  0.15501365736E+04 -0.10706570206E+04  0.21747487484E+04  0.90408570716E+02 0.  0.
         11    1    3    3    0    0  0.91846488902E+03  0.12776328098E+04 -0.86004494163E+03  0.17932095947E+04  0.00000000000E+00 0. -1.
        -11    1    3    3    0    0  0.16418397212E+03  0.27250376383E+03 -0.21061207893E+03  0.38153915369E+03  0.00000000000E+00 0.  1.
         22    1    1    2    0    0 -0.10826488611E+04 -0.15501365736E+04  0.12796376346E+03  0.18951059807E+04  0.00000000000E+00 0.  1.
<mgrwt>
<rscale>  0 0.39591725E+04</rscale>
<asrwt>0</asrwt>
<pdfrwt beam="1">  1        2 0.24055088E+00 0.39591725E+04</pdfrwt>
<pdfrwt beam="2">  1       -2 0.38558062E+00 0.39591725E+04</pdfrwt>
<totfact> 0.85200151E-02</totfact>
</mgrwt>
</event>
<event>
 6    1  0.6091287E-004  0.1793756E+04  0.7818608E-02  0.8709627E-01
          2   -1    0    0  501    0  0.00000000000E+00  0.00000000000E+00  0.74929385964E+03  0.74929385964E+03  0.00000000000E+00 0.  1.
         -2   -1    0    0    0  501 -0.00000000000E+00 -0.00000000000E+00 -0.10735314774E+04  0.10735314774E+04  0.00000000000E+00 0. -1.
         23    2    1    2    0    0  0.42335821625E+03  0.24033160824E+02 -0.96298960175E+03  0.10561351328E+04  0.90899249661E+02 0.  0.
         13    1    3    3    0    0  0.27869792703E+03 -0.15461022427E+02 -0.55022689298E+03  0.61697748055E+03  0.00000000000E+00 0.  1.
        -13    1    3    3    0    0  0.14466028922E+03  0.39494183251E+02 -0.41276270877E+03  0.43915765226E+03  0.00000000000E+00 0. -1.
         22    1    1    2    0    0 -0.42335821625E+03 -0.24033160824E+02  0.63875198403E+03  0.76669020418E+03  0.00000000000E+00 0.  1.
<mgrwt>
<rscale>  0 0.17937564E+04</rscale>
<asrwt>0</asrwt>
<pdfrwt beam="1">  1        2 0.11527598E+00 0.17937564E+04</pdfrwt>
<pdfrwt beam="2">  1       -2 0.16515869E+00 0.17937564E+04</pdfrwt>
<totfact> 0.81840012E+00</totfact>
</mgrwt>
</event>
<event>
 6    1  0.6091287E-004  0.3664270E+04  0.7818608E-02  0.8075927E-01
          2   -1    0    0  501    0  0.00000000000E+00  0.00000000000E+00  0.26303764257E+04  0.26303764257E+04  0.00000000000E+00 0. -1.
         -2   -1    0    0    0  501 -0.00000000000E+00 -0.00000000000E+00 -0.12761361017E+04  0.12761361017E+04  0.00000000000E+00 0.  1.
         23    2    1    2    0    0 -0.42738233281E+03 -0.17796604081E+04  0.73335184039E+03  0.19738073416E+04  0.90904749394E+02 0.  0.
         11    1    3    3    0    0 -0.16678928155E+03 -0.52461824052E+03  0.20664909659E+03  0.58800239102E+03  0.00000000000E+00 0. -1.
        -11    1    3    3    0    0 -0.26059305127E+03 -0.12550421676E+04  0.52670274381E+03  0.13858049506E+04  0.00000000000E+00 0.  1.
         22    1    1    2    0    0  0.42738233281E+03  0.17796604081E+04  0.62088848360E+03  0.19327051859E+04  0.00000000000E+00 0.  1.
<mgrwt>
<rscale>  0 0.36642698E+04</rscale>
<asrwt>0</asrwt>
<pdfrwt beam="1">  1        2 0.40467330E+00 0.36642698E+04</pdfrwt>
<pdfrwt beam="2">  1       -2 0.19632863E+00 0.36642698E+04</pdfrwt>
<totfact> 0.33292495E-01</totfact>
</mgrwt>
</event>
<event>
 6    1  0.6091287E-004  0.2562898E+04  0.7818608E-02  0.8380914E-01
         -2   -1    0    0    0  501 -0.00000000000E+00  0.00000000000E+00  0.16008162263E+04  0.16008162263E+04  0.00000000000E+00 0. -1.
          2   -1    0    0  501    0  0.00000000000E+00 -0.00000000000E+00 -0.10257964386E+04  0.10257964386E+04  0.00000000000E+00 0.  1.
         23    2    1    2    0    0 -0.62262898064E+03 -0.94939397687E+03  0.89242176269E+03  0.14477319310E+04  0.10244691663E+03 0.  0.
         13    1    3    3    0    0 -0.28897795751E+03 -0.46960271389E+03  0.49515618861E+03  0.74109015642E+03  0.00000000000E+00 0.  1.
        -13    1    3    3    0    0 -0.33365102312E+03 -0.47979126297E+03  0.39726557407E+03  0.70664177460E+03  0.00000000000E+00 0. -1.
         22    1    1    2    0    0  0.62262898064E+03  0.94939397687E+03 -0.31740197499E+03  0.11788807338E+04  0.00000000000E+00 0.  1.
<mgrwt>
<rscale>  0 0.25628980E+04</rscale>
<asrwt>0</asrwt>
<pdfrwt beam="1">  1        2 0.15781484E+00 0.25628980E+04</pdfrwt>
<pdfrwt beam="2">  1       -2 0.24627942E+00 0.25628980E+04</pdfrwt>
<totfact> 0.14574157E+00</totfact>
</mgrwt>
</event>
<event>
 6    1  0.6091287E-004  0.3361047E+04  0.7818608E-02  0.8147533E-01
          2   -1    0    0  501    0  0.00000000000E+00  0.00000000000E+00  0.21335347957E+04  0.21335347957E+04  0.00000000000E+00 0.  1.
         -2   -1    0    0    0  501 -0.00000000000E+00 -0.00000000000E+00 -0.13236999842E+04  0.13236999842E+04  0.00000000000E+00 0. -1.
         23    2    1    2    0    0  0.79175327177E+03  0.59509411288E+03  0.18001088266E+04  0.20566445931E+04  0.91569361391E+02 0.  0.
         11    1    3    3    0    0  0.19176763282E+03  0.10107173946E+03  0.36120423026E+03  0.42125861115E+03  0.00000000000E+00 0.  1.
        -11    1    3    3    0    0  0.59998563896E+03  0.49402237342E+03  0.14389045964E+04  0.16353859819E+04  0.00000000000E+00 0. -1.
         22    1    1    2    0    0 -0.79175327177E+03 -0.59509411288E+03 -0.99027401508E+03  0.14005901868E+04  0.00000000000E+00 0. -1.
<mgrwt>
<rscale>  0 0.33610474E+04</rscale>
<asrwt>0</asrwt>
<pdfrwt beam="1">  1        2 0.32823612E+00 0.33610474E+04</pdfrwt>
<pdfrwt beam="2">  1       -2 0.20364615E+00 0.33610474E+04</pdfrwt>
<totfact> 0.58876396E-01</totfact>
</mgrwt>
</event>
<event>
 6    1  0.6091287E-004  0.1432803E+04  0.7818608E-02  0.8930410E-01
         -1   -1    0    0    0  501 -0.00000000000E+00  0.00000000000E+00  0.13890874018E+04  0.13890874018E+04  0.00000000000E+00 0. -1.
          1   -1    0    0  501    0  0.00000000000E+00 -0.00000000000E+00 -0.36947365019E+03  0.36947365019E+03  0.00000000000E+00 0.  1.
         23    2    1    2    0    0  0.51844093903E+03  0.48000242799E+03  0.38876682282E+03  0.81138040094E+03  0.89527506204E+02 0.  0.
         11    1    3    3    0    0  0.45526922499E+03  0.44621471455E+03  0.32534331228E+03  0.71569959449E+03  0.00000000000E+00 0.  1.
        -11    1    3    3    0    0  0.63171714036E+02  0.33787713440E+02  0.63423510544E+02  0.95680806453E+02  0.00000000000E+00 0. -1.
         22    1    1    2    0    0 -0.51844093903E+03 -0.48000242799E+03  0.63084692876E+03  0.94718065102E+03  0.00000000000E+00 0. -1.
<mgrwt>
<rscale>  0 0.14328031E+04</rscale>
<asrwt>0</asrwt>
<pdfrwt beam="1">  1        1 0.56842101E-01 0.14328031E+04</pdfrwt>
<pdfrwt beam="2">  1       -1 0.21370575E+00 0.14328031E+04</pdfrwt>
<totfact> 0.78678745E+00</totfact>
</mgrwt>
</event>
<event>
 6    1  0.6091287E-004  0.2496152E+04  0.7818608E-02  0.8404358E-01
          2   -1    0    0  501    0  0.00000000000E+00  0.00000000000E+00  0.10705780795E+04  0.10705780795E+04  0.00000000000E+00 0.  1.
         -2   -1    0    0    0  501 -0.00000000000E+00 -0.00000000000E+00 -0.14550029506E+04  0.14550029506E+04  0.00000000000E+00 0. -1.
         23    2    1    2    0    0  0.96148054540E+03  0.15461462032E+03  0.59464673000E+03  0.11446640449E+04  0.91107201184E+02 0.  0.
         11    1    3    3    0    0  0.60122156151E+03  0.10254427668E+03  0.32060161668E+03  0.68903417283E+03  0.00000000000E+00 0.  1.
        -11    1    3    3    0    0  0.36025898389E+03  0.52070343637E+02  0.27404511332E+03  0.45562987204E+03  0.00000000000E+00 0. -1.
         22    1    1    2    0    0 -0.96148054540E+03 -0.15461462032E+03 -0.97907160105E+03  0.13809169852E+04  0.00000000000E+00 0. -1.
<mgrwt>
<rscale>  0 0.24961525E+04</rscale>
<asrwt>0</asrwt>
<pdfrwt beam="1">  1        2 0.16470432E+00 0.24961525E+04</pdfrwt>
<pdfrwt beam="2">  1       -2 0.22384661E+00 0.24961525E+04</pdfrwt>
<totfact> 0.18942926E+00</totfact>
</mgrwt>
</event>
<event>
 6    1  0.6091287E-004  0.4578427E+03  0.7818608E-02  0.1025409E+00
         -2   -1    0    0    0  501 -0.00000000000E+00  0.00000000000E+00  0.29118273481E+02  0.29118273481E+02  0.00000000000E+00 0. -1.
          2   -1    0    0  501    0  0.00000000000E+00 -0.00000000000E+00 -0.17997286115E+04  0.17997286115E+04  0.00000000000E+00 0.  1.
         23    2    1    2    0    0  0.46980018826E+02 -0.14086861335E+03 -0.15693184674E+04  0.15787079125E+04  0.86643709410E+02 0.  0.
         11    1    3    3    0    0  0.58825190197E+02 -0.42045728643E+02 -0.68543480840E+03  0.68923807415E+03  0.00000000000E+00 0. -1.
        -11    1    3    3    0    0 -0.11845171372E+02 -0.98822884704E+02 -0.88388365898E+03  0.88946983830E+03  0.00000000000E+00 0.  1.
         22    1    1    2    0    0 -0.46980018826E+02  0.14086861335E+03 -0.20129187066E+03  0.25013897255E+03  0.00000000000E+00 0. -1.
<mgrwt>
<rscale>  0 0.45784272E+03</rscale>
<asrwt>0</asrwt>
<pdfrwt beam="1">  1        2 0.27688136E+00 0.45784272E+03</pdfrwt>
<pdfrwt beam="2">  1       -2 0.44797338E-02 0.45784272E+03</pdfrwt>
<totfact> 0.21749075E+03</totfact>
</mgrwt>
</event>
<event>
 6    1  0.6091287E-004  0.1391006E+04  0.7818608E-02  0.8960355E-01
         -2   -1    0    0    0  501 -0.00000000000E+00  0.00000000000E+00  0.38684942817E+03  0.38684942817E+03  0.00000000000E+00 0. -1.
          2   -1    0    0  501    0  0.00000000000E+00 -0.00000000000E+00 -0.12504208964E+04  0.12504208964E+04  0.00000000000E+00 0.  1.
         23    2    1    2    0    0  0.32464100476E+03 -0.53486250920E+03 -0.78229228475E+03  0.10063376884E+04  0.96252992269E+02 0.  0.
         11    1    3    3    0    0  0.11703855727E+03 -0.11261318960E+03 -0.19326897041E+03  0.25245326158E+03  0.00000000000E+00 0. -1.
        -11    1    3    3    0    0  0.20760244749E+03 -0.42224931960E+03 -0.58902331434E+03  0.75388442678E+03  0.00000000000E+00 0.  1.
         22    1    1    2    0    0 -0.32464100476E+03  0.53486250920E+03 -0.81279183442E+02  0.63093263617E+03  0.00000000000E+00 0. -1.
<mgrwt>
<rscale>  0 0.13910063E+04</rscale>
<asrwt>0</asrwt>
<pdfrwt beam="1">  1        2 0.19237244E+00 0.13910063E+04</pdfrwt>
<pdfrwt beam="2">  1       -2 0.59515297E-01 0.13910063E+04</pdfrwt>
<totfact> 0.45360133E+01</totfact>
</mgrwt>
</event>
<event>
 6    1  0.6091287E-004  0.1098976E+04  0.7818608E-02  0.9206191E-01
         -4   -1    0    0    0  501 -0.00000000000E+00  0.00000000000E+00  0.18971158595E+04  0.18971158595E+04  0.00000000000E+00 0. -1.
          4   -1    0    0  501    0  0.00000000000E+00 -0.00000000000E+00 -0.15915582402E+03  0.15915582402E+03  0.00000000000E+00 0.  1.
         23    2    1    2    0    0  0.38328211395E+02  0.35317335237E+03  0.16501184204E+04  0.16903254881E+04  0.90049907562E+02 0.  0.
         11    1    3    3    0    0  0.57331779051E+02  0.16305256226E+03  0.88421616610E+03  0.90095022023E+03  0.00000000000E+00 0.  1.
        -11    1    3    3    0    0 -0.19003567656E+02  0.19012079011E+03  0.76590225427E+03  0.78937526786E+03  0.00000000000E+00 0. -1.
         22    1    1    2    0    0 -0.38328211395E+02 -0.35317335237E+03  0.87841615126E+02  0.36594619545E+03  0.00000000000E+00 0.  1.
<mgrwt>
<rscale>  0 0.10989760E+04</rscale>
<asrwt>0</asrwt>
<pdfrwt beam="1">  1        4 0.24485513E-01 0.10989760E+04</pdfrwt>
<pdfrwt beam="2">  1       -4 0.29186396E+00 0.10989760E+04</pdfrwt>
<totfact> 0.11057577E+00</totfact>
</mgrwt>
</event>
<event>
 6    1  0.6091287E-004  0.8843478E+03  0.7818608E-02  0.9445362E-01
          2   -1    0    0  501    0  0.00000000000E+00  0.00000000000E+00  0.34848380345E+04  0.34848380345E+04  0.00000000000E+00 0.  1.
         -2   -1    0    0    0  501 -0.00000000000E+00 -0.00000000000E+00 -0.56105257958E+02  0.56105257958E+02  0.00000000000E+00 0. -1.
         23    2    1    2    0    0  0.20790182765E+03 -0.38237147134E+03  0.19040240796E+04  0.19553305647E+04  0.92621862138E+02 0.  0.
         11    1    3    3    0    0  0.70852586044E+02 -0.22138474653E+03  0.10659641619E+04  0.10910136981E+04  0.00000000000E+00 0. -1.
        -11    1    3    3    0    0  0.13704924161E+03 -0.16098672480E+03  0.83805991771E+03  0.86431686659E+03  0.00000000000E+00 0.  1.
         22    1    1    2    0    0 -0.20790182765E+03  0.38237147134E+03  0.15247086969E+04  0.15856127278E+04  0.00000000000E+00 0. -1.
<mgrwt>
<rscale>  0 0.88434775E+03</rscale>
<asrwt>0</asrwt>
<pdfrwt beam="1">  1        2 0.53612876E+00 0.88434775E+03</pdfrwt>
<pdfrwt beam="2">  1       -2 0.86315809E-02 0.88434775E+03</pdfrwt>
<totfact> 0.76645549E+01</totfact>
</mgrwt>
</event>
<event>
 6    1  0.6091287E-004  0.9920599E+03  0.7818608E-02  0.9317296E-01
          2   -1    0    0  501    0  0.00000000000E+00  0.00000000000E+00  0.10257691772E+04  0.10257691772E+04  0.00000000000E+00 0.  1.
         -2   -1    0    0    0  501 -0.00000000000E+00 -0.00000000000E+00 -0.23986459931E+03  0.23986459931E+03  0.00000000000E+00 0. -1.
         23    2    1    2    0    0  0.45600979159E+03 -0.43559913687E+02  0.16770769246E+03  0.49621205517E+03  0.90874294960E+02 0.  0.
         13    1    3    3    0    0  0.13943739529E+03  0.26732547589E+02  0.64139712051E+02  0.15579255106E+03  0.00000000000E+00 0.  1.
        -13    1    3    3    0    0  0.31657239630E+03 -0.70292461277E+02  0.10356798041E+03  0.34041950411E+03  0.00000000000E+00 0. -1.
         22    1    1    2    0    0 -0.45600979159E+03  0.43559913687E+02  0.61819688547E+03  0.76942172136E+03  0.00000000000E+00 0.  1.
<mgrwt>
<rscale>  0 0.99205990E+03</rscale>
<asrwt>0</asrwt>
<pdfrwt beam="1">  1        2 0.15781064E+00 0.99205990E+03</pdfrwt>
<pdfrwt beam="2">  1       -2 0.36902247E-01 0.99205990E+03</pdfrwt>
<totfact> 0.16739169E+02</totfact>
</mgrwt>
</event>
<event>
 6    1  0.6091287E-004  0.2794708E+04  0.7818608E-02  0.8304913E-01
         -2   -1    0    0    0  501 -0.00000000000E+00  0.00000000000E+00  0.81937643017E+03  0.81937643017E+03  0.00000000000E+00 0. -1.
          2   -1    0    0  501    0  0.00000000000E+00 -0.00000000000E+00 -0.23830287788E+04  0.23830287788E+04  0.00000000000E+00 0.  1.
         23    2    1    2    0    0 -0.81392056540E+03 -0.10603844156E+04 -0.12432556405E+04  0.18278013219E+04  0.91056515432E+02 0.  0.
         13    1    3    3    0    0 -0.53959478870E+03 -0.69996917815E+03 -0.87982826371E+03  0.12470834615E+04  0.00000000000E+00 0.  1.
        -13    1    3    3    0    0 -0.27432577670E+03 -0.36041523750E+03 -0.36342737679E+03  0.58071786040E+03  0.00000000000E+00 0. -1.
         22    1    1    2    0    0  0.81392056540E+03  0.10603844156E+04 -0.32039670812E+03  0.13746038871E+04  0.00000000000E+00 0.  1.
<mgrwt>
<rscale>  0 0.27947076E+04</rscale>
<asrwt>0</asrwt>
<pdfrwt beam="1">  1        2 0.36661981E+00 0.27947076E+04</pdfrwt>
<pdfrwt beam="2">  1       -2 0.12605791E+00 0.27947076E+04</pdfrwt>
<totfact> 0.16611055E+00</totfact>
</mgrwt>
</event>
<event>
 6    1  0.6091287E-004  0.1443462E+04  0.7818608E-02  0.8922946E-01
          2   -1    0    0  501    0  0.00000000000E+00  0.00000000000E+00  0.30555274154E+04  0.30555274154E+04  0.00000000000E+00 0.  1.
         -2   -1    0    0    0  501 -0.00000000000E+00 -0.00000000000E+00 -0.17047641951E+03  0.17047641951E+03  0.00000000000E+00 0. -1.
         23    2    1    2    0    0 -0.67825017822E+03  0.23767994647E+03  0.14762460202E+04  0.16444708695E+04  0.92016668006E+02 0.  0.
         11    1    3    3    0    0 -0.28721233263E+03  0.71872186295E+02  0.68993537357E+03  0.75077783324E+03  0.00000000000E+00 0.  1.
        -11    1    3    3    0    0 -0.39103784559E+03  0.16580776018E+03  0.78631064661E+03  0.89369303622E+03  0.00000000000E+00 0. -1.
         22    1    1    2    0    0  0.67825017822E+03 -0.23767994647E+03  0.14088049757E+04  0.15815329655E+04  0.00000000000E+00 0. -1.
<mgrwt>
<rscale>  0 0.14434616E+04</rscale>
<asrwt>0</asrwt>
<pdfrwt beam="1">  1        2 0.47008110E+00 0.14434616E+04</pdfrwt>
<pdfrwt beam="2">  1       -2 0.26227144E-01 0.14434616E+04</pdfrwt>
<totfact> 0.20674280E+01</totfact>
</mgrwt>
</event>
<event>
 6    1  0.6091287E-004  0.1280678E+04  0.7818608E-02  0.9045029E-01
          2   -1    0    0  501    0  0.00000000000E+00  0.00000000000E+00  0.10086556810E+04  0.10086556810E+04  0.00000000000E+00 0.  1.
         -2   -1    0    0    0  501 -0.00000000000E+00 -0.00000000000E+00 -0.40651546128E+03  0.40651546128E+03  0.00000000000E+00 0. -1.
         23    2    1    2    0    0 -0.15187892962E+03  0.42451149098E+03  0.80003063551E+03  0.92279137842E+03  0.90651503504E+02 0.  0.
         11    1    3    3    0    0  0.41902233308E+01 -0.20061539114E+00  0.24961131524E+02  0.25311189325E+02  0.00000000000E+00 0.  1.
        -11    1    3    3    0    0 -0.15606915295E+03  0.42471210638E+03  0.77506950398E+03  0.89748018909E+03  0.00000000000E+00 0. -1.
         22    1    1    2    0    0  0.15187892962E+03 -0.42451149098E+03 -0.19789041576E+03  0.49237976389E+03  0.00000000000E+00 0. -1.
<mgrwt>
<rscale>  0 0.12806781E+04</rscale>
<asrwt>0</asrwt>
<pdfrwt beam="1">  1        2 0.15517780E+00 0.12806781E+04</pdfrwt>
<pdfrwt beam="2">  1       -2 0.62540840E-01 0.12806781E+04</pdfrwt>
<totfact> 0.57886603E+01</totfact>
</mgrwt>
</event>
<event>
 6    1  0.6091287E-004  0.4057552E+03  0.7818608E-02  0.1041805E+00
          2   -1    0    0  501    0  0.00000000000E+00  0.00000000000E+00  0.54771358468E+03  0.54771358468E+03  0.00000000000E+00 0.  1.
         -2   -1    0    0    0  501 -0.00000000000E+00 -0.00000000000E+00 -0.75147531171E+02  0.75147531171E+02  0.00000000000E+00 0. -1.
         23    2    1    2    0    0  0.12751382373E+03 -0.18188824648E+02  0.46839129912E+03  0.49398894213E+03  0.89688668549E+02 0.  0.
         11    1    3    3    0    0  0.48594658486E+02  0.36493179471E+02  0.17045601221E+03  0.18096531458E+03  0.00000000000E+00 0.  1.
        -11    1    3    3    0    0  0.78919165248E+02 -0.54682004120E+02  0.29793528691E+03  0.31302362755E+03  0.00000000000E+00 0. -1.
         22    1    1    2    0    0 -0.12751382373E+03  0.18188824648E+02  0.41747543847E+01  0.12887217372E+03  0.00000000000E+00 0. -1.
<mgrwt>
<rscale>  0 0.40575522E+03</rscale>
<asrwt>0</asrwt>
<pdfrwt beam="1">  1        2 0.84263626E-01 0.40575522E+03</pdfrwt>
<pdfrwt beam="2">  1       -2 0.11561159E-01 0.40575522E+03</pdfrwt>
<totfact> 0.29640193E+03</totfact>
</mgrwt>
</event>
<event>
 6    1  0.6091287E-004  0.2836384E+04  0.7818608E-02  0.8292061E-01
          2   -1    0    0  501    0  0.00000000000E+00  0.00000000000E+00  0.28102842202E+04  0.28102842202E+04  0.00000000000E+00 0.  1.
         -2   -1    0    0    0  501 -0.00000000000E+00 -0.00000000000E+00 -0.71568150806E+03  0.71568150806E+03  0.00000000000E+00 0. -1.
         23    2    1    2    0    0  0.10410715491E+04  0.33450129443E+03  0.21682955783E+04  0.24299950513E+04  0.87459409382E+02 0.  0.
         13    1    3    3    0    0  0.27426789241E+03  0.11544332681E+03  0.65506477327E+03  0.71948585510E+03  0.00000000000E+00 0.  1.
        -13    1    3    3    0    0  0.76680365665E+03  0.21905796762E+03  0.15132308050E+04  0.17105091962E+04  0.00000000000E+00 0. -1.
         22    1    1    2    0    0 -0.10410715491E+04 -0.33450129443E+03 -0.73692866143E+02  0.10959706770E+04  0.00000000000E+00 0. -1.
<mgrwt>
<rscale>  0 0.28363839E+04</rscale>
<asrwt>0</asrwt>
<pdfrwt beam="1">  1        2 0.43235141E+00 0.28363839E+04</pdfrwt>
<pdfrwt beam="2">  1       -2 0.11010485E+00 0.28363839E+04</pdfrwt>
<totfact> 0.12957951E+00</totfact>
</mgrwt>
</event>
<event>
 6    1  0.6091287E-004  0.1045055E+04  0.7818608E-02  0.9260465E-01
          2   -1    0    0  501    0  0.00000000000E+00  0.00000000000E+00  0.28207159366E+04  0.28207159366E+04  0.00000000000E+00 0.  1.
         -2   -1    0    0    0  501 -0.00000000000E+00 -0.00000000000E+00 -0.96796290340E+02  0.96796290340E+02  0.00000000000E+00 0. -1.
         23    2    1    2    0    0  0.31440197581E+03 -0.51353847435E+02  0.25154331510E+04  0.25367860277E+04  0.79959950109E+02 0.  0.
         11    1    3    3    0    0  0.14613205646E+03 -0.55839157481E+02  0.10233931861E+04  0.10352807362E+04  0.00000000000E+00 0.  1.
        -11    1    3    3    0    0  0.16826991936E+03  0.44853100463E+01  0.14920399649E+04  0.15015052916E+04  0.00000000000E+00 0. -1.
         22    1    1    2    0    0 -0.31440197581E+03  0.51353847435E+02  0.20848649535E+03  0.38072619924E+03  0.00000000000E+00 0. -1.
<mgrwt>
<rscale>  0 0.10450547E+04</rscale>
<asrwt>0</asrwt>
<pdfrwt beam="1">  1        2 0.43395624E+00 0.10450547E+04</pdfrwt>
<pdfrwt beam="2">  1       -2 0.14891739E-01 0.10450547E+04</pdfrwt>
<totfact> 0.80924222E+01</totfact>
</mgrwt>
</event>
<event>
 6    1  0.6091287E-004  0.3593130E+04  0.7818608E-02  0.8092067E-01
          2   -1    0    0  501    0  0.00000000000E+00  0.00000000000E+00  0.31600100206E+04  0.31600100206E+04  0.00000000000E+00 0.  1.
         -2   -1    0    0    0  501 -0.00000000000E+00 -0.00000000000E+00 -0.10214039014E+04  0.10214039014E+04  0.00000000000E+00 0. -1.
         23    2    1    2    0    0 -0.60731645158E+03  0.15960299593E+04  0.42456017266E+03  0.17618895039E+04  0.88647506777E+02 0.  0.
         11    1    3    3    0    0 -0.24141114771E+03  0.75822322591E+03  0.19334077890E+03  0.81887878183E+03  0.00000000000E+00 0. -1.
        -11    1    3    3    0    0 -0.36590530388E+03  0.83780673334E+03  0.23121939376E+03  0.94301072204E+03  0.00000000000E+00 0.  1.
         22    1    1    2    0    0  0.60731645158E+03 -0.15960299593E+04  0.17140459465E+04  0.24195244181E+04  0.00000000000E+00 0. -1.
<mgrwt>
<rscale>  0 0.35931304E+04</rscale>
<asrwt>0</asrwt>
<pdfrwt beam="1">  1        2 0.48615538E+00 0.35931304E+04</pdfrwt>
<pdfrwt beam="2">  1       -2 0.15713906E+00 0.35931304E+04</pdfrwt>
<totfact> 0.29673531E-01</totfact>
</mgrwt>
</event>
<event>
 6    1  0.6091287E-004  0.2225034E+04  0.7818608E-02  0.8508080E-01
          2   -1    0    0  501    0  0.00000000000E+00  0.00000000000E+00  0.27745763932E+04  0.27745763932E+04  0.00000000000E+00 0.  1.
         -2   -1    0    0    0  501 -0.00000000000E+00 -0.00000000000E+00 -0.44608404214E+03  0.44608404214E+03  0.00000000000E+00 0. -1.
         23    2    1    2    0    0 -0.60861362400E+03 -0.71050147525E+03  0.20325999076E+04  0.22394493328E+04  0.91913221195E+02 0.  0.
         11    1    3    3    0    0 -0.19509887106E+03 -0.19100011126E+03  0.67660005817E+03  0.72961102699E+03  0.00000000000E+00 0.  1.
        -11    1    3    3    0    0 -0.41351475294E+03 -0.51950136400E+03  0.13559998494E+04  0.15098383058E+04  0.00000000000E+00 0. -1.
         22    1    1    2    0    0  0.60861362400E+03  0.71050147525E+03  0.29589244348E+03  0.98121110255E+03  0.00000000000E+00 0. -1.
<mgrwt>
<rscale>  0 0.22250342E+04</rscale>
<asrwt>0</asrwt>
<pdfrwt beam="1">  1        2 0.42685790E+00 0.22250342E+04</pdfrwt>
<pdfrwt beam="2">  1       -2 0.68628316E-01 0.22250342E+04</pdfrwt>
<totfact> 0.42436392E+00</totfact>
</mgrwt>
</event>
<event>
 6    1  0.6091287E-004  0.1251368E+04  0.7818608E-02  0.9069045E-01
          2   -1    0    0  501    0  0.00000000000E+00  0.00000000000E+00  0.11523396823E+04  0.11523396823E+04  0.00000000000E+00 0.  1.
         -2   -1    0    0    0  501 -0.00000000000E+00 -0.00000000000E+00 -0.33972673240E+03  0.33972673240E+03  0.00000000000E+00 0. -1.
         23    2    1    2    0    0 -0.38908587997E+03  0.25312847332E+03  0.90277425230E+03  0.10192124135E+04  0.91272927095E+02 0.  0.
         13    1    3    3    0    0 -0.27602764126E+03  0.12782910194E+03  0.59114376521E+03  0.66481763603E+03  0.00000000000E+00 0.  1.
        -13    1    3    3    0    0 -0.11305823872E+03  0.12529937138E+03  0.31163048709E+03  0.35439477747E+03  0.00000000000E+00 0. -1.
         22    1    1    2    0    0  0.38908587997E+03 -0.25312847332E+03 -0.90161302394E+02  0.47285400120E+03  0.00000000000E+00 0. -1.
<mgrwt>
<rscale>  0 0.12513682E+04</rscale>
<asrwt>0</asrwt>
<pdfrwt beam="1">  1        2 0.17728303E+00 0.12513682E+04</pdfrwt>
<pdfrwt beam="2">  1       -2 0.52265652E-01 0.12513682E+04</pdfrwt>
<totfact> 0.68750007E+01</totfact>
</mgrwt>
</event>
<event>
 6    1  0.6091287E-004  0.4850449E+04  0.7818608E-02  0.7852000E-01
          2   -1    0    0  501    0  0.00000000000E+00  0.00000000000E+00  0.47609422113E+04  0.47609422113E+04  0.00000000000E+00 0.  1.
         -2   -1    0    0    0  501 -0.00000000000E+00 -0.00000000000E+00 -0.12354096941E+04  0.12354096941E+04  0.00000000000E+00 0. -1.
         23    2    1    2    0    0 -0.54420849160E+03  0.23304606855E+04  0.12861550801E+04  0.27188496255E+04  0.10362676694E+03 0.  0.
         11    1    3    3    0    0 -0.25918431000E+03  0.11766727830E+04  0.59125223448E+03  0.13421306008E+04  0.00000000000E+00 0. -1.
        -11    1    3    3    0    0 -0.28502418160E+03  0.11537879026E+04  0.69490284559E+03  0.13767190247E+04  0.00000000000E+00 0.  1.
         22    1    1    2    0    0  0.54420849160E+03 -0.23304606855E+04  0.22393774372E+04  0.32775022800E+04  0.00000000000E+00 0. -1.
<mgrwt>
<rscale>  0 0.48504491E+04</rscale>
<asrwt>0</asrwt>
<pdfrwt beam="1">  1        2 0.73245264E+00 0.48504491E+04</pdfrwt>
<pdfrwt beam="2">  1       -2 0.19006303E+00 0.48504491E+04</pdfrwt>
<totfact> 0.74140445E-03</totfact>
</mgrwt>
</event>
<event>
 6    1  0.6091287E-004  0.5899128E+03  0.7818608E-02  0.9926558E-01
          1   -1    0    0  501    0  0.00000000000E+00  0.00000000000E+00  0.41790424949E+03  0.41790424949E+03  0.00000000000E+00 0.  1.
         -1   -1    0    0    0  501 -0.00000000000E+00 -0.00000000000E+00 -0.20817995970E+03  0.20817995970E+03  0.00000000000E+00 0. -1.
         23    2    1    2    0    0 -0.18714190841E+03  0.12661365866E+02  0.33915886988E+03  0.39819012284E+03  0.91346761534E+02 0.  0.
         11    1    3    3    0    0 -0.42843761844E+02 -0.21914847077E+02  0.15147528998E+03  0.15893587362E+03  0.00000000000E+00 0. -1.
        -11    1    3    3    0    0 -0.14429814657E+03  0.34576212943E+02  0.18768357991E+03  0.23925424922E+03  0.00000000000E+00 0.  1.
         22    1    1    2    0    0  0.18714190841E+03 -0.12661365866E+02 -0.12943458009E+03  0.22789408635E+03  0.00000000000E+00 0. -1.
<mgrwt>
<rscale>  0 0.58991284E+03</rscale>
<asrwt>0</asrwt>
<pdfrwt beam="1">  1        1 0.64292961E-01 0.58991284E+03</pdfrwt>
<pdfrwt beam="2">  1       -1 0.32027686E-01 0.58991284E+03</pdfrwt>
<totfact> 0.51975083E+02</totfact>
</mgrwt>
</event>
<event>
 6    1  0.6091287E-004  0.3670689E+03  0.7818608E-02  0.1055819E+00
         -2   -1    0    0    0  501 -0.00000000000E+00  0.00000000000E+00  0.42721083248E+02  0.42721083248E+02  0.00000000000E+00 0. -1.
          2   -1    0    0  501    0  0.00000000000E+00 -0.00000000000E+00 -0.78848389233E+03  0.78848389233E+03  0.00000000000E+00 0.  1.
         23    2    1    2    0    0  0.16446562204E+03  0.12911074305E+02 -0.27417162249E+03  0.33159124083E+03  0.86988710449E+02 0.  0.
         11    1    3    3    0    0  0.84007306409E+02  0.39787247674E+02 -0.92723233354E+02  0.13129299529E+03  0.00000000000E+00 0. -1.
        -11    1    3    3    0    0  0.80458315632E+02 -0.26876173368E+02 -0.18144838914E+03  0.20029824555E+03  0.00000000000E+00 0.  1.
         22    1    1    2    0    0 -0.16446562204E+03 -0.12911074305E+02 -0.47159118659E+03  0.49961373474E+03  0.00000000000E+00 0.  1.
<mgrwt>
<rscale>  0 0.36706885E+03</rscale>
<asrwt>0</asrwt>
<pdfrwt beam="1">  1        2 0.12130520E+00 0.36706885E+03</pdfrwt>
<pdfrwt beam="2">  1       -2 0.65724750E-02 0.36706885E+03</pdfrwt>
<totfact> 0.46674888E+03</totfact>
</mgrwt>
</event>
<event>
 6    1  0.6091287E-004  0.6964918E+03  0.7818608E-02  0.9723251E-01
         -2   -1    0    0    0  501 -0.00000000000E+00  0.00000000000E+00  0.68307544071E+02  0.68307544071E+02  0.00000000000E+00 0. -1.
          2   -1    0    0  501    0  0.00000000000E+00 -0.00000000000E+00 -0.17754290234E+04  0.17754290234E+04  0.00000000000E+00 0.  1.
         23    2    1    2    0    0 -0.18567316544E+03  0.17644934739E+03 -0.27008086986E+03  0.38404666553E+03  0.94547704790E+02 0.  0.
         11    1    3    3    0    0 -0.11030624699E+03  0.62711126077E+02 -0.18119566835E+03  0.22120584008E+03  0.00000000000E+00 0.  1.
        -11    1    3    3    0    0 -0.75366918455E+02  0.11373822131E+03 -0.88885201510E+02  0.16284082545E+03  0.00000000000E+00 0. -1.
         22    1    1    2    0    0  0.18567316544E+03 -0.17644934739E+03 -0.14370406095E+04  0.14596899020E+04  0.00000000000E+00 0.  1.
<mgrwt>
<rscale>  0 0.69649177E+03</rscale>
<asrwt>0</asrwt>
<pdfrwt beam="1">  1        2 0.27314294E+00 0.69649177E+03</pdfrwt>
<pdfrwt beam="2">  1       -2 0.10508853E-01 0.69649177E+03</pdfrwt>
<totfact> 0.57574753E+02</totfact>
</mgrwt>
</event>
<event>
 6    1  0.6091287E-004  0.3067221E+04  0.7818608E-02  0.8224792E-01
          2   -1    0    0  501    0  0.00000000000E+00  0.00000000000E+00  0.18022404493E+04  0.18022404493E+04  0.00000000000E+00 0.  1.
         -2   -1    0    0    0  501 -0.00000000000E+00 -0.00000000000E+00 -0.13050209561E+04  0.13050209561E+04  0.00000000000E+00 0. -1.
         23    2    1    2    0    0 -0.79005696980E+03 -0.12295568096E+04 -0.21737474038E+03  0.14804101884E+04  0.91447169480E+02 0.  0.
         13    1    3    3    0    0 -0.53909227358E+03 -0.83353281002E+03 -0.10442785468E+03  0.99814958881E+03  0.00000000000E+00 0. -1.
        -13    1    3    3    0    0 -0.25096469622E+03 -0.39602399954E+03 -0.11294688570E+03  0.48226059963E+03  0.00000000000E+00 0.  1.
         22    1    1    2    0    0  0.79005696980E+03  0.12295568096E+04  0.71459423357E+03  0.16268512170E+04  0.00000000000E+00 0.  1.
<mgrwt>
<rscale>  0 0.30672213E+04</rscale>
<asrwt>0</asrwt>
<pdfrwt beam="1">  1        2 0.27726776E+00 0.30672213E+04</pdfrwt>
<pdfrwt beam="2">  1       -2 0.20077246E+00 0.30672213E+04</pdfrwt>
<totfact> 0.96298127E-01</totfact>
</mgrwt>
</event>
<event>
 6    1  0.6091287E-004  0.2582520E+04  0.7818608E-02  0.8374163E-01
         -2   -1    0    0    0  501 -0.00000000000E+00  0.00000000000E+00  0.15790840842E+04  0.15790840842E+04  0.00000000000E+00 0. -1.
          2   -1    0    0  501    0  0.00000000000E+00 -0.00000000000E+00 -0.10558984275E+04  0.10558984275E+04  0.00000000000E+00 0.  1.
         23    2    1    2    0    0 -0.12404461267E+04 -0.20756161369E+03  0.55268012731E+03  0.13769450160E+04  0.93455000980E+02 0.  0.
         13    1    3    3    0    0 -0.51706878616E+03 -0.99885969867E+02  0.27983530324E+03  0.59635990269E+03  0.00000000000E+00 0. -1.
        -13    1    3    3    0    0 -0.72337734054E+03 -0.10767564382E+03  0.27284482407E+03  0.78058511330E+03  0.00000000000E+00 0.  1.
         22    1    1    2    0    0  0.12404461267E+04  0.20756161369E+03 -0.29494470622E+02  0.12580374957E+04  0.00000000000E+00 0.  1.
<mgrwt>
<rscale>  0 0.25825200E+04</rscale>
<asrwt>0</asrwt>
<pdfrwt beam="1">  1        2 0.16244591E+00 0.25825200E+04</pdfrwt>
<pdfrwt beam="2">  1       -2 0.24293601E+00 0.25825200E+04</pdfrwt>
<totfact> 0.14604307E+00</totfact>
</mgrwt>
</event>
<event>
 6    1  0.6091287E-004  0.3254362E+04  0.7818608E-02  0.8174606E-01
          2   -1    0    0  501    0  0.00000000000E+00  0.00000000000E+00  0.17095039034E+04  0.17095039034E+04  0.00000000000E+00 0.  1.
         -2   -1    0    0    0  501 -0.00000000000E+00 -0.00000000000E+00 -0.15488220464E+04  0.15488220464E+04  0.00000000000E+00 0. -1.
         23    2    1    2    0    0  0.55987949148E+03  0.53440915671E+03 -0.13510899916E+04  0.15599407421E+04  0.94407424958E+02 0.  0.
         13    1    3    3    0    0  0.13901887769E+03  0.14270743482E+03 -0.27088788226E+03  0.33626166160E+03  0.00000000000E+00 0. -1.
        -13    1    3    3    0    0  0.42086061379E+03  0.39170172189E+03 -0.10802021093E+04  0.12236790805E+04  0.00000000000E+00 0.  1.
         22    1    1    2    0    0 -0.55987949148E+03 -0.53440915671E+03  0.15117718485E+04  0.16983852077E+04  0.00000000000E+00 0.  1.
<mgrwt>
<rscale>  0 0.32543616E+04</rscale>
<asrwt>0</asrwt>
<pdfrwt beam="1">  1        2 0.26300060E+00 0.32543616E+04</pdfrwt>
<pdfrwt beam="2">  1       -2 0.23828031E+00 0.32543616E+04</pdfrwt>
<totfact> 0.61661414E-01</totfact>
</mgrwt>
</event>
<event>
 6    1  0.6091287E-004  0.2742377E+04  0.7818608E-02  0.8321385E-01
         -2   -1    0    0    0  501 -0.00000000000E+00  0.00000000000E+00  0.12807370045E+04  0.12807370045E+04  0.00000000000E+00 0. -1.
          2   -1    0    0  501    0  0.00000000000E+00 -0.00000000000E+00 -0.14680278864E+04  0.14680278864E+04  0.00000000000E+00 0.  1.
         23    2    1    2    0    0  0.63422369877E+03 -0.86226809116E+03 -0.95034237645E+03  0.14342332083E+04  0.90157097908E+02 0.  0.
         13    1    3    3    0    0  0.37105085253E+03 -0.49475190448E+03 -0.60748858437E+03  0.86689132092E+03  0.00000000000E+00 0. -1.
        -13    1    3    3    0    0  0.26317284624E+03 -0.36751618669E+03 -0.34285379207E+03  0.56734188741E+03  0.00000000000E+00 0.  1.
         22    1    1    2    0    0 -0.63422369877E+03  0.86226809116E+03  0.76305149456E+03  0.13145316826E+04  0.00000000000E+00 0. -1.
<mgrwt>
<rscale>  0 0.27423768E+04</rscale>
<asrwt>0</asrwt>
<pdfrwt beam="1">  1        2 0.22585044E+00 0.27423768E+04</pdfrwt>
<pdfrwt beam="2">  1       -2 0.19703646E+00 0.27423768E+04</pdfrwt>
<totfact> 0.16098501E+00</totfact>
</mgrwt>
</event>
<event>
 6    1  0.1276148E-003  0.3867135E+04  0.7818608E-02  0.8031899E-01
          2   -1    0    0  501    0  0.00000000000E+00  0.00000000000E+00  0.22678333042E+04  0.22678333042E+04  0.00000000000E+00 0.  1.
         -2   -1    0    0    0  501 -0.00000000000E+00 -0.00000000000E+00 -0.16485702704E+04  0.16485702704E+04  0.00000000000E+00 0. -1.
         23    2    1    2    0    0 -0.16119552565E+04 -0.26404438001E+03 -0.73599079635E+03  0.17939445932E+04  0.91845346339E+02 0.  0.
         13    1    3    3    0    0 -0.63911646082E+03 -0.95357295913E+02 -0.33957392521E+03  0.72998172242E+03  0.00000000000E+00 0. -1.
        -13    1    3    3    0    0 -0.97283879569E+03 -0.16868708410E+03 -0.39641687113E+03  0.10639628708E+04  0.00000000000E+00 0.  1.
         22    1    1    2    0    0  0.16119552565E+04  0.26404438001E+03  0.13552538301E+04  0.21224589814E+04  0.00000000000E+00 0.  1.
<mgrwt>
<rscale>  0 0.38671346E+04</rscale>
<asrwt>0</asrwt>
<pdfrwt beam="1">  1        2 0.34889743E+00 0.38671346E+04</pdfrwt>
<pdfrwt beam="2">  1       -2 0.25362620E+00 0.38671346E+04</pdfrwt>
<totfact> 0.23017126E-01</totfact>
</mgrwt>
</event>
<event>
 6    1  0.6091287E-004  0.2014120E+04  0.7818608E-02  0.8600048E-01
         -2   -1    0    0    0  501 -0.00000000000E+00  0.00000000000E+00  0.48103023149E+03  0.48103023149E+03  0.00000000000E+00 0. -1.
          2   -1    0    0  501    0  0.00000000000E+00 -0.00000000000E+00 -0.21083283296E+04  0.21083283296E+04  0.00000000000E+00 0.  1.
         23    2    1    2    0    0  0.85666259835E+03  0.13120870591E+03 -0.14692744613E+04  0.17084170184E+04  0.93993266877E+02 0.  0.
         11    1    3    3    0    0  0.55231993229E+02  0.27316477488E+02 -0.77237927648E+02  0.98805164267E+02  0.00000000000E+00 0.  1.
        -11    1    3    3    0    0  0.80143060512E+03  0.10389222843E+03 -0.13920365336E+04  0.16096118541E+04  0.00000000000E+00 0. -1.
         22    1    1    2    0    0 -0.85666259835E+03 -0.13120870591E+03 -0.15802363686E+03  0.88094154274E+03  0.00000000000E+00 0.  1.
<mgrwt>
<rscale>  0 0.20141198E+04</rscale>
<asrwt>0</asrwt>
<pdfrwt beam="1">  1        2 0.32435821E+00 0.20141198E+04</pdfrwt>
<pdfrwt beam="2">  1       -2 0.74004650E-01 0.20141198E+04</pdfrwt>
<totfact> 0.88726037E+00</totfact>
</mgrwt>
</event>
<event>
 6    1  0.6091287E-004  0.1585064E+04  0.7818608E-02  0.8829777E-01
          2   -1    0    0  501    0  0.00000000000E+00  0.00000000000E+00  0.63874366166E+03  0.63874366166E+03  0.00000000000E+00 0.  1.
         -2   -1    0    0    0  501 -0.00000000000E+00 -0.00000000000E+00 -0.98334693101E+03  0.98334693101E+03  0.00000000000E+00 0. -1.
         23    2    1    2    0    0 -0.19980624010E+03 -0.27126142536E+03 -0.90426985801E+03  0.96884333096E+03  0.86302545560E+02 0.  0.
         13    1    3    3    0    0 -0.66696513141E+02 -0.14607319549E+03 -0.34641514704E+03  0.38182359461E+03  0.00000000000E+00 0. -1.
        -13    1    3    3    0    0 -0.13310972696E+03 -0.12518822988E+03 -0.55785471097E+03  0.58701973635E+03  0.00000000000E+00 0.  1.
         22    1    1    2    0    0  0.19980624010E+03  0.27126142536E+03  0.55966658866E+03  0.65324726171E+03  0.00000000000E+00 0.  1.
<mgrwt>
<rscale>  0 0.15850636E+04</rscale>
<asrwt>0</asrwt>
<pdfrwt beam="1">  1        2 0.98268256E-01 0.15850636E+04</pdfrwt>
<pdfrwt beam="2">  1       -2 0.15128414E+00 0.15850636E+04</pdfrwt>
<totfact> 0.12910633E+01</totfact>
</mgrwt>
</event>
<event>
 6    1  0.6091287E-004  0.5420381E+04  0.7818608E-02  0.7766741E-01
          2   -1    0    0  501    0  0.00000000000E+00  0.00000000000E+00  0.40821815669E+04  0.40821815669E+04  0.00000000000E+00 0. -1.
         -2   -1    0    0    0  501 -0.00000000000E+00 -0.00000000000E+00 -0.17993156977E+04  0.17993156977E+04  0.00000000000E+00 0.  1.
         23    2    1    2    0    0  0.78292279429E+03  0.24223875110E+04  0.21479713894E+04  0.33321589434E+04  0.92589301885E+02 0.  0.
         11    1    3    3    0    0  0.28699758122E+03  0.82629237596E+03  0.68641600519E+03  0.11118874198E+04  0.00000000000E+00 0. -1.
        -11    1    3    3    0    0  0.49592521307E+03  0.15960951351E+04  0.14615553842E+04  0.22202715236E+04  0.00000000000E+00 0.  1.
         22    1    1    2    0    0 -0.78292279429E+03 -0.24223875110E+04  0.13489447983E+03  0.25493383212E+04  0.00000000000E+00 0.  1.
<mgrwt>
<rscale>  0 0.54203813E+04</rscale>
<asrwt>0</asrwt>
<pdfrwt beam="1">  1        2 0.62802793E+00 0.54203813E+04</pdfrwt>
<pdfrwt beam="2">  1       -2 0.27681780E+00 0.54203813E+04</pdfrwt>
<totfact> 0.90305624E-03</totfact>
</mgrwt>
</event>
<event>
 6    1  0.6091287E-004  0.1420449E+04  0.7818608E-02  0.8939148E-01
          1   -1    0    0  501    0  0.00000000000E+00  0.00000000000E+00  0.83254501324E+03  0.83254501324E+03  0.00000000000E+00 0.  1.
         -1   -1    0    0    0  501 -0.00000000000E+00 -0.00000000000E+00 -0.60587566112E+03  0.60587566112E+03  0.00000000000E+00 0. -1.
         23    2    1    2    0    0 -0.23147098042E+02 -0.22767354454E+03  0.79152669532E+03  0.82896612380E+03  0.91100460870E+02 0.  0.
         11    1    3    3    0    0 -0.14768634091E+02 -0.10554466704E+03  0.52448056649E+03  0.53519870508E+03  0.00000000000E+00 0. -1.
        -11    1    3    3    0    0 -0.83784639514E+01 -0.12212887750E+03  0.26704612883E+03  0.29376741872E+03  0.00000000000E+00 0.  1.
         22    1    1    2    0    0  0.23147098042E+02  0.22767354454E+03 -0.56485734320E+03  0.60945455056E+03  0.00000000000E+00 0. -1.
<mgrwt>
<rscale>  0 0.14204489E+04</rscale>
<asrwt>0</asrwt>
<pdfrwt beam="1">  1        1 0.12808385E+00 0.14204489E+04</pdfrwt>
<pdfrwt beam="2">  1       -1 0.93211640E-01 0.14204489E+04</pdfrwt>
<totfact> 0.22551172E+01</totfact>
</mgrwt>
</event>
<event>
 6    1  0.6091287E-004  0.2956321E+04  0.7818608E-02  0.8256315E-01
         -2   -1    0    0    0  501 -0.00000000000E+00  0.00000000000E+00  0.12654933520E+04  0.12654933520E+04  0.00000000000E+00 0. -1.
          2   -1    0    0  501    0  0.00000000000E+00 -0.00000000000E+00 -0.17265667698E+04  0.17265667698E+04  0.00000000000E+00 0.  1.
         23    2    1    2    0    0  0.73478001788E+03  0.12413162611E+04 -0.55081856010E+03  0.15467843954E+04  0.91504889460E+02 0.  0.
         13    1    3    3    0    0  0.21114545341E+03  0.28039876552E+03 -0.13931224283E+03  0.37764238534E+03  0.00000000000E+00 0.  1.
        -13    1    3    3    0    0  0.52363456447E+03  0.96091749558E+03 -0.41150631727E+03  0.11691420100E+04  0.00000000000E+00 0. -1.
         22    1    1    2    0    0 -0.73478001788E+03 -0.12413162611E+04  0.89745142310E+02  0.14452757264E+04  0.00000000000E+00 0.  1.
<mgrwt>
<rscale>  0 0.29563212E+04</rscale>
<asrwt>0</asrwt>
<pdfrwt beam="1">  1        2 0.26562566E+00 0.29563212E+04</pdfrwt>
<pdfrwt beam="2">  1       -2 0.19469129E+00 0.29563212E+04</pdfrwt>
<totfact> 0.11743622E+00</totfact>
</mgrwt>
</event>
<event>
 6    1  0.6091287E-004  0.2429321E+04  0.7818608E-02  0.8428607E-01
         -2   -1    0    0    0  501 -0.00000000000E+00  0.00000000000E+00  0.10203060315E+04  0.10203060315E+04  0.00000000000E+00 0. -1.
          2   -1    0    0  501    0  0.00000000000E+00 -0.00000000000E+00 -0.14460363379E+04  0.14460363379E+04  0.00000000000E+00 0.  1.
         23    2    1    2    0    0  0.34949903610E+03 -0.11485136559E+04 -0.39042734810E+03  0.12653096918E+04  0.85684935580E+02 0.  0.
         11    1    3    3    0    0  0.13525068093E+03 -0.50277059136E+03 -0.12844541230E+03  0.53625482578E+03  0.00000000000E+00 0.  1.
        -11    1    3    3    0    0  0.21424835517E+03 -0.64574306449E+03 -0.26198193580E+03  0.72905486605E+03  0.00000000000E+00 0. -1.
         22    1    1    2    0    0 -0.34949903610E+03  0.11485136559E+04 -0.35302958292E+02  0.12010326776E+04  0.00000000000E+00 0. -1.
<mgrwt>
<rscale>  0 0.24293206E+04</rscale>
<asrwt>0</asrwt>
<pdfrwt beam="1">  1        2 0.22246713E+00 0.24293206E+04</pdfrwt>
<pdfrwt beam="2">  1       -2 0.15697016E+00 0.24293206E+04</pdfrwt>
<totfact> 0.32423650E+00</totfact>
</mgrwt>
</event>
<event>
 6    1  0.6091287E-004  0.6873314E+03  0.7818608E-02  0.9739146E-01
          2   -1    0    0  501    0  0.00000000000E+00  0.00000000000E+00  0.16699174373E+04  0.16699174373E+04  0.00000000000E+00 0.  1.
         -2   -1    0    0    0  501 -0.00000000000E+00 -0.00000000000E+00 -0.70725712893E+02  0.70725712893E+02  0.00000000000E+00 0. -1.
         23    2    1    2    0    0 -0.33481807398E+03 -0.19579637545E+02  0.70778502093E+03  0.78822915624E+03  0.88651350986E+02 0.  0.
         11    1    3    3    0    0 -0.17928358476E+03  0.67369706682E+01  0.28275693086E+03  0.33487232267E+03  0.00000000000E+00 0. -1.
        -11    1    3    3    0    0 -0.15553448922E+03 -0.26316608213E+02  0.42502809007E+03  0.45335683357E+03  0.00000000000E+00 0.  1.
         22    1    1    2    0    0  0.33481807398E+03  0.19579637545E+02  0.89140670348E+03  0.95241399395E+03  0.00000000000E+00 0. -1.
<mgrwt>
<rscale>  0 0.68733136E+03</rscale>
<asrwt>0</asrwt>
<pdfrwt beam="1">  1        2 0.25691035E+00 0.68733136E+03</pdfrwt>
<pdfrwt beam="2">  1       -2 0.10880880E-01 0.68733136E+03</pdfrwt>
<totfact> 0.62131148E+02</totfact>
</mgrwt>
</event>
<event>
 6    1  0.6091287E-004  0.4259163E+04  0.7818608E-02  0.7954213E-01
         -2   -1    0    0    0  501 -0.00000000000E+00  0.00000000000E+00  0.21140459332E+04  0.21140459332E+04  0.00000000000E+00 0. -1.
          2   -1    0    0  501    0  0.00000000000E+00 -0.00000000000E+00 -0.21452315691E+04  0.21452315691E+04  0.00000000000E+00 0.  1.
         23    2    1    2    0    0 -0.15621310181E+04 -0.14415896237E+04  0.96317672016E+02  0.21297960972E+04  0.91216011050E+02 0.  0.
         11    1    3    3    0    0 -0.10976243922E+04 -0.10097872840E+04  0.25824021648E+02  0.14916824546E+04  0.00000000000E+00 0. -1.
        -11    1    3    3    0    0 -0.46450662593E+03 -0.43180233977E+03  0.70493650368E+02  0.63811364262E+03  0.00000000000E+00 0.  1.
         22    1    1    2    0    0  0.15621310181E+04  0.14415896237E+04 -0.12750330784E+03  0.21294814051E+04  0.00000000000E+00 0. -1.
<mgrwt>
<rscale>  0 0.42591633E+04</rscale>
<asrwt>0</asrwt>
<pdfrwt beam="1">  1        2 0.33003563E+00 0.42591633E+04</pdfrwt>
<pdfrwt beam="2">  1       -2 0.32523783E+00 0.42591633E+04</pdfrwt>
<totfact> 0.95157009E-02</totfact>
</mgrwt>
</event>
<event>
 6    1  0.6091287E-004  0.3184441E+04  0.7818608E-02  0.8192938E-01
         -2   -1    0    0    0  501 -0.00000000000E+00  0.00000000000E+00  0.21098083669E+04  0.21098083669E+04  0.00000000000E+00 0. -1.
          2   -1    0    0  501    0  0.00000000000E+00 -0.00000000000E+00 -0.12016093424E+04  0.12016093424E+04  0.00000000000E+00 0.  1.
         23    2    1    2    0    0 -0.14352117088E+02 -0.41423955520E+03 -0.11425123618E+04  0.12192376067E+04  0.96981711658E+02 0.  0.
         11    1    3    3    0    0 -0.44869048688E+02 -0.30971384192E+03 -0.77086444433E+03  0.83196627752E+03  0.00000000000E+00 0.  1.
        -11    1    3    3    0    0  0.30516931600E+02 -0.10452571329E+03 -0.37164791743E+03  0.38727132915E+03  0.00000000000E+00 0. -1.
         22    1    1    2    0    0  0.14352117088E+02  0.41423955520E+03  0.20507113863E+04  0.20921801027E+04  0.00000000000E+00 0. -1.
<mgrwt>
<rscale>  0 0.31844406E+04</rscale>
<asrwt>0</asrwt>
<pdfrwt beam="1">  1        2 0.18486298E+00 0.31844406E+04</pdfrwt>
<pdfrwt beam="2">  1       -2 0.32458590E+00 0.31844406E+04</pdfrwt>
<totfact> 0.35731583E-01</totfact>
</mgrwt>
</event>
<event>
 6    1  0.6091287E-004  0.2878847E+04  0.7818608E-02  0.8279199E-01
          2   -1    0    0  501    0  0.00000000000E+00  0.00000000000E+00  0.82610069909E+03  0.82610069909E+03  0.00000000000E+00 0.  1.
         -2   -1    0    0    0  501 -0.00000000000E+00 -0.00000000000E+00 -0.25080954695E+04  0.25080954695E+04  0.00000000000E+00 0. -1.
         23    2    1    2    0    0 -0.62777094239E+03 -0.98882492404E+03  0.12432450222E+03  0.11813700258E+04  0.91145320480E+02 0.  0.
         11    1    3    3    0    0 -0.35238469350E+03 -0.63156739986E+03  0.59637080091E+02  0.72567825798E+03  0.00000000000E+00 0. -1.
        -11    1    3    3    0    0 -0.27538624889E+03 -0.35725752418E+03  0.64687422127E+02  0.45569176780E+03  0.00000000000E+00 0.  1.
         22    1    1    2    0    0  0.62777094239E+03  0.98882492404E+03 -0.18063192726E+04  0.21528261428E+04  0.00000000000E+00 0. -1.
<mgrwt>
<rscale>  0 0.28788466E+04</rscale>
<asrwt>0</asrwt>
<pdfrwt beam="1">  1        2 0.12709242E+00 0.28788466E+04</pdfrwt>
<pdfrwt beam="2">  1       -2 0.38586084E+00 0.28788466E+04</pdfrwt>
<totfact> 0.26162176E-01</totfact>
</mgrwt>
</event>
<event>
 6    1  0.6091287E-004  0.1793840E+04  0.7818608E-02  0.8709582E-01
          1   -1    0    0  501    0  0.00000000000E+00  0.00000000000E+00  0.26588293772E+04  0.26588293772E+04  0.00000000000E+00 0.  1.
         -1   -1    0    0    0  501 -0.00000000000E+00 -0.00000000000E+00 -0.30256371715E+03  0.30256371715E+03  0.00000000000E+00 0. -1.
         23    2    1    2    0    0 -0.29110501442E+03 -0.31442590163E+03  0.24774869732E+04  0.25160837819E+04  0.95551651518E+02 0.  0.
         11    1    3    3    0    0 -0.50248677815E+02 -0.11782251506E+03  0.71271992823E+03  0.72413864058E+03  0.00000000000E+00 0.  1.
        -11    1    3    3    0    0 -0.24085633660E+03 -0.19660338657E+03  0.17647670450E+04  0.17919451413E+04  0.00000000000E+00 0. -1.
         22    1    1    2    0    0  0.29110501442E+03  0.31442590163E+03 -0.12122131312E+03  0.44530931249E+03  0.00000000000E+00 0. -1.
<mgrwt>
<rscale>  0 0.17938398E+04</rscale>
<asrwt>0</asrwt>
<pdfrwt beam="1">  1        1 0.40905066E+00 0.17938398E+04</pdfrwt>
<pdfrwt beam="2">  1       -1 0.46548266E-01 0.17938398E+04</pdfrwt>
<totfact> 0.45604679E+00</totfact>
</mgrwt>
</event>
<event>
 6    1  0.6091287E-004  0.2232656E+04  0.7818608E-02  0.8504958E-01
          1   -1    0    0  501    0  0.00000000000E+00  0.00000000000E+00  0.85029062781E+03  0.85029062781E+03  0.00000000000E+00 0.  1.
         -1   -1    0    0    0  501 -0.00000000000E+00 -0.00000000000E+00 -0.14656029184E+04  0.14656029184E+04  0.00000000000E+00 0. -1.
         23    2    1    2    0    0  0.60845662052E+03 -0.45940469288E+03 -0.11512253882E+04  0.13839734965E+04  0.93758272396E+02 0.  0.
         13    1    3    3    0    0  0.19730805687E+03 -0.20251947210E+03 -0.45088948750E+03  0.53220854542E+03  0.00000000000E+00 0. -1.
        -13    1    3    3    0    0  0.41114856364E+03 -0.25688522078E+03 -0.70033590070E+03  0.85176495106E+03  0.00000000000E+00 0.  1.
         22    1    1    2    0    0 -0.60845662052E+03  0.45940469288E+03  0.53591309761E+03  0.93192004972E+03  0.00000000000E+00 0.  1.
<mgrwt>
<rscale>  0 0.22326562E+04</rscale>
<asrwt>0</asrwt>
<pdfrwt beam="1">  1        1 0.13081394E+00 0.22326562E+04</pdfrwt>
<pdfrwt beam="2">  1       -1 0.22547737E+00 0.22326562E+04</pdfrwt>
<totfact> 0.18406690E+00</totfact>
</mgrwt>
</event>
<event>
 6    1  0.6091287E-004  0.1751672E+04  0.7818608E-02  0.8732430E-01
          2   -1    0    0  501    0  0.00000000000E+00  0.00000000000E+00  0.11619357888E+04  0.11619357888E+04  0.00000000000E+00 0.  1.
         -2   -1    0    0    0  501 -0.00000000000E+00 -0.00000000000E+00 -0.66018197306E+03  0.66018197306E+03  0.00000000000E+00 0. -1.
         23    2    1    2    0    0 -0.19118126527E+03  0.79085352303E+03  0.57651753951E+03  0.10050564511E+04  0.12556442787E+03 0.  0.
         11    1    3    3    0    0 -0.76862081901E+02  0.56319416753E+03  0.39081598592E+03  0.68980619367E+03  0.00000000000E+00 0. -1.
        -11    1    3    3    0    0 -0.11431918337E+03  0.22765935550E+03  0.18570155359E+03  0.31525025747E+03  0.00000000000E+00 0.  1.
         22    1    1    2    0    0  0.19118126527E+03 -0.79085352303E+03 -0.74763723776E+02  0.81706131072E+03  0.00000000000E+00 0. -1.
<mgrwt>
<rscale>  0 0.17516724E+04</rscale>
<asrwt>0</asrwt>
<pdfrwt beam="1">  1        2 0.17875935E+00 0.17516724E+04</pdfrwt>
<pdfrwt beam="2">  1       -2 0.10156646E+00 0.17516724E+04</pdfrwt>
<totfact> 0.15064880E+01</totfact>
</mgrwt>
</event>
<event>
 6    1  0.6091287E-004  0.1778495E+04  0.7818608E-02  0.8717820E-01
         -2   -1    0    0    0  501 -0.00000000000E+00  0.00000000000E+00  0.35670869734E+03  0.35670869734E+03  0.00000000000E+00 0. -1.
          2   -1    0    0  501    0  0.00000000000E+00 -0.00000000000E+00 -0.22168258953E+04  0.22168258953E+04  0.00000000000E+00 0.  1.
         23    2    1    2    0    0 -0.56822731712E+03 -0.46354489785E+03 -0.16544020361E+04  0.18119081199E+04  0.90602326716E+02 0.  0.
         11    1    3    3    0    0 -0.21612706763E+03 -0.15918234333E+03 -0.71016733277E+03  0.75920192856E+03  0.00000000000E+00 0. -1.
        -11    1    3    3    0    0 -0.35210024950E+03 -0.30436255452E+03 -0.94423470330E+03  0.10527061913E+04  0.00000000000E+00 0.  1.
         22    1    1    2    0    0  0.56822731712E+03  0.46354489785E+03 -0.20571516192E+03  0.76162647282E+03  0.00000000000E+00 0. -1.
<mgrwt>
<rscale>  0 0.17784950E+04</rscale>
<asrwt>0</asrwt>
<pdfrwt beam="1">  1        2 0.34105014E+00 0.17784950E+04</pdfrwt>
<pdfrwt beam="2">  1       -2 0.54878262E-01 0.17784950E+04</pdfrwt>
<totfact> 0.14928712E+01</totfact>
</mgrwt>
</event>
<event>
 6    1  0.6091287E-004  0.2479486E+04  0.7818608E-02  0.8410330E-01
          1   -1    0    0  501    0  0.00000000000E+00  0.00000000000E+00  0.13676460778E+04  0.13676460778E+04  0.00000000000E+00 0. -1.
         -1   -1    0    0    0  501 -0.00000000000E+00 -0.00000000000E+00 -0.11238015696E+04  0.11238015696E+04  0.00000000000E+00 0.  1.
         23    2    1    2    0    0 -0.75525661268E+03 -0.77475527477E+03  0.72639959672E+03  0.13067461237E+04  0.96284842942E+02 0.  0.
         13    1    3    3    0    0 -0.41315467551E+03 -0.38012608417E+03  0.42101927525E+03  0.70174771528E+03  0.00000000000E+00 0. -1.
        -13    1    3    3    0    0 -0.34210193717E+03 -0.39462919060E+03  0.30538032148E+03  0.60499840845E+03  0.00000000000E+00 0.  1.
         22    1    1    2    0    0  0.75525661268E+03  0.77475527477E+03 -0.48255508850E+03  0.11847015237E+04  0.00000000000E+00 0.  1.
<mgrwt>
<rscale>  0 0.24794861E+04</rscale>
<asrwt>0</asrwt>
<pdfrwt beam="1">  1        1 0.21040709E+00 0.24794861E+04</pdfrwt>
<pdfrwt beam="2">  1       -1 0.17289255E+00 0.24794861E+04</pdfrwt>
<totfact> 0.16888284E+00</totfact>
</mgrwt>
</event>
<event>
 6    1  0.6091287E-004  0.1480129E+04  0.7818608E-02  0.8897775E-01
         -2   -1    0    0    0  501 -0.00000000000E+00  0.00000000000E+00  0.12479412341E+04  0.12479412341E+04  0.00000000000E+00 0. -1.
          2   -1    0    0  501    0  0.00000000000E+00 -0.00000000000E+00 -0.43887933609E+03  0.43887933609E+03  0.00000000000E+00 0.  1.
         23    2    1    2    0    0 -0.43089606529E+03 -0.17315836208E+02 -0.27531856830E+03  0.51983631453E+03  0.91968595664E+02 0.  0.
         11    1    3    3    0    0 -0.18717432314E+03  0.37648493971E+02 -0.11199955023E+03  0.22134935191E+03  0.00000000000E+00 0. -1.
        -11    1    3    3    0    0 -0.24372174215E+03 -0.54964330179E+02 -0.16331901807E+03  0.29848696262E+03  0.00000000000E+00 0.  1.
         22    1    1    2    0    0  0.43089606529E+03  0.17315836208E+02  0.10843804664E+04  0.11669842557E+04  0.00000000000E+00 0. -1.
<mgrwt>
<rscale>  0 0.14801292E+04</rscale>
<asrwt>0</asrwt>
<pdfrwt beam="1">  1        2 0.67519899E-01 0.14801292E+04</pdfrwt>
<pdfrwt beam="2">  1       -2 0.19199096E+00 0.14801292E+04</pdfrwt>
<totfact> 0.10397760E+01</totfact>
</mgrwt>
</event>
<event>
 6    1  0.6091287E-004  0.5177713E+04  0.7818608E-02  0.7801663E-01
         -2   -1    0    0    0  501 -0.00000000000E+00  0.00000000000E+00  0.29964621053E+04  0.29964621053E+04  0.00000000000E+00 0. -1.
          2   -1    0    0  501    0  0.00000000000E+00 -0.00000000000E+00 -0.22366971136E+04  0.22366971136E+04  0.00000000000E+00 0.  1.
         23    2    1    2    0    0  0.24769038852E+04 -0.56905531916E+03 -0.11432699277E+03  0.25456113384E+04  0.90496475738E+02 0.  0.
         13    1    3    3    0    0  0.20126462094E+04 -0.47465797920E+03 -0.12617497251E+03  0.20717058395E+04  0.00000000000E+00 0. -1.
        -13    1    3    3    0    0  0.46425767575E+03 -0.94397339964E+02  0.11847979742E+02  0.47390549892E+03  0.00000000000E+00 0.  1.
         22    1    1    2    0    0 -0.24769038852E+04  0.56905531916E+03  0.87409198448E+03  0.26875478805E+04  0.00000000000E+00 0. -1.
<mgrwt>
<rscale>  0 0.51777131E+04</rscale>
<asrwt>0</asrwt>
<pdfrwt beam="1">  1        2 0.34410725E+00 0.51777131E+04</pdfrwt>
<pdfrwt beam="2">  1       -2 0.46099417E+00 0.51777131E+04</pdfrwt>
<totfact> 0.10422858E-02</totfact>
</mgrwt>
</event>
<event>
 6    1  0.6091287E-004  0.2691962E+04  0.7818608E-02  0.8337618E-01
         -2   -1    0    0    0  501 -0.00000000000E+00  0.00000000000E+00  0.10231607438E+04  0.10231607438E+04  0.00000000000E+00 0. -1.
          2   -1    0    0  501    0  0.00000000000E+00 -0.00000000000E+00 -0.17706548946E+04  0.17706548946E+04  0.00000000000E+00 0.  1.
         23    2    1    2    0    0  0.89828536674E+03  0.53642283768E+03 -0.12503402761E+04  0.16329882238E+04  0.92917555176E+02 0.  0.
         13    1    3    3    0    0  0.12265220598E+03  0.46746114090E+02 -0.12604578785E+03  0.18197885440E+03  0.00000000000E+00 0.  1.
        -13    1    3    3    0    0  0.77563316076E+03  0.48967672359E+03 -0.11242944882E+04  0.14510093694E+04  0.00000000000E+00 0. -1.
         22    1    1    2    0    0 -0.89828536674E+03 -0.53642283768E+03  0.50284612531E+03  0.11608274147E+04  0.00000000000E+00 0. -1.
<mgrwt>
<rscale>  0 0.26919618E+04</rscale>
<asrwt>0</asrwt>
<pdfrwt beam="1">  1        2 0.27240844E+00 0.26919618E+04</pdfrwt>
<pdfrwt beam="2">  1       -2 0.15740935E+00 0.26919618E+04</pdfrwt>
<totfact> 0.20712224E+00</totfact>
</mgrwt>
</event>
<event>
 6    1  0.6091287E-004  0.1550443E+04  0.7818608E-02  0.8851585E-01
          2   -1    0    0  501    0  0.00000000000E+00  0.00000000000E+00  0.13227242468E+04  0.13227242468E+04  0.00000000000E+00 0.  1.
         -2   -1    0    0    0  501 -0.00000000000E+00 -0.00000000000E+00 -0.45434131849E+03  0.45434131849E+03  0.00000000000E+00 0. -1.
         23    2    1    2    0    0 -0.62933863450E+03 -0.38446249484E+03  0.69914003295E+03  0.10204139384E+04  0.92570477090E+02 0.  0.
         11    1    3    3    0    0 -0.38412084663E+03 -0.28051559263E+03  0.41907329275E+03  0.63392448069E+03  0.00000000000E+00 0. -1.
        -11    1    3    3    0    0 -0.24521778787E+03 -0.10394690222E+03  0.28006674020E+03  0.38648945772E+03  0.00000000000E+00 0.  1.
         22    1    1    2    0    0  0.62933863450E+03  0.38446249484E+03  0.16924289535E+03  0.75665162687E+03  0.00000000000E+00 0. -1.
<mgrwt>
<rscale>  0 0.15504429E+04</rscale>
<asrwt>0</asrwt>
<pdfrwt beam="1">  1        2 0.20349604E+00 0.15504429E+04</pdfrwt>
<pdfrwt beam="2">  1       -2 0.69898665E-01 0.15504429E+04</pdfrwt>
<totfact> 0.28782765E+01</totfact>
</mgrwt>
</event>
<event>
 6    1  0.6091287E-004  0.3767256E+04  0.7818608E-02  0.8053218E-01
          2   -1    0    0  501    0  0.00000000000E+00  0.00000000000E+00  0.14612782880E+04  0.14612782880E+04  0.00000000000E+00 0.  1.
         -2   -1    0    0    0  501 -0.00000000000E+00 -0.00000000000E+00 -0.24280481130E+04  0.24280481130E+04  0.00000000000E+00 0. -1.
         23    2    1    2    0    0 -0.50140266869E+03  0.23837393168E+03 -0.23407658975E+04  0.24074046842E+04  0.90474079466E+02 0.  0.
         11    1    3    3    0    0 -0.39462322322E+03  0.19373602186E+03 -0.16792082808E+04  0.17357999841E+04  0.00000000000E+00 0. -1.
        -11    1    3    3    0    0 -0.10677944547E+03  0.44637909811E+02 -0.66155761673E+03  0.67160470012E+03  0.00000000000E+00 0.  1.
         22    1    1    2    0    0  0.50140266869E+03 -0.23837393168E+03  0.13739960725E+04  0.14819217168E+04  0.00000000000E+00 0.  1.
<mgrwt>
<rscale>  0 0.37672558E+04</rscale>
<asrwt>0</asrwt>
<pdfrwt beam="1">  1        2 0.22481205E+00 0.37672558E+04</pdfrwt>
<pdfrwt beam="2">  1       -2 0.37354586E+00 0.37672558E+04</pdfrwt>
<totfact> 0.11820129E-01</totfact>
</mgrwt>
</event>
<event>
 6    1  0.6091287E-004  0.1887150E+04  0.7818608E-02  0.8661279E-01
          2   -1    0    0  501    0  0.00000000000E+00  0.00000000000E+00  0.13132399472E+04  0.13132399472E+04  0.00000000000E+00 0.  1.
         -2   -1    0    0    0  501 -0.00000000000E+00 -0.00000000000E+00 -0.67796699236E+03  0.67796699236E+03  0.00000000000E+00 0. -1.
         23    2    1    2    0    0 -0.90099014466E+03  0.78443689907E+02  0.42701738396E+02  0.90996815938E+03  0.91005271054E+02 0.  0.
         11    1    3    3    0    0 -0.48845294362E+03  0.65507126554E+02  0.62386466054E+02  0.49675902902E+03  0.00000000000E+00 0. -1.
        -11    1    3    3    0    0 -0.41253720103E+03  0.12936563353E+02 -0.19684727658E+02  0.41320913036E+03  0.00000000000E+00 0.  1.
         22    1    1    2    0    0  0.90099014466E+03 -0.78443689907E+02  0.59257121647E+03  0.10812387802E+04  0.00000000000E+00 0.  1.
<mgrwt>
<rscale>  0 0.18871495E+04</rscale>
<asrwt>0</asrwt>
<pdfrwt beam="1">  1        2 0.20203692E+00 0.18871495E+04</pdfrwt>
<pdfrwt beam="2">  1       -2 0.10430261E+00 0.18871495E+04</pdfrwt>
<totfact> 0.11374477E+01</totfact>
</mgrwt>
</event>
<event>
 6    1  0.6091287E-004  0.3191259E+04  0.7818608E-02  0.8191129E-01
          2   -1    0    0  501    0  0.00000000000E+00  0.00000000000E+00  0.26998808137E+04  0.26998808137E+04  0.00000000000E+00 0.  1.
         -2   -1    0    0    0  501 -0.00000000000E+00 -0.00000000000E+00 -0.94301700209E+03  0.94301700209E+03  0.00000000000E+00 0. -1.
         23    2    1    2    0    0  0.87822542360E+03 -0.12657396285E+04  0.41071448409E+03  0.15970496509E+04  0.92219837532E+02 0.  0.
         11    1    3    3    0    0  0.55309853518E+03 -0.84798233246E+03  0.30354152051E+03  0.10569434613E+04  0.00000000000E+00 0. -1.
        -11    1    3    3    0    0  0.32512688842E+03 -0.41775729599E+03  0.10717296358E+03  0.54010618961E+03  0.00000000000E+00 0.  1.
         22    1    1    2    0    0 -0.87822542360E+03  0.12657396285E+04  0.13461493275E+04  0.20458481649E+04  0.00000000000E+00 0.  1.
<mgrwt>
<rscale>  0 0.31912590E+04</rscale>
<asrwt>0</asrwt>
<pdfrwt beam="1">  1        2 0.41536627E+00 0.31912590E+04</pdfrwt>
<pdfrwt beam="2">  1       -2 0.14507954E+00 0.31912590E+04</pdfrwt>
<totfact> 0.73203311E-01</totfact>
</mgrwt>
</event>
<event>
 6    1  0.6091287E-004  0.2036263E+04  0.7818608E-02  0.8589852E-01
          2   -1    0    0  501    0  0.00000000000E+00  0.00000000000E+00  0.23934695885E+04  0.23934695885E+04  0.00000000000E+00 0.  1.
         -2   -1    0    0    0  501 -0.00000000000E+00 -0.00000000000E+00 -0.43309168137E+03  0.43309168137E+03  0.00000000000E+00 0. -1.
         23    2    1    2    0    0 -0.44311741149E+03 -0.84345556699E+01  0.22512738849E+04  0.22964248234E+04  0.94385816986E+02 0.  0.
         11    1    3    3    0    0 -0.26039487199E+03 -0.11266837253E+02  0.15483918592E+04  0.15701750796E+04  0.00000000000E+00 0. -1.
        -11    1    3    3    0    0 -0.18272253950E+03  0.28322815832E+01  0.70288202572E+03  0.72624974378E+03  0.00000000000E+00 0.  1.
         22    1    1    2    0    0  0.44311741149E+03  0.84345556699E+01 -0.29089597774E+03  0.53013644655E+03  0.00000000000E+00 0. -1.
<mgrwt>
<rscale>  0 0.20362630E+04</rscale>
<asrwt>0</asrwt>
<pdfrwt beam="1">  1        2 0.36822608E+00 0.20362630E+04</pdfrwt>
<pdfrwt beam="2">  1       -2 0.66629491E-01 0.20362630E+04</pdfrwt>
<totfact> 0.76893131E+00</totfact>
</mgrwt>
</event>
<event>
 6    1  0.6091287E-004  0.2726856E+04  0.7818608E-02  0.8326343E-01
          2   -1    0    0  501    0  0.00000000000E+00  0.00000000000E+00  0.13215368391E+04  0.13215368391E+04  0.00000000000E+00 0.  1.
         -2   -1    0    0    0  501 -0.00000000000E+00 -0.00000000000E+00 -0.14066472716E+04  0.14066472716E+04  0.00000000000E+00 0. -1.
         23    2    1    2    0    0 -0.72177572518E+03  0.11500470184E+04  0.63754655243E+02  0.13622671454E+04  0.90215172727E+02 0.  0.
         11    1    3    3    0    0 -0.62819966336E+03  0.97403337556E+03  0.25703743768E+02  0.11593258887E+04  0.00000000000E+00 0. -1.
        -11    1    3    3    0    0 -0.93576061822E+02  0.17601364279E+03  0.38050911474E+02  0.20294125667E+03  0.00000000000E+00 0.  1.
         22    1    1    2    0    0  0.72177572518E+03 -0.11500470184E+04 -0.14886508779E+03  0.13659169654E+04  0.00000000000E+00 0. -1.
<mgrwt>
<rscale>  0 0.27268562E+04</rscale>
<asrwt>0</asrwt>
<pdfrwt beam="1">  1        2 0.20331336E+00 0.27268562E+04</pdfrwt>
<pdfrwt beam="2">  1       -2 0.21640727E+00 0.27268562E+04</pdfrwt>
<totfact> 0.14646280E+00</totfact>
</mgrwt>
</event>
<event>
 6    1  0.6091287E-004  0.1494037E+04  0.7818608E-02  0.8888428E-01
         -2   -1    0    0    0  501 -0.00000000000E+00  0.00000000000E+00  0.50272343513E+03  0.50272343513E+03  0.00000000000E+00 0. -1.
          2   -1    0    0  501    0  0.00000000000E+00 -0.00000000000E+00 -0.11100276191E+04  0.11100276191E+04  0.00000000000E+00 0.  1.
         23    2    1    2    0    0 -0.35684058188E+03  0.46138050310E+03  0.19443292613E+03  0.62129275293E+03  0.89405551095E+02 0.  0.
         11    1    3    3    0    0 -0.77540777511E+02  0.16766954787E+03  0.57282622556E+02  0.19340875965E+03  0.00000000000E+00 0. -1.
        -11    1    3    3    0    0 -0.27929980437E+03  0.29371095522E+03  0.13715030357E+03  0.42788399328E+03  0.00000000000E+00 0.  1.
         22    1    1    2    0    0  0.35684058188E+03 -0.46138050310E+03 -0.80173711012E+03  0.99145830132E+03  0.00000000000E+00 0.  1.
<mgrwt>
<rscale>  0 0.14940373E+04</rscale>
<asrwt>0</asrwt>
<pdfrwt beam="1">  1        2 0.17077348E+00 0.14940373E+04</pdfrwt>
<pdfrwt beam="2">  1       -2 0.77342067E-01 0.14940373E+04</pdfrwt>
<totfact> 0.30962971E+01</totfact>
</mgrwt>
</event>
<event>
 6    1  0.6091287E-004  0.2975607E+04  0.7818608E-02  0.8250731E-01
          2   -1    0    0  501    0  0.00000000000E+00  0.00000000000E+00  0.20573358111E+04  0.20573358111E+04  0.00000000000E+00 0.  1.
         -2   -1    0    0    0  501 -0.00000000000E+00 -0.00000000000E+00 -0.10759347746E+04  0.10759347746E+04  0.00000000000E+00 0. -1.
         23    2    1    2    0    0  0.66940000579E+03 -0.82503194896E+03 -0.60226270831E+03  0.12262401872E+04  0.11032018071E+03 0.  0.
         11    1    3    3    0    0  0.33427981372E+03 -0.34480321690E+03 -0.23138847163E+03  0.53307867810E+03  0.00000000000E+00 0.  1.
        -11    1    3    3    0    0  0.33512019207E+03 -0.48022873207E+03 -0.37087423668E+03  0.69316150908E+03  0.00000000000E+00 0. -1.
         22    1    1    2    0    0 -0.66940000579E+03  0.82503194896E+03  0.15836637448E+04  0.19070303986E+04  0.00000000000E+00 0.  1.
<mgrwt>
<rscale>  0 0.29756069E+04</rscale>
<asrwt>0</asrwt>
<pdfrwt beam="1">  1        2 0.31651320E+00 0.29756069E+04</pdfrwt>
<pdfrwt beam="2">  1       -2 0.16552843E+00 0.29756069E+04</pdfrwt>
<totfact> 0.12218987E+00</totfact>
</mgrwt>
</event>
<event>
 6    1  0.6091287E-004  0.1367932E+04  0.7818608E-02  0.8977364E-01
         -2   -1    0    0    0  501 -0.00000000000E+00  0.00000000000E+00  0.49697799327E+03  0.49697799327E+03  0.00000000000E+00 0. -1.
          2   -1    0    0  501    0  0.00000000000E+00 -0.00000000000E+00 -0.94130801532E+03  0.94130801532E+03  0.00000000000E+00 0.  1.
         23    2    1    2    0    0  0.39120545802E+03  0.33407856782E+03 -0.69220851116E+03  0.86723964863E+03  0.91114133789E+02 0.  0.
         13    1    3    3    0    0  0.12176145511E+03  0.75739566065E+02 -0.13777971859E+03  0.19886071677E+03  0.00000000000E+00 0. -1.
        -13    1    3    3    0    0  0.26944400291E+03  0.25833900176E+03 -0.55442879257E+03  0.66837893187E+03  0.00000000000E+00 0.  1.
         22    1    1    2    0    0 -0.39120545802E+03 -0.33407856782E+03  0.24787848911E+03  0.57104635996E+03  0.00000000000E+00 0. -1.
<mgrwt>
<rscale>  0 0.13679318E+04</rscale>
<asrwt>0</asrwt>
<pdfrwt beam="1">  1        2 0.14481662E+00 0.13679318E+04</pdfrwt>
<pdfrwt beam="2">  1       -2 0.76458154E-01 0.13679318E+04</pdfrwt>
<totfact> 0.41071808E+01</totfact>
</mgrwt>
</event>
<event>
 6    1  0.6091287E-004  0.1362132E+04  0.7818608E-02  0.8981695E-01
         -2   -1    0    0    0  501 -0.00000000000E+00  0.00000000000E+00  0.42888573628E+03  0.42888573628E+03  0.00000000000E+00 0. -1.
          2   -1    0    0  501    0  0.00000000000E+00 -0.00000000000E+00 -0.10815259657E+04  0.10815259657E+04  0.00000000000E+00 0.  1.
         23    2    1    2    0    0  0.17291813110E+03 -0.35592205748E+03  0.28364420570E+03  0.49394245281E+03  0.83330187822E+02 0.  0.
         13    1    3    3    0    0  0.25599124862E+02 -0.11431686375E+03  0.51676657971E+02  0.12803959353E+03  0.00000000000E+00 0.  1.
        -13    1    3    3    0    0  0.14731900623E+03 -0.24160519373E+03  0.23196754773E+03  0.36590285928E+03  0.00000000000E+00 0. -1.
         22    1    1    2    0    0 -0.17291813110E+03  0.35592205748E+03 -0.93628443512E+03  0.10164692492E+04  0.00000000000E+00 0.  1.
<mgrwt>
<rscale>  0 0.13621322E+04</rscale>
<asrwt>0</asrwt>
<pdfrwt beam="1">  1        2 0.16638861E+00 0.13621322E+04</pdfrwt>
<pdfrwt beam="2">  1       -2 0.65982420E-01 0.13621322E+04</pdfrwt>
<totfact> 0.46148588E+01</totfact>
</mgrwt>
</event>
<event>
 6    1  0.6091287E-004  0.1915284E+04  0.7818608E-02  0.8647286E-01
          1   -1    0    0  501    0  0.00000000000E+00  0.00000000000E+00  0.29016435979E+04  0.29016435979E+04  0.00000000000E+00 0.  1.
         -1   -1    0    0    0  501 -0.00000000000E+00 -0.00000000000E+00 -0.31605461112E+03  0.31605461112E+03  0.00000000000E+00 0. -1.
         23    2    1    2    0    0  0.39130785665E+03 -0.84892600155E+03  0.16233245135E+04  0.18761505538E+04  0.10469589016E+03 0.  0.
         11    1    3    3    0    0  0.12316171249E+03 -0.25481126583E+03  0.39987674748E+03  0.48989692976E+03  0.00000000000E+00 0. -1.
        -11    1    3    3    0    0  0.26814614416E+03 -0.59411473572E+03  0.12234477661E+04  0.13862536240E+04  0.00000000000E+00 0.  1.
         22    1    1    2    0    0 -0.39130785665E+03  0.84892600155E+03  0.96226447323E+03  0.13415476552E+04  0.00000000000E+00 0. -1.
<mgrwt>
<rscale>  0 0.19152836E+04</rscale>
<asrwt>0</asrwt>
<pdfrwt beam="1">  1        1 0.44640669E+00 0.19152836E+04</pdfrwt>
<pdfrwt beam="2">  1       -1 0.48623788E-01 0.19152836E+04</pdfrwt>
<totfact> 0.27920200E+00</totfact>
</mgrwt>
</event>
<event>
 6    1  0.6091287E-004  0.2186381E+04  0.7818608E-02  0.8524118E-01
          2   -1    0    0  501    0  0.00000000000E+00  0.00000000000E+00  0.27520399610E+04  0.27520399610E+04  0.00000000000E+00 0.  1.
         -2   -1    0    0    0  501 -0.00000000000E+00 -0.00000000000E+00 -0.43424729173E+03  0.43424729173E+03  0.00000000000E+00 0. -1.
         23    2    1    2    0    0  0.89515441971E+03 -0.58424068901E+03  0.83556496053E+03  0.13588197158E+04  0.74723484133E+02 0.  0.
         13    1    3    3    0    0  0.73415749975E+03 -0.44365600606E+03  0.66604129982E+03  0.10860151469E+04  0.00000000000E+00 0.  1.
        -13    1    3    3    0    0  0.16099691996E+03 -0.14058468294E+03  0.16952366071E+03  0.27280456898E+03  0.00000000000E+00 0. -1.
         22    1    1    2    0    0 -0.89515441971E+03  0.58424068901E+03  0.14822277087E+04  0.18274675369E+04  0.00000000000E+00 0.  1.
<mgrwt>
<rscale>  0 0.21863814E+04</rscale>
<asrwt>0</asrwt>
<pdfrwt beam="1">  1        2 0.42339075E+00 0.21863814E+04</pdfrwt>
<pdfrwt beam="2">  1       -2 0.66807277E-01 0.21863814E+04</pdfrwt>
<totfact> 0.46566952E+00</totfact>
</mgrwt>
</event>
<event>
 6    1  0.6091287E-004  0.3129678E+04  0.7818608E-02  0.8207640E-01
          2   -1    0    0  501    0  0.00000000000E+00  0.00000000000E+00  0.23208386567E+04  0.23208386567E+04  0.00000000000E+00 0.  1.
         -2   -1    0    0    0  501 -0.00000000000E+00 -0.00000000000E+00 -0.10551018474E+04  0.10551018474E+04  0.00000000000E+00 0. -1.
         23    2    1    2    0    0 -0.12347847494E+04  0.60980259799E+03 -0.16496117098E+03  0.13901285047E+04  0.93233501508E+02 0.  0.
         11    1    3    3    0    0 -0.96127156327E+03  0.43380385246E+03 -0.14090655327E+03  0.10639941060E+04  0.00000000000E+00 0.  1.
        -11    1    3    3    0    0 -0.27351318615E+03  0.17599874552E+03 -0.24054617713E+02  0.32613439876E+03  0.00000000000E+00 0. -1.
         22    1    1    2    0    0  0.12347847494E+04 -0.60980259799E+03  0.14306979803E+04  0.19858119993E+04  0.00000000000E+00 0. -1.
<mgrwt>
<rscale>  0 0.31296780E+04</rscale>
<asrwt>0</asrwt>
<pdfrwt beam="1">  1        2 0.35705210E+00 0.31296780E+04</pdfrwt>
<pdfrwt beam="2">  1       -2 0.16232336E+00 0.31296780E+04</pdfrwt>
<totfact> 0.90475058E-01</totfact>
</mgrwt>
</event>
<event>
 6    1  0.6091287E-004  0.2651947E+04  0.7818608E-02  0.8350767E-01
          2   -1    0    0  501    0  0.00000000000E+00  0.00000000000E+00  0.91918453280E+03  0.91918453280E+03  0.00000000000E+00 0.  1.
         -2   -1    0    0    0  501 -0.00000000000E+00 -0.00000000000E+00 -0.19127891995E+04  0.19127891995E+04  0.00000000000E+00 0. -1.
         23    2    1    2    0    0  0.23117528690E+03  0.11519653018E+04 -0.11500643041E+04  0.16466696836E+04  0.91690094983E+02 0.  0.
         11    1    3    3    0    0  0.22682582810E+03  0.10180257929E+04 -0.99150948424E+03  0.14390682849E+04  0.00000000000E+00 0.  1.
        -11    1    3    3    0    0  0.43494588034E+01  0.13393950884E+03 -0.15855481990E+03  0.20760139868E+03  0.00000000000E+00 0. -1.
         22    1    1    2    0    0 -0.23117528690E+03 -0.11519653018E+04  0.15645963739E+03  0.11853040487E+04  0.00000000000E+00 0.  1.
<mgrwt>
<rscale>  0 0.26519474E+04</rscale>
<asrwt>0</asrwt>
<pdfrwt beam="1">  1        2 0.14141301E+00 0.26519474E+04</pdfrwt>
<pdfrwt beam="2">  1       -2 0.29427526E+00 0.26519474E+04</pdfrwt>
<totfact> 0.86370297E-01</totfact>
</mgrwt>
</event>
<event>
 6    1  0.6091287E-004  0.2729109E+04  0.7818608E-02  0.8325622E-01
         -2   -1    0    0    0  501 -0.00000000000E+00  0.00000000000E+00  0.64422342505E+03  0.64422342505E+03  0.00000000000E+00 0. -1.
          2   -1    0    0  501    0  0.00000000000E+00 -0.00000000000E+00 -0.28903146868E+04  0.28903146868E+04  0.00000000000E+00 0.  1.
         23    2    1    2    0    0 -0.86451081581E+03  0.62479212377E+03 -0.25311923314E+02  0.10708812732E+04  0.91661656532E+02 0.  0.
         11    1    3    3    0    0 -0.51325159981E+03  0.40331531149E+03 -0.51633197900E+02  0.65479495441E+03  0.00000000000E+00 0. -1.
        -11    1    3    3    0    0 -0.35125921600E+03  0.22147681228E+03  0.26321274585E+02  0.41608631881E+03  0.00000000000E+00 0.  1.
         22    1    1    2    0    0  0.86451081581E+03 -0.62479212377E+03 -0.22207793385E+04  0.24636568387E+04  0.00000000000E+00 0.  1.
<mgrwt>
<rscale>  0 0.27291086E+04</rscale>
<asrwt>0</asrwt>
<pdfrwt beam="1">  1        2 0.44466379E+00 0.27291086E+04</pdfrwt>
<pdfrwt beam="2">  1       -2 0.99111298E-01 0.27291086E+04</pdfrwt>
<totfact> 0.15034325E+00</totfact>
</mgrwt>
</event>
<event>
 6    1  0.6091287E-004  0.8444269E+03  0.7818608E-02  0.9497848E-01
          2   -1    0    0  501    0  0.00000000000E+00  0.00000000000E+00  0.30254478255E+04  0.30254478255E+04  0.00000000000E+00 0.  1.
         -2   -1    0    0    0  501 -0.00000000000E+00 -0.00000000000E+00 -0.58921589708E+02  0.58921589708E+02  0.00000000000E+00 0. -1.
         23    2    1    2    0    0  0.12663725961E+03  0.10521927670E+03  0.29011418158E+04  0.29072163343E+04  0.90415081635E+02 0.  0.
         13    1    3    3    0    0  0.12007422062E+03  0.61891776991E+02  0.17347962122E+04  0.17400477891E+04  0.00000000000E+00 0.  1.
        -13    1    3    3    0    0  0.65630389876E+01  0.43327499713E+02  0.11663456036E+04  0.11671685451E+04  0.00000000000E+00 0. -1.
         22    1    1    2    0    0 -0.12663725961E+03 -0.10521927670E+03  0.65384419960E+02  0.17715308093E+03  0.00000000000E+00 0. -1.
<mgrwt>
<rscale>  0 0.84442690E+03</rscale>
<asrwt>0</asrwt>
<pdfrwt beam="1">  1        2 0.46545339E+00 0.84442690E+03</pdfrwt>
<pdfrwt beam="2">  1       -2 0.90648623E-02 0.84442690E+03</pdfrwt>
<totfact> 0.14112957E+02</totfact>
</mgrwt>
</event>
<event>
 6    1  0.6091287E-004  0.2516076E+04  0.7818608E-02  0.8397281E-01
         -2   -1    0    0    0  501 -0.00000000000E+00  0.00000000000E+00  0.65046545420E+03  0.65046545420E+03  0.00000000000E+00 0. -1.
          2   -1    0    0  501    0  0.00000000000E+00 -0.00000000000E+00 -0.24331189200E+04  0.24331189200E+04  0.00000000000E+00 0.  1.
         23    2    1    2    0    0 -0.11519625466E+04  0.20143105621E+03 -0.32958878024E+03  0.12183795170E+04  0.90706693154E+02 0.  0.
         11    1    3    3    0    0 -0.40661584019E+03  0.85281499428E+02 -0.16001281648E+03  0.44521172163E+03  0.00000000000E+00 0. -1.
        -11    1    3    3    0    0 -0.74534670637E+03  0.11614955678E+03 -0.16957596376E+03  0.77316779533E+03  0.00000000000E+00 0.  1.
         22    1    1    2    0    0  0.11519625466E+04 -0.20143105621E+03 -0.14530646856E+04  0.18652048573E+04  0.00000000000E+00 0.  1.
<mgrwt>
<rscale>  0 0.25160762E+04</rscale>
<asrwt>0</asrwt>
<pdfrwt beam="1">  1        2 0.37432599E+00 0.25160762E+04</pdfrwt>
<pdfrwt beam="2">  1       -2 0.10007161E+00 0.25160762E+04</pdfrwt>
<totfact> 0.27942695E+00</totfact>
</mgrwt>
</event>
<event>
 6    1  0.6091287E-004  0.2838389E+04  0.7818608E-02  0.8291448E-01
         -2   -1    0    0    0  501 -0.00000000000E+00  0.00000000000E+00  0.81051088981E+03  0.81051088981E+03  0.00000000000E+00 0. -1.
          2   -1    0    0  501    0  0.00000000000E+00 -0.00000000000E+00 -0.24849914221E+04  0.24849914221E+04  0.00000000000E+00 0.  1.
         23    2    1    2    0    0  0.20406647025E+03  0.13993248540E+04 -0.95494902978E+03  0.17088458417E+04  0.92050475850E+02 0.  0.
         11    1    3    3    0    0  0.89481428357E+02  0.80202071792E+03 -0.50027063436E+03  0.94948136664E+03  0.00000000000E+00 0. -1.
        -11    1    3    3    0    0  0.11458504189E+03  0.59730413605E+03 -0.45467839542E+03  0.75936447509E+03  0.00000000000E+00 0.  1.
         22    1    1    2    0    0 -0.20406647025E+03 -0.13993248540E+04 -0.71953150247E+03  0.15866564701E+04  0.00000000000E+00 0. -1.
<mgrwt>
<rscale>  0 0.28383887E+04</rscale>
<asrwt>0</asrwt>
<pdfrwt beam="1">  1        2 0.38230637E+00 0.28383887E+04</pdfrwt>
<pdfrwt beam="2">  1       -2 0.12469398E+00 0.28383887E+04</pdfrwt>
<totfact> 0.14859398E+00</totfact>
</mgrwt>
</event>
<event>
 6    1  0.6091287E-004  0.4258047E+04  0.7818608E-02  0.7954421E-01
         -2   -1    0    0    0  501 -0.00000000000E+00  0.00000000000E+00  0.24945143804E+04  0.24945143804E+04  0.00000000000E+00 0. -1.
          2   -1    0    0  501    0  0.00000000000E+00 -0.00000000000E+00 -0.18170833506E+04  0.18170833506E+04  0.00000000000E+00 0.  1.
         23    2    1    2    0    0  0.17181442627E+04 -0.88114721847E+03  0.12446998906E+04  0.22990783923E+04  0.89685609522E+02 0.  0.
         13    1    3    3    0    0  0.63687542147E+03 -0.35850965794E+03  0.51029547404E+03  0.89137026433E+03  0.00000000000E+00 0. -1.
        -13    1    3    3    0    0  0.10812688412E+04 -0.52263756053E+03  0.73440441652E+03  0.14077081280E+04  0.00000000000E+00 0.  1.
         22    1    1    2    0    0 -0.17181442627E+04  0.88114721847E+03 -0.56726886073E+03  0.20125193386E+04  0.00000000000E+00 0.  1.
<mgrwt>
<rscale>  0 0.42580468E+04</rscale>
<asrwt>0</asrwt>
<pdfrwt beam="1">  1        2 0.27955128E+00 0.42580468E+04</pdfrwt>
<pdfrwt beam="2">  1       -2 0.38377144E+00 0.42580468E+04</pdfrwt>
<totfact> 0.61731067E-02</totfact>
</mgrwt>
</event>
<event>
 6    1  0.6091287E-004  0.2341766E+04  0.7818608E-02  0.8461633E-01
          2   -1    0    0  501    0  0.00000000000E+00  0.00000000000E+00  0.40344113568E+04  0.40344113568E+04  0.00000000000E+00 0.  1.
         -2   -1    0    0    0  501 -0.00000000000E+00 -0.00000000000E+00 -0.33981830202E+03  0.33981830202E+03  0.00000000000E+00 0. -1.
         23    2    1    2    0    0  0.27994362852E+02 -0.11108681672E+04  0.11716708982E+04  0.16174293437E+04  0.91941388793E+02 0.  0.
         11    1    3    3    0    0 -0.10512560945E+02 -0.89460954643E+03  0.96285479788E+03  0.13143538779E+04  0.00000000000E+00 0.  1.
        -11    1    3    3    0    0  0.38506923798E+02 -0.21625862076E+03  0.20881610032E+03  0.30307546583E+03  0.00000000000E+00 0. -1.
         22    1    1    2    0    0 -0.27994362852E+02  0.11108681672E+04  0.25229221566E+04  0.27568003151E+04  0.00000000000E+00 0.  1.
<mgrwt>
<rscale>  0 0.23417658E+04</rscale>
<asrwt>0</asrwt>
<pdfrwt beam="1">  1        2 0.62067864E+00 0.23417658E+04</pdfrwt>
<pdfrwt beam="2">  1       -2 0.52279742E-01 0.23417658E+04</pdfrwt>
<totfact> 0.10062880E+00</totfact>
</mgrwt>
</event>
<event>
 6    1  0.6091287E-004  0.3015302E+04  0.7818608E-02  0.8239375E-01
         -2   -1    0    0    0  501 -0.00000000000E+00  0.00000000000E+00  0.11862149077E+04  0.11862149077E+04  0.00000000000E+00 0. -1.
          2   -1    0    0  501    0  0.00000000000E+00 -0.00000000000E+00 -0.19161886044E+04  0.19161886044E+04  0.00000000000E+00 0.  1.
         23    2    1    2    0    0 -0.59657689585E+03 -0.48260822415E+03  0.96809667922E+03  0.12390040133E+04  0.95420511277E+02 0.  0.
         11    1    3    3    0    0 -0.48092229131E+03 -0.37864166547E+03  0.70746411375E+03  0.93550052557E+03  0.00000000000E+00 0.  1.
        -11    1    3    3    0    0 -0.11565460453E+03 -0.10396655868E+03  0.26063256548E+03  0.30350348773E+03  0.00000000000E+00 0. -1.
         22    1    1    2    0    0  0.59657689585E+03  0.48260822415E+03 -0.16980703759E+04  0.18633994988E+04  0.00000000000E+00 0.  1.
<mgrwt>
<rscale>  0 0.30153020E+04</rscale>
<asrwt>0</asrwt>
<pdfrwt beam="1">  1        2 0.29479825E+00 0.30153020E+04</pdfrwt>
<pdfrwt beam="2">  1       -2 0.18249460E+00 0.30153020E+04</pdfrwt>
<totfact> 0.11084379E+00</totfact>
</mgrwt>
</event>
<event>
 6    1  0.6091287E-004  0.2170039E+04  0.7818608E-02  0.8531003E-01
          2   -1    0    0  501    0  0.00000000000E+00  0.00000000000E+00  0.13142729887E+04  0.13142729887E+04  0.00000000000E+00 0.  1.
         -2   -1    0    0    0  501 -0.00000000000E+00 -0.00000000000E+00 -0.89575521484E+03  0.89575521484E+03  0.00000000000E+00 0. -1.
         23    2    1    2    0    0  0.10197982475E+04  0.18385142380E+03 -0.11112904726E+03  0.10462775572E+04  0.92505405045E+02 0.  0.
         13    1    3    3    0    0  0.46694286741E+03  0.12496039809E+03 -0.74585001665E+02  0.48909474030E+03  0.00000000000E+00 0.  1.
        -13    1    3    3    0    0  0.55285538011E+03  0.58891025714E+02 -0.36544045599E+02  0.55718281695E+03  0.00000000000E+00 0. -1.
         22    1    1    2    0    0 -0.10197982475E+04 -0.18385142380E+03  0.52964682115E+03  0.11637506463E+04  0.00000000000E+00 0.  1.
<mgrwt>
<rscale>  0 0.21700386E+04</rscale>
<asrwt>0</asrwt>
<pdfrwt beam="1">  1        2 0.20219585E+00 0.21700386E+04</pdfrwt>
<pdfrwt beam="2">  1       -2 0.13780849E+00 0.21700386E+04</pdfrwt>
<totfact> 0.55611199E+00</totfact>
</mgrwt>
</event>
<event>
 6    1  0.6091287E-004  0.2004340E+04  0.7818608E-02  0.8604594E-01
          2   -1    0    0  501    0  0.00000000000E+00  0.00000000000E+00  0.15204830214E+04  0.15204830214E+04  0.00000000000E+00 0.  1.
         -2   -1    0    0    0  501 -0.00000000000E+00 -0.00000000000E+00 -0.66054291212E+03  0.66054291212E+03  0.00000000000E+00 0. -1.
         23    2    1    2    0    0  0.39626686429E+03 -0.16063770073E+03  0.14145328331E+04  0.14807367162E+04  0.94054176784E+02 0.  0.
         13    1    3    3    0    0  0.21553358196E+03 -0.13436701280E+03  0.76837205682E+03  0.80926190864E+03  0.00000000000E+00 0. -1.
        -13    1    3    3    0    0  0.18073328233E+03 -0.26270687932E+02  0.64616077629E+03  0.67147480757E+03  0.00000000000E+00 0.  1.
         22    1    1    2    0    0 -0.39626686429E+03  0.16063770073E+03 -0.55459272379E+03  0.70028921733E+03  0.00000000000E+00 0. -1.
<mgrwt>
<rscale>  0 0.20043396E+04</rscale>
<asrwt>0</asrwt>
<pdfrwt beam="1">  1        2 0.23392046E+00 0.20043396E+04</pdfrwt>
<pdfrwt beam="2">  1       -2 0.10162199E+00 0.20043396E+04</pdfrwt>
<totfact> 0.91266370E+00</totfact>
</mgrwt>
</event>
<event>
 6    1  0.6091287E-004  0.4022868E+04  0.7818608E-02  0.7999949E-01
         -2   -1    0    0    0  501 -0.00000000000E+00  0.00000000000E+00  0.29064107119E+04  0.29064107119E+04  0.00000000000E+00 0. -1.
          2   -1    0    0  501    0  0.00000000000E+00 -0.00000000000E+00 -0.13920492394E+04  0.13920492394E+04  0.00000000000E+00 0.  1.
         23    2    1    2    0    0  0.85347733348E+03  0.17756764557E+04  0.11856523013E+04  0.23010866379E+04  0.88192410689E+02 0.  0.
         11    1    3    3    0    0  0.31170065443E+03  0.74645817297E+03  0.47587453226E+03  0.93851674062E+03  0.00000000000E+00 0.  1.
        -11    1    3    3    0    0  0.54177667905E+03  0.10292182827E+04  0.70977776905E+03  0.13625698973E+04  0.00000000000E+00 0. -1.
         22    1    1    2    0    0 -0.85347733348E+03 -0.17756764557E+04  0.32870917122E+03  0.19973733135E+04  0.00000000000E+00 0.  1.
<mgrwt>
<rscale>  0 0.40228680E+04</rscale>
<asrwt>0</asrwt>
<pdfrwt beam="1">  1        2 0.21416142E+00 0.40228680E+04</pdfrwt>
<pdfrwt beam="2">  1       -2 0.44714011E+00 0.40228680E+04</pdfrwt>
<totfact> 0.41745058E-02</totfact>
</mgrwt>
</event>
<event>
 6    1  0.6091287E-004  0.3387791E+04  0.7818608E-02  0.8140909E-01
         -2   -1    0    0    0  501 -0.00000000000E+00  0.00000000000E+00  0.82589337085E+03  0.82589337085E+03  0.00000000000E+00 0. -1.
          2   -1    0    0  501    0  0.00000000000E+00 -0.00000000000E+00 -0.34741550353E+04  0.34741550353E+04  0.00000000000E+00 0.  1.
         23    2    1    2    0    0  0.12455998714E+04 -0.55522918646E+03 -0.52384636558E+02  0.13677496436E+04  0.90534238333E+02 0.  0.
         13    1    3    3    0    0  0.54349971813E+03 -0.23816911177E+03  0.21954446618E+02  0.59380002285E+03  0.00000000000E+00 0.  1.
        -13    1    3    3    0    0  0.70210015324E+03 -0.31706007470E+03 -0.74339083176E+02  0.77394962073E+03  0.00000000000E+00 0. -1.
         22    1    1    2    0    0 -0.12455998714E+04  0.55522918646E+03 -0.25958770279E+04  0.29322987626E+04  0.00000000000E+00 0.  1.
<mgrwt>
<rscale>  0 0.33877908E+04</rscale>
<asrwt>0</asrwt>
<pdfrwt beam="1">  1        2 0.53448539E+00 0.33877908E+04</pdfrwt>
<pdfrwt beam="2">  1       -2 0.12706052E+00 0.33877908E+04</pdfrwt>
<totfact> 0.32290940E-01</totfact>
</mgrwt>
</event>
<event>
 6    1  0.6091287E-004  0.7583361E+03  0.7818608E-02  0.9622362E-01
         -2   -1    0    0    0  501 -0.00000000000E+00  0.00000000000E+00  0.24721136656E+03  0.24721136656E+03  0.00000000000E+00 0. -1.
          2   -1    0    0  501    0  0.00000000000E+00 -0.00000000000E+00 -0.58156061485E+03  0.58156061485E+03  0.00000000000E+00 0.  1.
         23    2    1    2    0    0 -0.13367020935E+03 -0.34815729970E+03 -0.15108243801E+03  0.41323864465E+03  0.94122495447E+02 0.  0.
         11    1    3    3    0    0 -0.56950964048E+02 -0.16364746873E+03 -0.12057817414E+03  0.21109950830E+03  0.00000000000E+00 0.  1.
        -11    1    3    3    0    0 -0.76719245305E+02 -0.18450983098E+03 -0.30504263867E+02  0.20213913634E+03  0.00000000000E+00 0. -1.
         22    1    1    2    0    0  0.13367020935E+03  0.34815729970E+03 -0.18326681028E+03  0.41553333676E+03  0.00000000000E+00 0. -1.
<mgrwt>
<rscale>  0 0.75833606E+03</rscale>
<asrwt>0</asrwt>
<pdfrwt beam="1">  1        2 0.89470864E-01 0.75833606E+03</pdfrwt>
<pdfrwt beam="2">  1       -2 0.38032518E-01 0.75833606E+03</pdfrwt>
<totfact> 0.33835042E+02</totfact>
</mgrwt>
</event>
<event>
 6    1  0.6091287E-004  0.1585719E+04  0.7818608E-02  0.8829370E-01
          2   -1    0    0  501    0  0.00000000000E+00  0.00000000000E+00  0.26229132342E+04  0.26229132342E+04  0.00000000000E+00 0.  1.
         -2   -1    0    0    0  501 -0.00000000000E+00 -0.00000000000E+00 -0.23966724409E+03  0.23966724409E+03  0.00000000000E+00 0. -1.
         23    2    1    2    0    0 -0.74319209388E+03 -0.18504082149E+03  0.15478258815E+04  0.17292220390E+04  0.88709113254E+02 0.  0.
         11    1    3    3    0    0 -0.54149932635E+03 -0.16408418178E+03  0.11974374791E+04  0.13243872755E+04  0.00000000000E+00 0. -1.
        -11    1    3    3    0    0 -0.20169276753E+03 -0.20956639714E+02  0.35038840241E+03  0.40483476353E+03  0.00000000000E+00 0.  1.
         22    1    1    2    0    0  0.74319209388E+03  0.18504082149E+03  0.83542010868E+03  0.11333584393E+04  0.00000000000E+00 0. -1.
<mgrwt>
<rscale>  0 0.15857193E+04</rscale>
<asrwt>0</asrwt>
<pdfrwt beam="1">  1        2 0.40352509E+00 0.15857193E+04</pdfrwt>
<pdfrwt beam="2">  1       -2 0.36871885E-01 0.15857193E+04</pdfrwt>
<totfact> 0.19685808E+01</totfact>
</mgrwt>
</event>
<event>
 6    1  0.6091287E-004  0.2078361E+04  0.7818608E-02  0.8570836E-01
          1   -1    0    0  501    0  0.00000000000E+00  0.00000000000E+00  0.51178423737E+03  0.51178423737E+03  0.00000000000E+00 0.  1.
         -1   -1    0    0    0  501 -0.00000000000E+00 -0.00000000000E+00 -0.21100612676E+04  0.21100612676E+04  0.00000000000E+00 0. -1.
         23    2    1    2    0    0  0.29010398343E+03  0.97349877496E+03 -0.10649481571E+04  0.14745443793E+04  0.91139252005E+02 0.  0.
         13    1    3    3    0    0  0.25270930007E+03  0.71151108636E+03 -0.80082248795E+03  0.11006482969E+04  0.00000000000E+00 0. -1.
        -13    1    3    3    0    0  0.37394683360E+02  0.26198768860E+03 -0.26412566912E+03  0.37389608237E+03  0.00000000000E+00 0.  1.
         22    1    1    2    0    0 -0.29010398343E+03 -0.97349877496E+03 -0.53332887320E+03  0.11473011257E+04  0.00000000000E+00 0.  1.
<mgrwt>
<rscale>  0 0.20783610E+04</rscale>
<asrwt>0</asrwt>
<pdfrwt beam="1">  1        1 0.78736037E-01 0.20783610E+04</pdfrwt>
<pdfrwt beam="2">  1       -1 0.32462481E+00 0.20783610E+04</pdfrwt>
<totfact> 0.90352495E-01</totfact>
</mgrwt>
</event>
<event>
 6    1  0.6091287E-004  0.5100247E+04  0.7818608E-02  0.7813227E-01
         -2   -1    0    0    0  501 -0.00000000000E+00  0.00000000000E+00  0.20282260554E+04  0.20282260554E+04  0.00000000000E+00 0.  1.
          2   -1    0    0  501    0  0.00000000000E+00 -0.00000000000E+00 -0.32063144909E+04  0.32063144909E+04  0.00000000000E+00 0. -1.
         23    2    1    2    0    0 -0.60743087003E+03 -0.86517405028E+02  0.19504389978E+04  0.20464154823E+04  0.84537085942E+02 0.  0.
         13    1    3    3    0    0 -0.42036754357E+03 -0.39685215167E+02  0.12223255040E+04  0.12931989119E+04  0.00000000000E+00 0. -1.
        -13    1    3    3    0    0 -0.18706332646E+03 -0.46832189861E+02  0.72811349378E+03  0.75321657041E+03  0.00000000000E+00 0.  1.
         22    1    1    2    0    0  0.60743087003E+03  0.86517405028E+02 -0.31285274333E+04  0.31881250641E+04  0.00000000000E+00 0. -1.
<mgrwt>
<rscale>  0 0.51002473E+04</rscale>
<asrwt>0</asrwt>
<pdfrwt beam="1">  1        2 0.49327916E+00 0.51002473E+04</pdfrwt>
<pdfrwt beam="2">  1       -2 0.31203478E+00 0.51002473E+04</pdfrwt>
<totfact> 0.24849831E-02</totfact>
</mgrwt>
</event>
<event>
 6    1  0.6091287E-004  0.7060572E+03  0.7818608E-02  0.9706929E-01
         -2   -1    0    0    0  501 -0.00000000000E+00  0.00000000000E+00  0.10489747563E+03  0.10489747563E+03  0.00000000000E+00 0. -1.
          2   -1    0    0  501    0  0.00000000000E+00 -0.00000000000E+00 -0.11881046364E+04  0.11881046364E+04  0.00000000000E+00 0.  1.
         23    2    1    2    0    0 -0.24307021547E+03  0.24348958571E+03 -0.61215736545E+03  0.70968554474E+03  0.10269675915E+03 0.  0.
         11    1    3    3    0    0 -0.12663245176E+03  0.59990360470E+02 -0.20785736843E+03  0.25067769505E+03  0.00000000000E+00 0. -1.
        -11    1    3    3    0    0 -0.11643776371E+03  0.18349922524E+03 -0.40429999703E+03  0.45900784969E+03  0.00000000000E+00 0.  1.
         22    1    1    2    0    0  0.24307021547E+03 -0.24348958571E+03 -0.47104979527E+03  0.58331656725E+03  0.00000000000E+00 0.  1.
<mgrwt>
<rscale>  0 0.70605716E+03</rscale>
<asrwt>0</asrwt>
<pdfrwt beam="1">  1        2 0.18278533E+00 0.70605716E+03</pdfrwt>
<pdfrwt beam="2">  1       -2 0.16138073E-01 0.70605716E+03</pdfrwt>
<totfact> 0.60111671E+02</totfact>
</mgrwt>
</event>
<event>
 6    1  0.6091287E-004  0.1084884E+04  0.7818608E-02  0.9220051E-01
          3   -1    0    0  501    0  0.00000000000E+00  0.00000000000E+00  0.55953012489E+03  0.55953012489E+03  0.00000000000E+00 0. -1.
         -3   -1    0    0    0  501 -0.00000000000E+00 -0.00000000000E+00 -0.52587591875E+03  0.52587591875E+03  0.00000000000E+00 0.  1.
         23    2    1    2    0    0 -0.24862179094E+03  0.35919756074E+03  0.33263588408E+03  0.55604253307E+03  0.87755254180E+02 0.  0.
         13    1    3    3    0    0 -0.12293523980E+03  0.14144386707E+03  0.19048939559E+03  0.26721835743E+03  0.00000000000E+00 0. -1.
        -13    1    3    3    0    0 -0.12568655114E+03  0.21775369367E+03  0.14214648849E+03  0.28882417564E+03  0.00000000000E+00 0.  1.
         22    1    1    2    0    0  0.24862179094E+03 -0.35919756074E+03 -0.29898167794E+03  0.52936351057E+03  0.00000000000E+00 0.  1.
<mgrwt>
<rscale>  0 0.10848842E+04</rscale>
<asrwt>0</asrwt>
<pdfrwt beam="1">  1        3 0.86081557E-01 0.10848842E+04</pdfrwt>
<pdfrwt beam="2">  1       -3 0.80903988E-01 0.10848842E+04</pdfrwt>
<totfact> 0.45603049E+00</totfact>
</mgrwt>
</event>
<event>
 6    1  0.6091287E-004  0.4035084E+04  0.7818608E-02  0.7997506E-01
          2   -1    0    0  501    0  0.00000000000E+00  0.00000000000E+00  0.34158499108E+04  0.34158499108E+04  0.00000000000E+00 0.  1.
         -2   -1    0    0    0  501 -0.00000000000E+00 -0.00000000000E+00 -0.11916435104E+04  0.11916435104E+04  0.00000000000E+00 0. -1.
         23    2    1    2    0    0 -0.62609708654E+03  0.19071823196E+04  0.13323451050E+04  0.24109601224E+04  0.90792462289E+02 0.  0.
         11    1    3    3    0    0 -0.38608477757E+03  0.10341624561E+04  0.74280461031E+03  0.13305307701E+04  0.00000000000E+00 0. -1.
        -11    1    3    3    0    0 -0.24001230898E+03  0.87301986353E+03  0.58954049468E+03  0.10804293524E+04  0.00000000000E+00 0.  1.
         22    1    1    2    0    0  0.62609708654E+03 -0.19071823196E+04  0.89186129541E+03  0.21965332987E+04  0.00000000000E+00 0. -1.
<mgrwt>
<rscale>  0 0.40350838E+04</rscale>
<asrwt>0</asrwt>
<pdfrwt beam="1">  1        2 0.52551537E+00 0.40350838E+04</pdfrwt>
<pdfrwt beam="2">  1       -2 0.18332977E+00 0.40350838E+04</pdfrwt>
<totfact> 0.12562478E-01</totfact>
</mgrwt>
</event>
<event>
 6    1  0.6091287E-004  0.3421784E+04  0.7818608E-02  0.8132580E-01
         -2   -1    0    0    0  501 -0.00000000000E+00  0.00000000000E+00  0.22360898179E+04  0.22360898179E+04  0.00000000000E+00 0. -1.
          2   -1    0    0  501    0  0.00000000000E+00 -0.00000000000E+00 -0.13090493834E+04  0.13090493834E+04  0.00000000000E+00 0.  1.
         23    2    1    2    0    0 -0.18301442400E+02 -0.37458203802E+03 -0.12640681074E+04  0.13221674768E+04  0.98040861643E+02 0.  0.
         13    1    3    3    0    0 -0.33611848810E+02 -0.17567656724E+03 -0.74274705735E+03  0.76397984519E+03  0.00000000000E+00 0. -1.
        -13    1    3    3    0    0  0.15310406410E+02 -0.19890547078E+03 -0.52132105003E+03  0.55818763159E+03  0.00000000000E+00 0.  1.
         22    1    1    2    0    0  0.18301442400E+02  0.37458203802E+03  0.21911085419E+04  0.22229717246E+04  0.00000000000E+00 0. -1.
<mgrwt>
<rscale>  0 0.34217843E+04</rscale>
<asrwt>0</asrwt>
<pdfrwt beam="1">  1        2 0.20139221E+00 0.34217843E+04</pdfrwt>
<pdfrwt beam="2">  1       -2 0.34401382E+00 0.34217843E+04</pdfrwt>
<totfact> 0.22908102E-01</totfact>
</mgrwt>
</event>
<event>
 6    1  0.6091287E-004  0.3548566E+04  0.7818608E-02  0.8102376E-01
         -2   -1    0    0    0  501 -0.00000000000E+00  0.00000000000E+00  0.10966364910E+04  0.10966364910E+04  0.00000000000E+00 0. -1.
          2   -1    0    0  501    0  0.00000000000E+00 -0.00000000000E+00 -0.28706695885E+04  0.28706695885E+04  0.00000000000E+00 0.  1.
         23    2    1    2    0    0  0.51830443360E+03  0.65244822265E+03 -0.26373880582E+04  0.27674269367E+04  0.92238339391E+02 0.  0.
         13    1    3    3    0    0  0.16795738117E+03  0.15402738665E+03 -0.78641785278E+03  0.81877173675E+03  0.00000000000E+00 0.  1.
        -13    1    3    3    0    0  0.35034705243E+03  0.49842083600E+03 -0.18509702054E+04  0.19486551999E+04  0.00000000000E+00 0. -1.
         22    1    1    2    0    0 -0.51830443360E+03 -0.65244822265E+03  0.86335496071E+03  0.11998791428E+04  0.00000000000E+00 0. -1.
<mgrwt>
<rscale>  0 0.35485665E+04</rscale>
<asrwt>0</asrwt>
<pdfrwt beam="1">  1        2 0.44164147E+00 0.35485665E+04</pdfrwt>
<pdfrwt beam="2">  1       -2 0.16871331E+00 0.35485665E+04</pdfrwt>
<totfact> 0.37293023E-01</totfact>
</mgrwt>
</event>
<event>
 6    1  0.6091287E-004  0.1544271E+04  0.7818608E-02  0.8855536E-01
          2   -1    0    0  501    0  0.00000000000E+00  0.00000000000E+00  0.49193929378E+03  0.49193929378E+03  0.00000000000E+00 0.  1.
         -2   -1    0    0    0  501 -0.00000000000E+00 -0.00000000000E+00 -0.12119238339E+04  0.12119238339E+04  0.00000000000E+00 0. -1.
         23    2    1    2    0    0 -0.70021561605E+03 -0.19606370946E+03 -0.63870914000E+03  0.97218794172E+03  0.91962717371E+02 0.  0.
         13    1    3    3    0    0 -0.13856989261E+03 -0.10717409452E+02 -0.91221469103E+02  0.16624630651E+03  0.00000000000E+00 0.  1.
        -13    1    3    3    0    0 -0.56164572344E+03 -0.18534630001E+03 -0.54748767090E+03  0.80594163521E+03  0.00000000000E+00 0. -1.
         22    1    1    2    0    0  0.70021561605E+03  0.19606370946E+03 -0.81275400143E+02  0.73167518599E+03  0.00000000000E+00 0.  1.
<mgrwt>
<rscale>  0 0.15442706E+04</rscale>
<asrwt>0</asrwt>
<pdfrwt beam="1">  1        2 0.75682968E-01 0.15442706E+04</pdfrwt>
<pdfrwt beam="2">  1       -2 0.18644982E+00 0.15442706E+04</pdfrwt>
<totfact> 0.98877251E+00</totfact>
</mgrwt>
</event>
<event>
 6    1  0.6091287E-004  0.2986203E+04  0.7818608E-02  0.8247682E-01
          2   -1    0    0  501    0  0.00000000000E+00  0.00000000000E+00  0.29699444277E+04  0.29699444277E+04  0.00000000000E+00 0.  1.
         -2   -1    0    0    0  501 -0.00000000000E+00 -0.00000000000E+00 -0.75063769675E+03  0.75063769675E+03  0.00000000000E+00 0. -1.
         23    2    1    2    0    0 -0.28207830209E+02  0.13391581906E+04  0.29185947820E+03  0.13734150547E+04  0.83346363486E+02 0.  0.
         13    1    3    3    0    0 -0.41959113730E+02  0.48135862706E+03  0.13004608298E+03  0.50037853548E+03  0.00000000000E+00 0. -1.
        -13    1    3    3    0    0  0.13751283521E+02  0.85779956356E+03  0.16181339522E+03  0.87303651923E+03  0.00000000000E+00 0.  1.
         22    1    1    2    0    0  0.28207830209E+02 -0.13391581906E+04  0.19274472528E+04  0.23471670698E+04  0.00000000000E+00 0.  1.
<mgrwt>
<rscale>  0 0.29862031E+04</rscale>
<asrwt>0</asrwt>
<pdfrwt beam="1">  1        2 0.45691452E+00 0.29862031E+04</pdfrwt>
<pdfrwt beam="2">  1       -2 0.11548272E+00 0.29862031E+04</pdfrwt>
<totfact> 0.90888946E-01</totfact>
</mgrwt>
</event>
<event>
 6    1  0.6091287E-004  0.1164142E+04  0.7818608E-02  0.9144835E-01
         -2   -1    0    0    0  501 -0.00000000000E+00  0.00000000000E+00  0.12716494035E+03  0.12716494035E+03  0.00000000000E+00 0. -1.
          2   -1    0    0  501    0  0.00000000000E+00 -0.00000000000E+00 -0.26643103197E+04  0.26643103197E+04  0.00000000000E+00 0.  1.
         23    2    1    2    0    0 -0.67300997161E+02 -0.55676244963E+03 -0.93642490108E+03  0.10953561902E+04  0.91650087354E+02 0.  0.
         13    1    3    3    0    0 -0.58130767327E+02 -0.16820216214E+03 -0.25668984277E+03  0.31234728883E+03  0.00000000000E+00 0. -1.
        -13    1    3    3    0    0 -0.91702298340E+01 -0.38856028749E+03 -0.67973505831E+03  0.78300890137E+03  0.00000000000E+00 0.  1.
         22    1    1    2    0    0  0.67300997161E+02  0.55676244963E+03 -0.16007204783E+04  0.16961190699E+04  0.00000000000E+00 0.  1.
<mgrwt>
<rscale>  0 0.11641424E+04</rscale>
<asrwt>0</asrwt>
<pdfrwt beam="1">  1        2 0.40989389E+00 0.11641424E+04</pdfrwt>
<pdfrwt beam="2">  1       -2 0.19563837E-01 0.11641424E+04</pdfrwt>
<totfact> 0.61873625E+01</totfact>
</mgrwt>
</event>
<event>
 6    1  0.6091287E-004  0.3240661E+04  0.7818608E-02  0.8178161E-01
          2   -1    0    0  501    0  0.00000000000E+00  0.00000000000E+00  0.18791624350E+04  0.18791624350E+04  0.00000000000E+00 0.  1.
         -2   -1    0    0    0  501 -0.00000000000E+00 -0.00000000000E+00 -0.13971493055E+04  0.13971493055E+04  0.00000000000E+00 0. -1.
         23    2    1    2    0    0 -0.99105547359E+03 -0.12352763338E+04  0.58155514397E+03  0.16894887557E+04  0.89818136068E+02 0.  0.
         13    1    3    3    0    0 -0.76904076339E+03 -0.10087214996E+04  0.44651253017E+03  0.13447364795E+04  0.00000000000E+00 0. -1.
        -13    1    3    3    0    0 -0.22201471020E+03 -0.22655483413E+03  0.13504261380E+03  0.34475227621E+03  0.00000000000E+00 0.  1.
         22    1    1    2    0    0  0.99105547359E+03  0.12352763338E+04 -0.99542014391E+02  0.15868229848E+04  0.00000000000E+00 0. -1.
<mgrwt>
<rscale>  0 0.32406607E+04</rscale>
<asrwt>0</asrwt>
<pdfrwt beam="1">  1        2 0.28910191E+00 0.32406607E+04</pdfrwt>
<pdfrwt beam="2">  1       -2 0.21494605E+00 0.32406607E+04</pdfrwt>
<totfact> 0.69666076E-01</totfact>
</mgrwt>
</event>
<event>
 6    1  0.6091287E-004  0.1033969E+04  0.7818608E-02  0.9272053E-01
         -1   -1    0    0    0  501 -0.00000000000E+00  0.00000000000E+00  0.23666140798E+03  0.23666140798E+03  0.00000000000E+00 0. -1.
          1   -1    0    0  501    0  0.00000000000E+00 -0.00000000000E+00 -0.11293471980E+04  0.11293471980E+04  0.00000000000E+00 0.  1.
         23    2    1    2    0    0 -0.23637021071E+03  0.25738238671E+03 -0.94592198598E+03  0.10125249966E+04  0.91224424887E+02 0.  0.
         13    1    3    3    0    0 -0.93591471696E+02  0.15045638238E+03 -0.56018363540E+03  0.58753909823E+03  0.00000000000E+00 0.  1.
        -13    1    3    3    0    0 -0.14277873901E+03  0.10692600432E+03 -0.38573835058E+03  0.42498589838E+03  0.00000000000E+00 0. -1.
         22    1    1    2    0    0  0.23637021071E+03 -0.25738238671E+03  0.53236196004E+02  0.35348360932E+03  0.00000000000E+00 0. -1.
<mgrwt>
<rscale>  0 0.10339689E+04</rscale>
<asrwt>0</asrwt>
<pdfrwt beam="1">  1        1 0.17374572E+00 0.10339689E+04</pdfrwt>
<pdfrwt beam="2">  1       -1 0.36409447E-01 0.10339689E+04</pdfrwt>
<totfact> 0.87070126E+01</totfact>
</mgrwt>
</event>
<event>
 6    1  0.6091287E-004  0.1276791E+04  0.7818608E-02  0.9048175E-01
          2   -1    0    0  501    0  0.00000000000E+00  0.00000000000E+00  0.54508401360E+03  0.54508401360E+03  0.00000000000E+00 0.  1.
         -2   -1    0    0    0  501 -0.00000000000E+00 -0.00000000000E+00 -0.74768102811E+03  0.74768102811E+03  0.00000000000E+00 0. -1.
         23    2    1    2    0    0  0.13829876999E+03 -0.34229326747E+03 -0.62502573324E+03  0.73175055603E+03  0.92252253568E+02 0.  0.
         13    1    3    3    0    0  0.10105177295E+03 -0.26996454497E+03 -0.40454143401E+03  0.49673543078E+03  0.00000000000E+00 0. -1.
        -13    1    3    3    0    0  0.37246997040E+02 -0.72328722504E+02 -0.22048429923E+03  0.23501512525E+03  0.00000000000E+00 0.  1.
         22    1    1    2    0    0 -0.13829876999E+03  0.34229326747E+03  0.42242871873E+03  0.56101448568E+03  0.00000000000E+00 0.  1.
<mgrwt>
<rscale>  0 0.12767913E+04</rscale>
<asrwt>0</asrwt>
<pdfrwt beam="1">  1        2 0.83859079E-01 0.12767913E+04</pdfrwt>
<pdfrwt beam="2">  1       -2 0.11502785E+00 0.12767913E+04</pdfrwt>
<totfact> 0.32185987E+01</totfact>
</mgrwt>
</event>
<event>
 6    1  0.6091287E-004  0.2136334E+04  0.7818608E-02  0.8545405E-01
         -2   -1    0    0    0  501 -0.00000000000E+00  0.00000000000E+00  0.12056356260E+04  0.12056356260E+04  0.00000000000E+00 0. -1.
          2   -1    0    0  501    0  0.00000000000E+00 -0.00000000000E+00 -0.94637309050E+03  0.94637309050E+03  0.00000000000E+00 0.  1.
         23    2    1    2    0    0  0.58371674350E+01  0.57067272749E+03 -0.77730706024E+03  0.96871755993E+03  0.92228035784E+02 0.  0.
         13    1    3    3    0    0 -0.22771643643E+02  0.47474762210E+03 -0.60404967727E+03  0.76862205606E+03  0.00000000000E+00 0.  1.
        -13    1    3    3    0    0  0.28608811078E+02  0.95925105383E+02 -0.17325738297E+03  0.20009550387E+03  0.00000000000E+00 0. -1.
         22    1    1    2    0    0 -0.58371674350E+01 -0.57067272749E+03  0.10365695957E+04  0.11832911566E+04  0.00000000000E+00 0. -1.
<mgrwt>
<rscale>  0 0.21363343E+04</rscale>
<asrwt>0</asrwt>
<pdfrwt beam="1">  1        2 0.14559586E+00 0.21363343E+04</pdfrwt>
<pdfrwt beam="2">  1       -2 0.18548240E+00 0.21363343E+04</pdfrwt>
<totfact> 0.41699689E+00</totfact>
</mgrwt>
</event>
<event>
 6    1  0.6091287E-004  0.2109366E+04  0.7818608E-02  0.8557129E-01
          2   -1    0    0  501    0  0.00000000000E+00  0.00000000000E+00  0.21442481963E+04  0.21442481963E+04  0.00000000000E+00 0.  1.
         -2   -1    0    0    0  501 -0.00000000000E+00 -0.00000000000E+00 -0.51876300516E+03  0.51876300516E+03  0.00000000000E+00 0. -1.
         23    2    1    2    0    0 -0.13879922983E+03  0.27261369245E+03  0.20859606207E+04  0.21101811436E+04  0.89717869687E+02 0.  0.
         11    1    3    3    0    0 -0.13512750622E+03  0.23912603090E+03  0.16301471318E+04  0.16531244276E+04  0.00000000000E+00 0. -1.
        -11    1    3    3    0    0 -0.36717236158E+01  0.33487661547E+02  0.45581348888E+03  0.45705671604E+03  0.00000000000E+00 0.  1.
         22    1    1    2    0    0  0.13879922983E+03 -0.27261369245E+03 -0.46047542963E+03  0.55283005780E+03  0.00000000000E+00 0. -1.
<mgrwt>
<rscale>  0 0.21093664E+04</rscale>
<asrwt>0</asrwt>
<pdfrwt beam="1">  1        2 0.32988433E+00 0.21093664E+04</pdfrwt>
<pdfrwt beam="2">  1       -2 0.79809694E-01 0.21093664E+04</pdfrwt>
<totfact> 0.71018880E+00</totfact>
</mgrwt>
</event>
<event>
 6    1  0.6091287E-004  0.2616136E+04  0.7818608E-02  0.8362741E-01
          2   -1    0    0  501    0  0.00000000000E+00  0.00000000000E+00  0.12134706231E+04  0.12134706231E+04  0.00000000000E+00 0. -1.
         -2   -1    0    0    0  501 -0.00000000000E+00 -0.00000000000E+00 -0.14100395687E+04  0.14100395687E+04  0.00000000000E+00 0.  1.
         23    2    1    2    0    0  0.48114774807E+03 -0.39714898799E+03  0.10527463300E+04  0.12270793371E+04  0.90655336727E+02 0.  0.
         13    1    3    3    0    0  0.26231432102E+03 -0.16451985589E+03  0.47715735139E+03  0.56881870924E+03  0.00000000000E+00 0.  1.
        -13    1    3    3    0    0  0.21883342705E+03 -0.23262913210E+03  0.57558897862E+03  0.65826062788E+03  0.00000000000E+00 0. -1.
         22    1    1    2    0    0 -0.48114774807E+03  0.39714898799E+03 -0.12493152756E+04  0.13964308547E+04  0.00000000000E+00 0.  1.
<mgrwt>
<rscale>  0 0.26161358E+04</rscale>
<asrwt>0</asrwt>
<pdfrwt beam="1">  1        2 0.18668779E+00 0.26161358E+04</pdfrwt>
<pdfrwt beam="2">  1       -2 0.21692916E+00 0.26161358E+04</pdfrwt>
<totfact> 0.16979280E+00</totfact>
</mgrwt>
</event>
<event>
 6    1  0.6091287E-004  0.1495366E+04  0.7818608E-02  0.8887541E-01
         -2   -1    0    0    0  501 -0.00000000000E+00  0.00000000000E+00  0.49554687370E+03  0.49554687370E+03  0.00000000000E+00 0. -1.
          2   -1    0    0  501    0  0.00000000000E+00 -0.00000000000E+00 -0.11281062070E+04  0.11281062070E+04  0.00000000000E+00 0.  1.
         23    2    1    2    0    0  0.41208686042E+03 -0.50968642389E+03 -0.70177873578E+03  0.96457254165E+03  0.91164482516E+02 0.  0.
         11    1    3    3    0    0  0.14224853430E+03 -0.15247569955E+03 -0.16705617168E+03  0.26719140885E+03  0.00000000000E+00 0. -1.
        -11    1    3    3    0    0  0.26983832612E+03 -0.35721072434E+03 -0.53472256410E+03  0.69738113280E+03  0.00000000000E+00 0.  1.
         22    1    1    2    0    0 -0.41208686042E+03  0.50968642389E+03  0.69219402521E+02  0.65908053902E+03  0.00000000000E+00 0. -1.
<mgrwt>
<rscale>  0 0.14953655E+04</rscale>
<asrwt>0</asrwt>
<pdfrwt beam="1">  1        2 0.17355480E+00 0.14953655E+04</pdfrwt>
<pdfrwt beam="2">  1       -2 0.76237981E-01 0.14953655E+04</pdfrwt>
<totfact> 0.31162060E+01</totfact>
</mgrwt>
</event>
<event>
 6    1  0.6091287E-004  0.4209109E+03  0.7818608E-02  0.1036770E+00
         -2   -1    0    0    0  501 -0.00000000000E+00  0.00000000000E+00  0.14342394884E+03  0.14342394884E+03  0.00000000000E+00 0. -1.
          2   -1    0    0  501    0  0.00000000000E+00 -0.00000000000E+00 -0.30881527511E+03  0.30881527511E+03  0.00000000000E+00 0.  1.
         23    2    1    2    0    0  0.11111343768E+03 -0.14457521221E+02  0.93777026234E+02  0.16988580908E+03  0.86670880497E+02 0.  0.
         11    1    3    3    0    0  0.94250040879E+02  0.22553566315E+02  0.46401887126E+02  0.10744705063E+03  0.00000000000E+00 0.  1.
        -11    1    3    3    0    0  0.16863396796E+02 -0.37011087536E+02  0.47375139108E+02  0.62438758456E+02  0.00000000000E+00 0. -1.
         22    1    1    2    0    0 -0.11111343768E+03  0.14457521221E+02 -0.25916835250E+03  0.28235341487E+03  0.00000000000E+00 0.  1.
<mgrwt>
<rscale>  0 0.42091095E+03</rscale>
<asrwt>0</asrwt>
<pdfrwt beam="1">  1        2 0.47510042E-01 0.42091095E+03</pdfrwt>
<pdfrwt beam="2">  1       -2 0.22065223E-01 0.42091095E+03</pdfrwt>
<totfact> 0.18901792E+03</totfact>
</mgrwt>
</event>
<event>
 6    1  0.6091287E-004  0.1366593E+04  0.7818608E-02  0.8978362E-01
         -2   -1    0    0    0  501 -0.00000000000E+00  0.00000000000E+00  0.43912196100E+03  0.43912196100E+03  0.00000000000E+00 0. -1.
          2   -1    0    0  501    0  0.00000000000E+00 -0.00000000000E+00 -0.10632440470E+04  0.10632440470E+04  0.00000000000E+00 0.  1.
         23    2    1    2    0    0  0.22199817494E+03  0.49712738919E+03 -0.76203643330E+03  0.94072626759E+03  0.88586421575E+02 0.  0.
         13    1    3    3    0    0  0.58620857284E+02  0.10198620427E+03 -0.22842966100E+03  0.25693909938E+03  0.00000000000E+00 0. -1.
        -13    1    3    3    0    0  0.16337731766E+03  0.39514118492E+03 -0.53360677231E+03  0.68378716820E+03  0.00000000000E+00 0.  1.
         22    1    1    2    0    0 -0.22199817494E+03 -0.49712738919E+03  0.13791434734E+03  0.56163974037E+03  0.00000000000E+00 0. -1.
<mgrwt>
<rscale>  0 0.13665926E+04</rscale>
<asrwt>0</asrwt>
<pdfrwt beam="1">  1        2 0.16357601E+00 0.13665926E+04</pdfrwt>
<pdfrwt beam="2">  1       -2 0.67557225E-01 0.13665926E+04</pdfrwt>
<totfact> 0.45006393E+01</totfact>
</mgrwt>
</event>
<event>
 6    1  0.6091287E-004  0.3287649E+04  0.7818608E-02  0.8166045E-01
         -2   -1    0    0    0  501 -0.00000000000E+00  0.00000000000E+00  0.77877238875E+03  0.77877238875E+03  0.00000000000E+00 0. -1.
          2   -1    0    0  501    0  0.00000000000E+00 -0.00000000000E+00 -0.34697662934E+04  0.34697662934E+04  0.00000000000E+00 0.  1.
         23    2    1    2    0    0 -0.10960776891E+04  0.26534847433E+03 -0.28897282450E+04  0.31034223338E+04  0.94364920132E+02 0.  0.
         13    1    3    3    0    0 -0.80674277784E+03  0.23721736039E+03 -0.21306164504E+04  0.22905528687E+04  0.00000000000E+00 0. -1.
        -13    1    3    3    0    0 -0.28933491125E+03  0.28131113932E+02 -0.75911179466E+03  0.81286946506E+03  0.00000000000E+00 0.  1.
         22    1    1    2    0    0  0.10960776891E+04 -0.26534847433E+03  0.19873434037E+03  0.11451163484E+04  0.00000000000E+00 0. -1.
<mgrwt>
<rscale>  0 0.32876485E+04</rscale>
<asrwt>0</asrwt>
<pdfrwt beam="1">  1        2 0.53381019E+00 0.32876485E+04</pdfrwt>
<pdfrwt beam="2">  1       -2 0.11981114E+00 0.32876485E+04</pdfrwt>
<totfact> 0.37985584E-01</totfact>
</mgrwt>
</event>
<event>
 6    1  0.6091287E-004  0.1440753E+04  0.7818608E-02  0.8924836E-01
         -2   -1    0    0    0  501 -0.00000000000E+00  0.00000000000E+00  0.46448473571E+03  0.46448473571E+03  0.00000000000E+00 0. -1.
          2   -1    0    0  501    0  0.00000000000E+00 -0.00000000000E+00 -0.11172431772E+04  0.11172431772E+04  0.00000000000E+00 0.  1.
         23    2    1    2    0    0 -0.28575042374E+03 -0.65636989261E+02 -0.10462440895E+04  0.10910218153E+04  0.98693402901E+02 0.  0.
         13    1    3    3    0    0 -0.53786767705E+02 -0.11523746699E+02 -0.36974698471E+03  0.37381632632E+03  0.00000000000E+00 0. -1.
        -13    1    3    3    0    0 -0.23196365603E+03 -0.54113242562E+02 -0.67649710475E+03  0.71720548902E+03  0.00000000000E+00 0.  1.
         22    1    1    2    0    0  0.28575042374E+03  0.65636989261E+02  0.39348564798E+03  0.49070609757E+03  0.00000000000E+00 0. -1.
<mgrwt>
<rscale>  0 0.14407531E+04</rscale>
<asrwt>0</asrwt>
<pdfrwt beam="1">  1        2 0.17188356E+00 0.14407531E+04</pdfrwt>
<pdfrwt beam="2">  1       -2 0.71459191E-01 0.14407531E+04</pdfrwt>
<totfact> 0.36661893E+01</totfact>
</mgrwt>
</event>
<event>
 6    1  0.6091287E-004  0.2179569E+04  0.7818608E-02  0.8526980E-01
          2   -1    0    0  501    0  0.00000000000E+00  0.00000000000E+00  0.12109282411E+04  0.12109282411E+04  0.00000000000E+00 0.  1.
         -2   -1    0    0    0  501 -0.00000000000E+00 -0.00000000000E+00 -0.98076025262E+03  0.98076025262E+03  0.00000000000E+00 0. -1.
         23    2    1    2    0    0  0.99827484180E+03 -0.28341603348E+03 -0.21281580425E+03  0.10633658677E+04  0.92623400185E+02 0.  0.
         13    1    3    3    0    0  0.19069413316E+03 -0.23279195035E+02 -0.60065032335E+02  0.20128085218E+03  0.00000000000E+00 0.  1.
        -13    1    3    3    0    0  0.80758070864E+03 -0.26013683844E+03 -0.15275077191E+03  0.86208501553E+03  0.00000000000E+00 0. -1.
         22    1    1    2    0    0 -0.99827484180E+03  0.28341603348E+03  0.44298379275E+03  0.11283226260E+04  0.00000000000E+00 0.  1.
<mgrwt>
<rscale>  0 0.21795690E+04</rscale>
<asrwt>0</asrwt>
<pdfrwt beam="1">  1        2 0.18629665E+00 0.21795690E+04</pdfrwt>
<pdfrwt beam="2">  1       -2 0.15088619E+00 0.21795690E+04</pdfrwt>
<totfact> 0.50393210E+00</totfact>
</mgrwt>
</event>
<event>
 6    1  0.6091287E-004  0.1678003E+04  0.7818608E-02  0.8774010E-01
         -1   -1    0    0    0  501 -0.00000000000E+00  0.00000000000E+00  0.10609629019E+04  0.10609629019E+04  0.00000000000E+00 0. -1.
          1   -1    0    0  501    0  0.00000000000E+00 -0.00000000000E+00 -0.66347646761E+03  0.66347646761E+03  0.00000000000E+00 0.  1.
         23    2    1    2    0    0  0.58368560835E+03 -0.49091106858E+03 -0.15403970013E+03  0.78323607394E+03  0.89710376518E+02 0.  0.
         13    1    3    3    0    0  0.25424185466E+03 -0.18447239334E+03 -0.24710510808E+02  0.31508664508E+03  0.00000000000E+00 0.  1.
        -13    1    3    3    0    0  0.32944375369E+03 -0.30643867524E+03 -0.12932918932E+03  0.46814942886E+03  0.00000000000E+00 0. -1.
         22    1    1    2    0    0 -0.58368560835E+03  0.49091106858E+03  0.55152613440E+03  0.94120329556E+03  0.00000000000E+00 0. -1.
<mgrwt>
<rscale>  0 0.16780035E+04</rscale>
<asrwt>0</asrwt>
<pdfrwt beam="1">  1        1 0.10207330E+00 0.16780035E+04</pdfrwt>
<pdfrwt beam="2">  1       -1 0.16322506E+00 0.16780035E+04</pdfrwt>
<totfact> 0.77812734E+00</totfact>
</mgrwt>
</event>
<event>
 6    1  0.6091287E-004  0.4204187E+04  0.7818608E-02  0.7964576E-01
         -2   -1    0    0    0  501 -0.00000000000E+00  0.00000000000E+00  0.22084332539E+04  0.22084332539E+04  0.00000000000E+00 0. -1.
          2   -1    0    0  501    0  0.00000000000E+00 -0.00000000000E+00 -0.20008740788E+04  0.20008740788E+04  0.00000000000E+00 0.  1.
         23    2    1    2    0    0  0.17155216393E+04 -0.10986069690E+04  0.61887231891E+03  0.21310555989E+04  0.91887165871E+02 0.  0.
         13    1    3    3    0    0  0.71242327165E+03 -0.50998207394E+03  0.27057282088E+03  0.91697234698E+03  0.00000000000E+00 0.  1.
        -13    1    3    3    0    0  0.10030983676E+04 -0.58862489507E+03  0.34829949803E+03  0.12140832519E+04  0.00000000000E+00 0. -1.
         22    1    1    2    0    0 -0.17155216393E+04  0.10986069690E+04 -0.41131314379E+03  0.20782517339E+04  0.00000000000E+00 0.  1.
<mgrwt>
<rscale>  0 0.42041869E+04</rscale>
<asrwt>0</asrwt>
<pdfrwt beam="1">  1        2 0.30782678E+00 0.42041869E+04</pdfrwt>
<pdfrwt beam="2">  1       -2 0.33975896E+00 0.42041869E+04</pdfrwt>
<totfact> 0.93434913E-02</totfact>
</mgrwt>
</event>
<event>
 6    1  0.6091287E-004  0.2227087E+04  0.7818608E-02  0.8507238E-01
         -2   -1    0    0    0  501 -0.00000000000E+00  0.00000000000E+00  0.75645085546E+03  0.75645085546E+03  0.00000000000E+00 0. -1.
          2   -1    0    0  501    0  0.00000000000E+00 -0.00000000000E+00 -0.16392062088E+04  0.16392062088E+04  0.00000000000E+00 0.  1.
         23    2    1    2    0    0 -0.65979111668E+03  0.89527642190E+03 -0.40897598575E+03  0.11868100605E+04  0.66427204860E+02 0.  0.
         13    1    3    3    0    0 -0.51028104513E+03  0.65843768607E+03 -0.28392698761E+03  0.88008037460E+03  0.00000000000E+00 0.  1.
        -13    1    3    3    0    0 -0.14951007155E+03  0.23683873584E+03 -0.12504899814E+03  0.30672968592E+03  0.00000000000E+00 0. -1.
         22    1    1    2    0    0  0.65979111668E+03 -0.89527642190E+03 -0.47377936756E+03  0.12088470037E+04  0.00000000000E+00 0. -1.
<mgrwt>
<rscale>  0 0.22270868E+04</rscale>
<asrwt>0</asrwt>
<pdfrwt beam="1">  1        2 0.25218557E+00 0.22270868E+04</pdfrwt>
<pdfrwt beam="2">  1       -2 0.11637706E+00 0.22270868E+04</pdfrwt>
<totfact> 0.55389263E+00</totfact>
</mgrwt>
</event>
<event>
 6    1  0.6091287E-004  0.1680629E+04  0.7818608E-02  0.8772490E-01
         -2   -1    0    0    0  501 -0.00000000000E+00  0.00000000000E+00  0.14762202793E+04  0.14762202793E+04  0.00000000000E+00 0. -1.
          2   -1    0    0  501    0  0.00000000000E+00 -0.00000000000E+00 -0.47833565213E+03  0.47833565213E+03  0.00000000000E+00 0.  1.
         23    2    1    2    0    0  0.26966852631E+03  0.60633994077E+03 -0.94489951867E+02  0.67641217630E+03  0.90751547582E+02 0.  0.
         13    1    3    3    0    0  0.96987483981E+02  0.26152059921E+03  0.17996728449E+01  0.27893159499E+03  0.00000000000E+00 0.  1.
        -13    1    3    3    0    0  0.17268104233E+03  0.34481934156E+03 -0.96289624712E+02  0.39748058132E+03  0.00000000000E+00 0. -1.
         22    1    1    2    0    0 -0.26966852631E+03 -0.60633994077E+03  0.10923745791E+04  0.12781437552E+04  0.00000000000E+00 0. -1.
<mgrwt>
<rscale>  0 0.16806294E+04</rscale>
<asrwt>0</asrwt>
<pdfrwt beam="1">  1        2 0.73590101E-01 0.16806294E+04</pdfrwt>
<pdfrwt beam="2">  1       -2 0.22711081E+00 0.16806294E+04</pdfrwt>
<totfact> 0.55040322E+00</totfact>
</mgrwt>
</event>
<event>
 6    1  0.6091287E-004  0.5646358E+03  0.7818608E-02  0.9981620E-01
         -2   -1    0    0    0  501 -0.00000000000E+00  0.00000000000E+00  0.16029858702E+03  0.16029858702E+03  0.00000000000E+00 0. -1.
          2   -1    0    0  501    0  0.00000000000E+00 -0.00000000000E+00 -0.49721833461E+03  0.49721833461E+03  0.00000000000E+00 0.  1.
         23    2    1    2    0    0  0.57482643602E+02 -0.30719741389E+02 -0.48398311502E+03  0.49665800559E+03  0.90451987624E+02 0.  0.
         11    1    3    3    0    0  0.33114053996E+02  0.26099053332E+02 -0.29033176045E+03  0.29337728658E+03  0.00000000000E+00 0. -1.
        -11    1    3    3    0    0  0.24368589606E+02 -0.56818794721E+02 -0.19365135457E+03  0.20328071901E+03  0.00000000000E+00 0.  1.
         22    1    1    2    0    0 -0.57482643602E+02  0.30719741389E+02  0.14706336743E+03  0.16085891603E+03  0.00000000000E+00 0. -1.
<mgrwt>
<rscale>  0 0.56463580E+03</rscale>
<asrwt>0</asrwt>
<pdfrwt beam="1">  1        2 0.76495128E-01 0.56463580E+03</pdfrwt>
<pdfrwt beam="2">  1       -2 0.24661321E-01 0.56463580E+03</pdfrwt>
<totfact> 0.91391703E+02</totfact>
</mgrwt>
</event>
<event>
 6    1  0.6091287E-004  0.2913877E+04  0.7818608E-02  0.8268761E-01
         -2   -1    0    0    0  501 -0.00000000000E+00  0.00000000000E+00  0.16671853246E+04  0.16671853246E+04  0.00000000000E+00 0. -1.
          2   -1    0    0  501    0  0.00000000000E+00 -0.00000000000E+00 -0.12732052943E+04  0.12732052943E+04  0.00000000000E+00 0.  1.
         23    2    1    2    0    0 -0.89082315129E+03 -0.10935395226E+03 -0.95935744661E+03  0.13164920690E+04  0.85208472085E+02 0.  0.
         13    1    3    3    0    0 -0.50428184031E+03 -0.19579992145E+02 -0.54423569603E+03  0.74221024204E+03  0.00000000000E+00 0.  1.
        -13    1    3    3    0    0 -0.38654131097E+03 -0.89773960116E+02 -0.41512175058E+03  0.57428182699E+03  0.00000000000E+00 0. -1.
         22    1    1    2    0    0  0.89082315129E+03  0.10935395226E+03  0.13533374770E+04  0.16238985499E+04  0.00000000000E+00 0. -1.
<mgrwt>
<rscale>  0 0.29138766E+04</rscale>
<asrwt>0</asrwt>
<pdfrwt beam="1">  1        2 0.19587774E+00 0.29138766E+04</pdfrwt>
<pdfrwt beam="2">  1       -2 0.25649005E+00 0.29138766E+04</pdfrwt>
<totfact> 0.86622386E-01</totfact>
</mgrwt>
</event>
<event>
 6    1  0.6091287E-004  0.2690189E+04  0.7818608E-02  0.8338195E-01
         -2   -1    0    0    0  501 -0.00000000000E+00  0.00000000000E+00  0.21740579680E+04  0.21740579680E+04  0.00000000000E+00 0. -1.
          2   -1    0    0  501    0  0.00000000000E+00 -0.00000000000E+00 -0.83221273946E+03  0.83221273946E+03  0.00000000000E+00 0.  1.
         23    2    1    2    0    0  0.29006173375E+03 -0.25647422040E+03 -0.76605416390E+03  0.86310606523E+03  0.90544258235E+02 0.  0.
         11    1    3    3    0    0  0.82204653963E+02 -0.13060045544E+03 -0.31445883019E+03  0.35028337098E+03  0.00000000000E+00 0. -1.
        -11    1    3    3    0    0  0.20785707978E+03 -0.12587376496E+03 -0.45159533370E+03  0.51282269425E+03  0.00000000000E+00 0.  1.
         22    1    1    2    0    0 -0.29006173375E+03  0.25647422040E+03  0.21078993925E+04  0.21431646423E+04  0.00000000000E+00 0. -1.
<mgrwt>
<rscale>  0 0.26901886E+04</rscale>
<asrwt>0</asrwt>
<pdfrwt beam="1">  1        2 0.12803273E+00 0.26901886E+04</pdfrwt>
<pdfrwt beam="2">  1       -2 0.33447045E+00 0.26901886E+04</pdfrwt>
<totfact> 0.55846580E-01</totfact>
</mgrwt>
</event>
<event>
 6    1  0.6091287E-004  0.4981027E+04  0.7818608E-02  0.7831441E-01
         -2   -1    0    0    0  501 -0.00000000000E+00  0.00000000000E+00  0.17513428122E+04  0.17513428122E+04  0.00000000000E+00 0. -1.
          2   -1    0    0  501    0  0.00000000000E+00 -0.00000000000E+00 -0.35416585385E+04  0.35416585385E+04  0.00000000000E+00 0.  1.
         23    2    1    2    0    0  0.22026830024E+04  0.76584496437E+03  0.30580733943E+02  0.23342862854E+04  0.98114027533E+02 0.  0.
         11    1    3    3    0    0  0.91163451509E+03  0.26618965449E+03  0.17240389876E+02  0.94985875387E+03  0.00000000000E+00 0. -1.
        -11    1    3    3    0    0  0.12910484874E+04  0.49965530987E+03  0.13340344066E+02  0.13844275316E+04  0.00000000000E+00 0.  1.
         22    1    1    2    0    0 -0.22026830024E+04 -0.76584496437E+03 -0.18208964603E+04  0.29587150653E+04  0.00000000000E+00 0. -1.
<mgrwt>
<rscale>  0 0.49810273E+04</rscale>
<asrwt>0</asrwt>
<pdfrwt beam="1">  1        2 0.54487054E+00 0.49810273E+04</pdfrwt>
<pdfrwt beam="2">  1       -2 0.26943736E+00 0.49810273E+04</pdfrwt>
<totfact> 0.27007214E-02</totfact>
</mgrwt>
</event>
<event>
 6    1  0.6091287E-004  0.3344954E+04  0.7818608E-02  0.8151550E-01
          2   -1    0    0  501    0  0.00000000000E+00  0.00000000000E+00  0.15531110315E+04  0.15531110315E+04  0.00000000000E+00 0.  1.
         -2   -1    0    0    0  501 -0.00000000000E+00 -0.00000000000E+00 -0.18010174423E+04  0.18010174423E+04  0.00000000000E+00 0. -1.
         23    2    1    2    0    0  0.15094458141E+04  0.70480746091E+03 -0.25802028626E+03  0.16882105547E+04  0.91105359157E+02 0.  0.
         11    1    3    3    0    0  0.60834928175E+03  0.23641505348E+03 -0.90190089246E+02  0.65887417488E+03  0.00000000000E+00 0. -1.
        -11    1    3    3    0    0  0.90109653230E+03  0.46839240744E+03 -0.16783019701E+03  0.10293363799E+04  0.00000000000E+00 0.  1.
         22    1    1    2    0    0 -0.15094458141E+04 -0.70480746091E+03  0.10113875475E+02  0.16659179191E+04  0.00000000000E+00 0. -1.
<mgrwt>
<rscale>  0 0.33449544E+04</rscale>
<asrwt>0</asrwt>
<pdfrwt beam="1">  1        2 0.23894016E+00 0.33449544E+04</pdfrwt>
<pdfrwt beam="2">  1       -2 0.27707961E+00 0.33449544E+04</pdfrwt>
<totfact> 0.43259073E-01</totfact>
</mgrwt>
</event>
<event>
 6    1  0.6091287E-004  0.2239076E+04  0.7818608E-02  0.8502338E-01
         -2   -1    0    0    0  501 -0.00000000000E+00  0.00000000000E+00  0.33601194074E+03  0.33601194074E+03  0.00000000000E+00 0. -1.
          2   -1    0    0  501    0  0.00000000000E+00 -0.00000000000E+00 -0.37301202079E+04  0.37301202079E+04  0.00000000000E+00 0.  1.
         23    2    1    2    0    0  0.60868804188E+03  0.35084310606E+03 -0.12159026609E+03  0.71904892818E+03  0.93033063566E+02 0.  0.
         11    1    3    3    0    0  0.43620626753E+03  0.20779055799E+03 -0.10429449400E+03  0.49429764849E+03  0.00000000000E+00 0.  1.
        -11    1    3    3    0    0  0.17248177435E+03  0.14305254807E+03 -0.17295772091E+02  0.22475127970E+03  0.00000000000E+00 0. -1.
         22    1    1    2    0    0 -0.60868804188E+03 -0.35084310606E+03 -0.32725180011E+04  0.33470832204E+04  0.00000000000E+00 0.  1.
<mgrwt>
<rscale>  0 0.22390756E+04</rscale>
<asrwt>0</asrwt>
<pdfrwt beam="1">  1        2 0.57386465E+00 0.22390756E+04</pdfrwt>
<pdfrwt beam="2">  1       -2 0.51694145E-01 0.22390756E+04</pdfrwt>
<totfact> 0.17935357E+00</totfact>
</mgrwt>
</event>
<event>
 6    1  0.6091287E-004  0.5300602E+04  0.7818608E-02  0.7783739E-01
          2   -1    0    0  501    0  0.00000000000E+00  0.00000000000E+00  0.22727325368E+04  0.22727325368E+04  0.00000000000E+00 0.  1.
         -2   -1    0    0    0  501 -0.00000000000E+00 -0.00000000000E+00 -0.30905944534E+04  0.30905944534E+04  0.00000000000E+00 0. -1.
         23    2    1    2    0    0  0.12112713394E+04  0.14089603559E+04 -0.23201822294E+04  0.29739099348E+04  0.92450960217E+02 0.  0.
         13    1    3    3    0    0  0.39532235443E+03  0.43470672964E+03 -0.79803224878E+03  0.99101219710E+03  0.00000000000E+00 0. -1.
        -13    1    3    3    0    0  0.81594898501E+03  0.97425362628E+03 -0.15221499806E+04  0.19828977377E+04  0.00000000000E+00 0.  1.
         22    1    1    2    0    0 -0.12112713394E+04 -0.14089603559E+04  0.15023203128E+04  0.23894170554E+04  0.00000000000E+00 0.  1.
<mgrwt>
<rscale>  0 0.53006017E+04</rscale>
<asrwt>0</asrwt>
<pdfrwt beam="1">  1        2 0.34965116E+00 0.53006017E+04</pdfrwt>
<pdfrwt beam="2">  1       -2 0.47547607E+00 0.53006017E+04</pdfrwt>
<totfact> 0.79342807E-03</totfact>
</mgrwt>
</event>
<event>
 6    1  0.6091287E-004  0.3612357E+04  0.7818608E-02  0.8087667E-01
          2   -1    0    0  501    0  0.00000000000E+00  0.00000000000E+00  0.53452720184E+04  0.53452720184E+04  0.00000000000E+00 0.  1.
         -2   -1    0    0    0  501 -0.00000000000E+00 -0.00000000000E+00 -0.61031158695E+03  0.61031158695E+03  0.00000000000E+00 0. -1.
         23    2    1    2    0    0 -0.13163169331E+03 -0.14367095443E+04  0.41573386877E+04  0.44015217996E+04  0.92021574953E+02 0.  0.
         11    1    3    3    0    0 -0.10983184937E+03 -0.13257162185E+04  0.37592299679E+04  0.39876555115E+04  0.00000000000E+00 0. -1.
        -11    1    3    3    0    0 -0.21799843932E+02 -0.11099332579E+03  0.39810871987E+03  0.41386628807E+03  0.00000000000E+00 0.  1.
         22    1    1    2    0    0  0.13163169331E+03  0.14367095443E+04  0.57762174366E+03  0.15540618057E+04  0.00000000000E+00 0. -1.
<mgrwt>
<rscale>  0 0.36123574E+04</rscale>
<asrwt>0</asrwt>
<pdfrwt beam="1">  1        2 0.82234951E+00 0.36123574E+04</pdfrwt>
<pdfrwt beam="2">  1       -2 0.93894094E-01 0.36123574E+04</pdfrwt>
<totfact> 0.85275563E-03</totfact>
</mgrwt>
</event>
<event>
 6    1  0.6091287E-004  0.2608302E+04  0.7818608E-02  0.8365387E-01
         -2   -1    0    0    0  501 -0.00000000000E+00  0.00000000000E+00  0.97235878868E+03  0.97235878868E+03  0.00000000000E+00 0. -1.
          2   -1    0    0  501    0  0.00000000000E+00 -0.00000000000E+00 -0.17491587498E+04  0.17491587498E+04  0.00000000000E+00 0.  1.
         23    2    1    2    0    0  0.93443819962E+03 -0.55886684343E+03  0.35685736516E+03  0.11496759972E+04  0.94344166587E+02 0.  0.
         13    1    3    3    0    0  0.20108846044E+03 -0.16707499665E+03  0.84048751394E+02  0.27461758145E+03  0.00000000000E+00 0. -1.
        -13    1    3    3    0    0  0.73334973917E+03 -0.39179184677E+03  0.27280861377E+03  0.87505841570E+03  0.00000000000E+00 0.  1.
         22    1    1    2    0    0 -0.93443819962E+03  0.55886684343E+03 -0.11336573262E+04  0.15718415413E+04  0.00000000000E+00 0.  1.
<mgrwt>
<rscale>  0 0.26083020E+04</rscale>
<asrwt>0</asrwt>
<pdfrwt beam="1">  1        2 0.26910135E+00 0.26083020E+04</pdfrwt>
<pdfrwt beam="2">  1       -2 0.14959366E+00 0.26083020E+04</pdfrwt>
<totfact> 0.24568494E+00</totfact>
</mgrwt>
</event>
<event>
 6    1  0.6091287E-004  0.2643465E+04  0.7818608E-02  0.8353585E-01
          2   -1    0    0  501    0  0.00000000000E+00  0.00000000000E+00  0.12439306502E+04  0.12439306502E+04  0.00000000000E+00 0.  1.
         -2   -1    0    0    0  501 -0.00000000000E+00 -0.00000000000E+00 -0.14044001677E+04  0.14044001677E+04  0.00000000000E+00 0. -1.
         23    2    1    2    0    0  0.11567983039E+04 -0.83105795877E+02 -0.71217134377E+03  0.13640162947E+04  0.90904015815E+02 0.  0.
         11    1    3    3    0    0  0.96777451952E+03 -0.36349677958E+02 -0.60131154503E+03  0.11399492944E+04  0.00000000000E+00 0. -1.
        -11    1    3    3    0    0  0.18902378439E+03 -0.46756117919E+02 -0.11085979874E+03  0.22406700026E+03  0.00000000000E+00 0.  1.
         22    1    1    2    0    0 -0.11567983039E+04  0.83105795877E+02  0.55170182630E+03  0.12843145232E+04  0.00000000000E+00 0.  1.
<mgrwt>
<rscale>  0 0.26434647E+04</rscale>
<asrwt>0</asrwt>
<pdfrwt beam="1">  1        2 0.19137395E+00 0.26434647E+04</pdfrwt>
<pdfrwt beam="2">  1       -2 0.21606156E+00 0.26434647E+04</pdfrwt>
<totfact> 0.16458405E+00</totfact>
</mgrwt>
</event>
<event>
 6    1  0.6091287E-004  0.9552097E+03  0.7818608E-02  0.9359082E-01
         -2   -1    0    0    0  501 -0.00000000000E+00  0.00000000000E+00  0.16818609636E+03  0.16818609636E+03  0.00000000000E+00 0. -1.
          2   -1    0    0  501    0  0.00000000000E+00 -0.00000000000E+00 -0.13562738361E+04  0.13562738361E+04  0.00000000000E+00 0.  1.
         23    2    1    2    0    0  0.20482059416E+03 -0.39384942425E+02 -0.12775081166E+04  0.12975267853E+04  0.89700173284E+02 0.  0.
         13    1    3    3    0    0  0.88331076632E+02 -0.22049484353E+02 -0.31665459311E+03  0.32948245811E+03  0.00000000000E+00 0. -1.
        -13    1    3    3    0    0  0.11648951753E+03 -0.17335458072E+02 -0.96085352349E+03  0.96804432719E+03  0.00000000000E+00 0.  1.
         22    1    1    2    0    0 -0.20482059416E+03  0.39384942425E+02  0.89420376861E+02  0.22693314716E+03  0.00000000000E+00 0. -1.
<mgrwt>
<rscale>  0 0.95520972E+03</rscale>
<asrwt>0</asrwt>
<pdfrwt beam="1">  1        2 0.20865751E+00 0.95520972E+03</pdfrwt>
<pdfrwt beam="2">  1       -2 0.25874784E-01 0.95520972E+03</pdfrwt>
<totfact> 0.20645558E+02</totfact>
</mgrwt>
</event>
<event>
 6    1  0.6091287E-004  0.3293880E+04  0.7818608E-02  0.8164454E-01
         -2   -1    0    0    0  501 -0.00000000000E+00  0.00000000000E+00  0.77456738633E+03  0.77456738633E+03  0.00000000000E+00 0. -1.
          2   -1    0    0  501    0  0.00000000000E+00 -0.00000000000E+00 -0.35018395668E+04  0.35018395668E+04  0.00000000000E+00 0.  1.
         23    2    1    2    0    0 -0.39475759083E+03  0.12586946797E+04 -0.86842500723E+02  0.13247947249E+04  0.85985992330E+02 0.  0.
         13    1    3    3    0    0 -0.17635195642E+03  0.56436371526E+03 -0.81794631196E+02  0.59690600376E+03  0.00000000000E+00 0. -1.
        -13    1    3    3    0    0 -0.21840563441E+03  0.69433096446E+03 -0.50478695266E+01  0.72788872112E+03  0.00000000000E+00 0.  1.
         22    1    1    2    0    0  0.39475759083E+03 -0.12586946797E+04 -0.26404296797E+04  0.29516122282E+04  0.00000000000E+00 0.  1.
<mgrwt>
<rscale>  0 0.32938796E+04</rscale>
<asrwt>0</asrwt>
<pdfrwt beam="1">  1        2 0.53874456E+00 0.32938796E+04</pdfrwt>
<pdfrwt beam="2">  1       -2 0.11916421E+00 0.32938796E+04</pdfrwt>
<totfact> 0.36545117E-01</totfact>
</mgrwt>
</event>
<event>
 6    1  0.6091287E-004  0.1777564E+04  0.7818608E-02  0.8718322E-01
         -2   -1    0    0    0  501 -0.00000000000E+00  0.00000000000E+00  0.66863950787E+03  0.66863950787E+03  0.00000000000E+00 0. -1.
          2   -1    0    0  501    0  0.00000000000E+00 -0.00000000000E+00 -0.11814047208E+04  0.11814047208E+04  0.00000000000E+00 0.  1.
         23    2    1    2    0    0  0.67575204177E+03  0.91648756267E+02  0.33308788445E+03  0.76353248054E+03  0.83630099818E+02 0.  0.
         13    1    3    3    0    0  0.34736280348E+03  0.89261942508E+02  0.17462075508E+03  0.39889976150E+03  0.00000000000E+00 0.  1.
        -13    1    3    3    0    0  0.32838923829E+03  0.23868137593E+01  0.15846712937E+03  0.36463271904E+03  0.00000000000E+00 0. -1.
         22    1    1    2    0    0 -0.67575204177E+03 -0.91648756267E+02 -0.84585309737E+03  0.10865117481E+04  0.00000000000E+00 0.  1.
<mgrwt>
<rscale>  0 0.17775645E+04</rscale>
<asrwt>0</asrwt>
<pdfrwt beam="1">  1        2 0.18175457E+00 0.17775645E+04</pdfrwt>
<pdfrwt beam="2">  1       -2 0.10286762E+00 0.17775645E+04</pdfrwt>
<totfact> 0.14194365E+01</totfact>
</mgrwt>
</event>
<event>
 6    1  0.6091287E-004  0.2693714E+04  0.7818608E-02  0.8337047E-01
          2   -1    0    0  501    0  0.00000000000E+00  0.00000000000E+00  0.20212568820E+04  0.20212568820E+04  0.00000000000E+00 0.  1.
         -2   -1    0    0    0  501 -0.00000000000E+00 -0.00000000000E+00 -0.89747306563E+03  0.89747306563E+03  0.00000000000E+00 0. -1.
         23    2    1    2    0    0  0.45348998985E+02 -0.54180376296E+03  0.18959138805E+04  0.19743821912E+04  0.89931894627E+02 0.  0.
         13    1    3    3    0    0  0.16137871950E+02 -0.27076435535E+03  0.11050475018E+04  0.11378504947E+04  0.00000000000E+00 0.  1.
        -13    1    3    3    0    0  0.29211127036E+02 -0.27103940762E+03  0.79086637866E+03  0.83653169654E+03  0.00000000000E+00 0. -1.
         22    1    1    2    0    0 -0.45348998985E+02  0.54180376296E+03 -0.77213006406E+03  0.94434775644E+03  0.00000000000E+00 0. -1.
<mgrwt>
<rscale>  0 0.26937139E+04</rscale>
<asrwt>0</asrwt>
<pdfrwt beam="1">  1        2 0.31096260E+00 0.26937139E+04</pdfrwt>
<pdfrwt beam="2">  1       -2 0.13807278E+00 0.26937139E+04</pdfrwt>
<totfact> 0.21248233E+00</totfact>
</mgrwt>
</event>
<event>
 6    1  0.6091287E-004  0.1262078E+04  0.7818608E-02  0.9060190E-01
         -2   -1    0    0    0  501 -0.00000000000E+00  0.00000000000E+00  0.33786232624E+03  0.33786232624E+03  0.00000000000E+00 0. -1.
          2   -1    0    0  501    0  0.00000000000E+00 -0.00000000000E+00 -0.11786168902E+04  0.11786168902E+04  0.00000000000E+00 0.  1.
         23    2    1    2    0    0 -0.29285348939E+03 -0.14956421873E+03 -0.10648718367E+04  0.11185330219E+04  0.95034049857E+02 0.  0.
         11    1    3    3    0    0 -0.13315810202E+03 -0.27535928250E+02 -0.33632309644E+03  0.36277063371E+03  0.00000000000E+00 0.  1.
        -11    1    3    3    0    0 -0.15969538737E+03 -0.12202829048E+03 -0.72854874029E+03  0.75576238819E+03  0.00000000000E+00 0. -1.
         22    1    1    2    0    0  0.29285348939E+03  0.14956421873E+03  0.22411727280E+03  0.39794619452E+03  0.00000000000E+00 0. -1.
<mgrwt>
<rscale>  0 0.12620780E+04</rscale>
<asrwt>0</asrwt>
<pdfrwt beam="1">  1        2 0.18132567E+00 0.12620780E+04</pdfrwt>
<pdfrwt beam="2">  1       -2 0.51978820E-01 0.12620780E+04</pdfrwt>
<totfact> 0.66986258E+01</totfact>
</mgrwt>
</event>
<event>
 6    1  0.6091287E-004  0.1816503E+04  0.7818608E-02  0.8697572E-01
         -2   -1    0    0    0  501 -0.00000000000E+00  0.00000000000E+00  0.89850109220E+03  0.89850109220E+03  0.00000000000E+00 0. -1.
          2   -1    0    0  501    0  0.00000000000E+00 -0.00000000000E+00 -0.91810800382E+03  0.91810800382E+03  0.00000000000E+00 0.  1.
         23    2    1    2    0    0 -0.49962754906E+03 -0.57157277595E+03 -0.50376542116E+03  0.91620219448E+03  0.96559492676E+02 0.  0.
         11    1    3    3    0    0 -0.41265165839E+03 -0.40992462576E+03 -0.37794279310E+03  0.69365722430E+03  0.00000000000E+00 0. -1.
        -11    1    3    3    0    0 -0.86975890673E+02 -0.16164815019E+03 -0.12582262806E+03  0.22254497017E+03  0.00000000000E+00 0.  1.
         22    1    1    2    0    0  0.49962754906E+03  0.57157277595E+03  0.48415850954E+03  0.90040690154E+03  0.00000000000E+00 0. -1.
<mgrwt>
<rscale>  0 0.18165033E+04</rscale>
<asrwt>0</asrwt>
<pdfrwt beam="1">  1        2 0.14124739E+00 0.18165033E+04</pdfrwt>
<pdfrwt beam="2">  1       -2 0.13823094E+00 0.18165033E+04</pdfrwt>
<totfact> 0.99765170E+00</totfact>
</mgrwt>
</event>
<event>
 6    1  0.6091287E-004  0.1600889E+04  0.7818608E-02  0.8820002E-01
          2   -1    0    0  501    0  0.00000000000E+00  0.00000000000E+00  0.17880035844E+04  0.17880035844E+04  0.00000000000E+00 0.  1.
         -2   -1    0    0    0  501 -0.00000000000E+00 -0.00000000000E+00 -0.35833891105E+03  0.35833891105E+03  0.00000000000E+00 0. -1.
         23    2    1    2    0    0  0.73925722598E+03  0.12189826771E+03  0.34906552786E+03  0.83140715596E+03  0.89614074870E+02 0.  0.
         11    1    3    3    0    0  0.13770294333E+03  0.58723242328E+02  0.67087218316E+02  0.16404637958E+03  0.00000000000E+00 0. -1.
        -11    1    3    3    0    0  0.60155428264E+03  0.63175025384E+02  0.28197830955E+03  0.66736077638E+03  0.00000000000E+00 0.  1.
         22    1    1    2    0    0 -0.73925722598E+03 -0.12189826771E+03  0.10805991455E+04  0.13149353395E+04  0.00000000000E+00 0.  1.
<mgrwt>
<rscale>  0 0.16008888E+04</rscale>
<asrwt>0</asrwt>
<pdfrwt beam="1">  1        2 0.27507747E+00 0.16008888E+04</pdfrwt>
<pdfrwt beam="2">  1       -2 0.55129064E-01 0.16008888E+04</pdfrwt>
<totfact> 0.25991866E+01</totfact>
</mgrwt>
</event>
<event>
 6    1  0.6091287E-004  0.1776570E+04  0.7818608E-02  0.8718860E-01
          2   -1    0    0  501    0  0.00000000000E+00  0.00000000000E+00  0.35195116900E+03  0.35195116900E+03  0.00000000000E+00 0.  1.
         -2   -1    0    0    0  501 -0.00000000000E+00 -0.00000000000E+00 -0.22419305490E+04  0.22419305490E+04  0.00000000000E+00 0. -1.
         23    2    1    2    0    0  0.54633312964E+03 -0.19618647088E+03  0.29730887851E+02  0.58832530334E+03  0.90959974499E+02 0.  0.
         11    1    3    3    0    0  0.78686979093E+02  0.29500341106E+01  0.12703918886E+02  0.79760472260E+02  0.00000000000E+00 0. -1.
        -11    1    3    3    0    0  0.46764615055E+03 -0.19913650499E+03  0.17026968965E+02  0.50856483108E+03  0.00000000000E+00 0.  1.
         22    1    1    2    0    0 -0.54633312964E+03  0.19618647088E+03 -0.19197102679E+04  0.20055564147E+04  0.00000000000E+00 0. -1.
<mgrwt>
<rscale>  0 0.17765698E+04</rscale>
<asrwt>0</asrwt>
<pdfrwt beam="1">  1        2 0.54146333E-01 0.17765698E+04</pdfrwt>
<pdfrwt beam="2">  1       -2 0.34491239E+00 0.17765698E+04</pdfrwt>
<totfact> 0.14602710E+00</totfact>
</mgrwt>
</event>
<event>
 6    1  0.6091287E-004  0.3572254E+03  0.7818608E-02  0.1059688E+00
          2   -1    0    0  501    0  0.00000000000E+00  0.00000000000E+00  0.21436306629E+03  0.21436306629E+03  0.00000000000E+00 0.  1.
         -2   -1    0    0    0  501 -0.00000000000E+00 -0.00000000000E+00 -0.14882456237E+03  0.14882456237E+03  0.00000000000E+00 0. -1.
         23    2    1    2    0    0  0.11783475186E+03  0.22949332067E+02 -0.83189696988E+02  0.17205474731E+03  0.90942893057E+02 0.  0.
         11    1    3    3    0    0  0.82441124462E+02 -0.28462765200E+02 -0.38769815631E+02  0.95445097356E+02  0.00000000000E+00 0.  1.
        -11    1    3    3    0    0  0.35393627403E+02  0.51412097267E+02 -0.44419881357E+02  0.76609649953E+02  0.00000000000E+00 0. -1.
         22    1    1    2    0    0 -0.11783475186E+03 -0.22949332067E+02  0.14872820090E+03  0.19113288135E+03  0.00000000000E+00 0.  1.
<mgrwt>
<rscale>  0 0.35722536E+03</rscale>
<asrwt>0</asrwt>
<pdfrwt beam="1">  1        2 0.32978933E-01 0.35722536E+03</pdfrwt>
<pdfrwt beam="2">  1       -2 0.22896087E-01 0.35722536E+03</pdfrwt>
<totfact> 0.26345285E+03</totfact>
</mgrwt>
</event>
<event>
 6    1  0.6091287E-004  0.1200595E+04  0.7818608E-02  0.9112336E-01
          2   -1    0    0  501    0  0.00000000000E+00  0.00000000000E+00  0.61912479495E+03  0.61912479495E+03  0.00000000000E+00 0.  1.
         -2   -1    0    0    0  501 -0.00000000000E+00 -0.00000000000E+00 -0.58204238717E+03  0.58204238717E+03  0.00000000000E+00 0. -1.
         23    2    1    2    0    0  0.26751659164E+03  0.70284261825E+01  0.55245526990E+03  0.62045751922E+03  0.90256203857E+02 0.  0.
         13    1    3    3    0    0  0.15547681345E+03  0.48320603719E+02  0.33019110379E+03  0.36814954202E+03  0.00000000000E+00 0. -1.
        -13    1    3    3    0    0  0.11203977818E+03 -0.41292177536E+02  0.22226416611E+03  0.25230797720E+03  0.00000000000E+00 0.  1.
         22    1    1    2    0    0 -0.26751659164E+03 -0.70284261825E+01 -0.51537286212E+03  0.58070966290E+03  0.00000000000E+00 0. -1.
<mgrwt>
<rscale>  0 0.12005946E+04</rscale>
<asrwt>0</asrwt>
<pdfrwt beam="1">  1        2 0.95249969E-01 0.12005946E+04</pdfrwt>
<pdfrwt beam="2">  1       -2 0.89544982E-01 0.12005946E+04</pdfrwt>
<totfact> 0.50386989E+01</totfact>
</mgrwt>
</event>
<event>
 6    1  0.6091287E-004  0.1908446E+04  0.7818608E-02  0.8650664E-01
          2   -1    0    0  501    0  0.00000000000E+00  0.00000000000E+00  0.37780863493E+04  0.37780863493E+04  0.00000000000E+00 0.  1.
         -2   -1    0    0    0  501 -0.00000000000E+00 -0.00000000000E+00 -0.24100604175E+03  0.24100604175E+03  0.00000000000E+00 0. -1.
         23    2    1    2    0    0 -0.19552458103E+03 -0.80205134073E+03  0.77433679256E+03  0.11356451582E+04  0.92608002354E+02 0.  0.
         13    1    3    3    0    0 -0.21089636832E+02 -0.18691182655E+03  0.13567599701E+03  0.23192408208E+03  0.00000000000E+00 0. -1.
        -13    1    3    3    0    0 -0.17443494420E+03 -0.61513951419E+03  0.63866079554E+03  0.90372107613E+03  0.00000000000E+00 0.  1.
         22    1    1    2    0    0  0.19552458103E+03  0.80205134073E+03  0.27627435150E+04  0.28834472329E+04  0.00000000000E+00 0.  1.
<mgrwt>
<rscale>  0 0.19084461E+04</rscale>
<asrwt>0</asrwt>
<pdfrwt beam="1">  1        2 0.58124401E+00 0.19084461E+04</pdfrwt>
<pdfrwt beam="2">  1       -2 0.37077855E-01 0.19084461E+04</pdfrwt>
<totfact> 0.33058185E+00</totfact>
</mgrwt>
</event>
<event>
 6    1  0.6091287E-004  0.2135899E+04  0.7818608E-02  0.8545592E-01
         -2   -1    0    0    0  501 -0.00000000000E+00  0.00000000000E+00  0.10482891436E+04  0.10482891436E+04  0.00000000000E+00 0. -1.
          2   -1    0    0  501    0  0.00000000000E+00 -0.00000000000E+00 -0.10879786606E+04  0.10879786606E+04  0.00000000000E+00 0.  1.
         23    2    1    2    0    0  0.50257990648E+03  0.49072915459E+03  0.78187719371E+03  0.10553545210E+04  0.95076565372E+02 0.  0.
         13    1    3    3    0    0  0.13963363082E+03  0.19172486071E+03  0.29394560952E+03  0.37770358011E+03  0.00000000000E+00 0. -1.
        -13    1    3    3    0    0  0.36294627566E+03  0.29900429388E+03  0.48793158419E+03  0.67765094084E+03  0.00000000000E+00 0.  1.
         22    1    1    2    0    0 -0.50257990648E+03 -0.49072915459E+03 -0.82156671070E+03  0.10809132832E+04  0.00000000000E+00 0.  1.
<mgrwt>
<rscale>  0 0.21358991E+04</rscale>
<asrwt>0</asrwt>
<pdfrwt beam="1">  1        2 0.16738133E+00 0.21358991E+04</pdfrwt>
<pdfrwt beam="2">  1       -2 0.16127525E+00 0.21358991E+04</pdfrwt>
<totfact> 0.50194119E+00</totfact>
</mgrwt>
</event>
<event>
 6    1  0.6091287E-004  0.3173996E+03  0.7818608E-02  0.1076852E+00
          2   -1    0    0  501    0  0.00000000000E+00  0.00000000000E+00  0.63759208152E+03  0.63759208152E+03  0.00000000000E+00 0.  1.
         -2   -1    0    0    0  501 -0.00000000000E+00 -0.00000000000E+00 -0.39501152541E+02  0.39501152541E+02  0.00000000000E+00 0. -1.
         23    2    1    2    0    0  0.77526667158E+02 -0.63951983419E+02  0.54834711103E+03  0.56495631896E+03  0.91601571265E+02 0.  0.
         11    1    3    3    0    0  0.66581277245E+02 -0.75782491439E+02  0.30862128680E+03  0.32468931481E+03  0.00000000000E+00 0. -1.
        -11    1    3    3    0    0  0.10945389913E+02  0.11830508020E+02  0.23972582423E+03  0.24026700415E+03  0.00000000000E+00 0.  1.
         22    1    1    2    0    0 -0.77526667158E+02  0.63951983419E+02  0.49743817954E+02  0.11213691510E+03  0.00000000000E+00 0. -1.
<mgrwt>
<rscale>  0 0.31739957E+03</rscale>
<asrwt>0</asrwt>
<pdfrwt beam="1">  1        2 0.98091082E-01 0.31739957E+03</pdfrwt>
<pdfrwt beam="2">  1       -2 0.60771009E-02 0.31739957E+03</pdfrwt>
<totfact> 0.68240780E+03</totfact>
</mgrwt>
</event>
<event>
 6    1  0.6091287E-004  0.2427450E+04  0.7818608E-02  0.8429298E-01
          2   -1    0    0  501    0  0.00000000000E+00  0.00000000000E+00  0.24179778073E+04  0.24179778073E+04  0.00000000000E+00 0.  1.
         -2   -1    0    0    0  501 -0.00000000000E+00 -0.00000000000E+00 -0.60923981211E+03  0.60923981211E+03  0.00000000000E+00 0. -1.
         23    2    1    2    0    0 -0.55441652908E+03 -0.24918417539E+03  0.22132102600E+04  0.22971023861E+04  0.94388963381E+02 0.  0.
         11    1    3    3    0    0 -0.50607109808E+03 -0.21058404028E+03  0.18835084617E+04  0.19616466857E+04  0.00000000000E+00 0. -1.
        -11    1    3    3    0    0 -0.48345431002E+02 -0.38600135108E+02  0.32970179831E+03  0.33545570041E+03  0.00000000000E+00 0.  1.
         22    1    1    2    0    0  0.55441652908E+03  0.24918417539E+03 -0.40447226476E+03  0.73011523333E+03  0.00000000000E+00 0. -1.
<mgrwt>
<rscale>  0 0.24274500E+04</rscale>
<asrwt>0</asrwt>
<pdfrwt beam="1">  1        2 0.37199658E+00 0.24274500E+04</pdfrwt>
<pdfrwt beam="2">  1       -2 0.93729203E-01 0.24274500E+04</pdfrwt>
<totfact> 0.33494938E+00</totfact>
</mgrwt>
</event>
<event>
 6    1  0.6091287E-004  0.2434408E+04  0.7818608E-02  0.8426733E-01
          2   -1    0    0  501    0  0.00000000000E+00  0.00000000000E+00  0.66691766114E+03  0.66691766114E+03  0.00000000000E+00 0.  1.
         -2   -1    0    0    0  501 -0.00000000000E+00 -0.00000000000E+00 -0.22215425395E+04  0.22215425395E+04  0.00000000000E+00 0. -1.
         23    2    1    2    0    0 -0.11596973637E+04  0.32884313538E+03 -0.96331213997E+03  0.15458185740E+04  0.92460812629E+02 0.  0.
         13    1    3    3    0    0 -0.12957586178E+03  0.29013559760E+02 -0.14406504725E+03  0.19592454783E+03  0.00000000000E+00 0.  1.
        -13    1    3    3    0    0 -0.10301215019E+04  0.29982957562E+03 -0.81924709272E+03  0.13498940262E+04  0.00000000000E+00 0. -1.
         22    1    1    2    0    0  0.11596973637E+04 -0.32884313538E+03 -0.59131273840E+03  0.13426416266E+04  0.00000000000E+00 0. -1.
<mgrwt>
<rscale>  0 0.24344083E+04</rscale>
<asrwt>0</asrwt>
<pdfrwt beam="1">  1        2 0.10260272E+00 0.24344083E+04</pdfrwt>
<pdfrwt beam="2">  1       -2 0.34177577E+00 0.24344083E+04</pdfrwt>
<totfact> 0.68479374E-01</totfact>
</mgrwt>
</event>
<event>
 6    1  0.6091287E-004  0.1273622E+04  0.7818608E-02  0.9050749E-01
          2   -1    0    0  501    0  0.00000000000E+00  0.00000000000E+00  0.19688706080E+04  0.19688706080E+04  0.00000000000E+00 0.  1.
         -2   -1    0    0    0  501 -0.00000000000E+00 -0.00000000000E+00 -0.20596991920E+03  0.20596991920E+03  0.00000000000E+00 0. -1.
         23    2    1    2    0    0  0.15998770446E+02 -0.49107122755E+03  0.20238648516E+03  0.53880523083E+03  0.89128425399E+02 0.  0.
         11    1    3    3    0    0  0.27468192931E+02 -0.53525675956E+02  0.38536363739E+02  0.71446140131E+02  0.00000000000E+00 0. -1.
        -11    1    3    3    0    0 -0.11469422484E+02 -0.43754555159E+03  0.16385012142E+03  0.46735909070E+03  0.00000000000E+00 0.  1.
         22    1    1    2    0    0 -0.15998770446E+02  0.49107122755E+03  0.15605142036E+04  0.16360352963E+04  0.00000000000E+00 0.  1.
<mgrwt>
<rscale>  0 0.12736218E+04</rscale>
<asrwt>0</asrwt>
<pdfrwt beam="1">  1        2 0.30290316E+00 0.12736218E+04</pdfrwt>
<pdfrwt beam="2">  1       -2 0.31687681E-01 0.12736218E+04</pdfrwt>
<totfact> 0.63230339E+01</totfact>
</mgrwt>
</event>
<event>
 6    1  0.6091287E-004  0.4814529E+04  0.7818608E-02  0.7857773E-01
         -2   -1    0    0    0  501 -0.00000000000E+00  0.00000000000E+00  0.33518976515E+04  0.33518976515E+04  0.00000000000E+00 0. -1.
          2   -1    0    0  501    0  0.00000000000E+00 -0.00000000000E+00 -0.17288481081E+04  0.17288481081E+04  0.00000000000E+00 0.  1.
         23    2    1    2    0    0 -0.10921443127E+04  0.98172262696E+03  0.28236425112E+04  0.31839110304E+04  0.88169736661E+02 0.  0.
         11    1    3    3    0    0 -0.39258117632E+03  0.40954089749E+03  0.10713373166E+04  0.12122736377E+04  0.00000000000E+00 0.  1.
        -11    1    3    3    0    0 -0.69956313634E+03  0.57218172947E+03  0.17523051946E+04  0.19716373927E+04  0.00000000000E+00 0. -1.
         22    1    1    2    0    0  0.10921443127E+04 -0.98172262696E+03 -0.12005929678E+04  0.18968347293E+04  0.00000000000E+00 0.  1.
<mgrwt>
<rscale>  0 0.48145288E+04</rscale>
<asrwt>0</asrwt>
<pdfrwt beam="1">  1        2 0.26597663E+00 0.48145288E+04</pdfrwt>
<pdfrwt beam="2">  1       -2 0.51567656E+00 0.48145288E+04</pdfrwt>
<totfact> 0.93133984E-03</totfact>
</mgrwt>
</event>
<event>
 6    1  0.6091287E-004  0.2222963E+04  0.7818608E-02  0.8508931E-01
          1   -1    0    0  501    0  0.00000000000E+00  0.00000000000E+00  0.18260891866E+04  0.18260891866E+04  0.00000000000E+00 0.  1.
         -1   -1    0    0    0  501 -0.00000000000E+00 -0.00000000000E+00 -0.67652266688E+03  0.67652266688E+03  0.00000000000E+00 0. -1.
         23    2    1    2    0    0  0.20735872820E+03  0.10389064321E+04  0.20411558486E+03  0.10826816837E+04  0.90621407199E+02 0.  0.
         13    1    3    3    0    0  0.19420963414E+03  0.97244561941E+03  0.16758038713E+03  0.10057092278E+04  0.00000000000E+00 0.  1.
        -13    1    3    3    0    0  0.13149094059E+02  0.66460812682E+02  0.36535197730E+02  0.76972455918E+02  0.00000000000E+00 0. -1.
         22    1    1    2    0    0 -0.20735872820E+03 -0.10389064321E+04  0.94545093485E+03  0.14199301698E+04  0.00000000000E+00 0.  1.
<mgrwt>
<rscale>  0 0.22229626E+04</rscale>
<asrwt>0</asrwt>
<pdfrwt beam="1">  1        1 0.28093680E+00 0.22229626E+04</pdfrwt>
<pdfrwt beam="2">  1       -1 0.10408041E+00 0.22229626E+04</pdfrwt>
<totfact> 0.30919445E+00</totfact>
</mgrwt>
</event>
<event>
 6    1  0.6091287E-004  0.2640024E+04  0.7818608E-02  0.8354732E-01
          2   -1    0    0  501    0  0.00000000000E+00  0.00000000000E+00  0.11901514265E+04  0.11901514265E+04  0.00000000000E+00 0.  1.
         -2   -1    0    0    0  501 -0.00000000000E+00 -0.00000000000E+00 -0.14640420418E+04  0.14640420418E+04  0.00000000000E+00 0. -1.
         23    2    1    2    0    0  0.78898571964E+03  0.92695179330E+03 -0.64662656694E+03  0.13811380168E+04  0.87625404919E+02 0.  0.
         13    1    3    3    0    0  0.13375308625E+03  0.21151372448E+03 -0.13542471783E+03  0.28454841051E+03  0.00000000000E+00 0. -1.
        -13    1    3    3    0    0  0.65523263338E+03  0.71543806882E+03 -0.51120184911E+03  0.10965896063E+04  0.00000000000E+00 0.  1.
         22    1    1    2    0    0 -0.78898571964E+03 -0.92695179330E+03  0.37273595169E+03  0.12730554515E+04  0.00000000000E+00 0.  1.
<mgrwt>
<rscale>  0 0.26400240E+04</rscale>
<asrwt>0</asrwt>
<pdfrwt beam="1">  1        2 0.18310022E+00 0.26400240E+04</pdfrwt>
<pdfrwt beam="2">  1       -2 0.22523724E+00 0.26400240E+04</pdfrwt>
<totfact> 0.15503190E+00</totfact>
</mgrwt>
</event>
<event>
 6    1  0.6091287E-004  0.2634053E+04  0.7818608E-02  0.8356725E-01
          2   -1    0    0  501    0  0.00000000000E+00  0.00000000000E+00  0.16197760487E+04  0.16197760487E+04  0.00000000000E+00 0.  1.
         -2   -1    0    0    0  501 -0.00000000000E+00 -0.00000000000E+00 -0.10708636623E+04  0.10708636623E+04  0.00000000000E+00 0. -1.
         23    2    1    2    0    0 -0.35402156042E+03 -0.16750673305E+03  0.15575649710E+04  0.16086185434E+04  0.90858177458E+02 0.  0.
         13    1    3    3    0    0 -0.25748741913E+03 -0.10419504640E+03  0.12397327481E+04  0.12704698601E+04  0.00000000000E+00 0. -1.
        -13    1    3    3    0    0 -0.96534141283E+02 -0.63311686654E+02  0.31783222281E+03  0.33814868321E+03  0.00000000000E+00 0.  1.
         22    1    1    2    0    0  0.35402156042E+03  0.16750673305E+03 -0.10086525846E+04  0.10820211677E+04  0.00000000000E+00 0. -1.
<mgrwt>
<rscale>  0 0.26340534E+04</rscale>
<asrwt>0</asrwt>
<pdfrwt beam="1">  1        2 0.24919631E+00 0.26340534E+04</pdfrwt>
<pdfrwt beam="2">  1       -2 0.16474826E+00 0.26340534E+04</pdfrwt>
<totfact> 0.22298444E+00</totfact>
</mgrwt>
</event>
<event>
 6    1  0.6091287E-004  0.2313872E+04  0.7818608E-02  0.8472472E-01
         -1   -1    0    0    0  501 -0.00000000000E+00  0.00000000000E+00  0.49518404846E+03  0.49518404846E+03  0.00000000000E+00 0. -1.
          1   -1    0    0  501    0  0.00000000000E+00 -0.00000000000E+00 -0.27030375617E+04  0.27030375617E+04  0.00000000000E+00 0.  1.
         23    2    1    2    0    0  0.58720034566E+03  0.91081263388E+03 -0.16588306111E+04  0.19833923847E+04  0.87991222577E+02 0.  0.
         13    1    3    3    0    0  0.84941287972E+02  0.89416641425E+02 -0.16084469965E+03  0.20268541036E+03  0.00000000000E+00 0.  1.
        -13    1    3    3    0    0  0.50225905769E+03  0.82139599246E+03 -0.14979859115E+04  0.17807069743E+04  0.00000000000E+00 0. -1.
         22    1    1    2    0    0 -0.58720034566E+03 -0.91081263388E+03 -0.54902290209E+03  0.12148292254E+04  0.00000000000E+00 0. -1.
<mgrwt>
<rscale>  0 0.23138722E+04</rscale>
<asrwt>0</asrwt>
<pdfrwt beam="1">  1        1 0.41585193E+00 0.23138722E+04</pdfrwt>
<pdfrwt beam="2">  1       -1 0.76182163E-01 0.23138722E+04</pdfrwt>
<totfact> 0.15254289E+00</totfact>
</mgrwt>
</event>
<event>
 6    1  0.6091287E-004  0.2088225E+04  0.7818608E-02  0.8566448E-01
          2   -1    0    0  501    0  0.00000000000E+00  0.00000000000E+00  0.16454641592E+04  0.16454641592E+04  0.00000000000E+00 0.  1.
         -2   -1    0    0    0  501 -0.00000000000E+00 -0.00000000000E+00 -0.66253112490E+03  0.66253112490E+03  0.00000000000E+00 0. -1.
         23    2    1    2    0    0  0.13845659955E+03  0.12785871477E+03  0.16254345530E+04  0.16384235684E+04  0.82922991463E+02 0.  0.
         11    1    3    3    0    0  0.53688776357E+02  0.60549437746E+02  0.10342933886E+04  0.10374543521E+04  0.00000000000E+00 0. -1.
        -11    1    3    3    0    0  0.84767823197E+02  0.67309277023E+02  0.59114116441E+03  0.60096921625E+03  0.00000000000E+00 0.  1.
         22    1    1    2    0    0 -0.13845659955E+03 -0.12785871477E+03 -0.64250151871E+03  0.66957171568E+03  0.00000000000E+00 0. -1.
<mgrwt>
<rscale>  0 0.20882253E+04</rscale>
<asrwt>0</asrwt>
<pdfrwt beam="1">  1        2 0.25314833E+00 0.20882253E+04</pdfrwt>
<pdfrwt beam="2">  1       -2 0.10192787E+00 0.20882253E+04</pdfrwt>
<totfact> 0.76581971E+00</totfact>
</mgrwt>
</event>
<event>
 6    1  0.6091287E-004  0.2783180E+04  0.7818608E-02  0.8308509E-01
          2   -1    0    0  501    0  0.00000000000E+00  0.00000000000E+00  0.22843909900E+04  0.22843909900E+04  0.00000000000E+00 0.  1.
         -2   -1    0    0    0  501 -0.00000000000E+00 -0.00000000000E+00 -0.84771953762E+03  0.84771953762E+03  0.00000000000E+00 0. -1.
         23    2    1    2    0    0 -0.53700940661E+03 -0.10539095748E+04 -0.10260696182E+03  0.11908525512E+04  0.92179799319E+02 0.  0.
         11    1    3    3    0    0 -0.76679239887E+02 -0.91023701631E+02 -0.15854111349E+02  0.12006820118E+03  0.00000000000E+00 0.  1.
        -11    1    3    3    0    0 -0.46033016672E+03 -0.96288587317E+03 -0.86752850469E+02  0.10707843500E+04  0.00000000000E+00 0. -1.
         22    1    1    2    0    0  0.53700940661E+03  0.10539095748E+04  0.15392784141E+04  0.19412579764E+04  0.00000000000E+00 0. -1.
<mgrwt>
<rscale>  0 0.27831801E+04</rscale>
<asrwt>0</asrwt>
<pdfrwt beam="1">  1        2 0.35144476E+00 0.27831801E+04</pdfrwt>
<pdfrwt beam="2">  1       -2 0.13041839E+00 0.27831801E+04</pdfrwt>
<totfact> 0.17366032E+00</totfact>
</mgrwt>
</event>
<event>
 6    1  0.6091287E-004  0.1438592E+04  0.7818608E-02  0.8926348E-01
          2   -1    0    0  501    0  0.00000000000E+00  0.00000000000E+00  0.15163946579E+04  0.15163946579E+04  0.00000000000E+00 0.  1.
         -2   -1    0    0    0  501 -0.00000000000E+00 -0.00000000000E+00 -0.34119543567E+03  0.34119543567E+03  0.00000000000E+00 0. -1.
         23    2    1    2    0    0  0.51194429694E+03 -0.35115791446E+02  0.12355858909E+04  0.13409019558E+04  0.89585038556E+02 0.  0.
         11    1    3    3    0    0  0.33458752053E+03 -0.53386839175E+02  0.88361812149E+03  0.94635085889E+03  0.00000000000E+00 0. -1.
        -11    1    3    3    0    0  0.17735677641E+03  0.18271047730E+02  0.35196776945E+03  0.39455109688E+03  0.00000000000E+00 0.  1.
         22    1    1    2    0    0 -0.51194429694E+03  0.35115791446E+02 -0.60386668716E+02  0.51668813779E+03  0.00000000000E+00 0. -1.
<mgrwt>
<rscale>  0 0.14385923E+04</rscale>
<asrwt>0</asrwt>
<pdfrwt beam="1">  1        2 0.23329148E+00 0.14385923E+04</pdfrwt>
<pdfrwt beam="2">  1       -2 0.52491606E-01 0.14385923E+04</pdfrwt>
<totfact> 0.41296061E+01</totfact>
</mgrwt>
</event>
<event>
 6    1  0.6091287E-004  0.3524857E+04  0.7818608E-02  0.8107924E-01
          2   -1    0    0  501    0  0.00000000000E+00  0.00000000000E+00  0.13023504139E+04  0.13023504139E+04  0.00000000000E+00 0.  1.
         -2   -1    0    0    0  501 -0.00000000000E+00 -0.00000000000E+00 -0.23850376480E+04  0.23850376480E+04  0.00000000000E+00 0. -1.
         23    2    1    2    0    0  0.16183353666E+04  0.53198471137E+03 -0.10089059760E+04  0.19822602762E+04  0.97197955322E+02 0.  0.
         13    1    3    3    0    0  0.92287370689E+03  0.32002889379E+03 -0.63091865355E+03  0.11628296174E+04  0.00000000000E+00 0.  1.
        -13    1    3    3    0    0  0.69546165966E+03  0.21195581758E+03 -0.37798732241E+03  0.81943065880E+03  0.00000000000E+00 0. -1.
         22    1    1    2    0    0 -0.16183353666E+04 -0.53198471137E+03 -0.73781258128E+02  0.17051277858E+04  0.00000000000E+00 0.  1.
<mgrwt>
<rscale>  0 0.35248573E+04</rscale>
<asrwt>0</asrwt>
<pdfrwt beam="1">  1        2 0.20036160E+00 0.35248573E+04</pdfrwt>
<pdfrwt beam="2">  1       -2 0.36692887E+00 0.35248573E+04</pdfrwt>
<totfact> 0.16406133E-01</totfact>
</mgrwt>
</event>
<event>
 6    1  0.6091287E-004  0.3408000E+04  0.7818608E-02  0.8135946E-01
         -2   -1    0    0    0  501 -0.00000000000E+00  0.00000000000E+00  0.12060113694E+04  0.12060113694E+04  0.00000000000E+00 0.  1.
          2   -1    0    0  501    0  0.00000000000E+00 -0.00000000000E+00 -0.24076188133E+04  0.24076188133E+04  0.00000000000E+00 0. -1.
         23    2    1    2    0    0  0.15014044831E+04 -0.74168809203E+03 -0.27348832269E+03  0.16990227162E+04  0.86980916310E+02 0.  0.
         13    1    3    3    0    0  0.59032580012E+03 -0.33868961315E+03 -0.11766341722E+03  0.69068073963E+03  0.00000000000E+00 0.  1.
        -13    1    3    3    0    0  0.91107868297E+03 -0.40299847888E+03 -0.15582490547E+03  0.10083419766E+04  0.00000000000E+00 0. -1.
         22    1    1    2    0    0 -0.15014044831E+04  0.74168809203E+03 -0.92811912125E+03  0.19146074665E+04  0.00000000000E+00 0. -1.
<mgrwt>
<rscale>  0 0.34079998E+04</rscale>
<asrwt>0</asrwt>
<pdfrwt beam="1">  1        2 0.37040289E+00 0.34079998E+04</pdfrwt>
<pdfrwt beam="2">  1       -2 0.18554021E+00 0.34079998E+04</pdfrwt>
<totfact> 0.54129789E-01</totfact>
</mgrwt>
</event>
<event>
 6    1  0.6091287E-004  0.2825832E+04  0.7818608E-02  0.8295293E-01
         -2   -1    0    0    0  501 -0.00000000000E+00  0.00000000000E+00  0.60917660812E+03  0.60917660812E+03  0.00000000000E+00 0. -1.
          2   -1    0    0  501    0  0.00000000000E+00 -0.00000000000E+00 -0.32770976104E+04  0.32770976104E+04  0.00000000000E+00 0.  1.
         23    2    1    2    0    0  0.39893894268E+03 -0.43259125795E+03  0.42927424040E+03  0.73367119123E+03  0.87804139575E+02 0.  0.
         11    1    3    3    0    0  0.35738150848E+03 -0.42017059521E+03  0.39772413300E+03  0.68003629142E+03  0.00000000000E+00 0. -1.
        -11    1    3    3    0    0  0.41557434197E+02 -0.12420662739E+02  0.31550107406E+02  0.53634899806E+02  0.00000000000E+00 0.  1.
         22    1    1    2    0    0 -0.39893894268E+03  0.43259125795E+03 -0.30971952427E+04  0.31526030273E+04  0.00000000000E+00 0.  1.
<mgrwt>
<rscale>  0 0.28258317E+04</rscale>
<asrwt>0</asrwt>
<pdfrwt beam="1">  1        2 0.50416887E+00 0.28258317E+04</pdfrwt>
<pdfrwt beam="2">  1       -2 0.93719477E-01 0.28258317E+04</pdfrwt>
<totfact> 0.96331707E-01</totfact>
</mgrwt>
</event>
<event>
 6    1  0.6091287E-004  0.2823658E+04  0.7818608E-02  0.8295961E-01
         -2   -1    0    0    0  501 -0.00000000000E+00  0.00000000000E+00  0.14414404281E+04  0.14414404281E+04  0.00000000000E+00 0. -1.
          2   -1    0    0  501    0  0.00000000000E+00 -0.00000000000E+00 -0.13828262807E+04  0.13828262807E+04  0.00000000000E+00 0.  1.
         23    2    1    2    0    0 -0.49338242038E+03  0.85580836206E+03  0.10363601811E+04  0.14343669025E+04  0.86786063896E+02 0.  0.
         13    1    3    3    0    0 -0.31674864206E+03  0.62643619048E+03  0.74622310113E+03  0.10245003268E+04  0.00000000000E+00 0. -1.
        -13    1    3    3    0    0 -0.17663377832E+03  0.22937217158E+03  0.29013707992E+03  0.40986657571E+03  0.00000000000E+00 0.  1.
         22    1    1    2    0    0  0.49338242038E+03 -0.85580836206E+03 -0.97774603367E+03  0.13898998063E+04  0.00000000000E+00 0.  1.
<mgrwt>
<rscale>  0 0.28236584E+04</rscale>
<asrwt>0</asrwt>
<pdfrwt beam="1">  1        2 0.21274250E+00 0.28236584E+04</pdfrwt>
<pdfrwt beam="2">  1       -2 0.22176007E+00 0.28236584E+04</pdfrwt>
<totfact> 0.12384800E+00</totfact>
</mgrwt>
</event>
<event>
 6    1  0.6091287E-004  0.3779235E+04  0.7818608E-02  0.8050626E-01
         -2   -1    0    0    0  501 -0.00000000000E+00  0.00000000000E+00  0.18893628850E+04  0.18893628850E+04  0.00000000000E+00 0. -1.
          2   -1    0    0  501    0  0.00000000000E+00 -0.00000000000E+00 -0.18898724661E+04  0.18898724661E+04  0.00000000000E+00 0.  1.
         23    2    1    2    0    0  0.25806157184E+03 -0.28805436922E+03  0.18482655659E+04  0.18904419165E+04  0.90077426721E+02 0.  0.
         11    1    3    3    0    0  0.20462647856E+03 -0.16833531808E+03  0.11710165861E+04  0.12006200981E+04  0.00000000000E+00 0. -1.
        -11    1    3    3    0    0  0.53435093285E+02 -0.11971905115E+03  0.67724897980E+03  0.68982181833E+03  0.00000000000E+00 0.  1.
         22    1    1    2    0    0 -0.25806157184E+03  0.28805436922E+03 -0.18487751470E+04  0.18887934346E+04  0.00000000000E+00 0.  1.
<mgrwt>
<rscale>  0 0.37792353E+04</rscale>
<asrwt>0</asrwt>
<pdfrwt beam="1">  1        2 0.29074961E+00 0.37792353E+04</pdfrwt>
<pdfrwt beam="2">  1       -2 0.29067121E+00 0.37792353E+04</pdfrwt>
<totfact> 0.22394290E-01</totfact>
</mgrwt>
</event>
<event>
 6    1  0.6091287E-004  0.2112755E+04  0.7818608E-02  0.8555645E-01
         -2   -1    0    0    0  501 -0.00000000000E+00  0.00000000000E+00  0.46898988650E+03  0.46898988650E+03  0.00000000000E+00 0. -1.
          2   -1    0    0  501    0  0.00000000000E+00 -0.00000000000E+00 -0.23794400122E+04  0.23794400122E+04  0.00000000000E+00 0.  1.
         23    2    1    2    0    0 -0.35873170442E+03  0.96855660291E+03 -0.67193051840E+03  0.12357547465E+04  0.93855437751E+02 0.  0.
         13    1    3    3    0    0 -0.23741716027E+03  0.66037880423E+03 -0.40392048481E+03  0.80970292769E+03  0.00000000000E+00 0. -1.
        -13    1    3    3    0    0 -0.12131454415E+03  0.30817779869E+03 -0.26801003359E+03  0.42605181883E+03  0.00000000000E+00 0.  1.
         22    1    1    2    0    0  0.35873170442E+03 -0.96855660291E+03 -0.12385196073E+04  0.16126751522E+04  0.00000000000E+00 0.  1.
<mgrwt>
<rscale>  0 0.21127549E+04</rscale>
<asrwt>0</asrwt>
<pdfrwt beam="1">  1        2 0.36606768E+00 0.21127549E+04</pdfrwt>
<pdfrwt beam="2">  1       -2 0.72152292E-01 0.21127549E+04</pdfrwt>
<totfact> 0.65416112E+00</totfact>
</mgrwt>
</event>
<event>
 6    1  0.6091287E-004  0.5362458E+04  0.7818608E-02  0.7774904E-01
         -2   -1    0    0    0  501 -0.00000000000E+00  0.00000000000E+00  0.15030855694E+04  0.15030855694E+04  0.00000000000E+00 0. -1.
          2   -1    0    0  501    0  0.00000000000E+00 -0.00000000000E+00 -0.47828199697E+04  0.47828199697E+04  0.00000000000E+00 0.  1.
         23    2    1    2    0    0 -0.97556189646E+03 -0.24837154496E+04 -0.19372647311E+04  0.32988018815E+04  0.92389211341E+02 0.  0.
         13    1    3    3    0    0 -0.44388487054E+03 -0.12496093243E+04 -0.98075627996E+03  0.16493756766E+04  0.00000000000E+00 0.  1.
        -13    1    3    3    0    0 -0.53167702592E+03 -0.12341061253E+04 -0.95650845117E+03  0.16494262050E+04  0.00000000000E+00 0. -1.
         22    1    1    2    0    0  0.97556189646E+03  0.24837154496E+04 -0.13424696692E+04  0.29871036576E+04  0.00000000000E+00 0.  1.
<mgrwt>
<rscale>  0 0.53624575E+04</rscale>
<asrwt>0</asrwt>
<pdfrwt beam="1">  1        2 0.73581846E+00 0.53624575E+04</pdfrwt>
<pdfrwt beam="2">  1       -2 0.23124393E+00 0.53624575E+04</pdfrwt>
<totfact> 0.36430655E-03</totfact>
</mgrwt>
</event>
<event>
 6    1  0.6091287E-004  0.1445498E+04  0.7818608E-02  0.8921527E-01
          2   -1    0    0  501    0  0.00000000000E+00  0.00000000000E+00  0.30154256046E+04  0.30154256046E+04  0.00000000000E+00 0.  1.
         -2   -1    0    0    0  501 -0.00000000000E+00 -0.00000000000E+00 -0.17323140622E+03  0.17323140622E+03  0.00000000000E+00 0. -1.
         23    2    1    2    0    0 -0.17009466549E+03  0.48973018930E+03  0.25285630601E+04  0.25827425413E+04  0.90332896146E+02 0.  0.
         11    1    3    3    0    0 -0.11348679218E+03  0.31162303413E+03  0.18186882706E+04  0.18486793105E+04  0.00000000000E+00 0.  1.
        -11    1    3    3    0    0 -0.56607873309E+02  0.17810715517E+03  0.70987478942E+03  0.73406323073E+03  0.00000000000E+00 0. -1.
         22    1    1    2    0    0  0.17009466549E+03 -0.48973018930E+03  0.31363113834E+03  0.60591446960E+03  0.00000000000E+00 0. -1.
<mgrwt>
<rscale>  0 0.14454984E+04</rscale>
<asrwt>0</asrwt>
<pdfrwt beam="1">  1        2 0.46391159E+00 0.14454984E+04</pdfrwt>
<pdfrwt beam="2">  1       -2 0.26650988E-01 0.14454984E+04</pdfrwt>
<totfact> 0.21267000E+01</totfact>
</mgrwt>
</event>
<event>
 6    1  0.6091287E-004  0.1566732E+03  0.7818608E-02  0.1192505E+00
          1   -1    0    0  501    0  0.00000000000E+00  0.00000000000E+00  0.26404791183E+02  0.26404791183E+02  0.00000000000E+00 0.  1.
         -1   -1    0    0    0  501 -0.00000000000E+00 -0.00000000000E+00 -0.23240556948E+03  0.23240556948E+03  0.00000000000E+00 0. -1.
         23    2    1    2    0    0 -0.98350086003E+01  0.44155093944E+02 -0.17883244242E+03  0.20604182658E+03  0.91792113614E+02 0.  0.
         11    1    3    3    0    0  0.29035449531E+02  0.32604741799E+02 -0.33142169261E+02  0.54813592297E+02  0.00000000000E+00 0. -1.
        -11    1    3    3    0    0 -0.38870458131E+02  0.11550352146E+02 -0.14569027316E+03  0.15122823428E+03  0.00000000000E+00 0.  1.
         22    1    1    2    0    0  0.98350086003E+01 -0.44155093944E+02 -0.27168335880E+02  0.52768534089E+02  0.00000000000E+00 0.  1.
<mgrwt>
<rscale>  0 0.15667317E+03</rscale>
<asrwt>0</asrwt>
<pdfrwt beam="1">  1        1 0.40622757E-02 0.15667317E+03</pdfrwt>
<pdfrwt beam="2">  1       -1 0.35754702E-01 0.15667317E+03</pdfrwt>
<totfact> 0.15846460E+04</totfact>
</mgrwt>
</event>
<event>
 6    1  0.6091287E-004  0.2144498E+04  0.7818608E-02  0.8541891E-01
         -2   -1    0    0    0  501 -0.00000000000E+00  0.00000000000E+00  0.73301429030E+03  0.73301429030E+03  0.00000000000E+00 0. -1.
          2   -1    0    0  501    0  0.00000000000E+00 -0.00000000000E+00 -0.15684801415E+04  0.15684801415E+04  0.00000000000E+00 0.  1.
         23    2    1    2    0    0  0.25210745468E+03  0.10216999071E+04 -0.20884033356E+03  0.10767134684E+04  0.90932608100E+02 0.  0.
         13    1    3    3    0    0  0.17230230820E+03  0.62985905478E+03 -0.17113999537E+03  0.67505511799E+03  0.00000000000E+00 0.  1.
        -13    1    3    3    0    0  0.79805146475E+02  0.39184085235E+03 -0.37700338196E+02  0.40165835043E+03  0.00000000000E+00 0. -1.
         22    1    1    2    0    0 -0.25210745468E+03 -0.10216999071E+04 -0.62662551766E+03  0.12247809634E+04  0.00000000000E+00 0.  1.
<mgrwt>
<rscale>  0 0.21444984E+04</rscale>
<asrwt>0</asrwt>
<pdfrwt beam="1">  1        2 0.24130464E+00 0.21444984E+04</pdfrwt>
<pdfrwt beam="2">  1       -2 0.11277143E+00 0.21444984E+04</pdfrwt>
<totfact> 0.65969741E+00</totfact>
</mgrwt>
</event>
<event>
 6    1  0.6091287E-004  0.1428228E+04  0.7818608E-02  0.8933635E-01
          2   -1    0    0  501    0  0.00000000000E+00  0.00000000000E+00  0.30992002041E+04  0.30992002041E+04  0.00000000000E+00 0.  1.
         -2   -1    0    0    0  501 -0.00000000000E+00 -0.00000000000E+00 -0.16454531919E+03  0.16454531919E+03  0.00000000000E+00 0. -1.
         23    2    1    2    0    0 -0.45005516263E+03  0.54006112314E+03  0.12337294858E+04  0.14232665422E+04  0.96868674573E+02 0.  0.
         11    1    3    3    0    0 -0.25238719691E+03  0.23942168435E+03  0.65943483774E+03  0.74557115376E+03  0.00000000000E+00 0.  1.
        -11    1    3    3    0    0 -0.19766796572E+03  0.30063943879E+03  0.57429464801E+03  0.67769538848E+03  0.00000000000E+00 0. -1.
         22    1    1    2    0    0  0.45005516263E+03 -0.54006112314E+03  0.17009253992E+04  0.18404789810E+04  0.00000000000E+00 0.  1.
<mgrwt>
<rscale>  0 0.14282281E+04</rscale>
<asrwt>0</asrwt>
<pdfrwt beam="1">  1        2 0.47679999E+00 0.14282281E+04</pdfrwt>
<pdfrwt beam="2">  1       -2 0.25314667E-01 0.14282281E+04</pdfrwt>
<totfact> 0.20727241E+01</totfact>
</mgrwt>
</event>
<event>
 6    1  0.6091287E-004  0.1037158E+04  0.7818608E-02  0.9268704E-01
         -2   -1    0    0    0  501 -0.00000000000E+00  0.00000000000E+00  0.14168698861E+03  0.14168698861E+03  0.00000000000E+00 0. -1.
          2   -1    0    0  501    0  0.00000000000E+00 -0.00000000000E+00 -0.18980145069E+04  0.18980145069E+04  0.00000000000E+00 0.  1.
         23    2    1    2    0    0  0.23233893436E+03  0.13493431388E+03 -0.17480563684E+04  0.17708947594E+04  0.90435237058E+02 0.  0.
         11    1    3    3    0    0  0.42360052018E+02  0.60990505577E+02 -0.32944707958E+03  0.33771229474E+03  0.00000000000E+00 0.  1.
        -11    1    3    3    0    0  0.18997888234E+03  0.73943808304E+02 -0.14186092889E+04  0.14331824646E+04  0.00000000000E+00 0. -1.
         22    1    1    2    0    0 -0.23233893436E+03 -0.13493431388E+03 -0.82711498789E+01  0.26880673615E+03  0.00000000000E+00 0. -1.
<mgrwt>
<rscale>  0 0.10371576E+04</rscale>
<asrwt>0</asrwt>
<pdfrwt beam="1">  1        2 0.29200225E+00 0.10371576E+04</pdfrwt>
<pdfrwt beam="2">  1       -2 0.21797997E-01 0.10371576E+04</pdfrwt>
<totfact> 0.13949140E+02</totfact>
</mgrwt>
</event>
<event>
 6    1  0.6091287E-004  0.2969689E+04  0.7818608E-02  0.8252440E-01
          2   -1    0    0  501    0  0.00000000000E+00  0.00000000000E+00  0.23339098493E+04  0.23339098493E+04  0.00000000000E+00 0.  1.
         -2   -1    0    0    0  501 -0.00000000000E+00 -0.00000000000E+00 -0.94466533014E+03  0.94466533014E+03  0.00000000000E+00 0. -1.
         23    2    1    2    0    0 -0.11319659765E+04  0.11286849139E+03 -0.35585918227E+03  0.11954349544E+04  0.91338405913E+02 0.  0.
         11    1    3    3    0    0 -0.18192909734E+03 -0.15169881317E+02 -0.52692469473E+02  0.19001267878E+03  0.00000000000E+00 0. -1.
        -11    1    3    3    0    0 -0.95003687915E+03  0.12803837271E+03 -0.30316671280E+03  0.10054222757E+04  0.00000000000E+00 0.  1.
         22    1    1    2    0    0  0.11319659765E+04 -0.11286849139E+03  0.17451037014E+04  0.20831402250E+04  0.00000000000E+00 0.  1.
<mgrwt>
<rscale>  0 0.29696894E+04</rscale>
<asrwt>0</asrwt>
<pdfrwt beam="1">  1        2 0.35906305E+00 0.29696894E+04</pdfrwt>
<pdfrwt beam="2">  1       -2 0.14533313E+00 0.29696894E+04</pdfrwt>
<totfact> 0.12120033E+00</totfact>
</mgrwt>
</event>
<event>
 6    1  0.6091287E-004  0.2328175E+04  0.7818608E-02  0.8466894E-01
         -2   -1    0    0    0  501 -0.00000000000E+00  0.00000000000E+00  0.20247280241E+04  0.20247280241E+04  0.00000000000E+00 0. -1.
          2   -1    0    0  501    0  0.00000000000E+00 -0.00000000000E+00 -0.66927511904E+03  0.66927511904E+03  0.00000000000E+00 0.  1.
         23    2    1    2    0    0 -0.24363621884E+03  0.31459593838E+03 -0.58484220719E+03  0.71332792135E+03  0.92016870726E+02 0.  0.
         11    1    3    3    0    0 -0.15234905443E+03  0.16624330042E+03 -0.25562164005E+03  0.34086579791E+03  0.00000000000E+00 0.  1.
        -11    1    3    3    0    0 -0.91287164409E+02  0.14835263796E+03 -0.32922056714E+03  0.37246212345E+03  0.00000000000E+00 0. -1.
         22    1    1    2    0    0  0.24363621884E+03 -0.31459593838E+03  0.19402951123E+04  0.19806752218E+04  0.00000000000E+00 0. -1.
<mgrwt>
<rscale>  0 0.23281753E+04</rscale>
<asrwt>0</asrwt>
<pdfrwt beam="1">  1        2 0.10296540E+00 0.23281753E+04</pdfrwt>
<pdfrwt beam="2">  1       -2 0.31149662E+00 0.23281753E+04</pdfrwt>
<totfact> 0.10600451E+00</totfact>
</mgrwt>
</event>
<event>
 6    1  0.6091287E-004  0.4780878E+03  0.7818608E-02  0.1019662E+00
         -2   -1    0    0    0  501 -0.00000000000E+00  0.00000000000E+00  0.22362823785E+03  0.22362823785E+03  0.00000000000E+00 0. -1.
          2   -1    0    0  501    0  0.00000000000E+00 -0.00000000000E+00 -0.25552228328E+03  0.25552228328E+03  0.00000000000E+00 0.  1.
         23    2    1    2    0    0 -0.14617809049E+02 -0.21338938265E+03 -0.10167524993E+03  0.25416579838E+03  0.92269646427E+02 0.  0.
         13    1    3    3    0    0 -0.29753313378E+02 -0.18520976907E+03 -0.51264890690E+02  0.19446338276E+03  0.00000000000E+00 0. -1.
        -13    1    3    3    0    0  0.15135504329E+02 -0.28179613574E+02 -0.50410359242E+02  0.59702415625E+02  0.00000000000E+00 0.  1.
         22    1    1    2    0    0  0.14617809049E+02  0.21338938265E+03  0.69781204505E+02  0.22498472275E+03  0.00000000000E+00 0. -1.
<mgrwt>
<rscale>  0 0.47808785E+03</rscale>
<asrwt>0</asrwt>
<pdfrwt beam="1">  1        2 0.39311121E-01 0.47808785E+03</pdfrwt>
<pdfrwt beam="2">  1       -2 0.34404344E-01 0.47808785E+03</pdfrwt>
<totfact> 0.10400986E+03</totfact>
</mgrwt>
</event>
<event>
 6    1  0.6091287E-004  0.9684397E+03  0.7818608E-02  0.9343853E-01
         -1   -1    0    0    0  501 -0.00000000000E+00  0.00000000000E+00  0.11705477909E+04  0.11705477909E+04  0.00000000000E+00 0. -1.
          1   -1    0    0  501    0  0.00000000000E+00 -0.00000000000E+00 -0.20030697482E+03  0.20030697482E+03  0.00000000000E+00 0.  1.
         23    2    1    2    0    0  0.39105244899E+03 -0.14107938396E+02  0.96210077438E+02  0.41322708031E+03  0.91537910830E+02 0.  0.
         11    1    3    3    0    0  0.13153444161E+03  0.33842784725E+02  0.53045562796E+02  0.14580972238E+03  0.00000000000E+00 0.  1.
        -11    1    3    3    0    0  0.25951800738E+03 -0.47950723121E+02  0.43164514642E+02  0.26741735794E+03  0.00000000000E+00 0. -1.
         22    1    1    2    0    0 -0.39105244899E+03  0.14107938396E+02  0.87403073865E+03  0.95762768543E+03  0.00000000000E+00 0. -1.
<mgrwt>
<rscale>  0 0.96843975E+03</rscale>
<asrwt>0</asrwt>
<pdfrwt beam="1">  1        1 0.30816458E-01 0.96843975E+03</pdfrwt>
<pdfrwt beam="2">  1       -1 0.18008427E+00 0.96843975E+03</pdfrwt>
<totfact> 0.31034078E+01</totfact>
</mgrwt>
</event>
<event>
 6    1  0.6091287E-004  0.2094187E+04  0.7818608E-02  0.8563808E-01
         -2   -1    0    0    0  501 -0.00000000000E+00  0.00000000000E+00  0.19026729178E+04  0.19026729178E+04  0.00000000000E+00 0. -1.
          2   -1    0    0  501    0  0.00000000000E+00 -0.00000000000E+00 -0.57624436644E+03  0.57624436644E+03  0.00000000000E+00 0.  1.
         23    2    1    2    0    0  0.52651679358E+03  0.23425669942E+03 -0.36766513977E+03  0.68949012186E+03  0.90126788431E+02 0.  0.
         11    1    3    3    0    0  0.22549321406E+03  0.14943457873E+03 -0.16747380036E+03  0.31815932599E+03  0.00000000000E+00 0. -1.
        -11    1    3    3    0    0  0.30102357952E+03  0.84822120689E+02 -0.20019133941E+03  0.37133079587E+03  0.00000000000E+00 0.  1.
         22    1    1    2    0    0 -0.52651679358E+03 -0.23425669942E+03  0.16940936912E+04  0.17894271624E+04  0.00000000000E+00 0. -1.
<mgrwt>
<rscale>  0 0.20941868E+04</rscale>
<asrwt>0</asrwt>
<pdfrwt beam="1">  1        2 0.88652980E-01 0.20941868E+04</pdfrwt>
<pdfrwt beam="2">  1       -2 0.29271891E+00 0.20941868E+04</pdfrwt>
<totfact> 0.16917876E+00</totfact>
</mgrwt>
</event>
<event>
 6    1  0.6091287E-004  0.8456063E+03  0.7818608E-02  0.9496253E-01
         -2   -1    0    0    0  501 -0.00000000000E+00  0.00000000000E+00  0.71271883511E+02  0.71271883511E+02  0.00000000000E+00 0. -1.
          2   -1    0    0  501    0  0.00000000000E+00 -0.00000000000E+00 -0.25081772198E+04  0.25081772198E+04  0.00000000000E+00 0.  1.
         23    2    1    2    0    0  0.11053479489E+02  0.41747152491E+03 -0.12612688607E+04  0.13318410815E+04  0.92719327534E+02 0.  0.
         11    1    3    3    0    0  0.40929158831E+02  0.98346740204E+02 -0.34968260059E+03  0.36554780605E+03  0.00000000000E+00 0.  1.
        -11    1    3    3    0    0 -0.29875679342E+02  0.31912478471E+03 -0.91158626013E+03  0.96629327541E+03  0.00000000000E+00 0. -1.
         22    1    1    2    0    0 -0.11053479489E+02 -0.41747152491E+03 -0.11756364756E+04  0.12476080219E+04  0.00000000000E+00 0. -1.
<mgrwt>
<rscale>  0 0.84560633E+03</rscale>
<asrwt>0</asrwt>
<pdfrwt beam="1">  1        2 0.38587337E+00 0.84560633E+03</pdfrwt>
<pdfrwt beam="2">  1       -2 0.10964907E-01 0.84560633E+03</pdfrwt>
<totfact> 0.20915651E+02</totfact>
</mgrwt>
</event>
<event>
 6    1  0.6091287E-004  0.2540262E+04  0.7818608E-02  0.8388781E-01
         -2   -1    0    0    0  501 -0.00000000000E+00  0.00000000000E+00  0.63000853309E+03  0.63000853309E+03  0.00000000000E+00 0. -1.
          2   -1    0    0  501    0  0.00000000000E+00 -0.00000000000E+00 -0.25606525001E+04  0.25606525001E+04  0.00000000000E+00 0.  1.
         23    2    1    2    0    0 -0.64918160862E+03  0.27080136220E+03  0.35935022049E+03  0.79507268845E+03  0.90762658697E+02 0.  0.
         13    1    3    3    0    0 -0.29822410428E+03  0.77589143452E+02  0.17032159687E+03  0.35208967312E+03  0.00000000000E+00 0. -1.
        -13    1    3    3    0    0 -0.35095750433E+03  0.19321221875E+03  0.18902862362E+03  0.44298301533E+03  0.00000000000E+00 0.  1.
         22    1    1    2    0    0  0.64918160862E+03 -0.27080136220E+03 -0.22899941875E+04  0.23955883447E+04  0.00000000000E+00 0.  1.
<mgrwt>
<rscale>  0 0.25402621E+04</rscale>
<asrwt>0</asrwt>
<pdfrwt beam="1">  1        2 0.39394653E+00 0.25402621E+04</pdfrwt>
<pdfrwt beam="2">  1       -2 0.96924391E-01 0.25402621E+04</pdfrwt>
<totfact> 0.25361793E+00</totfact>
</mgrwt>
</event>
<event>
 6    1  0.6091287E-004  0.3004282E+04  0.7818608E-02  0.8242509E-01
         -2   -1    0    0    0  501 -0.00000000000E+00  0.00000000000E+00  0.17504664440E+04  0.17504664440E+04  0.00000000000E+00 0. -1.
          2   -1    0    0  501    0  0.00000000000E+00 -0.00000000000E+00 -0.12890434533E+04  0.12890434533E+04  0.00000000000E+00 0.  1.
         23    2    1    2    0    0  0.73953419270E+03  0.10121379911E+04 -0.60328129601E+03  0.13948429543E+04  0.10151063903E+03 0.  0.
         11    1    3    3    0    0  0.50109211865E+03  0.61676845526E+03 -0.35133213347E+03  0.86886760026E+03  0.00000000000E+00 0. -1.
        -11    1    3    3    0    0  0.23844207404E+03  0.39536953580E+03 -0.25194916255E+03  0.52597535400E+03  0.00000000000E+00 0.  1.
         22    1    1    2    0    0 -0.73953419270E+03 -0.10121379911E+04  0.10647042867E+04  0.16446669430E+04  0.00000000000E+00 0. -1.
<mgrwt>
<rscale>  0 0.30042818E+04</rscale>
<asrwt>0</asrwt>
<pdfrwt beam="1">  1        2 0.19831438E+00 0.30042818E+04</pdfrwt>
<pdfrwt beam="2">  1       -2 0.26930253E+00 0.30042818E+04</pdfrwt>
<totfact> 0.70265712E-01</totfact>
</mgrwt>
</event>
<event>
 6    1  0.7045626E-004  0.5070376E+04  0.7818608E-02  0.7817742E-01
          1   -1    0    0  501    0  0.00000000000E+00  0.00000000000E+00  0.34185313697E+04  0.34185313697E+04  0.00000000000E+00 0.  1.
         -1   -1    0    0    0  501 -0.00000000000E+00 -0.00000000000E+00 -0.18800991127E+04  0.18800991127E+04  0.00000000000E+00 0. -1.
         23    2    1    2    0    0 -0.64827440215E+03 -0.14823310319E+04 -0.12690908641E+04  0.20582985450E+04  0.91849281909E+02 0.  0.
         11    1    3    3    0    0 -0.47098451087E+03 -0.11208197435E+04 -0.99776963291E+03  0.15727706595E+04  0.00000000000E+00 0. -1.
        -11    1    3    3    0    0 -0.17728989128E+03 -0.36151128838E+03 -0.27132123121E+03  0.48552788559E+03  0.00000000000E+00 0.  1.
         22    1    1    2    0    0  0.64827440215E+03  0.14823310319E+04  0.28075231211E+04  0.32403319373E+04  0.00000000000E+00 0.  1.
<mgrwt>
<rscale>  0 0.50703758E+04</rscale>
<asrwt>0</asrwt>
<pdfrwt beam="1">  1        1 0.52592790E+00 0.50703758E+04</pdfrwt>
<pdfrwt beam="2">  1       -1 0.28924602E+00 0.50703758E+04</pdfrwt>
<totfact> 0.80505995E-03</totfact>
</mgrwt>
</event>
<event>
 6    1  0.6091287E-004  0.1111357E+04  0.7818608E-02  0.9194193E-01
          1   -1    0    0  501    0  0.00000000000E+00  0.00000000000E+00  0.17512363998E+04  0.17512363998E+04  0.00000000000E+00 0.  1.
         -1   -1    0    0    0  501 -0.00000000000E+00 -0.00000000000E+00 -0.17632027416E+03  0.17632027416E+03  0.00000000000E+00 0. -1.
         23    2    1    2    0    0  0.32438431060E+03 -0.36639183944E+03  0.12351743790E+04  0.13318280316E+04  0.92962347851E+02 0.  0.
         13    1    3    3    0    0  0.20277566134E+03 -0.15947226814E+03  0.65480908854E+03  0.70379280727E+03  0.00000000000E+00 0. -1.
        -13    1    3    3    0    0  0.12160864926E+03 -0.20691957130E+03  0.58036529050E+03  0.62803522431E+03  0.00000000000E+00 0.  1.
         22    1    1    2    0    0 -0.32438431060E+03  0.36639183944E+03  0.33974174664E+03  0.59572864240E+03  0.00000000000E+00 0. -1.
<mgrwt>
<rscale>  0 0.11113568E+04</rscale>
<asrwt>0</asrwt>
<pdfrwt beam="1">  1        1 0.26942097E+00 0.11113568E+04</pdfrwt>
<pdfrwt beam="2">  1       -1 0.27126197E-01 0.11113568E+04</pdfrwt>
<totfact> 0.53322246E+01</totfact>
</mgrwt>
</event>
<event>
 6    1  0.6091287E-004  0.3814273E+04  0.7818608E-02  0.8043099E-01
         -2   -1    0    0    0  501 -0.00000000000E+00  0.00000000000E+00  0.11780196840E+04  0.11780196840E+04  0.00000000000E+00 0. -1.
          2   -1    0    0  501    0  0.00000000000E+00 -0.00000000000E+00 -0.30875290673E+04  0.30875290673E+04  0.00000000000E+00 0.  1.
         23    2    1    2    0    0  0.19540133994E+03 -0.17744089729E+04 -0.17023640352E+04  0.24684349313E+04  0.91754102032E+02 0.  0.
         13    1    3    3    0    0 -0.84616148116E+01 -0.47592228414E+02 -0.54231069709E+02  0.72647285238E+02  0.00000000000E+00 0. -1.
        -13    1    3    3    0    0  0.20386295475E+03 -0.17268167444E+04 -0.16481329655E+04  0.23957876461E+04  0.00000000000E+00 0.  1.
         22    1    1    2    0    0 -0.19540133994E+03  0.17744089729E+04 -0.20714534813E+03  0.17971138200E+04  0.00000000000E+00 0. -1.
<mgrwt>
<rscale>  0 0.38142732E+04</rscale>
<asrwt>0</asrwt>
<pdfrwt beam="1">  1        2 0.47500447E+00 0.38142732E+04</pdfrwt>
<pdfrwt beam="2">  1       -2 0.18123380E+00 0.38142732E+04</pdfrwt>
<totfact> 0.21808467E-01</totfact>
</mgrwt>
</event>
<event>
 6    1  0.6313923E-004  0.3566021E+04  0.7818608E-02  0.8098320E-01
         -2   -1    0    0    0  501 -0.00000000000E+00  0.00000000000E+00  0.13867550026E+04  0.13867550026E+04  0.00000000000E+00 0. -1.
          2   -1    0    0  501    0  0.00000000000E+00 -0.00000000000E+00 -0.22924930419E+04  0.22924930419E+04  0.00000000000E+00 0.  1.
         23    2    1    2    0    0 -0.13138441192E+04 -0.11472285795E+04 -0.77448542848E+02  0.17483458529E+04  0.91625113803E+02 0.  0.
         13    1    3    3    0    0 -0.71638726428E+03 -0.56518456105E+03 -0.45737989851E+02  0.91363902291E+03  0.00000000000E+00 0. -1.
        -13    1    3    3    0    0 -0.59745685494E+03 -0.58204401844E+03 -0.31710552997E+02  0.83470683002E+03  0.00000000000E+00 0.  1.
         22    1    1    2    0    0  0.13138441192E+04  0.11472285795E+04 -0.82828949650E+03  0.19309021915E+04  0.00000000000E+00 0.  1.
<mgrwt>
<rscale>  0 0.35660209E+04</rscale>
<asrwt>0</asrwt>
<pdfrwt beam="1">  1        2 0.35269124E+00 0.35660209E+04</pdfrwt>
<pdfrwt beam="2">  1       -2 0.21334692E+00 0.35660209E+04</pdfrwt>
<totfact> 0.40776783E-01</totfact>
</mgrwt>
</event>
<event>
 6    1  0.6091287E-004  0.2911970E+04  0.7818608E-02  0.8269325E-01
         -2   -1    0    0    0  501 -0.00000000000E+00  0.00000000000E+00  0.62307541900E+03  0.62307541900E+03  0.00000000000E+00 0. -1.
          2   -1    0    0  501    0  0.00000000000E+00 -0.00000000000E+00 -0.34023034863E+04  0.34023034863E+04  0.00000000000E+00 0.  1.
         23    2    1    2    0    0  0.13140025333E+04  0.24783802943E+03 -0.21825898083E+04  0.25611372727E+04  0.87746864258E+02 0.  0.
         11    1    3    3    0    0  0.11450820684E+04  0.18892169145E+03 -0.19161312238E+04  0.22401926738E+04  0.00000000000E+00 0. -1.
        -11    1    3    3    0    0  0.16892046491E+03  0.58916337987E+02 -0.26645858443E+03  0.32094459890E+03  0.00000000000E+00 0.  1.
         22    1    1    2    0    0 -0.13140025333E+04 -0.24783802943E+03 -0.59663825906E+03  0.14642416326E+04  0.00000000000E+00 0. -1.
<mgrwt>
<rscale>  0 0.29119696E+04</rscale>
<asrwt>0</asrwt>
<pdfrwt beam="1">  1        2 0.52343131E+00 0.29119696E+04</pdfrwt>
<pdfrwt beam="2">  1       -2 0.95857756E-01 0.29119696E+04</pdfrwt>
<totfact> 0.74704853E-01</totfact>
</mgrwt>
</event>
<event>
 6    1  0.6091287E-004  0.2599635E+04  0.7818608E-02  0.8368325E-01
         -2   -1    0    0    0  501 -0.00000000000E+00  0.00000000000E+00  0.51044931397E+03  0.51044931397E+03  0.00000000000E+00 0. -1.
          2   -1    0    0  501    0  0.00000000000E+00 -0.00000000000E+00 -0.33098782512E+04  0.33098782512E+04  0.00000000000E+00 0.  1.
         23    2    1    2    0    0  0.75618717409E+03  0.95628290782E+03 -0.20572851494E+04  0.23930667467E+04  0.89723052727E+02 0.  0.
         13    1    3    3    0    0  0.41072809925E+03  0.48415463541E+03 -0.99393622736E+03  0.11794119325E+04  0.00000000000E+00 0.  1.
        -13    1    3    3    0    0  0.34545907484E+03  0.47212827242E+03 -0.10633489220E+04  0.12136548142E+04  0.00000000000E+00 0. -1.
         22    1    1    2    0    0 -0.75618717409E+03 -0.95628290782E+03 -0.74214378780E+03  0.14272608184E+04  0.00000000000E+00 0. -1.
<mgrwt>
<rscale>  0 0.25996347E+04</rscale>
<asrwt>0</asrwt>
<pdfrwt beam="1">  1        2 0.50921205E+00 0.25996347E+04</pdfrwt>
<pdfrwt beam="2">  1       -2 0.78530662E-01 0.25996347E+04</pdfrwt>
<totfact> 0.13989197E+00</totfact>
</mgrwt>
</event>
<event>
 6    1  0.6091287E-004  0.9082012E+03  0.7818608E-02  0.9415387E-01
         -1   -1    0    0    0  501 -0.00000000000E+00  0.00000000000E+00  0.18357250823E+03  0.18357250823E+03  0.00000000000E+00 0. -1.
          1   -1    0    0  501    0  0.00000000000E+00 -0.00000000000E+00 -0.11233018948E+04  0.11233018948E+04  0.00000000000E+00 0.  1.
         23    2    1    2    0    0 -0.36587521754E+03  0.26117801649E+03 -0.47389468438E+03  0.65951005363E+03  0.91097243911E+02 0.  0.
         11    1    3    3    0    0 -0.11035899477E+03  0.13293900039E+03 -0.17787959966E+03  0.24797789726E+03  0.00000000000E+00 0.  1.
        -11    1    3    3    0    0 -0.25551622277E+03  0.12823901610E+03 -0.29601508472E+03  0.41153215638E+03  0.00000000000E+00 0. -1.
         22    1    1    2    0    0  0.36587521754E+03 -0.26117801649E+03 -0.46583470215E+03  0.64736434937E+03  0.00000000000E+00 0. -1.
<mgrwt>
<rscale>  0 0.90820118E+03</rscale>
<asrwt>0</asrwt>
<pdfrwt beam="1">  1        1 0.17281567E+00 0.90820118E+03</pdfrwt>
<pdfrwt beam="2">  1       -1 0.28241925E-01 0.90820118E+03</pdfrwt>
<totfact> 0.13894946E+02</totfact>
</mgrwt>
</event>
<event>
 6    1  0.6091287E-004  0.4700070E+04  0.7818608E-02  0.7876517E-01
         -2   -1    0    0    0  501 -0.00000000000E+00  0.00000000000E+00  0.13743098529E+04  0.13743098529E+04  0.00000000000E+00 0. -1.
          2   -1    0    0  501    0  0.00000000000E+00 -0.00000000000E+00 -0.40185007030E+04  0.40185007030E+04  0.00000000000E+00 0.  1.
         23    2    1    2    0    0  0.33802963001E+03 -0.11668034395E+04 -0.36295353800E+04  0.38286500334E+04  0.96642155656E+02 0.  0.
         13    1    3    3    0    0  0.11527241203E+03 -0.55829161673E+03 -0.16414051047E+04  0.17375810704E+04  0.00000000000E+00 0.  1.
        -13    1    3    3    0    0  0.22275721797E+03 -0.60851182278E+03 -0.19881302753E+04  0.20910689630E+04  0.00000000000E+00 0. -1.
         22    1    1    2    0    0 -0.33802963001E+03  0.11668034395E+04  0.98534453000E+03  0.15641605225E+04  0.00000000000E+00 0. -1.
<mgrwt>
<rscale>  0 0.47000703E+04</rscale>
<asrwt>0</asrwt>
<pdfrwt beam="1">  1        2 0.61823086E+00 0.47000703E+04</pdfrwt>
<pdfrwt beam="2">  1       -2 0.21143229E+00 0.47000703E+04</pdfrwt>
<totfact> 0.27496421E-02</totfact>
</mgrwt>
</event>
<event>
 6    1  0.6091287E-004  0.1442942E+04  0.7818608E-02  0.8923308E-01
         -1   -1    0    0    0  501 -0.00000000000E+00  0.00000000000E+00  0.47907909147E+03  0.47907909147E+03  0.00000000000E+00 0. -1.
          1   -1    0    0  501    0  0.00000000000E+00 -0.00000000000E+00 -0.10865021318E+04  0.10865021318E+04  0.00000000000E+00 0.  1.
         23    2    1    2    0    0 -0.63999157013E+03  0.19863468303E+03 -0.22209508959E+02  0.67590722430E+03  0.85512375954E+02 0.  0.
         11    1    3    3    0    0 -0.47757217094E+03  0.11010558196E+03 -0.49653545679E+01  0.49012556797E+03  0.00000000000E+00 0.  1.
        -11    1    3    3    0    0 -0.16241939919E+03  0.88529101067E+02 -0.17244154391E+02  0.18578165633E+03  0.00000000000E+00 0. -1.
         22    1    1    2    0    0  0.63999157013E+03 -0.19863468303E+03 -0.58521353139E+03  0.88967399897E+03  0.00000000000E+00 0. -1.
<mgrwt>
<rscale>  0 0.14429421E+04</rscale>
<asrwt>0</asrwt>
<pdfrwt beam="1">  1        1 0.16715417E+00 0.14429421E+04</pdfrwt>
<pdfrwt beam="2">  1       -1 0.73704476E-01 0.14429421E+04</pdfrwt>
<totfact> 0.23391961E+01</totfact>
</mgrwt>
</event>
<event>
 6    1  0.6091287E-004  0.2299311E+04  0.7818608E-02  0.8478193E-01
         -2   -1    0    0    0  501 -0.00000000000E+00  0.00000000000E+00  0.33032843439E+04  0.33032843439E+04  0.00000000000E+00 0. -1.
          2   -1    0    0  501    0  0.00000000000E+00 -0.00000000000E+00 -0.40011938419E+03  0.40011938419E+03  0.00000000000E+00 0.  1.
         23    2    1    2    0    0  0.30396728349E+03  0.39987135898E+03  0.31161633841E+04  0.31578200572E+04  0.95184367778E+02 0.  0.
         13    1    3    3    0    0  0.22257418859E+03  0.24029885169E+03  0.18051209117E+04  0.18345964988E+04  0.00000000000E+00 0. -1.
        -13    1    3    3    0    0  0.81393094898E+02  0.15957250730E+03  0.13110424724E+04  0.13232235583E+04  0.00000000000E+00 0.  1.
         22    1    1    2    0    0 -0.30396728349E+03 -0.39987135898E+03 -0.21299842440E+03  0.54558367091E+03  0.00000000000E+00 0.  1.
<mgrwt>
<rscale>  0 0.22993113E+04</rscale>
<asrwt>0</asrwt>
<pdfrwt beam="1">  1        2 0.61556831E-01 0.22993113E+04</pdfrwt>
<pdfrwt beam="2">  1       -2 0.50819757E+00 0.22993113E+04</pdfrwt>
<totfact> 0.10533681E-01</totfact>
</mgrwt>
</event>
<event>
 6    1  0.6091287E-004  0.2352775E+04  0.7818608E-02  0.8457398E-01
          2   -1    0    0  501    0  0.00000000000E+00  0.00000000000E+00  0.31704709176E+04  0.31704709176E+04  0.00000000000E+00 0.  1.
         -2   -1    0    0    0  501 -0.00000000000E+00 -0.00000000000E+00 -0.43649281159E+03  0.43649281159E+03  0.00000000000E+00 0. -1.
         23    2    1    2    0    0 -0.37551056764E+03  0.53628366154E+03  0.28641744985E+04  0.29394613302E+04  0.91263366246E+02 0.  0.
         11    1    3    3    0    0 -0.29851547626E+03  0.45987316722E+03  0.22541919291E+04  0.23199086346E+04  0.00000000000E+00 0. -1.
        -11    1    3    3    0    0 -0.76995091371E+02  0.76410494320E+02  0.60998256936E+03  0.61955269563E+03  0.00000000000E+00 0.  1.
         22    1    1    2    0    0  0.37551056764E+03 -0.53628366154E+03 -0.13019639246E+03  0.66750239898E+03  0.00000000000E+00 0. -1.
<mgrwt>
<rscale>  0 0.23527752E+04</rscale>
<asrwt>0</asrwt>
<pdfrwt beam="1">  1        2 0.48776474E+00 0.23527752E+04</pdfrwt>
<pdfrwt beam="2">  1       -2 0.67152742E-01 0.23527752E+04</pdfrwt>
<totfact> 0.24924285E+00</totfact>
</mgrwt>
</event>
<event>
 6    1  0.6091287E-004  0.5961163E+03  0.7818608E-02  0.9913496E-01
         -2   -1    0    0    0  501 -0.00000000000E+00  0.00000000000E+00  0.11610651705E+03  0.11610651705E+03  0.00000000000E+00 0. -1.
          2   -1    0    0  501    0  0.00000000000E+00 -0.00000000000E+00 -0.76514800816E+03  0.76514800816E+03  0.00000000000E+00 0.  1.
         23    2    1    2    0    0  0.17785245678E+03  0.21329397796E+03 -0.20336561443E+03  0.35613282078E+03  0.91362987507E+02 0.  0.
         13    1    3    3    0    0  0.11298263074E+03  0.80280422429E+02 -0.13366204139E+03  0.19255015550E+03  0.00000000000E+00 0.  1.
        -13    1    3    3    0    0  0.64869826048E+02  0.13301355553E+03 -0.69703573040E+02  0.16358266528E+03  0.00000000000E+00 0. -1.
         22    1    1    2    0    0 -0.17785245678E+03 -0.21329397796E+03 -0.44567587668E+03  0.52512170444E+03  0.00000000000E+00 0.  1.
<mgrwt>
<rscale>  0 0.59611633E+03</rscale>
<asrwt>0</asrwt>
<pdfrwt beam="1">  1        2 0.11771507E+00 0.59611633E+03</pdfrwt>
<pdfrwt beam="2">  1       -2 0.17862542E-01 0.59611633E+03</pdfrwt>
<totfact> 0.95417745E+02</totfact>
</mgrwt>
</event>
<event>
 6    1  0.6091287E-004  0.7862220E+03  0.7818608E-02  0.9580177E-01
          2   -1    0    0  501    0  0.00000000000E+00  0.00000000000E+00  0.95889450955E+03  0.95889450955E+03  0.00000000000E+00 0.  1.
         -2   -1    0    0    0  501 -0.00000000000E+00 -0.00000000000E+00 -0.16116085900E+03  0.16116085900E+03  0.00000000000E+00 0. -1.
         23    2    1    2    0    0 -0.10673654513E+02 -0.20999484435E+03 -0.60289225653E+02  0.23664435569E+03  0.90299495000E+02 0.  0.
         13    1    3    3    0    0 -0.41506735557E+02 -0.48644607263E+02 -0.91436058082E+01  0.64596535817E+02  0.00000000000E+00 0. -1.
        -13    1    3    3    0    0  0.30833081044E+02 -0.16135023709E+03 -0.51145619845E+02  0.17204781988E+03  0.00000000000E+00 0.  1.
         22    1    1    2    0    0  0.10673654513E+02  0.20999484435E+03  0.85802287620E+03  0.88341101286E+03  0.00000000000E+00 0.  1.
<mgrwt>
<rscale>  0 0.78622201E+03</rscale>
<asrwt>0</asrwt>
<pdfrwt beam="1">  1        2 0.14752223E+00 0.78622201E+03</pdfrwt>
<pdfrwt beam="2">  1       -2 0.24793979E-01 0.78622201E+03</pdfrwt>
<totfact> 0.39166833E+02</totfact>
</mgrwt>
</event>
<event>
 6    1  0.6091287E-004  0.1545789E+04  0.7818608E-02  0.8854562E-01
         -2   -1    0    0    0  501 -0.00000000000E+00  0.00000000000E+00  0.53323605973E+03  0.53323605973E+03  0.00000000000E+00 0. -1.
          2   -1    0    0  501    0  0.00000000000E+00 -0.00000000000E+00 -0.11202655935E+04  0.11202655935E+04  0.00000000000E+00 0.  1.
         23    2    1    2    0    0 -0.64079829138E+03  0.38038347712E+03 -0.86141312600E+02  0.75561354771E+03  0.90650250086E+02 0.  0.
         11    1    3    3    0    0 -0.53769506369E+03  0.28512544956E+03 -0.50013621858E+02  0.61066673880E+03  0.00000000000E+00 0.  1.
        -11    1    3    3    0    0 -0.10310322769E+03  0.95258027557E+02 -0.36127690742E+02  0.14494680891E+03  0.00000000000E+00 0. -1.
         22    1    1    2    0    0  0.64079829138E+03 -0.38038347712E+03 -0.50088822114E+03  0.89788810549E+03  0.00000000000E+00 0.  1.
<mgrwt>
<rscale>  0 0.15457891E+04</rscale>
<asrwt>0</asrwt>
<pdfrwt beam="1">  1        2 0.17234855E+00 0.15457891E+04</pdfrwt>
<pdfrwt beam="2">  1       -2 0.82036318E-01 0.15457891E+04</pdfrwt>
<totfact> 0.26626369E+01</totfact>
</mgrwt>
</event>
<event>
 6    1  0.6091287E-004  0.1342202E+04  0.7818608E-02  0.8996752E-01
          1   -1    0    0  501    0  0.00000000000E+00  0.00000000000E+00  0.38481300769E+03  0.38481300769E+03  0.00000000000E+00 0. -1.
         -1   -1    0    0    0  501 -0.00000000000E+00 -0.00000000000E+00 -0.11703777335E+04  0.11703777335E+04  0.00000000000E+00 0.  1.
         23    2    1    2    0    0  0.32006465814E+03  0.58517368606E+03 -0.35255315534E+03  0.75997463948E+03  0.91641131925E+02 0.  0.
         11    1    3    3    0    0 -0.41910717883E+01  0.28514161726E+02 -0.11287061351E+02  0.30951902294E+02  0.00000000000E+00 0.  1.
        -11    1    3    3    0    0  0.32425572993E+03  0.55665952433E+03 -0.34126609399E+03  0.72902273718E+03  0.00000000000E+00 0. -1.
         22    1    1    2    0    0 -0.32006465814E+03 -0.58517368606E+03 -0.43301157043E+03  0.79521610168E+03  0.00000000000E+00 0.  1.
<mgrwt>
<rscale>  0 0.13422020E+04</rscale>
<asrwt>0</asrwt>
<pdfrwt beam="1">  1        1 0.59202002E-01 0.13422020E+04</pdfrwt>
<pdfrwt beam="2">  1       -1 0.18005811E+00 0.13422020E+04</pdfrwt>
<totfact> 0.12862226E+01</totfact>
</mgrwt>
</event>
<event>
 6    1  0.6091287E-004  0.4722948E+04  0.7818608E-02  0.7872727E-01
          2   -1    0    0  501    0  0.00000000000E+00  0.00000000000E+00  0.26922048510E+04  0.26922048510E+04  0.00000000000E+00 0.  1.
         -2   -1    0    0    0  501 -0.00000000000E+00 -0.00000000000E+00 -0.20713728137E+04  0.20713728137E+04  0.00000000000E+00 0. -1.
         23    2    1    2    0    0  0.16792569387E+04 -0.16500838947E+04  0.48600079525E+03  0.24054300464E+04  0.84948276462E+02 0.  0.
         13    1    3    3    0    0  0.53899811199E+03 -0.52432818994E+03  0.11508073677E+03  0.76071189781E+03  0.00000000000E+00 0. -1.
        -13    1    3    3    0    0  0.11402588267E+04 -0.11257557048E+04  0.37092005849E+03  0.16447181486E+04  0.00000000000E+00 0.  1.
         22    1    1    2    0    0 -0.16792569387E+04  0.16500838947E+04  0.13483124211E+03  0.23581476183E+04  0.00000000000E+00 0.  1.
<mgrwt>
<rscale>  0 0.47229482E+04</rscale>
<asrwt>0</asrwt>
<pdfrwt beam="1">  1        2 0.41418536E+00 0.47229482E+04</pdfrwt>
<pdfrwt beam="2">  1       -2 0.31867274E+00 0.47229482E+04</pdfrwt>
<totfact> 0.48735152E-02</totfact>
</mgrwt>
</event>
<event>
 6    1  0.6091287E-004  0.2183711E+04  0.7818608E-02  0.8525239E-01
          2   -1    0    0  501    0  0.00000000000E+00  0.00000000000E+00  0.10470302712E+04  0.10470302712E+04  0.00000000000E+00 0.  1.
         -2   -1    0    0    0  501 -0.00000000000E+00 -0.00000000000E+00 -0.11385996005E+04  0.11385996005E+04  0.00000000000E+00 0. -1.
         23    2    1    2    0    0  0.35482063499E+03 -0.58097339914E+03  0.80556053659E+03  0.10594550319E+04  0.10044607036E+03 0.  0.
         13    1    3    3    0    0  0.18926904276E+03 -0.32153712408E+03  0.51703460670E+03  0.63759993509E+03  0.00000000000E+00 0.  1.
        -13    1    3    3    0    0  0.16555159223E+03 -0.25943627506E+03  0.28852592989E+03  0.42185509684E+03  0.00000000000E+00 0. -1.
         22    1    1    2    0    0 -0.35482063499E+03  0.58097339914E+03 -0.89712986583E+03  0.11261748398E+04  0.00000000000E+00 0. -1.
<mgrwt>
<rscale>  0 0.21837108E+04</rscale>
<asrwt>0</asrwt>
<pdfrwt beam="1">  1        2 0.16108158E+00 0.21837108E+04</pdfrwt>
<pdfrwt beam="2">  1       -2 0.17516917E+00 0.21837108E+04</pdfrwt>
<totfact> 0.42155746E+00</totfact>
</mgrwt>
</event>
<event>
 6    1  0.6091287E-004  0.1346170E+04  0.7818608E-02  0.8993733E-01
         -2   -1    0    0    0  501 -0.00000000000E+00  0.00000000000E+00  0.18542390422E+03  0.18542390422E+03  0.00000000000E+00 0. -1.
          2   -1    0    0  501    0  0.00000000000E+00 -0.00000000000E+00 -0.24432831024E+04  0.24432831024E+04  0.00000000000E+00 0.  1.
         23    2    1    2    0    0 -0.19210269627E+03 -0.58616883226E+03 -0.16452536044E+04  0.17593492210E+04  0.89179106249E+02 0.  0.
         11    1    3    3    0    0 -0.17647508664E+03 -0.44062885394E+03 -0.13175141994E+04  0.14004074081E+04  0.00000000000E+00 0. -1.
        -11    1    3    3    0    0 -0.15627609629E+02 -0.14553997831E+03 -0.32773940501E+03  0.35894181292E+03  0.00000000000E+00 0.  1.
         22    1    1    2    0    0  0.19210269627E+03  0.58616883226E+03 -0.61260559385E+03  0.86935778563E+03  0.00000000000E+00 0. -1.
<mgrwt>
<rscale>  0 0.13461695E+04</rscale>
<asrwt>0</asrwt>
<pdfrwt beam="1">  1        2 0.37588969E+00 0.13461695E+04</pdfrwt>
<pdfrwt beam="2">  1       -2 0.28526756E-01 0.13461695E+04</pdfrwt>
<totfact> 0.41461016E+01</totfact>
</mgrwt>
</event>
<event>
 6    1  0.6091287E-004  0.2586132E+04  0.7818608E-02  0.8372927E-01
         -2   -1    0    0    0  501 -0.00000000000E+00  0.00000000000E+00  0.13118982011E+04  0.13118982011E+04  0.00000000000E+00 0. -1.
          2   -1    0    0  501    0  0.00000000000E+00 -0.00000000000E+00 -0.12745039612E+04  0.12745039612E+04  0.00000000000E+00 0.  1.
         23    2    1    2    0    0 -0.17571073007E+03 -0.47230917826E+03  0.12079678728E+04  0.13119639134E+04  0.90070570497E+02 0.  0.
         11    1    3    3    0    0 -0.31000084075E+02 -0.34932169915E+02  0.17102945011E+03  0.17729166510E+03  0.00000000000E+00 0.  1.
        -11    1    3    3    0    0 -0.14471064599E+03 -0.43737700834E+03  0.10369384227E+04  0.11346722483E+04  0.00000000000E+00 0. -1.
         22    1    1    2    0    0  0.17571073007E+03  0.47230917826E+03 -0.11705736329E+04  0.12744382490E+04  0.00000000000E+00 0.  1.
<mgrwt>
<rscale>  0 0.25861318E+04</rscale>
<asrwt>0</asrwt>
<pdfrwt beam="1">  1        2 0.19607753E+00 0.25861318E+04</pdfrwt>
<pdfrwt beam="2">  1       -2 0.20183049E+00 0.25861318E+04</pdfrwt>
<totfact> 0.19602873E+00</totfact>
</mgrwt>
</event>
<event>
 6    1  0.6091287E-004  0.2072502E+04  0.7818608E-02  0.8573454E-01
          1   -1    0    0  501    0  0.00000000000E+00  0.00000000000E+00  0.14442920764E+04  0.14442920764E+04  0.00000000000E+00 0.  1.
         -1   -1    0    0    0  501 -0.00000000000E+00 -0.00000000000E+00 -0.74348991178E+03  0.74348991178E+03  0.00000000000E+00 0. -1.
         23    2    1    2    0    0  0.87842067341E+03  0.53518044516E+03  0.46394915158E+03  0.11322535243E+04  0.93317949061E+02 0.  0.
         11    1    3    3    0    0  0.42897850597E+03  0.22665957766E+03  0.25793860637E+03  0.54948107100E+03  0.00000000000E+00 0.  1.
        -11    1    3    3    0    0  0.44944216744E+03  0.30852086750E+03  0.20601054521E+03  0.58277245327E+03  0.00000000000E+00 0. -1.
         22    1    1    2    0    0 -0.87842067341E+03 -0.53518044516E+03  0.23685301305E+03  0.10555284639E+04  0.00000000000E+00 0. -1.
<mgrwt>
<rscale>  0 0.20725024E+04</rscale>
<asrwt>0</asrwt>
<pdfrwt beam="1">  1        1 0.22219878E+00 0.20725024E+04</pdfrwt>
<pdfrwt beam="2">  1       -1 0.11438306E+00 0.20725024E+04</pdfrwt>
<totfact> 0.45849637E+00</totfact>
</mgrwt>
</event>
<event>
 6    1  0.6091287E-004  0.4682819E+04  0.7818608E-02  0.7879390E-01
          2   -1    0    0  501    0  0.00000000000E+00  0.00000000000E+00  0.21670545002E+04  0.21670545002E+04  0.00000000000E+00 0.  1.
         -2   -1    0    0    0  501 -0.00000000000E+00 -0.00000000000E+00 -0.25297925228E+04  0.25297925228E+04  0.00000000000E+00 0. -1.
         23    2    1    2    0    0 -0.17556982114E+04 -0.14685416772E+04  0.30946384721E+03  0.23112766047E+04  0.84503274632E+02 0.  0.
         13    1    3    3    0    0 -0.88196058737E+03 -0.78133959521E+03  0.18523176161E+03  0.11927517957E+04  0.00000000000E+00 0.  1.
        -13    1    3    3    0    0 -0.87373762400E+03 -0.68720208199E+03  0.12423208560E+03  0.11185248089E+04  0.00000000000E+00 0. -1.
         22    1    1    2    0    0  0.17556982114E+04  0.14685416772E+04 -0.67220186976E+03  0.23855704183E+04  0.00000000000E+00 0. -1.
<mgrwt>
<rscale>  0 0.46828189E+04</rscale>
<asrwt>0</asrwt>
<pdfrwt beam="1">  1        2 0.33339300E+00 0.46828189E+04</pdfrwt>
<pdfrwt beam="2">  1       -2 0.38919885E+00 0.46828189E+04</pdfrwt>
<totfact> 0.35127823E-02</totfact>
</mgrwt>
</event>
<event>
 6    1  0.6091287E-004  0.9904969E+03  0.7818608E-02  0.9319029E-01
         -2   -1    0    0    0  501 -0.00000000000E+00  0.00000000000E+00  0.71135390721E+02  0.71135390721E+02  0.00000000000E+00 0. -1.
          2   -1    0    0  501    0  0.00000000000E+00 -0.00000000000E+00 -0.34479463838E+04  0.34479463838E+04  0.00000000000E+00 0.  1.
         23    2    1    2    0    0 -0.41728584531E+03  0.15531190565E+03 -0.96358901479E+03  0.10651279075E+04  0.88002302699E+02 0.  0.
         13    1    3    3    0    0 -0.27533008986E+03  0.83445569012E+02 -0.70588835975E+03  0.76226517552E+03  0.00000000000E+00 0.  1.
        -13    1    3    3    0    0 -0.14195575545E+03  0.71866336637E+02 -0.25770065503E+03  0.30286273202E+03  0.00000000000E+00 0. -1.
         22    1    1    2    0    0  0.41728584531E+03 -0.15531190565E+03 -0.24132219783E+04  0.24539538670E+04  0.00000000000E+00 0.  1.
<mgrwt>
<rscale>  0 0.99049687E+03</rscale>
<asrwt>0</asrwt>
<pdfrwt beam="1">  1        2 0.53045318E+00 0.99049687E+03</pdfrwt>
<pdfrwt beam="2">  1       -2 0.10943908E-01 0.99049687E+03</pdfrwt>
<totfact> 0.54456548E+01</totfact>
</mgrwt>
</event>
<event>
 6    1  0.6091287E-004  0.4262926E+04  0.7818608E-02  0.7953509E-01
         -2   -1    0    0    0  501 -0.00000000000E+00  0.00000000000E+00  0.22453180098E+04  0.22453180098E+04  0.00000000000E+00 0. -1.
          2   -1    0    0  501    0  0.00000000000E+00 -0.00000000000E+00 -0.20233817891E+04  0.20233817891E+04  0.00000000000E+00 0.  1.
         23    2    1    2    0    0 -0.21298301881E+04 -0.42384200610E+02  0.14056727155E+03  0.21368944710E+04  0.92659440546E+02 0.  0.
         11    1    3    3    0    0 -0.16065186555E+04  0.67753334831E+01  0.11558810750E+03  0.16106857876E+04  0.00000000000E+00 0.  1.
        -11    1    3    3    0    0 -0.52331153252E+03 -0.49159534094E+02  0.24979164046E+02  0.52620868341E+03  0.00000000000E+00 0. -1.
         22    1    1    2    0    0  0.21298301881E+04  0.42384200610E+02  0.81368949208E+02  0.21318053280E+04  0.00000000000E+00 0.  1.
<mgrwt>
<rscale>  0 0.42629265E+04</rscale>
<asrwt>0</asrwt>
<pdfrwt beam="1">  1        2 0.31128951E+00 0.42629265E+04</pdfrwt>
<pdfrwt beam="2">  1       -2 0.34543354E+00 0.42629265E+04</pdfrwt>
<totfact> 0.83236098E-02</totfact>
</mgrwt>
</event>
<event>
 6    1  0.6091287E-004  0.1363471E+04  0.7818608E-02  0.8980693E-01
          2   -1    0    0  501    0  0.00000000000E+00  0.00000000000E+00  0.21426496180E+04  0.21426496180E+04  0.00000000000E+00 0.  1.
         -2   -1    0    0    0  501 -0.00000000000E+00 -0.00000000000E+00 -0.21691039485E+03  0.21691039485E+03  0.00000000000E+00 0. -1.
         23    2    1    2    0    0 -0.39831869423E+03 -0.12262172344E+03  0.40096901340E+02  0.42840988016E+03  0.90738055352E+02 0.  0.
         11    1    3    3    0    0 -0.25905869920E+03 -0.62378458083E+02  0.65920983243E+02  0.27449600670E+03  0.00000000000E+00 0.  1.
        -11    1    3    3    0    0 -0.13925999503E+03 -0.60243265356E+02 -0.25824081902E+02  0.15391387346E+03  0.00000000000E+00 0. -1.
         22    1    1    2    0    0  0.39831869423E+03  0.12262172344E+03  0.18856423218E+04  0.19311501327E+04  0.00000000000E+00 0.  1.
<mgrwt>
<rscale>  0 0.13634705E+04</rscale>
<asrwt>0</asrwt>
<pdfrwt beam="1">  1        2 0.32963839E+00 0.13634705E+04</pdfrwt>
<pdfrwt beam="2">  1       -2 0.33370831E-01 0.13634705E+04</pdfrwt>
<totfact> 0.45598972E+01</totfact>
</mgrwt>
</event>
<event>
 6    1  0.6091287E-004  0.2887724E+04  0.7818608E-02  0.8276539E-01
         -2   -1    0    0    0  501 -0.00000000000E+00  0.00000000000E+00  0.19233446839E+04  0.19233446839E+04  0.00000000000E+00 0. -1.
          2   -1    0    0  501    0  0.00000000000E+00 -0.00000000000E+00 -0.10839123458E+04  0.10839123458E+04  0.00000000000E+00 0.  1.
         23    2    1    2    0    0 -0.18255168308E+03 -0.59752977807E+03 -0.93363129138E+03  0.11273310773E+04  0.94026681847E+02 0.  0.
         13    1    3    3    0    0 -0.86150681514E+02 -0.32645391711E+03 -0.42297850615E+03  0.54120690737E+03  0.00000000000E+00 0. -1.
        -13    1    3    3    0    0 -0.96401001567E+02 -0.27107586097E+03 -0.51065278522E+03  0.58612416992E+03  0.00000000000E+00 0.  1.
         22    1    1    2    0    0  0.18255168308E+03  0.59752977807E+03  0.17730636295E+04  0.18799259525E+04  0.00000000000E+00 0. -1.
<mgrwt>
<rscale>  0 0.28877237E+04</rscale>
<asrwt>0</asrwt>
<pdfrwt beam="1">  1        2 0.16675575E+00 0.28877237E+04</pdfrwt>
<pdfrwt beam="2">  1       -2 0.29589918E+00 0.28877237E+04</pdfrwt>
<totfact> 0.64850320E-01</totfact>
</mgrwt>
</event>
<event>
 6    1  0.6091287E-004  0.2844350E+04  0.7818608E-02  0.8289630E-01
          2   -1    0    0  501    0  0.00000000000E+00  0.00000000000E+00  0.24733805704E+04  0.24733805704E+04  0.00000000000E+00 0.  1.
         -2   -1    0    0    0  501 -0.00000000000E+00 -0.00000000000E+00 -0.81773999153E+03  0.81773999153E+03  0.00000000000E+00 0. -1.
         23    2    1    2    0    0  0.55759438117E+02 -0.13572015572E+04  0.13107600650E+04  0.18896756823E+04  0.87618800469E+02 0.  0.
         13    1    3    3    0    0  0.32442434019E+02 -0.39525560799E+03  0.43404676282E+03  0.58794225863E+03  0.00000000000E+00 0. -1.
        -13    1    3    3    0    0  0.23317004099E+02 -0.96194594924E+03  0.87671330221E+03  0.13017334236E+04  0.00000000000E+00 0.  1.
         22    1    1    2    0    0 -0.55759438117E+02  0.13572015572E+04  0.34488051385E+03  0.14014448797E+04  0.00000000000E+00 0. -1.
<mgrwt>
<rscale>  0 0.28443503E+04</rscale>
<asrwt>0</asrwt>
<pdfrwt beam="1">  1        2 0.38052008E+00 0.28443503E+04</pdfrwt>
<pdfrwt beam="2">  1       -2 0.12580615E+00 0.28443503E+04</pdfrwt>
<totfact> 0.14750924E+00</totfact>
</mgrwt>
</event>
<event>
 6    1  0.6091287E-004  0.5475510E+04  0.7818608E-02  0.7759068E-01
         -2   -1    0    0    0  501 -0.00000000000E+00  0.00000000000E+00  0.27622581808E+04  0.27622581808E+04  0.00000000000E+00 0. -1.
          2   -1    0    0  501    0  0.00000000000E+00 -0.00000000000E+00 -0.27134694282E+04  0.27134694282E+04  0.00000000000E+00 0.  1.
         23    2    1    2    0    0  0.21664488846E+04 -0.16676606771E+04  0.15392347224E+03  0.27397367075E+04  0.88723659237E+02 0.  0.
         13    1    3    3    0    0  0.17297955863E+04 -0.12865860431E+04  0.12802214690E+03  0.21596032244E+04  0.00000000000E+00 0.  1.
        -13    1    3    3    0    0  0.43665329825E+03 -0.38107463407E+03  0.25901325341E+02  0.58013348314E+03  0.00000000000E+00 0. -1.
         22    1    1    2    0    0 -0.21664488846E+04  0.16676606771E+04 -0.10513471965E+03  0.27359909014E+04  0.00000000000E+00 0.  1.
<mgrwt>
<rscale>  0 0.54755103E+04</rscale>
<asrwt>0</asrwt>
<pdfrwt beam="1">  1        2 0.41745683E+00 0.54755103E+04</pdfrwt>
<pdfrwt beam="2">  1       -2 0.42496280E+00 0.54755103E+04</pdfrwt>
<totfact> 0.93117280E-03</totfact>
</mgrwt>
</event>
<event>
 6    1  0.7267522E-004  0.2612466E+04  0.7818608E-02  0.8363979E-01
          2   -1    0    0  501    0  0.00000000000E+00  0.00000000000E+00  0.12610940329E+04  0.12610940329E+04  0.00000000000E+00 0.  1.
         -2   -1    0    0    0  501 -0.00000000000E+00 -0.00000000000E+00 -0.13529871975E+04  0.13529871975E+04  0.00000000000E+00 0. -1.
         23    2    1    2    0    0 -0.63112355246E+03  0.11166962209E+04 -0.28424908177E+03  0.13170352841E+04  0.91962008154E+02 0.  0.
         13    1    3    3    0    0 -0.22998990343E+03  0.44842649506E+03 -0.15271558569E+03  0.52659636085E+03  0.00000000000E+00 0. -1.
        -13    1    3    3    0    0 -0.40113364902E+03  0.66826972580E+03 -0.13153349609E+03  0.79043892325E+03  0.00000000000E+00 0.  1.
         22    1    1    2    0    0  0.63112355246E+03 -0.11166962209E+04  0.19235591716E+03  0.12970459464E+04  0.00000000000E+00 0.  1.
<mgrwt>
<rscale>  0 0.26124656E+04</rscale>
<asrwt>0</asrwt>
<pdfrwt beam="1">  1        2 0.19401447E+00 0.26124656E+04</pdfrwt>
<pdfrwt beam="2">  1       -2 0.20815188E+00 0.26124656E+04</pdfrwt>
<totfact> 0.18120364E+00</totfact>
</mgrwt>
</event>
<event>
 6    1  0.6091287E-004  0.2100612E+04  0.7818608E-02  0.8560974E-01
         -2   -1    0    0    0  501 -0.00000000000E+00  0.00000000000E+00  0.52739931609E+03  0.52739931609E+03  0.00000000000E+00 0. -1.
          2   -1    0    0  501    0  0.00000000000E+00 -0.00000000000E+00 -0.20916644134E+04  0.20916644134E+04  0.00000000000E+00 0.  1.
         23    2    1    2    0    0  0.35115747740E+02 -0.35995212821E+03  0.44442928564E+03  0.57807088912E+03  0.76484721135E+02 0.  0.
         13    1    3    3    0    0  0.58029755412E+01 -0.21712474336E+03  0.21079811829E+03  0.30267585860E+03  0.00000000000E+00 0.  1.
        -13    1    3    3    0    0  0.29312772199E+02 -0.14282738486E+03  0.23363116735E+03  0.27539503052E+03  0.00000000000E+00 0. -1.
         22    1    1    2    0    0 -0.35115747740E+02  0.35995212821E+03 -0.20086943830E+04  0.20409928404E+04  0.00000000000E+00 0.  1.
<mgrwt>
<rscale>  0 0.21006117E+04</rscale>
<asrwt>0</asrwt>
<pdfrwt beam="1">  1        2 0.32179453E+00 0.21006117E+04</pdfrwt>
<pdfrwt beam="2">  1       -2 0.81138355E-01 0.21006117E+04</pdfrwt>
<totfact> 0.73274961E+00</totfact>
</mgrwt>
</event>
<event>
 6    1  0.6091287E-004  0.3999236E+03  0.7818608E-02  0.1043806E+00
          2   -1    0    0  501    0  0.00000000000E+00  0.00000000000E+00  0.21280481156E+04  0.21280481156E+04  0.00000000000E+00 0.  1.
         -2   -1    0    0    0  501 -0.00000000000E+00 -0.00000000000E+00 -0.18789392494E+02  0.18789392494E+02  0.00000000000E+00 0. -1.
         23    2    1    2    0    0  0.49506340049E+02 -0.13939989664E+03  0.17442913706E+04  0.17530299697E+04  0.93158361400E+02 0.  0.
         13    1    3    3    0    0  0.68183821869E+02 -0.91954258272E+02  0.14354810189E+04  0.14400383241E+04  0.00000000000E+00 0.  1.
        -13    1    3    3    0    0 -0.18677481820E+02 -0.47445638365E+02  0.30881035168E+03  0.31299164562E+03  0.00000000000E+00 0. -1.
         22    1    1    2    0    0 -0.49506340049E+02  0.13939989664E+03  0.36496735255E+03  0.39380753842E+03  0.00000000000E+00 0. -1.
<mgrwt>
<rscale>  0 0.39992365E+03</rscale>
<asrwt>0</asrwt>
<pdfrwt beam="1">  1        2 0.32739183E+00 0.39992365E+03</pdfrwt>
<pdfrwt beam="2">  1       -2 0.28906775E-02 0.39992365E+03</pdfrwt>
<totfact> 0.28286719E+03</totfact>
</mgrwt>
</event>
<event>
 6    1  0.6091287E-004  0.3208655E+04  0.7818608E-02  0.8186535E-01
          2   -1    0    0  501    0  0.00000000000E+00  0.00000000000E+00  0.27355709579E+04  0.27355709579E+04  0.00000000000E+00 0. -1.
         -2   -1    0    0    0  501 -0.00000000000E+00 -0.00000000000E+00 -0.94088856114E+03  0.94088856114E+03  0.00000000000E+00 0.  1.
         23    2    1    2    0    0  0.15701184225E+04 -0.30598203010E+03  0.10168368082E+04  0.18977125940E+04  0.91973536860E+02 0.  0.
         11    1    3    3    0    0  0.13093893185E+04 -0.22026500476E+03  0.83683077655E+03  0.15694912578E+04  0.00000000000E+00 0. -1.
        -11    1    3    3    0    0  0.26072910402E+03 -0.85717025339E+02  0.18000603163E+03  0.32822133621E+03  0.00000000000E+00 0.  1.
         22    1    1    2    0    0 -0.15701184225E+04  0.30598203010E+03  0.77784558859E+03  0.17787469250E+04  0.00000000000E+00 0.  1.
<mgrwt>
<rscale>  0 0.32086554E+04</rscale>
<asrwt>0</asrwt>
<pdfrwt beam="1">  1        2 0.42085707E+00 0.32086554E+04</pdfrwt>
<pdfrwt beam="2">  1       -2 0.14475209E+00 0.32086554E+04</pdfrwt>
<totfact> 0.70006021E-01</totfact>
</mgrwt>
</event>
<event>
 6    1  0.6091287E-004  0.2593907E+04  0.7818608E-02  0.8370274E-01
         -2   -1    0    0    0  501 -0.00000000000E+00  0.00000000000E+00  0.38862557526E+03  0.38862557526E+03  0.00000000000E+00 0. -1.
          2   -1    0    0  501    0  0.00000000000E+00 -0.00000000000E+00 -0.43282996464E+04  0.43282996464E+04  0.00000000000E+00 0.  1.
         23    2    1    2    0    0  0.25953184270E+03  0.82798704033E+03 -0.37211895498E+04  0.38221320599E+04  0.92317393163E+02 0.  0.
         13    1    3    3    0    0  0.22757031210E+03  0.62055611198E+03 -0.27166319762E+04  0.27958840157E+04  0.00000000000E+00 0. -1.
        -13    1    3    3    0    0  0.31961530599E+02  0.20743092834E+03 -0.10045575736E+04  0.10262480442E+04  0.00000000000E+00 0.  1.
         22    1    1    2    0    0 -0.25953184270E+03 -0.82798704033E+03 -0.21848452132E+03  0.89479316179E+03  0.00000000000E+00 0. -1.
<mgrwt>
<rscale>  0 0.25939067E+04</rscale>
<asrwt>0</asrwt>
<pdfrwt beam="1">  1        2 0.66589224E+00 0.25939067E+04</pdfrwt>
<pdfrwt beam="2">  1       -2 0.59788551E-01 0.25939067E+04</pdfrwt>
<totfact> 0.41442346E-01</totfact>
</mgrwt>
</event>
<event>
 6    1  0.6091287E-004  0.1568668E+04  0.7818608E-02  0.8840031E-01
          2   -1    0    0  501    0  0.00000000000E+00  0.00000000000E+00  0.25141125769E+04  0.25141125769E+04  0.00000000000E+00 0.  1.
         -2   -1    0    0    0  501 -0.00000000000E+00 -0.00000000000E+00 -0.24469078090E+03  0.24469078090E+03  0.00000000000E+00 0. -1.
         23    2    1    2    0    0 -0.26929809124E+03 -0.32005347702E+03  0.23002240879E+04  0.23393936878E+04  0.82318174166E+02 0.  0.
         11    1    3    3    0    0 -0.10307842806E+03 -0.65322477903E+02  0.63584281177E+03  0.64744750346E+03  0.00000000000E+00 0. -1.
        -11    1    3    3    0    0 -0.16621966318E+03 -0.25473099912E+03  0.16643812761E+04  0.16919461843E+04  0.00000000000E+00 0.  1.
         22    1    1    2    0    0  0.26929809124E+03  0.32005347702E+03 -0.30802291921E+02  0.41940967000E+03  0.00000000000E+00 0. -1.
<mgrwt>
<rscale>  0 0.15686684E+04</rscale>
<asrwt>0</asrwt>
<pdfrwt beam="1">  1        2 0.38678653E+00 0.15686684E+04</pdfrwt>
<pdfrwt beam="2">  1       -2 0.37644737E-01 0.15686684E+04</pdfrwt>
<totfact> 0.21912440E+01</totfact>
</mgrwt>
</event>
<event>
 6    1  0.6091287E-004  0.2350387E+04  0.7818608E-02  0.8458315E-01
          2   -1    0    0  501    0  0.00000000000E+00  0.00000000000E+00  0.60052286008E+03  0.60052286008E+03  0.00000000000E+00 0.  1.
         -2   -1    0    0    0  501 -0.00000000000E+00 -0.00000000000E+00 -0.22997956607E+04  0.22997956607E+04  0.00000000000E+00 0. -1.
         23    2    1    2    0    0  0.50985259881E+03  0.85441441768E+03 -0.83260893082E+02  0.10025650713E+04  0.90723074539E+02 0.  0.
         13    1    3    3    0    0  0.11643641921E+03  0.18323123718E+03 -0.55520657899E+02  0.22408406782E+03  0.00000000000E+00 0. -1.
        -13    1    3    3    0    0  0.39341617960E+03  0.67118318050E+03 -0.27740235183E+02  0.77848100350E+03  0.00000000000E+00 0.  1.
         22    1    1    2    0    0 -0.50985259881E+03 -0.85441441768E+03 -0.16160119075E+04  0.18977534495E+04  0.00000000000E+00 0. -1.
<mgrwt>
<rscale>  0 0.23503871E+04</rscale>
<asrwt>0</asrwt>
<pdfrwt beam="1">  1        2 0.92388133E-01 0.23503871E+04</pdfrwt>
<pdfrwt beam="2">  1       -2 0.35381471E+00 0.23503871E+04</pdfrwt>
<totfact> 0.65901166E-01</totfact>
</mgrwt>
</event>
<event>
 6    1  0.6091287E-004  0.1452237E+04  0.7818608E-02  0.8916851E-01
          2   -1    0    0  501    0  0.00000000000E+00  0.00000000000E+00  0.18042472497E+04  0.18042472497E+04  0.00000000000E+00 0.  1.
         -2   -1    0    0    0  501 -0.00000000000E+00 -0.00000000000E+00 -0.29222612006E+03  0.29222612006E+03  0.00000000000E+00 0. -1.
         23    2    1    2    0    0 -0.53196978673E+03 -0.47191898365E+03  0.56879004188E+03  0.91520952707E+03  0.91580486829E+02 0.  0.
         13    1    3    3    0    0 -0.43607662798E+03 -0.34563739052E+03  0.47012995222E+03  0.72845741342E+03  0.00000000000E+00 0.  1.
        -13    1    3    3    0    0 -0.95893158754E+02 -0.12628159314E+03  0.98660089666E+02  0.18675211365E+03  0.00000000000E+00 0. -1.
         22    1    1    2    0    0  0.53196978673E+03  0.47191898365E+03  0.94323108779E+03  0.11812638427E+04  0.00000000000E+00 0.  1.
<mgrwt>
<rscale>  0 0.14522371E+04</rscale>
<asrwt>0</asrwt>
<pdfrwt beam="1">  1        2 0.27757649E+00 0.14522371E+04</pdfrwt>
<pdfrwt beam="2">  1       -2 0.44957866E-01 0.14522371E+04</pdfrwt>
<totfact> 0.39043935E+01</totfact>
</mgrwt>
</event>
<event>
 6    1  0.6091287E-004  0.2054511E+04  0.7818608E-02  0.8581550E-01
          2   -1    0    0  501    0  0.00000000000E+00  0.00000000000E+00  0.15875971746E+04  0.15875971746E+04  0.00000000000E+00 0.  1.
         -2   -1    0    0    0  501 -0.00000000000E+00 -0.00000000000E+00 -0.66468646989E+03  0.66468646989E+03  0.00000000000E+00 0. -1.
         23    2    1    2    0    0  0.14907025830E+03 -0.84198675836E+02  0.15704918260E+04  0.15824533171E+04  0.91665512029E+02 0.  0.
         11    1    3    3    0    0  0.12666054330E+03 -0.53057002335E+02  0.85716824518E+03  0.86809869213E+03  0.00000000000E+00 0. -1.
        -11    1    3    3    0    0  0.22409715001E+02 -0.31141673501E+02  0.71332358086E+03  0.71435462494E+03  0.00000000000E+00 0.  1.
         22    1    1    2    0    0 -0.14907025830E+03  0.84198675836E+02 -0.64758112130E+03  0.66983032746E+03  0.00000000000E+00 0. -1.
<mgrwt>
<rscale>  0 0.20545115E+04</rscale>
<asrwt>0</asrwt>
<pdfrwt beam="1">  1        2 0.24424572E+00 0.20545115E+04</pdfrwt>
<pdfrwt beam="2">  1       -2 0.10225946E+00 0.20545115E+04</pdfrwt>
<totfact> 0.82096042E+00</totfact>
</mgrwt>
</event>
<event>
 6    1  0.6091287E-004  0.4360290E+04  0.7818608E-02  0.7935563E-01
         -2   -1    0    0    0  501 -0.00000000000E+00  0.00000000000E+00  0.17172816895E+04  0.17172816895E+04  0.00000000000E+00 0. -1.
          2   -1    0    0  501    0  0.00000000000E+00 -0.00000000000E+00 -0.27677645261E+04  0.27677645261E+04  0.00000000000E+00 0.  1.
         23    2    1    2    0    0  0.51997740664E+03 -0.95715677646E+03  0.14159681429E+04  0.17887698884E+04  0.90588817149E+02 0.  0.
         13    1    3    3    0    0  0.14530883547E+03 -0.30413894219E+03  0.37715110397E+03  0.50582418788E+03  0.00000000000E+00 0. -1.
        -13    1    3    3    0    0  0.37466857118E+03 -0.65301783427E+03  0.10388170389E+04  0.12829457005E+04  0.00000000000E+00 0.  1.
         22    1    1    2    0    0 -0.51997740664E+03  0.95715677646E+03 -0.24664509795E+04  0.26962763272E+04  0.00000000000E+00 0.  1.
<mgrwt>
<rscale>  0 0.43602896E+04</rscale>
<asrwt>0</asrwt>
<pdfrwt beam="1">  1        2 0.42580992E+00 0.43602896E+04</pdfrwt>
<pdfrwt beam="2">  1       -2 0.26419719E+00 0.43602896E+04</pdfrwt>
<totfact> 0.97445220E-02</totfact>
</mgrwt>
</event>
<event>
 6    1  0.6091287E-004  0.4338039E+04  0.7818608E-02  0.7939621E-01
         -2   -1    0    0    0  501 -0.00000000000E+00  0.00000000000E+00  0.18018334597E+04  0.18018334597E+04  0.00000000000E+00 0. -1.
          2   -1    0    0  501    0  0.00000000000E+00 -0.00000000000E+00 -0.26110328657E+04  0.26110328657E+04  0.00000000000E+00 0.  1.
         23    2    1    2    0    0 -0.15933493069E+04  0.13313632697E+04  0.22960774351E+03  0.20911405742E+04  0.94122341341E+02 0.  0.
         13    1    3    3    0    0 -0.68352679147E+03  0.52674403208E+03  0.63723394272E+02  0.86529117698E+03  0.00000000000E+00 0. -1.
        -13    1    3    3    0    0 -0.90982251547E+03  0.80461923767E+03  0.16588434924E+03  0.12258493972E+04  0.00000000000E+00 0.  1.
         22    1    1    2    0    0  0.15933493069E+04 -0.13313632697E+04 -0.10388071496E+04  0.23217257512E+04  0.00000000000E+00 0.  1.
<mgrwt>
<rscale>  0 0.43380394E+04</rscale>
<asrwt>0</asrwt>
<pdfrwt beam="1">  1        2 0.40169736E+00 0.43380394E+04</pdfrwt>
<pdfrwt beam="2">  1       -2 0.27720515E+00 0.43380394E+04</pdfrwt>
<totfact> 0.10080052E-01</totfact>
</mgrwt>
</event>
<event>
 6    1  0.6091287E-004  0.4943229E+04  0.7818608E-02  0.7837325E-01
         -2   -1    0    0    0  501 -0.00000000000E+00  0.00000000000E+00  0.20521730161E+04  0.20521730161E+04  0.00000000000E+00 0. -1.
          2   -1    0    0  501    0  0.00000000000E+00 -0.00000000000E+00 -0.29767849391E+04  0.29767849391E+04  0.00000000000E+00 0.  1.
         23    2    1    2    0    0  0.10967238519E+04 -0.17503542619E+04 -0.18418035471E+04  0.27689173084E+04  0.90108293986E+02 0.  0.
         13    1    3    3    0    0  0.40193756598E+03 -0.66431767600E+03 -0.63653441755E+03  0.10040158596E+04  0.00000000000E+00 0. -1.
        -13    1    3    3    0    0  0.69478628596E+03 -0.10860365859E+04 -0.12052691296E+04  0.17649014488E+04  0.00000000000E+00 0.  1.
         22    1    1    2    0    0 -0.10967238519E+04  0.17503542619E+04  0.91719162417E+03  0.22600406468E+04  0.00000000000E+00 0. -1.
<mgrwt>
<rscale>  0 0.49432288E+04</rscale>
<asrwt>0</asrwt>
<pdfrwt beam="1">  1        2 0.45796691E+00 0.49432288E+04</pdfrwt>
<pdfrwt beam="2">  1       -2 0.31571893E+00 0.49432288E+04</pdfrwt>
<totfact> 0.33488467E-02</totfact>
</mgrwt>
</event>
<event>
 6    1  0.6091287E-004  0.1449702E+04  0.7818608E-02  0.8918607E-01
          2   -1    0    0  501    0  0.00000000000E+00  0.00000000000E+00  0.12167445938E+04  0.12167445938E+04  0.00000000000E+00 0.  1.
         -2   -1    0    0    0  501 -0.00000000000E+00 -0.00000000000E+00 -0.43181539396E+03  0.43181539396E+03  0.00000000000E+00 0. -1.
         23    2    1    2    0    0  0.25408194503E+03 -0.16341965711E+03 -0.35212131957E+03  0.47206200526E+03  0.87117701977E+02 0.  0.
         11    1    3    3    0    0  0.12901482832E+03 -0.49101701508E+02 -0.20788469284E+03  0.24954327988E+03  0.00000000000E+00 0. -1.
        -11    1    3    3    0    0  0.12506711670E+03 -0.11431795560E+03 -0.14423662673E+03  0.22251872538E+03  0.00000000000E+00 0.  1.
         22    1    1    2    0    0 -0.25408194503E+03  0.16341965711E+03  0.11370505195E+04  0.11764979825E+04  0.00000000000E+00 0.  1.
<mgrwt>
<rscale>  0 0.14497021E+04</rscale>
<asrwt>0</asrwt>
<pdfrwt beam="1">  1        2 0.18719148E+00 0.14497021E+04</pdfrwt>
<pdfrwt beam="2">  1       -2 0.66433138E-01 0.14497021E+04</pdfrwt>
<totfact> 0.37389728E+01</totfact>
</mgrwt>
</event>
<event>
 6    1  0.6091287E-004  0.4194641E+04  0.7818608E-02  0.7966392E-01
         -2   -1    0    0    0  501 -0.00000000000E+00  0.00000000000E+00  0.99723879708E+03  0.99723879708E+03  0.00000000000E+00 0. -1.
          2   -1    0    0  501    0  0.00000000000E+00 -0.00000000000E+00 -0.44109328104E+04  0.44109328104E+04  0.00000000000E+00 0.  1.
         23    2    1    2    0    0  0.20234699656E+04  0.45005080495E+03 -0.13040276913E+04  0.24505258513E+04  0.87248492041E+02 0.  0.
         11    1    3    3    0    0  0.10677050015E+04  0.19484031733E+03 -0.66694247681E+03  0.12738795025E+04  0.00000000000E+00 0. -1.
        -11    1    3    3    0    0  0.95576496415E+03  0.25521048762E+03 -0.63708521449E+03  0.11766463488E+04  0.00000000000E+00 0.  1.
         22    1    1    2    0    0 -0.20234699656E+04 -0.45005080495E+03 -0.21096663220E+04  0.29576457562E+04  0.00000000000E+00 0.  1.
<mgrwt>
<rscale>  0 0.41946410E+04</rscale>
<asrwt>0</asrwt>
<pdfrwt beam="1">  1        2 0.67860506E+00 0.41946410E+04</pdfrwt>
<pdfrwt beam="2">  1       -2 0.15342135E+00 0.41946410E+04</pdfrwt>
<totfact> 0.32615938E-02</totfact>
</mgrwt>
</event>
<event>
 6    1  0.6091287E-004  0.1235180E+04  0.7818608E-02  0.9082609E-01
         -1   -1    0    0    0  501 -0.00000000000E+00  0.00000000000E+00  0.11723889160E+03  0.11723889160E+03  0.00000000000E+00 0. -1.
          1   -1    0    0  501    0  0.00000000000E+00 -0.00000000000E+00 -0.32533336277E+04  0.32533336277E+04  0.00000000000E+00 0.  1.
         23    2    1    2    0    0  0.48673425846E+03  0.37369019053E+03 -0.16396816078E+04  0.17532269015E+04  0.93242674499E+02 0.  0.
         11    1    3    3    0    0  0.20031395069E+03  0.10957418603E+03 -0.52812620120E+03  0.57536898203E+03  0.00000000000E+00 0. -1.
        -11    1    3    3    0    0  0.28642030777E+03  0.26411600450E+03 -0.11115554066E+04  0.11778579195E+04  0.00000000000E+00 0.  1.
         22    1    1    2    0    0 -0.48673425846E+03 -0.37369019053E+03 -0.14964131283E+04  0.16173456178E+04  0.00000000000E+00 0.  1.
<mgrwt>
<rscale>  0 0.12351797E+04</rscale>
<asrwt>0</asrwt>
<pdfrwt beam="1">  1        1 0.50051285E+00 0.12351797E+04</pdfrwt>
<pdfrwt beam="2">  1       -1 0.18036753E-01 0.12351797E+04</pdfrwt>
<totfact> 0.94465671E+00</totfact>
</mgrwt>
</event>
<event>
 6    1  0.6091287E-004  0.2006040E+04  0.7818608E-02  0.8603802E-01
          2   -1    0    0  501    0  0.00000000000E+00  0.00000000000E+00  0.21474236629E+04  0.21474236629E+04  0.00000000000E+00 0.  1.
         -2   -1    0    0    0  501 -0.00000000000E+00 -0.00000000000E+00 -0.46849113334E+03  0.46849113334E+03  0.00000000000E+00 0. -1.
         23    2    1    2    0    0 -0.35445657107E+03 -0.47206482471E+03  0.18955869608E+04  0.19870874732E+04  0.82353145949E+02 0.  0.
         13    1    3    3    0    0 -0.14738636393E+03 -0.14871601579E+03  0.58118925054E+03  0.61775410850E+03  0.00000000000E+00 0. -1.
        -13    1    3    3    0    0 -0.20707020714E+03 -0.32334880892E+03  0.13143977103E+04  0.13693333647E+04  0.00000000000E+00 0.  1.
         22    1    1    2    0    0  0.35445657107E+03  0.47206482471E+03 -0.21665443132E+03  0.62882732297E+03  0.00000000000E+00 0. -1.
<mgrwt>
<rscale>  0 0.20060398E+04</rscale>
<asrwt>0</asrwt>
<pdfrwt beam="1">  1        2 0.33037286E+00 0.20060398E+04</pdfrwt>
<pdfrwt beam="2">  1       -2 0.72075560E-01 0.20060398E+04</pdfrwt>
<totfact> 0.89487231E+00</totfact>
</mgrwt>
</event>
<event>
 6    1  0.6091287E-004  0.2384613E+04  0.7818608E-02  0.8445287E-01
         -2   -1    0    0    0  501 -0.00000000000E+00  0.00000000000E+00  0.51877004515E+03  0.51877004515E+03  0.00000000000E+00 0. -1.
          2   -1    0    0  501    0  0.00000000000E+00 -0.00000000000E+00 -0.27403178321E+04  0.27403178321E+04  0.00000000000E+00 0.  1.
         23    2    1    2    0    0  0.63757922341E+03 -0.90691393562E+03 -0.17056093631E+04  0.20363071897E+04  0.91888620293E+02 0.  0.
         11    1    3    3    0    0  0.39599886174E+03 -0.61725348634E+03 -0.11812372726E+04  0.13903734962E+04  0.00000000000E+00 0. -1.
        -11    1    3    3    0    0  0.24158036167E+03 -0.28966044928E+03 -0.52437209047E+03  0.64593369341E+03  0.00000000000E+00 0.  1.
         22    1    1    2    0    0 -0.63757922341E+03  0.90691393562E+03 -0.51593842391E+03  0.12227806876E+04  0.00000000000E+00 0. -1.
<mgrwt>
<rscale>  0 0.23846130E+04</rscale>
<asrwt>0</asrwt>
<pdfrwt beam="1">  1        2 0.42158735E+00 0.23846130E+04</pdfrwt>
<pdfrwt beam="2">  1       -2 0.79810777E-01 0.23846130E+04</pdfrwt>
<totfact> 0.31434998E+00</totfact>
</mgrwt>
</event>
<event>
 6    1  0.6091287E-004  0.2741170E+04  0.7818608E-02  0.8321769E-01
          2   -1    0    0  501    0  0.00000000000E+00  0.00000000000E+00  0.23526883597E+04  0.23526883597E+04  0.00000000000E+00 0.  1.
         -2   -1    0    0    0  501 -0.00000000000E+00 -0.00000000000E+00 -0.79844967939E+03  0.79844967939E+03  0.00000000000E+00 0. -1.
         23    2    1    2    0    0  0.12882242020E+04 -0.18688664187E+03  0.28991567554E+03  0.13364863172E+04  0.87728931798E+02 0.  0.
         11    1    3    3    0    0  0.79504584202E+03 -0.15081089170E+03  0.15524089219E+03  0.82397909595E+03  0.00000000000E+00 0.  1.
        -11    1    3    3    0    0  0.49317835999E+03 -0.36075750178E+02  0.13467478335E+03  0.51250722121E+03  0.00000000000E+00 0. -1.
         22    1    1    2    0    0 -0.12882242020E+04  0.18688664187E+03  0.12643230048E+04  0.18146517220E+04  0.00000000000E+00 0.  1.
<mgrwt>
<rscale>  0 0.27411700E+04</rscale>
<asrwt>0</asrwt>
<pdfrwt beam="1">  1        2 0.36195205E+00 0.27411700E+04</pdfrwt>
<pdfrwt beam="2">  1       -2 0.12283841E+00 0.27411700E+04</pdfrwt>
<totfact> 0.18528413E+00</totfact>
</mgrwt>
</event>
<event>
 6    1  0.6091287E-004  0.8565528E+03  0.7818608E-02  0.9481584E-01
         -2   -1    0    0    0  501 -0.00000000000E+00  0.00000000000E+00  0.17340108731E+03  0.17340108731E+03  0.00000000000E+00 0. -1.
          2   -1    0    0  501    0  0.00000000000E+00 -0.00000000000E+00 -0.10577826099E+04  0.10577826099E+04  0.00000000000E+00 0.  1.
         23    2    1    2    0    0 -0.21126701537E+03  0.18241919107E+03 -0.90477177886E+03  0.95131537890E+03  0.92078581916E+02 0.  0.
         11    1    3    3    0    0 -0.75867785077E+02  0.16239810324E+02 -0.29205013056E+03  0.30218029554E+03  0.00000000000E+00 0. -1.
        -11    1    3    3    0    0 -0.13539923029E+03  0.16617938074E+03 -0.61272164830E+03  0.64913508336E+03  0.00000000000E+00 0.  1.
         22    1    1    2    0    0  0.21126701537E+03 -0.18241919107E+03  0.20390256253E+02  0.27986831833E+03  0.00000000000E+00 0. -1.
<mgrwt>
<rscale>  0 0.85655275E+03</rscale>
<asrwt>0</asrwt>
<pdfrwt beam="1">  1        2 0.16273578E+00 0.85655275E+03</pdfrwt>
<pdfrwt beam="2">  1       -2 0.26677091E-01 0.85655275E+03</pdfrwt>
<totfact> 0.29566751E+02</totfact>
</mgrwt>
</event>
<event>
 6    1  0.6091287E-004  0.2026416E+04  0.7818608E-02  0.8594369E-01
         -1   -1    0    0    0  501 -0.00000000000E+00  0.00000000000E+00  0.82314116182E+03  0.82314116182E+03  0.00000000000E+00 0. -1.
          1   -1    0    0  501    0  0.00000000000E+00 -0.00000000000E+00 -0.12471616235E+04  0.12471616235E+04  0.00000000000E+00 0.  1.
         23    2    1    2    0    0  0.52884561366E+02 -0.70355797356E+03 -0.95248153003E+03  0.11887917533E+04  0.90632050821E+02 0.  0.
         11    1    3    3    0    0  0.16739439513E+02 -0.61929151444E+03 -0.82190583813E+03  0.10292382598E+04  0.00000000000E+00 0.  1.
        -11    1    3    3    0    0  0.36145121853E+02 -0.84266459123E+02 -0.13057569190E+03  0.15955349348E+03  0.00000000000E+00 0. -1.
         22    1    1    2    0    0 -0.52884561366E+02  0.70355797356E+03  0.52846106829E+03  0.88151103209E+03  0.00000000000E+00 0. -1.
<mgrwt>
<rscale>  0 0.20264156E+04</rscale>
<asrwt>0</asrwt>
<pdfrwt beam="1">  1        1 0.19187102E+00 0.20264156E+04</pdfrwt>
<pdfrwt beam="2">  1       -1 0.12663710E+00 0.20264156E+04</pdfrwt>
<totfact> 0.49508567E+00</totfact>
</mgrwt>
</event>
<event>
 6    1  0.6091287E-004  0.1062468E+04  0.7818608E-02  0.9242566E-01
         -1   -1    0    0    0  501 -0.00000000000E+00  0.00000000000E+00  0.19804749713E+03  0.19804749713E+03  0.00000000000E+00 0. -1.
          1   -1    0    0  501    0  0.00000000000E+00 -0.00000000000E+00 -0.14249577652E+04  0.14249577652E+04  0.00000000000E+00 0.  1.
         23    2    1    2    0    0  0.11153696774E+03  0.16963606464E+03 -0.13612759901E+04  0.13795488250E+04  0.94158110358E+02 0.  0.
         13    1    3    3    0    0  0.67865016592E+02  0.72064103440E+02 -0.38834382177E+03  0.40076154929E+03  0.00000000000E+00 0. -1.
        -13    1    3    3    0    0  0.43671951152E+02  0.97571961205E+02 -0.97293216832E+03  0.97878727570E+03  0.00000000000E+00 0.  1.
         22    1    1    2    0    0 -0.11153696774E+03 -0.16963606464E+03  0.13436572206E+03  0.24345643730E+03  0.00000000000E+00 0. -1.
<mgrwt>
<rscale>  0 0.10624675E+04</rscale>
<asrwt>0</asrwt>
<pdfrwt beam="1">  1        1 0.21922428E+00 0.10624675E+04</pdfrwt>
<pdfrwt beam="2">  1       -1 0.30468844E-01 0.10624675E+04</pdfrwt>
<totfact> 0.73149736E+01</totfact>
</mgrwt>
</event>
<event>
 6    1  0.6091287E-004  0.1890520E+04  0.7818608E-02  0.8659590E-01
          2   -1    0    0  501    0  0.00000000000E+00  0.00000000000E+00  0.13187657740E+04  0.13187657740E+04  0.00000000000E+00 0.  1.
         -2   -1    0    0    0  501 -0.00000000000E+00 -0.00000000000E+00 -0.67753967419E+03  0.67753967419E+03  0.00000000000E+00 0. -1.
         23    2    1    2    0    0  0.10561048142E+03 -0.93132340985E+03  0.43033625680E+03  0.10355810375E+04  0.93391240183E+02 0.  0.
         13    1    3    3    0    0  0.12660531649E+02 -0.41249100092E+03  0.15434302118E+03  0.44060286323E+03  0.00000000000E+00 0. -1.
        -13    1    3    3    0    0  0.92949949774E+02 -0.51883240893E+03  0.27599323562E+03  0.59497817425E+03  0.00000000000E+00 0.  1.
         22    1    1    2    0    0 -0.10561048142E+03  0.93132340985E+03  0.21088984306E+03  0.96072441076E+03  0.00000000000E+00 0. -1.
<mgrwt>
<rscale>  0 0.18905196E+04</rscale>
<asrwt>0</asrwt>
<pdfrwt beam="1">  1        2 0.20288704E+00 0.18905196E+04</pdfrwt>
<pdfrwt beam="2">  1       -2 0.10423687E+00 0.18905196E+04</pdfrwt>
<totfact> 0.11304600E+01</totfact>
</mgrwt>
</event>
<event>
 6    1  0.6091287E-004  0.5226278E+04  0.7818608E-02  0.7794519E-01
          2   -1    0    0  501    0  0.00000000000E+00  0.00000000000E+00  0.42389456650E+04  0.42389456650E+04  0.00000000000E+00 0.  1.
         -2   -1    0    0    0  501 -0.00000000000E+00 -0.00000000000E+00 -0.16108947693E+04  0.16108947693E+04  0.00000000000E+00 0. -1.
         23    2    1    2    0    0 -0.10768629421E+04  0.16232396060E+04 -0.63384124651E+03  0.20505666929E+04  0.92349453985E+02 0.  0.
         11    1    3    3    0    0 -0.34982415262E+03  0.58796624442E+03 -0.25264720963E+03  0.72932287422E+03  0.00000000000E+00 0.  1.
        -11    1    3    3    0    0 -0.72703878946E+03  0.10352733616E+04 -0.38119403689E+03  0.13212438186E+04  0.00000000000E+00 0. -1.
         22    1    1    2    0    0  0.10768629421E+04 -0.16232396060E+04  0.32618921423E+04  0.37992737414E+04  0.00000000000E+00 0.  1.
<mgrwt>
<rscale>  0 0.52262780E+04</rscale>
<asrwt>0</asrwt>
<pdfrwt beam="1">  1        2 0.65214548E+00 0.52262780E+04</pdfrwt>
<pdfrwt beam="2">  1       -2 0.24782997E+00 0.52262780E+04</pdfrwt>
<totfact> 0.10117048E-02</totfact>
</mgrwt>
</event>
<event>
 6    1  0.6091287E-004  0.2567592E+04  0.7818608E-02  0.8379294E-01
         -2   -1    0    0    0  501 -0.00000000000E+00  0.00000000000E+00  0.12727511069E+04  0.12727511069E+04  0.00000000000E+00 0. -1.
          2   -1    0    0  501    0  0.00000000000E+00 -0.00000000000E+00 -0.12949364620E+04  0.12949364620E+04  0.00000000000E+00 0.  1.
         23    2    1    2    0    0  0.11540403515E+04  0.41165087423E+03 -0.38875544915E+03  0.12887664576E+04  0.92317970663E+02 0.  0.
         13    1    3    3    0    0  0.55129349612E+03  0.22202462255E+03 -0.14705795679E+03  0.61224626951E+03  0.00000000000E+00 0. -1.
        -13    1    3    3    0    0  0.60274685540E+03  0.18962625168E+03 -0.24169749236E+03  0.67652018805E+03  0.00000000000E+00 0.  1.
         22    1    1    2    0    0 -0.11540403515E+04 -0.41165087423E+03  0.36657009398E+03  0.12789211113E+04  0.00000000000E+00 0. -1.
<mgrwt>
<rscale>  0 0.25675917E+04</rscale>
<asrwt>0</asrwt>
<pdfrwt beam="1">  1        2 0.19922099E+00 0.25675917E+04</pdfrwt>
<pdfrwt beam="2">  1       -2 0.19580786E+00 0.25675917E+04</pdfrwt>
<totfact> 0.20927323E+00</totfact>
</mgrwt>
</event>
<event>
 6    1  0.6091287E-004  0.3666870E+04  0.7818608E-02  0.8075344E-01
          2   -1    0    0  501    0  0.00000000000E+00  0.00000000000E+00  0.30870471841E+04  0.30870471841E+04  0.00000000000E+00 0.  1.
         -2   -1    0    0    0  501 -0.00000000000E+00 -0.00000000000E+00 -0.10888996273E+04  0.10888996273E+04  0.00000000000E+00 0. -1.
         23    2    1    2    0    0 -0.17846881340E+04 -0.32433430917E+03  0.70514988118E+03  0.19483589974E+04  0.92530795832E+02 0.  0.
         13    1    3    3    0    0 -0.23605688046E+03 -0.36607150707E+02  0.12645503663E+03  0.27028468433E+03  0.00000000000E+00 0.  1.
        -13    1    3    3    0    0 -0.15486312535E+04 -0.28772715846E+03  0.57869484455E+03  0.16780743131E+04  0.00000000000E+00 0. -1.
         22    1    1    2    0    0  0.17846881340E+04  0.32433430917E+03  0.12929976756E+04  0.22275878139E+04  0.00000000000E+00 0.  1.
<mgrwt>
<rscale>  0 0.36668703E+04</rscale>
<asrwt>0</asrwt>
<pdfrwt beam="1">  1        2 0.47493033E+00 0.36668703E+04</pdfrwt>
<pdfrwt beam="2">  1       -2 0.16752302E+00 0.36668703E+04</pdfrwt>
<totfact> 0.27578999E-01</totfact>
</mgrwt>
</event>
<event>
 6    1  0.6091287E-004  0.2738928E+04  0.7818608E-02  0.8322484E-01
         -2   -1    0    0    0  501 -0.00000000000E+00  0.00000000000E+00  0.15148124240E+04  0.15148124240E+04  0.00000000000E+00 0. -1.
          2   -1    0    0  501    0  0.00000000000E+00 -0.00000000000E+00 -0.12380617809E+04  0.12380617809E+04  0.00000000000E+00 0.  1.
         23    2    1    2    0    0 -0.15886856954E+02 -0.84661028107E+03 -0.94129870465E+03  0.12694169005E+04  0.91513144645E+02 0.  0.
         13    1    3    3    0    0 -0.31523511423E+02 -0.61980794732E+03 -0.73972264763E+03  0.96558024977E+03  0.00000000000E+00 0. -1.
        -13    1    3    3    0    0  0.15636654469E+02 -0.22680233375E+03 -0.20157605702E+03  0.30383665072E+03  0.00000000000E+00 0.  1.
         22    1    1    2    0    0  0.15886856954E+02  0.84661028107E+03  0.12180493477E+04  0.14834573043E+04  0.00000000000E+00 0. -1.
<mgrwt>
<rscale>  0 0.27389278E+04</rscale>
<asrwt>0</asrwt>
<pdfrwt beam="1">  1        2 0.19047104E+00 0.27389278E+04</pdfrwt>
<pdfrwt beam="2">  1       -2 0.23304807E+00 0.27389278E+04</pdfrwt>
<totfact> 0.12864660E+00</totfact>
</mgrwt>
</event>
<event>
 6    1  0.6091287E-004  0.1296896E+04  0.7818608E-02  0.9032030E-01
          2   -1    0    0  501    0  0.00000000000E+00  0.00000000000E+00  0.20088865157E+04  0.20088865157E+04  0.00000000000E+00 0.  1.
         -2   -1    0    0    0  501 -0.00000000000E+00 -0.00000000000E+00 -0.20931231392E+03  0.20931231392E+03  0.00000000000E+00 0. -1.
         23    2    1    2    0    0 -0.58775529373E+03  0.11155152554E+03  0.49041379084E+03  0.77882361455E+03  0.90335531087E+02 0.  0.
         13    1    3    3    0    0 -0.24919025775E+03  0.53430305467E+02  0.15268031611E+03  0.29708897830E+03  0.00000000000E+00 0.  1.
        -13    1    3    3    0    0 -0.33856503599E+03  0.58121220075E+02  0.33773347472E+03  0.48173463625E+03  0.00000000000E+00 0. -1.
         22    1    1    2    0    0  0.58775529373E+03 -0.11155152554E+03  0.13091604109E+04  0.14393752150E+04  0.00000000000E+00 0.  1.
<mgrwt>
<rscale>  0 0.12968958E+04</rscale>
<asrwt>0</asrwt>
<pdfrwt beam="1">  1        2 0.30905945E+00 0.12968958E+04</pdfrwt>
<pdfrwt beam="2">  1       -2 0.32201896E-01 0.12968958E+04</pdfrwt>
<totfact> 0.58188458E+01</totfact>
</mgrwt>
</event>
<event>
 6    1  0.6091287E-004  0.1375149E+04  0.7818608E-02  0.8972006E-01
         -2   -1    0    0    0  501 -0.00000000000E+00  0.00000000000E+00  0.14195226721E+03  0.14195226721E+03  0.00000000000E+00 0. -1.
          2   -1    0    0  501    0  0.00000000000E+00 -0.00000000000E+00 -0.33304039868E+04  0.33304039868E+04  0.00000000000E+00 0.  1.
         23    2    1    2    0    0  0.49905061871E+03  0.35560276262E+03 -0.83035845373E+03  0.10359431742E+04  0.90433698111E+02 0.  0.
         13    1    3    3    0    0  0.41488972298E+03  0.28544289969E+03 -0.73326690398E+03  0.88954566139E+03  0.00000000000E+00 0.  1.
        -13    1    3    3    0    0  0.84160895730E+02  0.70159862934E+02 -0.97091549747E+02  0.14639751285E+03  0.00000000000E+00 0. -1.
         22    1    1    2    0    0 -0.49905061871E+03 -0.35560276262E+03 -0.23580932659E+04  0.24364130798E+04  0.00000000000E+00 0.  1.
<mgrwt>
<rscale>  0 0.13751486E+04</rscale>
<asrwt>0</asrwt>
<pdfrwt beam="1">  1        2 0.51236983E+00 0.13751486E+04</pdfrwt>
<pdfrwt beam="2">  1       -2 0.21838811E-01 0.13751486E+04</pdfrwt>
<totfact> 0.19242131E+01</totfact>
</mgrwt>
</event>
<event>
 6    1  0.6091287E-004  0.4222184E+04  0.7818608E-02  0.7961166E-01
         -2   -1    0    0    0  501 -0.00000000000E+00  0.00000000000E+00  0.19785599012E+04  0.19785599012E+04  0.00000000000E+00 0. -1.
          2   -1    0    0  501    0  0.00000000000E+00 -0.00000000000E+00 -0.22525012434E+04  0.22525012434E+04  0.00000000000E+00 0.  1.
         23    2    1    2    0    0 -0.11326201623E+04 -0.69008542990E+03  0.15074952461E+04  0.20101238086E+04  0.94918260266E+02 0.  0.
         13    1    3    3    0    0 -0.43939469155E+03 -0.28517367066E+03  0.66238693655E+03  0.84448100696E+03  0.00000000000E+00 0.  1.
        -13    1    3    3    0    0 -0.69322547073E+03 -0.40491175924E+03  0.84510830955E+03  0.11656428016E+04  0.00000000000E+00 0. -1.
         22    1    1    2    0    0  0.11326201623E+04  0.69008542990E+03 -0.17814365883E+04  0.22209373361E+04  0.00000000000E+00 0.  1.
<mgrwt>
<rscale>  0 0.42221836E+04</rscale>
<asrwt>0</asrwt>
<pdfrwt beam="1">  1        2 0.34653865E+00 0.42221836E+04</pdfrwt>
<pdfrwt beam="2">  1       -2 0.30439383E+00 0.42221836E+04</pdfrwt>
<totfact> 0.11165331E-01</totfact>
</mgrwt>
</event>
<event>
 6    1  0.6091287E-004  0.1652386E+04  0.7818608E-02  0.8788996E-01
         -2   -1    0    0    0  501 -0.00000000000E+00  0.00000000000E+00  0.87756746815E+03  0.87756746815E+03  0.00000000000E+00 0.  1.
          2   -1    0    0  501    0  0.00000000000E+00 -0.00000000000E+00 -0.77782579417E+03  0.77782579417E+03  0.00000000000E+00 0. -1.
         23    2    1    2    0    0 -0.25820965849E+03  0.47792841093E+03 -0.57042098409E+03  0.79271963807E+03  0.89087214477E+02 0.  0.
         13    1    3    3    0    0 -0.16630952982E+03  0.38671226793E+03 -0.44002402714E+03  0.60895515626E+03  0.00000000000E+00 0.  1.
        -13    1    3    3    0    0 -0.91900128673E+02  0.91216143004E+02 -0.13039695695E+03  0.18376448182E+03  0.00000000000E+00 0. -1.
         22    1    1    2    0    0  0.25820965849E+03 -0.47792841093E+03  0.67016265807E+03  0.86267362425E+03  0.00000000000E+00 0.  1.
<mgrwt>
<rscale>  0 0.16523857E+04</rscale>
<asrwt>0</asrwt>
<pdfrwt beam="1">  1        2 0.11966551E+00 0.16523857E+04</pdfrwt>
<pdfrwt beam="2">  1       -2 0.13501038E+00 0.16523857E+04</pdfrwt>
<totfact> 0.13465449E+01</totfact>
</mgrwt>
</event>
<event>
 6    1  0.6091287E-004  0.5168452E+04  0.7818608E-02  0.7803035E-01
          2   -1    0    0  501    0  0.00000000000E+00  0.00000000000E+00  0.20841874098E+04  0.20841874098E+04  0.00000000000E+00 0.  1.
         -2   -1    0    0    0  501 -0.00000000000E+00 -0.00000000000E+00 -0.32042340675E+04  0.32042340675E+04  0.00000000000E+00 0. -1.
         23    2    1    2    0    0  0.24703389841E+04  0.75001028114E+03 -0.65231214143E+03  0.26647092797E+04  0.10037079693E+03 0.  0.
         13    1    3    3    0    0  0.10691388398E+04  0.27795895774E+03 -0.30142206494E+03  0.11450651956E+04  0.00000000000E+00 0. -1.
        -13    1    3    3    0    0  0.14012001443E+04  0.47205132340E+03 -0.35089007649E+03  0.15196440841E+04  0.00000000000E+00 0.  1.
         22    1    1    2    0    0 -0.24703389841E+04 -0.75001028114E+03 -0.46773451626E+03  0.26237121976E+04  0.00000000000E+00 0. -1.
<mgrwt>
<rscale>  0 0.51684521E+04</rscale>
<asrwt>0</asrwt>
<pdfrwt beam="1">  1        2 0.32064422E+00 0.51684521E+04</pdfrwt>
<pdfrwt beam="2">  1       -2 0.49295909E+00 0.51684521E+04</pdfrwt>
<totfact> 0.79191994E-03</totfact>
</mgrwt>
</event>
<event>
 6    1  0.6091287E-004  0.2457685E+04  0.7818608E-02  0.8418217E-01
         -2   -1    0    0    0  501 -0.00000000000E+00  0.00000000000E+00  0.54695650235E+03  0.54695650235E+03  0.00000000000E+00 0. -1.
          2   -1    0    0  501    0  0.00000000000E+00 -0.00000000000E+00 -0.27608297888E+04  0.27608297888E+04  0.00000000000E+00 0.  1.
         23    2    1    2    0    0 -0.98866140641E+03  0.72575562850E+03 -0.11624899084E+04  0.16923669597E+04  0.92469077595E+02 0.  0.
         11    1    3    3    0    0 -0.42871713176E+03  0.26324983280E+03 -0.50142163183E+03  0.71029747740E+03  0.00000000000E+00 0. -1.
        -11    1    3    3    0    0 -0.55994427465E+03  0.46250579570E+03 -0.66106827662E+03  0.98206948233E+03  0.00000000000E+00 0.  1.
         22    1    1    2    0    0  0.98866140641E+03 -0.72575562850E+03 -0.10513833780E+04  0.16154193315E+04  0.00000000000E+00 0.  1.
<mgrwt>
<rscale>  0 0.24576849E+04</rscale>
<asrwt>0</asrwt>
<pdfrwt beam="1">  1        2 0.42474303E+00 0.24576849E+04</pdfrwt>
<pdfrwt beam="2">  1       -2 0.84147157E-01 0.24576849E+04</pdfrwt>
<totfact> 0.26943312E+00</totfact>
</mgrwt>
</event>
<event>
 6    1  0.6091287E-004  0.3079734E+04  0.7818608E-02  0.8221322E-01
         -2   -1    0    0    0  501 -0.00000000000E+00  0.00000000000E+00  0.35072720154E+04  0.35072720154E+04  0.00000000000E+00 0. -1.
          2   -1    0    0  501    0  0.00000000000E+00 -0.00000000000E+00 -0.67607811919E+03  0.67607811919E+03  0.00000000000E+00 0.  1.
         23    2    1    2    0    0  0.14533495817E+03 -0.93302108087E+02  0.34934628874E+04  0.34989323162E+04  0.91743523710E+02 0.  0.
         13    1    3    3    0    0  0.14779929316E+03 -0.70345379650E+02  0.25856906084E+04  0.25908664624E+04  0.00000000000E+00 0.  1.
        -13    1    3    3    0    0 -0.24643349920E+01 -0.22956728437E+02  0.90777227905E+03  0.90806585385E+03  0.00000000000E+00 0. -1.
         22    1    1    2    0    0 -0.14533495817E+03  0.93302108087E+02 -0.66226899120E+03  0.68441781840E+03  0.00000000000E+00 0.  1.
<mgrwt>
<rscale>  0 0.30797337E+04</rscale>
<asrwt>0</asrwt>
<pdfrwt beam="1">  1        2 0.10401202E+00 0.30797337E+04</pdfrwt>
<pdfrwt beam="2">  1       -2 0.53958030E+00 0.30797337E+04</pdfrwt>
<totfact> 0.35066821E-02</totfact>
</mgrwt>
</event>
<event>
 6    1  0.6091287E-004  0.1684116E+04  0.7818608E-02  0.8770476E-01
          2   -1    0    0  501    0  0.00000000000E+00  0.00000000000E+00  0.30528948932E+04  0.30528948932E+04  0.00000000000E+00 0.  1.
         -2   -1    0    0    0  501 -0.00000000000E+00 -0.00000000000E+00 -0.23225879163E+03  0.23225879163E+03  0.00000000000E+00 0. -1.
         23    2    1    2    0    0 -0.63246041558E+03  0.19239125057E+03  0.40509593469E+03  0.78078652556E+03  0.92218824671E+02 0.  0.
         13    1    3    3    0    0 -0.26477923402E+03  0.56244358510E+02  0.21150059613E+03  0.34351706333E+03  0.00000000000E+00 0.  1.
        -13    1    3    3    0    0 -0.36768118156E+03  0.13614689206E+03  0.19359533855E+03  0.43726946223E+03  0.00000000000E+00 0. -1.
         22    1    1    2    0    0  0.63246041558E+03 -0.19239125057E+03  0.24155401669E+04  0.25043671593E+04  0.00000000000E+00 0.  1.
<mgrwt>
<rscale>  0 0.16841160E+04</rscale>
<asrwt>0</asrwt>
<pdfrwt beam="1">  1        2 0.46967611E+00 0.16841160E+04</pdfrwt>
<pdfrwt beam="2">  1       -2 0.35732124E-01 0.16841160E+04</pdfrwt>
<totfact> 0.11372438E+01</totfact>
</mgrwt>
</event>
<event>
 6    1  0.6091287E-004  0.1428625E+04  0.7818608E-02  0.8933355E-01
          2   -1    0    0  501    0  0.00000000000E+00  0.00000000000E+00  0.13264262828E+04  0.13264262828E+04  0.00000000000E+00 0.  1.
         -2   -1    0    0    0  501 -0.00000000000E+00 -0.00000000000E+00 -0.38467472926E+03  0.38467472926E+03  0.00000000000E+00 0. -1.
         23    2    1    2    0    0  0.15826131611E+03  0.21340311506E+03 -0.31775888746E+03  0.42387372650E+03  0.90059379108E+02 0.  0.
         11    1    3    3    0    0  0.48932315827E+02  0.86733425006E+02 -0.18568482099E+03  0.21070337276E+03  0.00000000000E+00 0. -1.
        -11    1    3    3    0    0  0.10932900028E+03  0.12666969006E+03 -0.13207406647E+03  0.21317035374E+03  0.00000000000E+00 0.  1.
         22    1    1    2    0    0 -0.15826131611E+03 -0.21340311506E+03  0.12595104410E+04  0.12872272856E+04  0.00000000000E+00 0.  1.
<mgrwt>
<rscale>  0 0.14286255E+04</rscale>
<asrwt>0</asrwt>
<pdfrwt beam="1">  1        2 0.20406558E+00 0.14286255E+04</pdfrwt>
<pdfrwt beam="2">  1       -2 0.59180728E-01 0.14286255E+04</pdfrwt>
<totfact> 0.41318881E+01</totfact>
</mgrwt>
</event>
<event>
 6    1  0.6091287E-004  0.1943152E+04  0.7818608E-02  0.8633670E-01
          2   -1    0    0  501    0  0.00000000000E+00  0.00000000000E+00  0.20934932258E+04  0.20934932258E+04  0.00000000000E+00 0.  1.
         -2   -1    0    0    0  501 -0.00000000000E+00 -0.00000000000E+00 -0.45090162130E+03  0.45090162130E+03  0.00000000000E+00 0. -1.
         23    2    1    2    0    0 -0.91727879162E+03 -0.15096090872E+03  0.11835559695E+04  0.15076194173E+04  0.89005601995E+02 0.  0.
         13    1    3    3    0    0 -0.32676797535E+03 -0.59796521284E+02  0.35619123774E+03  0.48705762649E+03  0.00000000000E+00 0. -1.
        -13    1    3    3    0    0 -0.59051081626E+03 -0.91164387433E+02  0.82736473172E+03  0.10205617909E+04  0.00000000000E+00 0.  1.
         22    1    1    2    0    0  0.91727879162E+03  0.15096090872E+03  0.45903563503E+03  0.10367754298E+04  0.00000000000E+00 0.  1.
<mgrwt>
<rscale>  0 0.19431516E+04</rscale>
<asrwt>0</asrwt>
<pdfrwt beam="1">  1        2 0.32207587E+00 0.19431516E+04</pdfrwt>
<pdfrwt beam="2">  1       -2 0.69369482E-01 0.19431516E+04</pdfrwt>
<totfact> 0.10485280E+01</totfact>
</mgrwt>
</event>
<event>
 6    1  0.6091287E-004  0.2158362E+04  0.7818608E-02  0.8535962E-01
          2   -1    0    0  501    0  0.00000000000E+00  0.00000000000E+00  0.79216006557E+03  0.79216006557E+03  0.00000000000E+00 0.  1.
         -2   -1    0    0    0  501 -0.00000000000E+00 -0.00000000000E+00 -0.14701967497E+04  0.14701967497E+04  0.00000000000E+00 0. -1.
         23    2    1    2    0    0 -0.42979998417E+03 -0.94780140373E+03 -0.48062760723E+02  0.10458360915E+04  0.91692823755E+02 0.  0.
         13    1    3    3    0    0 -0.28721995134E+03 -0.70280266780E+03 -0.58998299807E+01  0.75925074798E+03  0.00000000000E+00 0. -1.
        -13    1    3    3    0    0 -0.14258003283E+03 -0.24499873593E+03 -0.42162930742E+02  0.28658534348E+03  0.00000000000E+00 0.  1.
         22    1    1    2    0    0  0.42979998417E+03  0.94780140373E+03 -0.62997392344E+03  0.12165207238E+04  0.00000000000E+00 0. -1.
<mgrwt>
<rscale>  0 0.21583616E+04</rscale>
<asrwt>0</asrwt>
<pdfrwt beam="1">  1        2 0.12187078E+00 0.21583616E+04</pdfrwt>
<pdfrwt beam="2">  1       -2 0.22618411E+00 0.21583616E+04</pdfrwt>
<totfact> 0.28907035E+00</totfact>
</mgrwt>
</event>
<event>
 6    1  0.7550544E-004  0.3891022E+04  0.7818608E-02  0.8026899E-01
         -2   -1    0    0    0  501 -0.00000000000E+00  0.00000000000E+00  0.16553038594E+04  0.16553038594E+04  0.00000000000E+00 0. -1.
          2   -1    0    0  501    0  0.00000000000E+00 -0.00000000000E+00 -0.22865972085E+04  0.22865972085E+04  0.00000000000E+00 0.  1.
         23    2    1    2    0    0  0.12710341542E+04  0.97613407826E+03  0.79967571063E+03  0.17934043818E+04  0.91937340834E+02 0.  0.
         13    1    3    3    0    0  0.34951248488E+03  0.31949635066E+03  0.24799356803E+03  0.53454439007E+03  0.00000000000E+00 0. -1.
        -13    1    3    3    0    0  0.92152166937E+03  0.65663772760E+03  0.55168214260E+03  0.12588599918E+04  0.00000000000E+00 0.  1.
         22    1    1    2    0    0 -0.12710341542E+04 -0.97613407826E+03 -0.14309690598E+04  0.21484966861E+04  0.00000000000E+00 0.  1.
<mgrwt>
<rscale>  0 0.38910221E+04</rscale>
<asrwt>0</asrwt>
<pdfrwt beam="1">  1        2 0.35178418E+00 0.38910221E+04</pdfrwt>
<pdfrwt beam="2">  1       -2 0.25466213E+00 0.38910221E+04</pdfrwt>
<totfact> 0.22090706E-01</totfact>
</mgrwt>
</event>
<event>
 6    1  0.6091287E-004  0.5626293E+04  0.7818608E-02  0.7738546E-01
          1   -1    0    0  501    0  0.00000000000E+00  0.00000000000E+00  0.27347118083E+04  0.27347118083E+04  0.00000000000E+00 0.  1.
         -1   -1    0    0    0  501 -0.00000000000E+00 -0.00000000000E+00 -0.28938305156E+04  0.28938305156E+04  0.00000000000E+00 0. -1.
         23    2    1    2    0    0  0.19395286113E+04 -0.19907351502E+04 -0.50963764059E+03  0.28271745874E+04  0.91585754518E+02 0.  0.
         11    1    3    3    0    0  0.97701445922E+03 -0.10575804249E+04 -0.23831996137E+03  0.14593937141E+04  0.00000000000E+00 0. -1.
        -11    1    3    3    0    0  0.96251415211E+03 -0.93315472528E+03 -0.27131767923E+03  0.13677808733E+04  0.00000000000E+00 0.  1.
         22    1    1    2    0    0 -0.19395286113E+04  0.19907351502E+04  0.35051893336E+03  0.28013677365E+04  0.00000000000E+00 0.  1.
<mgrwt>
<rscale>  0 0.56262927E+04</rscale>
<asrwt>0</asrwt>
<pdfrwt beam="1">  1        1 0.42072489E+00 0.56262927E+04</pdfrwt>
<pdfrwt beam="2">  1       -1 0.44520470E+00 0.56262927E+04</pdfrwt>
<totfact> 0.22330935E-03</totfact>
</mgrwt>
</event>
<event>
 6    1  0.6091287E-004  0.6928191E+04  0.7818608E-02  0.7584887E-01
         -2   -1    0    0    0  501 -0.00000000000E+00  0.00000000000E+00  0.36283229561E+04  0.36283229561E+04  0.00000000000E+00 0. -1.
          2   -1    0    0  501    0  0.00000000000E+00 -0.00000000000E+00 -0.33073011826E+04  0.33073011826E+04  0.00000000000E+00 0.  1.
         23    2    1    2    0    0  0.57744277340E+03  0.24005737641E+03  0.35706651295E+04  0.36263569023E+04  0.98727985762E+02 0.  0.
         13    1    3    3    0    0  0.25182559119E+03  0.12261254965E+03  0.13363131426E+04  0.13653507904E+04  0.00000000000E+00 0.  1.
        -13    1    3    3    0    0  0.32561718221E+03  0.11744482676E+03  0.22343519869E+04  0.22610061119E+04  0.00000000000E+00 0. -1.
         22    1    1    2    0    0 -0.57744277340E+03 -0.24005737641E+03 -0.32496433561E+04  0.33092672364E+04  0.00000000000E+00 0.  1.
<mgrwt>
<rscale>  0 0.69281908E+04</rscale>
<asrwt>0</asrwt>
<pdfrwt beam="1">  1        2 0.50881556E+00 0.69281908E+04</pdfrwt>
<pdfrwt beam="2">  1       -2 0.55820353E+00 0.69281908E+04</pdfrwt>
<totfact> 0.54891412E-04</totfact>
</mgrwt>
</event>
<event>
 6    1  0.6091287E-004  0.1698004E+04  0.7818608E-02  0.8762504E-01
         -1   -1    0    0    0  501 -0.00000000000E+00  0.00000000000E+00  0.15794566635E+04  0.15794566635E+04  0.00000000000E+00 0. -1.
          1   -1    0    0  501    0  0.00000000000E+00 -0.00000000000E+00 -0.45636221318E+03  0.45636221318E+03  0.00000000000E+00 0.  1.
         23    2    1    2    0    0  0.14793097050E+03 -0.65698725100E+03 -0.51858547341E+02  0.68155510374E+03  0.91171434652E+02 0.  0.
         13    1    3    3    0    0  0.79319249231E+02 -0.37957042912E+03 -0.74584621544E+02  0.39487734771E+03  0.00000000000E+00 0.  1.
        -13    1    3    3    0    0  0.68611721268E+02 -0.27741682187E+03  0.22726074203E+02  0.28667775603E+03  0.00000000000E+00 0. -1.
         22    1    1    2    0    0 -0.14793097050E+03  0.65698725100E+03  0.11749529977E+04  0.13542637729E+04  0.00000000000E+00 0. -1.
<mgrwt>
<rscale>  0 0.16980039E+04</rscale>
<asrwt>0</asrwt>
<pdfrwt beam="1">  1        1 0.70209572E-01 0.16980039E+04</pdfrwt>
<pdfrwt beam="2">  1       -1 0.24299333E+00 0.16980039E+04</pdfrwt>
<totfact> 0.37053349E+00</totfact>
</mgrwt>
</event>
<event>
 6    1  0.6091287E-004  0.1644309E+04  0.7818608E-02  0.8793780E-01
          2   -1    0    0  501    0  0.00000000000E+00  0.00000000000E+00  0.13509689584E+04  0.13509689584E+04  0.00000000000E+00 0.  1.
         -2   -1    0    0    0  501 -0.00000000000E+00 -0.00000000000E+00 -0.50033560149E+03  0.50033560149E+03  0.00000000000E+00 0. -1.
         23    2    1    2    0    0  0.67166395523E+03  0.46586783004E+03  0.35700674318E+03  0.89640533084E+03  0.89013474616E+02 0.  0.
         13    1    3    3    0    0  0.15530640170E+03  0.14140119343E+03  0.62226665241E+02  0.21905828854E+03  0.00000000000E+00 0. -1.
        -13    1    3    3    0    0  0.51635755353E+03  0.32446663661E+03  0.29478007794E+03  0.67734704230E+03  0.00000000000E+00 0.  1.
         22    1    1    2    0    0 -0.67166395523E+03 -0.46586783004E+03  0.49362661369E+03  0.95489922901E+03  0.00000000000E+00 0.  1.
<mgrwt>
<rscale>  0 0.16443088E+04</rscale>
<asrwt>0</asrwt>
<pdfrwt beam="1">  1        2 0.20784138E+00 0.16443088E+04</pdfrwt>
<pdfrwt beam="2">  1       -2 0.76974708E-01 0.16443088E+04</pdfrwt>
<totfact> 0.22241299E+01</totfact>
</mgrwt>
</event>
<event>
 6    1  0.6091287E-004  0.3604968E+04  0.7818608E-02  0.8089355E-01
         -2   -1    0    0    0  501 -0.00000000000E+00  0.00000000000E+00  0.13062526037E+04  0.13062526037E+04  0.00000000000E+00 0. -1.
          2   -1    0    0  501    0  0.00000000000E+00 -0.00000000000E+00 -0.24872278372E+04  0.24872278372E+04  0.00000000000E+00 0.  1.
         23    2    1    2    0    0 -0.17669560307E+04  0.30921253329E+03 -0.76523345072E+03  0.19521257128E+04  0.86409252926E+02 0.  0.
         11    1    3    3    0    0 -0.11242687719E+04  0.15770893380E+03 -0.50123100646E+03  0.12410015718E+04  0.00000000000E+00 0. -1.
        -11    1    3    3    0    0 -0.64268725881E+03  0.15150359950E+03 -0.26400244426E+03  0.71112414097E+03  0.00000000000E+00 0.  1.
         22    1    1    2    0    0  0.17669560307E+04 -0.30921253329E+03 -0.41574178278E+03  0.18413547282E+04  0.00000000000E+00 0.  1.
<mgrwt>
<rscale>  0 0.36049676E+04</rscale>
<asrwt>0</asrwt>
<pdfrwt beam="1">  1        2 0.38265043E+00 0.36049676E+04</pdfrwt>
<pdfrwt beam="2">  1       -2 0.20096194E+00 0.36049676E+04</pdfrwt>
<totfact> 0.37811414E-01</totfact>
</mgrwt>
</event>
<event>
 6    1  0.6091287E-004  0.2894422E+04  0.7818608E-02  0.8274539E-01
         -2   -1    0    0    0  501 -0.00000000000E+00  0.00000000000E+00  0.14647042801E+04  0.14647042801E+04  0.00000000000E+00 0. -1.
          2   -1    0    0  501    0  0.00000000000E+00 -0.00000000000E+00 -0.14299268007E+04  0.14299268007E+04  0.00000000000E+00 0.  1.
         23    2    1    2    0    0 -0.13973788573E+04  0.32851346161E+03 -0.15565638380E+03  0.14465793478E+04  0.88171051479E+02 0.  0.
         13    1    3    3    0    0 -0.56121911600E+03  0.87870952041E+02 -0.65660839074E+02  0.57183874140E+03  0.00000000000E+00 0. -1.
        -13    1    3    3    0    0 -0.83615974129E+03  0.24064250957E+03 -0.89995544723E+02  0.87474060637E+03  0.00000000000E+00 0.  1.
         22    1    1    2    0    0  0.13973788573E+04 -0.32851346161E+03  0.19043386318E+03  0.14480517330E+04  0.00000000000E+00 0. -1.
<mgrwt>
<rscale>  0 0.28944222E+04</rscale>
<asrwt>0</asrwt>
<pdfrwt beam="1">  1        2 0.21998874E+00 0.28944222E+04</pdfrwt>
<pdfrwt beam="2">  1       -2 0.22533912E+00 0.28944222E+04</pdfrwt>
<totfact> 0.10986052E+00</totfact>
</mgrwt>
</event>
<event>
 6    1  0.6091287E-004  0.3235639E+04  0.7818608E-02  0.8179468E-01
          2   -1    0    0  501    0  0.00000000000E+00  0.00000000000E+00  0.17796331078E+04  0.17796331078E+04  0.00000000000E+00 0.  1.
         -2   -1    0    0    0  501 -0.00000000000E+00 -0.00000000000E+00 -0.14707187095E+04  0.14707187095E+04  0.00000000000E+00 0. -1.
         23    2    1    2    0    0  0.14132108942E+04  0.14687505656E+03  0.92909437979E+03  0.17000742541E+04  0.91097690028E+02 0.  0.
         13    1    3    3    0    0  0.50401978486E+03  0.95529741748E+02  0.34483277033E+03  0.61811933684E+03  0.00000000000E+00 0.  1.
        -13    1    3    3    0    0  0.90919110932E+03  0.51345314816E+02  0.58426160947E+03  0.10819549172E+04  0.00000000000E+00 0. -1.
         22    1    1    2    0    0 -0.14132108942E+04 -0.14687505656E+03 -0.62017998150E+03  0.15502775633E+04  0.00000000000E+00 0. -1.
<mgrwt>
<rscale>  0 0.32356389E+04</rscale>
<asrwt>0</asrwt>
<pdfrwt beam="1">  1        2 0.27378971E+00 0.32356389E+04</pdfrwt>
<pdfrwt beam="2">  1       -2 0.22626442E+00 0.32356389E+04</pdfrwt>
<totfact> 0.67103868E-01</totfact>
</mgrwt>
</event>
<event>
 6    1  0.9293612E-004  0.4758902E+04  0.7818608E-02  0.7866815E-01
         -2   -1    0    0    0  501 -0.00000000000E+00  0.00000000000E+00  0.18135133742E+04  0.18135133742E+04  0.00000000000E+00 0. -1.
          2   -1    0    0  501    0  0.00000000000E+00 -0.00000000000E+00 -0.31219984781E+04  0.31219984781E+04  0.00000000000E+00 0.  1.
         23    2    1    2    0    0  0.29362138884E+03  0.22354471405E+04 -0.14403701981E+04  0.26770098895E+04  0.90984630672E+02 0.  0.
         13    1    3    3    0    0  0.11688039547E+03  0.11019871852E+04 -0.66487859737E+03  0.12923236176E+04  0.00000000000E+00 0. -1.
        -13    1    3    3    0    0  0.17674099336E+03  0.11334599552E+04 -0.77549160070E+03  0.13846862719E+04  0.00000000000E+00 0.  1.
         22    1    1    2    0    0 -0.29362138884E+03 -0.22354471405E+04  0.13188509424E+03  0.22585019628E+04  0.00000000000E+00 0.  1.
<mgrwt>
<rscale>  0 0.47589016E+04</rscale>
<asrwt>0</asrwt>
<pdfrwt beam="1">  1        2 0.48030745E+00 0.47589016E+04</pdfrwt>
<pdfrwt beam="2">  1       -2 0.27900206E+00 0.47589016E+04</pdfrwt>
<totfact> 0.46132144E-02</totfact>
</mgrwt>
</event>
<event>
 6    1  0.6091287E-004  0.2389358E+04  0.7818608E-02  0.8443499E-01
         -2   -1    0    0    0  501 -0.00000000000E+00  0.00000000000E+00  0.10534941283E+04  0.10534941283E+04  0.00000000000E+00 0. -1.
          2   -1    0    0  501    0  0.00000000000E+00 -0.00000000000E+00 -0.13547843991E+04  0.13547843991E+04  0.00000000000E+00 0.  1.
         23    2    1    2    0    0 -0.10011077550E+04 -0.60184122381E+03 -0.39482995680E+03  0.12364512071E+04  0.92148233453E+02 0.  0.
         13    1    3    3    0    0 -0.80477344696E+03 -0.51984423274E+03 -0.30442876647E+03  0.10052736946E+04  0.00000000000E+00 0. -1.
        -13    1    3    3    0    0 -0.19633430800E+03 -0.81996991065E+02 -0.90401190328E+02  0.23117751243E+03  0.00000000000E+00 0.  1.
         22    1    1    2    0    0  0.10011077550E+04  0.60184122381E+03  0.93539686020E+02  0.11718273203E+04  0.00000000000E+00 0.  1.
<mgrwt>
<rscale>  0 0.23893576E+04</rscale>
<asrwt>0</asrwt>
<pdfrwt beam="1">  1        2 0.20842837E+00 0.23893576E+04</pdfrwt>
<pdfrwt beam="2">  1       -2 0.16207602E+00 0.23893576E+04</pdfrwt>
<totfact> 0.33629514E+00</totfact>
</mgrwt>
</event>
<event>
 6    1  0.6091287E-004  0.2785140E+04  0.7818608E-02  0.8307897E-01
         -2   -1    0    0    0  501 -0.00000000000E+00  0.00000000000E+00  0.14883090640E+04  0.14883090640E+04  0.00000000000E+00 0. -1.
          2   -1    0    0  501    0  0.00000000000E+00 -0.00000000000E+00 -0.13029893932E+04  0.13029893932E+04  0.00000000000E+00 0.  1.
         23    2    1    2    0    0  0.65242396511E+03  0.53271996392E+03  0.12022505266E+04  0.14708455213E+04  0.92372229385E+02 0.  0.
         13    1    3    3    0    0  0.50128815068E+03  0.42992378407E+03  0.99840590727E+03  0.11970541449E+04  0.00000000000E+00 0. -1.
        -13    1    3    3    0    0  0.15113581443E+03  0.10279617985E+03  0.20384461930E+03  0.27379137644E+03  0.00000000000E+00 0.  1.
         22    1    1    2    0    0 -0.65242396511E+03 -0.53271996392E+03 -0.10169308558E+04  0.13204529358E+04  0.00000000000E+00 0.  1.
<mgrwt>
<rscale>  0 0.27851398E+04</rscale>
<asrwt>0</asrwt>
<pdfrwt beam="1">  1        2 0.20045991E+00 0.27851398E+04</pdfrwt>
<pdfrwt beam="2">  1       -2 0.22897063E+00 0.27851398E+04</pdfrwt>
<totfact> 0.12448285E+00</totfact>
</mgrwt>
</event>
<event>
 6    1  0.6091287E-004  0.3194324E+04  0.7818608E-02  0.8190318E-01
         -2   -1    0    0    0  501 -0.00000000000E+00  0.00000000000E+00  0.93072273426E+03  0.93072273426E+03  0.00000000000E+00 0. -1.
          2   -1    0    0  501    0  0.00000000000E+00 -0.00000000000E+00 -0.27408016837E+04  0.27408016837E+04  0.00000000000E+00 0.  1.
         23    2    1    2    0    0  0.50422109304E+03 -0.84931378893E+03 -0.23466502771E+04  0.25474774384E+04  0.85445616928E+02 0.  0.
         11    1    3    3    0    0  0.24121194969E+03 -0.45499218861E+03 -0.11325489851E+04  0.12441335539E+04  0.00000000000E+00 0. -1.
        -11    1    3    3    0    0  0.26300914335E+03 -0.39432160032E+03 -0.12141012920E+04  0.13033438844E+04  0.00000000000E+00 0.  1.
         22    1    1    2    0    0 -0.50422109304E+03  0.84931378893E+03  0.53657132761E+03  0.11240469796E+04  0.00000000000E+00 0. -1.
<mgrwt>
<rscale>  0 0.31943240E+04</rscale>
<asrwt>0</asrwt>
<pdfrwt beam="1">  1        2 0.42166180E+00 0.31943240E+04</pdfrwt>
<pdfrwt beam="2">  1       -2 0.14318811E+00 0.31943240E+04</pdfrwt>
<totfact> 0.71594601E-01</totfact>
</mgrwt>
</event>
<event>
 6    1  0.6091287E-004  0.1847113E+04  0.7818608E-02  0.8681639E-01
         -2   -1    0    0    0  501 -0.00000000000E+00  0.00000000000E+00  0.93407443619E+03  0.93407443619E+03  0.00000000000E+00 0. -1.
          2   -1    0    0  501    0  0.00000000000E+00 -0.00000000000E+00 -0.91315655532E+03  0.91315655532E+03  0.00000000000E+00 0.  1.
         23    2    1    2    0    0  0.15528170678E+03  0.72746375799E+03  0.55351392274E+03  0.93236790259E+03  0.98062813863E+02 0.  0.
         11    1    3    3    0    0  0.66854845574E+02  0.41097908062E+03  0.25396785300E+03  0.48772230362E+03  0.00000000000E+00 0. -1.
        -11    1    3    3    0    0  0.88426861204E+02  0.31648467737E+03  0.29954606974E+03  0.44464559898E+03  0.00000000000E+00 0.  1.
         22    1    1    2    0    0 -0.15528170678E+03 -0.72746375799E+03 -0.53259604187E+03  0.91486308892E+03  0.00000000000E+00 0.  1.
<mgrwt>
<rscale>  0 0.18471126E+04</rscale>
<asrwt>0</asrwt>
<pdfrwt beam="1">  1        2 0.14048562E+00 0.18471126E+04</pdfrwt>
<pdfrwt beam="2">  1       -2 0.14370376E+00 0.18471126E+04</pdfrwt>
<totfact> 0.90631087E+00</totfact>
</mgrwt>
</event>
<event>
 6    1  0.6091287E-004  0.2029132E+04  0.7818608E-02  0.8593120E-01
         -2   -1    0    0    0  501 -0.00000000000E+00  0.00000000000E+00  0.88899871066E+03  0.88899871066E+03  0.00000000000E+00 0. -1.
          2   -1    0    0  501    0  0.00000000000E+00 -0.00000000000E+00 -0.11578689011E+04  0.11578689011E+04  0.00000000000E+00 0.  1.
         23    2    1    2    0    0 -0.92631480451E+03 -0.33450068920E+03 -0.37184540155E+03  0.10566384856E+04  0.90917866388E+02 0.  0.
         13    1    3    3    0    0 -0.35211200092E+03 -0.10519013951E+03 -0.97461289257E+02  0.38019275315E+03  0.00000000000E+00 0.  1.
        -13    1    3    3    0    0 -0.57420280359E+03 -0.22931054969E+03 -0.27438411229E+03  0.67644573243E+03  0.00000000000E+00 0. -1.
         22    1    1    2    0    0  0.92631480451E+03  0.33450068920E+03  0.10297521115E+03  0.99022912613E+03  0.00000000000E+00 0.  1.
<mgrwt>
<rscale>  0 0.20291318E+04</rscale>
<asrwt>0</asrwt>
<pdfrwt beam="1">  1        2 0.17813368E+00 0.20291318E+04</pdfrwt>
<pdfrwt beam="2">  1       -2 0.13676903E+00 0.20291318E+04</pdfrwt>
<totfact> 0.71024399E+00</totfact>
</mgrwt>
</event>
<event>
 6    1  0.6091287E-004  0.4562628E+04  0.7818608E-02  0.7899763E-01
          2   -1    0    0  501    0  0.00000000000E+00  0.00000000000E+00  0.27396029567E+04  0.27396029567E+04  0.00000000000E+00 0.  1.
         -2   -1    0    0    0  501 -0.00000000000E+00 -0.00000000000E+00 -0.18996887239E+04  0.18996887239E+04  0.00000000000E+00 0. -1.
         23    2    1    2    0    0  0.10389801692E+04 -0.19763567901E+04  0.89123436624E+03  0.24058862741E+04  0.92326130998E+02 0.  0.
         11    1    3    3    0    0  0.22668587676E+03 -0.38883274981E+03  0.14617220288E+03  0.47322690852E+03  0.00000000000E+00 0. -1.
        -11    1    3    3    0    0  0.81229429244E+03 -0.15875240403E+04  0.74506216336E+03  0.19326593655E+04  0.00000000000E+00 0.  1.
         22    1    1    2    0    0 -0.10389801692E+04  0.19763567901E+04 -0.51320133469E+02  0.22334054065E+04  0.00000000000E+00 0. -1.
<mgrwt>
<rscale>  0 0.45626277E+04</rscale>
<asrwt>0</asrwt>
<pdfrwt beam="1">  1        2 0.42147738E+00 0.45626277E+04</pdfrwt>
<pdfrwt beam="2">  1       -2 0.29225980E+00 0.45626277E+04</pdfrwt>
<totfact> 0.67182991E-02</totfact>
</mgrwt>
</event>
<event>
 6    1  0.6091287E-004  0.2788573E+04  0.7818608E-02  0.8306825E-01
          2   -1    0    0  501    0  0.00000000000E+00  0.00000000000E+00  0.19230973063E+04  0.19230973063E+04  0.00000000000E+00 0.  1.
         -2   -1    0    0    0  501 -0.00000000000E+00 -0.00000000000E+00 -0.10108873740E+04  0.10108873740E+04  0.00000000000E+00 0. -1.
         23    2    1    2    0    0 -0.93641432213E+03  0.55092784586E+03 -0.46081786357E+03  0.11830995892E+04  0.83535984177E+02 0.  0.
         13    1    3    3    0    0 -0.54626145206E+03  0.36840897195E+03 -0.28408435275E+03  0.71751701311E+03  0.00000000000E+00 0. -1.
        -13    1    3    3    0    0 -0.39015287006E+03  0.18251887391E+03 -0.17673351082E+03  0.46558257613E+03  0.00000000000E+00 0.  1.
         22    1    1    2    0    0  0.93641432213E+03 -0.55092784586E+03  0.13730277959E+04  0.17508850911E+04  0.00000000000E+00 0.  1.
<mgrwt>
<rscale>  0 0.27885730E+04</rscale>
<asrwt>0</asrwt>
<pdfrwt beam="1">  1        2 0.29586112E+00 0.27885730E+04</pdfrwt>
<pdfrwt beam="2">  1       -2 0.15552113E+00 0.27885730E+04</pdfrwt>
<totfact> 0.17470917E+00</totfact>
</mgrwt>
</event>
<event>
 6    1  0.6091287E-004  0.3470843E+04  0.7818608E-02  0.8120735E-01
         -2   -1    0    0    0  501 -0.00000000000E+00  0.00000000000E+00  0.14428430697E+04  0.14428430697E+04  0.00000000000E+00 0. -1.
          2   -1    0    0  501    0  0.00000000000E+00 -0.00000000000E+00 -0.20873285544E+04  0.20873285544E+04  0.00000000000E+00 0.  1.
         23    2    1    2    0    0 -0.13332001746E+04 -0.37223573517E+03  0.74015297057E+03  0.15723141727E+04  0.91451023575E+02 0.  0.
         13    1    3    3    0    0 -0.70681435716E+03 -0.24466123762E+03  0.40025870525E+03  0.84832345707E+03  0.00000000000E+00 0.  1.
        -13    1    3    3    0    0 -0.62638581741E+03 -0.12757449755E+03  0.33989426532E+03  0.72399071561E+03  0.00000000000E+00 0. -1.
         22    1    1    2    0    0  0.13332001746E+04  0.37223573517E+03 -0.13846384554E+04  0.19578574514E+04  0.00000000000E+00 0.  1.
<mgrwt>
<rscale>  0 0.34708429E+04</rscale>
<asrwt>0</asrwt>
<pdfrwt beam="1">  1        2 0.32112747E+00 0.34708429E+04</pdfrwt>
<pdfrwt beam="2">  1       -2 0.22197586E+00 0.34708429E+04</pdfrwt>
<totfact> 0.47242951E-01</totfact>
</mgrwt>
</event>
<event>
 6    1  0.6091287E-004  0.2325012E+04  0.7818608E-02  0.8468124E-01
          2   -1    0    0  501    0  0.00000000000E+00  0.00000000000E+00  0.13100435669E+04  0.13100435669E+04  0.00000000000E+00 0.  1.
         -2   -1    0    0    0  501 -0.00000000000E+00 -0.00000000000E+00 -0.10315837771E+04  0.10315837771E+04  0.00000000000E+00 0. -1.
         23    2    1    2    0    0  0.75282791192E+03  0.53374108017E+03  0.84847562361E+03  0.12569396210E+04  0.91416198958E+02 0.  0.
         13    1    3    3    0    0  0.32521436571E+03  0.28575210808E+03  0.40607529195E+03  0.59356195437E+03  0.00000000000E+00 0. -1.
        -13    1    3    3    0    0  0.42761354621E+03  0.24798897209E+03  0.44240033165E+03  0.66337766666E+03  0.00000000000E+00 0.  1.
         22    1    1    2    0    0 -0.75282791192E+03 -0.53374108017E+03 -0.57001583383E+03  0.10846877230E+04  0.00000000000E+00 0. -1.
<mgrwt>
<rscale>  0 0.23250116E+04</rscale>
<asrwt>0</asrwt>
<pdfrwt beam="1">  1        2 0.20154516E+00 0.23250116E+04</pdfrwt>
<pdfrwt beam="2">  1       -2 0.15870520E+00 0.23250116E+04</pdfrwt>
<totfact> 0.38006389E+00</totfact>
</mgrwt>
</event>
<event>
 6    1  0.6091287E-004  0.1399938E+04  0.7818608E-02  0.8953864E-01
          2   -1    0    0  501    0  0.00000000000E+00  0.00000000000E+00  0.10822298971E+04  0.10822298971E+04  0.00000000000E+00 0.  1.
         -2   -1    0    0    0  501 -0.00000000000E+00 -0.00000000000E+00 -0.45272864576E+03  0.45272864576E+03  0.00000000000E+00 0. -1.
         23    2    1    2    0    0  0.29452518964E+03  0.19204295559E+03  0.97538726250E+03  0.10417418392E+04  0.10109482460E+03 0.  0.
         11    1    3    3    0    0  0.15708663087E+03  0.54882999018E+02  0.36328204927E+03  0.39957752753E+03  0.00000000000E+00 0. -1.
        -11    1    3    3    0    0  0.13743855877E+03  0.13715995657E+03  0.61210521323E+03  0.64216431167E+03  0.00000000000E+00 0.  1.
         22    1    1    2    0    0 -0.29452518964E+03 -0.19204295559E+03 -0.34588601113E+03  0.49321670371E+03  0.00000000000E+00 0. -1.
<mgrwt>
<rscale>  0 0.13999378E+04</rscale>
<asrwt>0</asrwt>
<pdfrwt beam="1">  1        2 0.16649691E+00 0.13999378E+04</pdfrwt>
<pdfrwt beam="2">  1       -2 0.69650561E-01 0.13999378E+04</pdfrwt>
<totfact> 0.40882168E+01</totfact>
</mgrwt>
</event>
<event>
 6    1  0.6091287E-004  0.2738304E+04  0.7818608E-02  0.8322682E-01
         -2   -1    0    0    0  501 -0.00000000000E+00  0.00000000000E+00  0.13335337263E+04  0.13335337263E+04  0.00000000000E+00 0. -1.
          2   -1    0    0  501    0  0.00000000000E+00 -0.00000000000E+00 -0.14057221372E+04  0.14057221372E+04  0.00000000000E+00 0.  1.
         23    2    1    2    0    0 -0.69130957705E+03  0.28047888831E+03 -0.11828019527E+04  0.14013321820E+04  0.90189173120E+02 0.  0.
         13    1    3    3    0    0 -0.43711278008E+03  0.17426752737E+03 -0.66278528193E+03  0.81284751556E+03  0.00000000000E+00 0.  1.
        -13    1    3    3    0    0 -0.25419679696E+03  0.10621136095E+03 -0.52001667079E+03  0.58848466648E+03  0.00000000000E+00 0. -1.
         22    1    1    2    0    0  0.69130957705E+03 -0.28047888831E+03  0.11106135419E+04  0.13379236815E+04  0.00000000000E+00 0. -1.
<mgrwt>
<rscale>  0 0.27383045E+04</rscale>
<asrwt>0</asrwt>
<pdfrwt beam="1">  1        2 0.21626494E+00 0.27383045E+04</pdfrwt>
<pdfrwt beam="2">  1       -2 0.20515903E+00 0.27383045E+04</pdfrwt>
<totfact> 0.15458662E+00</totfact>
</mgrwt>
</event>
<event>
 6    1  0.6091287E-004  0.3641110E+04  0.7818608E-02  0.8081139E-01
          2   -1    0    0  501    0  0.00000000000E+00  0.00000000000E+00  0.41434508543E+04  0.41434508543E+04  0.00000000000E+00 0.  1.
         -2   -1    0    0    0  501 -0.00000000000E+00 -0.00000000000E+00 -0.79991796481E+03  0.79991796481E+03  0.00000000000E+00 0. -1.
         23    2    1    2    0    0 -0.70643171641E+03  0.12833183495E+04  0.31372985820E+04  0.34640161412E+04  0.10398883411E+03 0.  0.
         13    1    3    3    0    0 -0.39020202965E+03  0.78035649595E+03  0.19543586659E+04  0.21402643948E+04  0.00000000000E+00 0.  1.
        -13    1    3    3    0    0 -0.31622968675E+03  0.50296185351E+03  0.11829399161E+04  0.13237517464E+04  0.00000000000E+00 0. -1.
         22    1    1    2    0    0  0.70643171641E+03 -0.12833183495E+04  0.20623430743E+03  0.14793526779E+04  0.00000000000E+00 0. -1.
<mgrwt>
<rscale>  0 0.36411101E+04</rscale>
<asrwt>0</asrwt>
<pdfrwt beam="1">  1        2 0.63745396E+00 0.36411101E+04</pdfrwt>
<pdfrwt beam="2">  1       -2 0.12306431E+00 0.36411101E+04</pdfrwt>
<totfact> 0.10495726E-01</totfact>
</mgrwt>
</event>
<event>
 6    1  0.6091287E-004  0.1168770E+04  0.7818608E-02  0.9140640E-01
          2   -1    0    0  501    0  0.00000000000E+00  0.00000000000E+00  0.35610796017E+03  0.35610796017E+03  0.00000000000E+00 0.  1.
         -2   -1    0    0    0  501 -0.00000000000E+00 -0.00000000000E+00 -0.95899574385E+03  0.95899574385E+03  0.00000000000E+00 0. -1.
         23    2    1    2    0    0 -0.30427491088E+03  0.42330171908E+03 -0.59139400840E+03  0.79366370398E+03  0.91584032876E+02 0.  0.
         11    1    3    3    0    0 -0.17443177753E+03  0.29074701790E+03 -0.33027263069E+03  0.47332893849E+03  0.00000000000E+00 0. -1.
        -11    1    3    3    0    0 -0.12984313335E+03  0.13255470117E+03 -0.26112137772E+03  0.32033476549E+03  0.00000000000E+00 0.  1.
         22    1    1    2    0    0  0.30427491088E+03 -0.42330171908E+03 -0.11493775276E+02  0.52144000003E+03  0.00000000000E+00 0.  1.
<mgrwt>
<rscale>  0 0.11687703E+04</rscale>
<asrwt>0</asrwt>
<pdfrwt beam="1">  1        2 0.54785841E-01 0.11687703E+04</pdfrwt>
<pdfrwt beam="2">  1       -2 0.14753780E+00 0.11687703E+04</pdfrwt>
<totfact> 0.28022093E+01</totfact>
</mgrwt>
</event>
<event>
 6    1  0.6091287E-004  0.1374447E+04  0.7818608E-02  0.8972526E-01
          2   -1    0    0  501    0  0.00000000000E+00  0.00000000000E+00  0.86661575709E+03  0.86661575709E+03  0.00000000000E+00 0.  1.
         -2   -1    0    0    0  501 -0.00000000000E+00 -0.00000000000E+00 -0.54496576074E+03  0.54496576074E+03  0.00000000000E+00 0. -1.
         23    2    1    2    0    0 -0.20932492413E+03 -0.64216967559E+03  0.49945843465E+02  0.68355544494E+03  0.92491312656E+02 0.  0.
         11    1    3    3    0    0 -0.75798636437E+02 -0.31273905751E+03 -0.15287209980E+02  0.32215656158E+03  0.00000000000E+00 0.  1.
        -11    1    3    3    0    0 -0.13352628770E+03 -0.32943061808E+03  0.65233053445E+02  0.36139888337E+03  0.00000000000E+00 0. -1.
         22    1    1    2    0    0  0.20932492413E+03  0.64216967559E+03  0.27170415288E+03  0.72802607289E+03  0.00000000000E+00 0.  1.
<mgrwt>
<rscale>  0 0.13744467E+04</rscale>
<asrwt>0</asrwt>
<pdfrwt beam="1">  1        2 0.13332550E+00 0.13744467E+04</pdfrwt>
<pdfrwt beam="2">  1       -2 0.83840886E-01 0.13744467E+04</pdfrwt>
<totfact> 0.37476338E+01</totfact>
</mgrwt>
</event>
<event>
 6    1  0.6091287E-004  0.1580146E+04  0.7818608E-02  0.8832839E-01
          2   -1    0    0  501    0  0.00000000000E+00  0.00000000000E+00  0.94492272882E+03  0.94492272882E+03  0.00000000000E+00 0.  1.
         -2   -1    0    0    0  501 -0.00000000000E+00 -0.00000000000E+00 -0.66059930915E+03  0.66059930915E+03  0.00000000000E+00 0. -1.
         23    2    1    2    0    0  0.78683854703E+03  0.20066434440E+01  0.11440029181E+03  0.80054204127E+03  0.93065607896E+02 0.  0.
         11    1    3    3    0    0  0.65320294457E+03  0.24740162766E+02  0.67700268999E+02  0.65716777833E+03  0.00000000000E+00 0. -1.
        -11    1    3    3    0    0  0.13363560245E+03 -0.22733519322E+02  0.46700022807E+02  0.14337426294E+03  0.00000000000E+00 0.  1.
         22    1    1    2    0    0 -0.78683854703E+03 -0.20066434440E+01  0.16992312786E+03  0.80497999670E+03  0.00000000000E+00 0.  1.
<mgrwt>
<rscale>  0 0.15801459E+04</rscale>
<asrwt>0</asrwt>
<pdfrwt beam="1">  1        2 0.14537273E+00 0.15801459E+04</pdfrwt>
<pdfrwt beam="2">  1       -2 0.10163066E+00 0.15801459E+04</pdfrwt>
<totfact> 0.20888291E+01</totfact>
</mgrwt>
</event>
<event>
 6    1  0.6091287E-004  0.2493788E+04  0.7818608E-02  0.8405202E-01
          2   -1    0    0  501    0  0.00000000000E+00  0.00000000000E+00  0.60737294745E+03  0.60737294745E+03  0.00000000000E+00 0.  1.
         -2   -1    0    0    0  501 -0.00000000000E+00 -0.00000000000E+00 -0.25597857698E+04  0.25597857698E+04  0.00000000000E+00 0. -1.
         23    2    1    2    0    0 -0.41327173183E+03 -0.11742042105E+04 -0.10171094192E+04  0.16101290103E+04  0.91950023872E+02 0.  0.
         13    1    3    3    0    0 -0.19048159074E+03 -0.67244468775E+03 -0.55208994430E+03  0.89065616323E+03  0.00000000000E+00 0. -1.
        -13    1    3    3    0    0 -0.22279014109E+03 -0.50175952276E+03 -0.46501947495E+03  0.71947284711E+03  0.00000000000E+00 0.  1.
         22    1    1    2    0    0  0.41327173183E+03  0.11742042105E+04 -0.93530340309E+03  0.15570297069E+04  0.00000000000E+00 0.  1.
<mgrwt>
<rscale>  0 0.24937880E+04</rscale>
<asrwt>0</asrwt>
<pdfrwt beam="1">  1        2 0.93441993E-01 0.24937880E+04</pdfrwt>
<pdfrwt beam="2">  1       -2 0.39381319E+00 0.24937880E+04</pdfrwt>
<totfact> 0.35535526E-01</totfact>
</mgrwt>
</event>
<event>
 6    1  0.6091287E-004  0.5688842E+03  0.7818608E-02  0.9972151E-01
         -2   -1    0    0    0  501 -0.00000000000E+00  0.00000000000E+00  0.16287466724E+03  0.16287466724E+03  0.00000000000E+00 0. -1.
          2   -1    0    0  501    0  0.00000000000E+00 -0.00000000000E+00 -0.49674588308E+03  0.49674588308E+03  0.00000000000E+00 0.  1.
         23    2    1    2    0    0 -0.37136888207E+02 -0.18955552523E+03 -0.40169314102E+03  0.45490059734E+03  0.90921550262E+02 0.  0.
         11    1    3    3    0    0 -0.36693729209E+02 -0.76306806602E+02 -0.91425054721E+02  0.12461018870E+03  0.00000000000E+00 0.  1.
        -11    1    3    3    0    0 -0.44315899874E+00 -0.11324871863E+03 -0.31026808630E+03  0.33029040864E+03  0.00000000000E+00 0. -1.
         22    1    1    2    0    0  0.37136888207E+02  0.18955552523E+03  0.67821925178E+02  0.20471995298E+03  0.00000000000E+00 0. -1.
<mgrwt>
<rscale>  0 0.56888424E+03</rscale>
<asrwt>0</asrwt>
<pdfrwt beam="1">  1        2 0.76422443E-01 0.56888424E+03</pdfrwt>
<pdfrwt beam="2">  1       -2 0.25057641E-01 0.56888424E+03</pdfrwt>
<totfact> 0.88909105E+02</totfact>
</mgrwt>
</event>
<event>
 6    1  0.6091287E-004  0.1171543E+04  0.7818608E-02  0.9138136E-01
         -2   -1    0    0    0  501 -0.00000000000E+00  0.00000000000E+00  0.10307834607E+03  0.10307834607E+03  0.00000000000E+00 0. -1.
          2   -1    0    0  501    0  0.00000000000E+00 -0.00000000000E+00 -0.33288115178E+04  0.33288115178E+04  0.00000000000E+00 0.  1.
         23    2    1    2    0    0  0.93521129948E+02 -0.40962106302E+03 -0.28031524709E+04  0.28359787415E+04  0.92606858144E+02 0.  0.
         13    1    3    3    0    0  0.75458740839E+02 -0.17079756839E+03 -0.14230823312E+04  0.14352801651E+04  0.00000000000E+00 0. -1.
        -13    1    3    3    0    0  0.18062389108E+02 -0.23882349463E+03 -0.13800701397E+04  0.14006985764E+04  0.00000000000E+00 0.  1.
         22    1    1    2    0    0 -0.93521129948E+02  0.40962106302E+03 -0.42258070076E+03  0.59591112229E+03  0.00000000000E+00 0. -1.
<mgrwt>
<rscale>  0 0.11715432E+04</rscale>
<asrwt>0</asrwt>
<pdfrwt beam="1">  1        2 0.51212472E+00 0.11715432E+04</pdfrwt>
<pdfrwt beam="2">  1       -2 0.15858211E-01 0.11715432E+04</pdfrwt>
<totfact> 0.34428531E+01</totfact>
</mgrwt>
</event>
<event>
 6    1  0.6091287E-004  0.1530352E+04  0.7818608E-02  0.8864517E-01
          2   -1    0    0  501    0  0.00000000000E+00  0.00000000000E+00  0.15750051925E+04  0.15750051925E+04  0.00000000000E+00 0.  1.
         -2   -1    0    0    0  501 -0.00000000000E+00 -0.00000000000E+00 -0.37174097680E+03  0.37174097680E+03  0.00000000000E+00 0. -1.
         23    2    1    2    0    0 -0.62402722499E+03 -0.35145263961E+02  0.11592838122E+04  0.13201845658E+04  0.91121694703E+02 0.  0.
         11    1    3    3    0    0 -0.27532760454E+03  0.28511534314E+02  0.48626014797E+03  0.55952401996E+03  0.00000000000E+00 0.  1.
        -11    1    3    3    0    0 -0.34869962045E+03 -0.63656798275E+02  0.67302366426E+03  0.76066054579E+03  0.00000000000E+00 0. -1.
         22    1    1    2    0    0  0.62402722499E+03  0.35145263961E+02  0.43980403440E+02  0.62656160351E+03  0.00000000000E+00 0.  1.
<mgrwt>
<rscale>  0 0.15303516E+04</rscale>
<asrwt>0</asrwt>
<pdfrwt beam="1">  1        2 0.24230849E+00 0.15303516E+04</pdfrwt>
<pdfrwt beam="2">  1       -2 0.57190920E-01 0.15303516E+04</pdfrwt>
<totfact> 0.31807746E+01</totfact>
</mgrwt>
</event>
<event>
 6    1  0.6091287E-004  0.2428317E+04  0.7818608E-02  0.8428977E-01
          2   -1    0    0  501    0  0.00000000000E+00  0.00000000000E+00  0.12975351268E+04  0.12975351268E+04  0.00000000000E+00 0.  1.
         -2   -1    0    0    0  501 -0.00000000000E+00 -0.00000000000E+00 -0.11361399223E+04  0.11361399223E+04  0.00000000000E+00 0. -1.
         23    2    1    2    0    0  0.85933919238E+03 -0.74179621821E+03  0.50747196840E+03  0.12468748960E+04  0.91889774597E+02 0.  0.
         13    1    3    3    0    0  0.42093319448E+03 -0.33856990431E+03  0.19556891694E+03  0.57450982201E+03  0.00000000000E+00 0. -1.
        -13    1    3    3    0    0  0.43840599790E+03 -0.40322631390E+03  0.31190305146E+03  0.67236507399E+03  0.00000000000E+00 0.  1.
         22    1    1    2    0    0 -0.85933919238E+03  0.74179621821E+03 -0.34607676386E+03  0.11868001531E+04  0.00000000000E+00 0. -1.
<mgrwt>
<rscale>  0 0.24283175E+04</rscale>
<asrwt>0</asrwt>
<pdfrwt beam="1">  1        2 0.19962079E+00 0.24283175E+04</pdfrwt>
<pdfrwt beam="2">  1       -2 0.17479076E+00 0.24283175E+04</pdfrwt>
<totfact> 0.29338079E+00</totfact>
</mgrwt>
</event>
<event>
 6    1  0.6091287E-004  0.1484713E+04  0.7818608E-02  0.8894683E-01
          2   -1    0    0  501    0  0.00000000000E+00  0.00000000000E+00  0.15311487139E+04  0.15311487139E+04  0.00000000000E+00 0.  1.
         -2   -1    0    0    0  501 -0.00000000000E+00 -0.00000000000E+00 -0.35992150057E+03  0.35992150057E+03  0.00000000000E+00 0. -1.
         23    2    1    2    0    0  0.47537913079E+03 -0.31938381071E+03  0.11837922864E+04  0.13182271142E+04  0.91472458010E+02 0.  0.
         13    1    3    3    0    0  0.80733824316E+02 -0.65578584696E+02  0.14568790166E+03  0.17900688772E+03  0.00000000000E+00 0. -1.
        -13    1    3    3    0    0  0.39464530647E+03 -0.25380522601E+03  0.10381043848E+04  0.11392202264E+04  0.00000000000E+00 0.  1.
         22    1    1    2    0    0 -0.47537913079E+03  0.31938381071E+03 -0.12565073074E+02  0.57284310033E+03  0.00000000000E+00 0.  1.
<mgrwt>
<rscale>  0 0.14847132E+04</rscale>
<asrwt>0</asrwt>
<pdfrwt beam="1">  1        2 0.23556134E+00 0.14847132E+04</pdfrwt>
<pdfrwt beam="2">  1       -2 0.55372539E-01 0.14847132E+04</pdfrwt>
<totfact> 0.36142000E+01</totfact>
</mgrwt>
</event>
<event>
 6    1  0.7185087E-004  0.3744885E+04  0.7818608E-02  0.8058087E-01
          2   -1    0    0  501    0  0.00000000000E+00  0.00000000000E+00  0.17355507379E+04  0.17355507379E+04  0.00000000000E+00 0.  1.
         -2   -1    0    0    0  501 -0.00000000000E+00 -0.00000000000E+00 -0.20201311961E+04  0.20201311961E+04  0.00000000000E+00 0. -1.
         23    2    1    2    0    0  0.11895505618E+04  0.10816506674E+04 -0.11025742540E+04  0.19517660393E+04  0.93391547785E+02 0.  0.
         13    1    3    3    0    0  0.55163748453E+03  0.56125917703E+03 -0.55729214419E+03  0.96430820390E+03  0.00000000000E+00 0. -1.
        -13    1    3    3    0    0  0.63791307725E+03  0.52039149037E+03 -0.54528210983E+03  0.98745783539E+03  0.00000000000E+00 0.  1.
         22    1    1    2    0    0 -0.11895505618E+04 -0.10816506674E+04  0.81799379584E+03  0.18039158948E+04  0.00000000000E+00 0.  1.
<mgrwt>
<rscale>  0 0.37448846E+04</rscale>
<asrwt>0</asrwt>
<pdfrwt beam="1">  1        2 0.26700781E+00 0.37448846E+04</pdfrwt>
<pdfrwt beam="2">  1       -2 0.31078941E+00 0.37448846E+04</pdfrwt>
<totfact> 0.20593182E-01</totfact>
</mgrwt>
</event>
<event>
 6    1  0.6091287E-004  0.1382612E+04  0.7818608E-02  0.8966502E-01
         -2   -1    0    0    0  501 -0.00000000000E+00  0.00000000000E+00  0.13588820842E+03  0.13588820842E+03  0.00000000000E+00 0. -1.
          2   -1    0    0  501    0  0.00000000000E+00 -0.00000000000E+00 -0.35168904306E+04  0.35168904306E+04  0.00000000000E+00 0.  1.
         23    2    1    2    0    0  0.51942386581E+03  0.42496161341E+03 -0.21021661347E+04  0.22085434560E+04  0.90378171975E+02 0.  0.
         11    1    3    3    0    0  0.33375306109E+03  0.28610995959E+03 -0.12344863299E+04  0.13104222653E+04  0.00000000000E+00 0. -1.
        -11    1    3    3    0    0  0.18567080472E+03  0.13885165382E+03 -0.86767980478E+03  0.89812119066E+03  0.00000000000E+00 0.  1.
         22    1    1    2    0    0 -0.51942386581E+03 -0.42496161341E+03 -0.12788360876E+04  0.14442351831E+04  0.00000000000E+00 0. -1.
<mgrwt>
<rscale>  0 0.13826119E+04</rscale>
<asrwt>0</asrwt>
<pdfrwt beam="1">  1        2 0.54106003E+00 0.13826119E+04</pdfrwt>
<pdfrwt beam="2">  1       -2 0.20905879E-01 0.13826119E+04</pdfrwt>
<totfact> 0.15518533E+01</totfact>
</mgrwt>
</event>
<event>
 6    1  0.6091287E-004  0.1367601E+04  0.7818608E-02  0.8977610E-01
          2   -1    0    0  501    0  0.00000000000E+00  0.00000000000E+00  0.11666779248E+04  0.11666779248E+04  0.00000000000E+00 0.  1.
         -2   -1    0    0    0  501 -0.00000000000E+00 -0.00000000000E+00 -0.40078177426E+03  0.40078177426E+03  0.00000000000E+00 0. -1.
         23    2    1    2    0    0  0.43936310724E+03  0.43249223925E+03  0.53562006187E+02  0.62538252057E+03  0.90249274319E+02 0.  0.
         11    1    3    3    0    0  0.41172492671E+03  0.42972578816E+03  0.54237622027E+02  0.59759801533E+03  0.00000000000E+00 0.  1.
        -11    1    3    3    0    0  0.27638180532E+02  0.27664510880E+01 -0.67561583982E+00  0.27784505241E+02  0.00000000000E+00 0. -1.
         22    1    1    2    0    0 -0.43936310724E+03 -0.43249223925E+03  0.71233414435E+03  0.94207717848E+03  0.00000000000E+00 0. -1.
<mgrwt>
<rscale>  0 0.13676012E+04</rscale>
<asrwt>0</asrwt>
<pdfrwt beam="1">  1        2 0.17948891E+00 0.13676012E+04</pdfrwt>
<pdfrwt beam="2">  1       -2 0.61658735E-01 0.13676012E+04</pdfrwt>
<totfact> 0.47299286E+01</totfact>
</mgrwt>
</event>
<event>
 6    1  0.6091287E-004  0.3244233E+04  0.7818608E-02  0.8177232E-01
          2   -1    0    0  501    0  0.00000000000E+00  0.00000000000E+00  0.18822473195E+04  0.18822473195E+04  0.00000000000E+00 0.  1.
         -2   -1    0    0    0  501 -0.00000000000E+00 -0.00000000000E+00 -0.13979364428E+04  0.13979364428E+04  0.00000000000E+00 0. -1.
         23    2    1    2    0    0 -0.89271328353E+03  0.54723344576E+03 -0.10085592254E+04  0.14567083464E+04  0.91684483529E+02 0.  0.
         11    1    3    3    0    0 -0.71843828136E+03  0.42188627740E+03 -0.75362312661E+03  0.11234275287E+04  0.00000000000E+00 0.  1.
        -11    1    3    3    0    0 -0.17427500217E+03  0.12534716836E+03 -0.25493609875E+03  0.33328081769E+03  0.00000000000E+00 0. -1.
         22    1    1    2    0    0  0.89271328353E+03 -0.54723344576E+03  0.14928701021E+04  0.18234754159E+04  0.00000000000E+00 0.  1.
<mgrwt>
<rscale>  0 0.32442331E+04</rscale>
<asrwt>0</asrwt>
<pdfrwt beam="1">  1        2 0.28957651E+00 0.32442331E+04</pdfrwt>
<pdfrwt beam="2">  1       -2 0.21506714E+00 0.32442331E+04</pdfrwt>
<totfact> 0.69248188E-01</totfact>
</mgrwt>
</event>
<event>
 6    1  0.6091287E-004  0.2933643E+04  0.7818608E-02  0.8262937E-01
         -2   -1    0    0    0  501 -0.00000000000E+00  0.00000000000E+00  0.10936060305E+04  0.10936060305E+04  0.00000000000E+00 0.  1.
          2   -1    0    0  501    0  0.00000000000E+00 -0.00000000000E+00 -0.19674049384E+04  0.19674049384E+04  0.00000000000E+00 0. -1.
         23    2    1    2    0    0 -0.78433194846E+03  0.90023480969E+03 -0.13238793536E+04  0.17850126438E+04  0.89522497747E+02 0.  0.
         13    1    3    3    0    0 -0.28178414424E+03  0.26545355457E+03 -0.40253393509E+03  0.55848138955E+03  0.00000000000E+00 0. -1.
        -13    1    3    3    0    0 -0.50254780422E+03  0.63478125512E+03 -0.92134541848E+03  0.12265312542E+04  0.00000000000E+00 0.  1.
         22    1    1    2    0    0  0.78433194846E+03 -0.90023480969E+03  0.45008044567E+03  0.12759983250E+04  0.00000000000E+00 0. -1.
<mgrwt>
<rscale>  0 0.29336434E+04</rscale>
<asrwt>0</asrwt>
<pdfrwt beam="1">  1        2 0.30267768E+00 0.29336434E+04</pdfrwt>
<pdfrwt beam="2">  1       -2 0.16824708E+00 0.29336434E+04</pdfrwt>
<totfact> 0.13153702E+00</totfact>
</mgrwt>
</event>
<event>
 6    1  0.6091287E-004  0.2997854E+04  0.7818608E-02  0.8244344E-01
          2   -1    0    0  501    0  0.00000000000E+00  0.00000000000E+00  0.14539074433E+04  0.14539074433E+04  0.00000000000E+00 0.  1.
         -2   -1    0    0    0  501 -0.00000000000E+00 -0.00000000000E+00 -0.15453408775E+04  0.15453408775E+04  0.00000000000E+00 0. -1.
         23    2    1    2    0    0  0.10749597534E+04  0.51396763485E+03 -0.95338143476E+03  0.15286513139E+04  0.90207972845E+02 0.  0.
         13    1    3    3    0    0  0.58328407923E+03  0.32427164978E+03 -0.50943936210E+03  0.83958375615E+03  0.00000000000E+00 0.  1.
        -13    1    3    3    0    0  0.49167567413E+03  0.18969598507E+03 -0.44394207266E+03  0.68906755776E+03  0.00000000000E+00 0. -1.
         22    1    1    2    0    0 -0.10749597534E+04 -0.51396763485E+03  0.86194800053E+03  0.14705970069E+04  0.00000000000E+00 0.  1.
<mgrwt>
<rscale>  0 0.29978543E+04</rscale>
<asrwt>0</asrwt>
<pdfrwt beam="1">  1        2 0.22367807E+00 0.29978543E+04</pdfrwt>
<pdfrwt beam="2">  1       -2 0.23774475E+00 0.29978543E+04</pdfrwt>
<totfact> 0.88299790E-01</totfact>
</mgrwt>
</event>
<event>
 6    1  0.6091287E-004  0.1795891E+04  0.7818608E-02  0.8708487E-01
          2   -1    0    0  501    0  0.00000000000E+00  0.00000000000E+00  0.97327274081E+03  0.97327274081E+03  0.00000000000E+00 0.  1.
         -2   -1    0    0    0  501 -0.00000000000E+00 -0.00000000000E+00 -0.82844858334E+03  0.82844858334E+03  0.00000000000E+00 0. -1.
         23    2    1    2    0    0  0.73064581232E+03  0.39438116807E+03 -0.26434258379E+03  0.87608790268E+03  0.90957148325E+02 0.  0.
         13    1    3    3    0    0  0.49656228261E+03  0.31494690345E+03 -0.18200574374E+03  0.61554182901E+03  0.00000000000E+00 0. -1.
        -13    1    3    3    0    0  0.23408352971E+03  0.79434264616E+02 -0.82336840050E+02  0.26054607367E+03  0.00000000000E+00 0.  1.
         22    1    1    2    0    0 -0.73064581232E+03 -0.39438116807E+03  0.40916674126E+03  0.92563342147E+03  0.00000000000E+00 0.  1.
<mgrwt>
<rscale>  0 0.17958913E+04</rscale>
<asrwt>0</asrwt>
<pdfrwt beam="1">  1        2 0.14973427E+00 0.17958913E+04</pdfrwt>
<pdfrwt beam="2">  1       -2 0.12745363E+00 0.17958913E+04</pdfrwt>
<totfact> 0.11302500E+01</totfact>
</mgrwt>
</event>
<event>
 6    1  0.6091287E-004  0.2683222E+04  0.7818608E-02  0.8340469E-01
         -1   -1    0    0    0  501 -0.00000000000E+00  0.00000000000E+00  0.80951949150E+03  0.80951949150E+03  0.00000000000E+00 0. -1.
          1   -1    0    0  501    0  0.00000000000E+00 -0.00000000000E+00 -0.22234432308E+04  0.22234432308E+04  0.00000000000E+00 0.  1.
         23    2    1    2    0    0 -0.25087990908E+03  0.62309533726E+03  0.60274056329E+03  0.90737493596E+03  0.94045519211E+02 0.  0.
         11    1    3    3    0    0 -0.52185532742E+02  0.20958070087E+03  0.23704578515E+03  0.32068380730E+03  0.00000000000E+00 0. -1.
        -11    1    3    3    0    0 -0.19869437634E+03  0.41351463640E+03  0.36569477814E+03  0.58669112867E+03  0.00000000000E+00 0.  1.
         22    1    1    2    0    0  0.25087990908E+03 -0.62309533726E+03 -0.20166643026E+04  0.21255877864E+04  0.00000000000E+00 0.  1.
<mgrwt>
<rscale>  0 0.26832224E+04</rscale>
<asrwt>0</asrwt>
<pdfrwt beam="1">  1        1 0.34206818E+00 0.26832224E+04</pdfrwt>
<pdfrwt beam="2">  1       -1 0.12454146E+00 0.26832224E+04</pdfrwt>
<totfact> 0.10366400E+00</totfact>
</mgrwt>
</event>
<event>
 6    1  0.6091287E-004  0.2596443E+04  0.7818608E-02  0.8369411E-01
          2   -1    0    0  501    0  0.00000000000E+00  0.00000000000E+00  0.16680926075E+04  0.16680926075E+04  0.00000000000E+00 0.  1.
         -2   -1    0    0    0  501 -0.00000000000E+00 -0.00000000000E+00 -0.10103627391E+04  0.10103627391E+04  0.00000000000E+00 0. -1.
         23    2    1    2    0    0 -0.31226137096E+03 -0.64954935724E+03 -0.78256525595E+03  0.10679052615E+04  0.92691620397E+02 0.  0.
         11    1    3    3    0    0 -0.88001910690E+02 -0.26067833887E+03 -0.25413221389E+03  0.37454067173E+03  0.00000000000E+00 0. -1.
        -11    1    3    3    0    0 -0.22425946027E+03 -0.38887101837E+03 -0.52843304205E+03  0.69336458980E+03  0.00000000000E+00 0.  1.
         22    1    1    2    0    0  0.31226137096E+03  0.64954935724E+03  0.14402951243E+04  0.16105500850E+04  0.00000000000E+00 0.  1.
<mgrwt>
<rscale>  0 0.25964427E+04</rscale>
<asrwt>0</asrwt>
<pdfrwt beam="1">  1        2 0.25662963E+00 0.25964427E+04</pdfrwt>
<pdfrwt beam="2">  1       -2 0.15544042E+00 0.25964427E+04</pdfrwt>
<totfact> 0.24631886E+00</totfact>
</mgrwt>
</event>
<event>
 6    1  0.6091287E-004  0.1614502E+04  0.7818608E-02  0.8811688E-01
         -2   -1    0    0    0  501 -0.00000000000E+00  0.00000000000E+00  0.17338116422E+03  0.17338116422E+03  0.00000000000E+00 0. -1.
          2   -1    0    0  501    0  0.00000000000E+00 -0.00000000000E+00 -0.37585046188E+04  0.37585046188E+04  0.00000000000E+00 0.  1.
         23    2    1    2    0    0  0.15469789629E+03 -0.71618090190E+03 -0.98832072160E+03  0.12336954715E+04  0.91543127666E+02 0.  0.
         11    1    3    3    0    0  0.13491904057E+03 -0.57368241426E+03 -0.73192847916E+03  0.93969886589E+03  0.00000000000E+00 0. -1.
        -11    1    3    3    0    0  0.19778855717E+02 -0.14249848764E+03 -0.25639224243E+03  0.29399660558E+03  0.00000000000E+00 0.  1.
         22    1    1    2    0    0 -0.15469789629E+03  0.71618090190E+03 -0.25968027330E+04  0.26981903116E+04  0.00000000000E+00 0.  1.
<mgrwt>
<rscale>  0 0.16145017E+04</rscale>
<asrwt>0</asrwt>
<pdfrwt beam="1">  1        2 0.57823147E+00 0.16145017E+04</pdfrwt>
<pdfrwt beam="2">  1       -2 0.26674026E-01 0.16145017E+04</pdfrwt>
<totfact> 0.65462105E+00</totfact>
</mgrwt>
</event>
<event>
 6    1  0.6091287E-004  0.2333350E+04  0.7818608E-02  0.8464887E-01
         -4   -1    0    0    0  501 -0.00000000000E+00  0.00000000000E+00  0.23065522437E+04  0.23065522437E+04  0.00000000000E+00 0. -1.
          4   -1    0    0  501    0  0.00000000000E+00 -0.00000000000E+00 -0.59011456478E+03  0.59011456478E+03  0.00000000000E+00 0.  1.
         23    2    1    2    0    0  0.87036548164E+03 -0.58689415855E+03  0.23229820195E+03  0.10787969528E+04  0.88654305228E+02 0.  0.
         13    1    3    3    0    0  0.73180811750E+03 -0.45318116877E+03  0.18231727657E+03  0.87986128561E+03  0.00000000000E+00 0.  1.
        -13    1    3    3    0    0  0.13855736414E+03 -0.13371298978E+03  0.49980925379E+02  0.19893566723E+03  0.00000000000E+00 0. -1.
         22    1    1    2    0    0 -0.87036548164E+03  0.58689415855E+03  0.14841394770E+04  0.18178698557E+04  0.00000000000E+00 0. -1.
<mgrwt>
<rscale>  0 0.23333496E+04</rscale>
<asrwt>0</asrwt>
<pdfrwt beam="1">  1        4 0.90786857E-01 0.23333496E+04</pdfrwt>
<pdfrwt beam="2">  1       -4 0.35485419E+00 0.23333496E+04</pdfrwt>
<totfact> 0.25836469E-02</totfact>
</mgrwt>
</event>
<event>
 6    1  0.6091287E-004  0.4233831E+04  0.7818608E-02  0.7958968E-01
         -2   -1    0    0    0  501 -0.00000000000E+00  0.00000000000E+00  0.16861221346E+04  0.16861221346E+04  0.00000000000E+00 0. -1.
          2   -1    0    0  501    0  0.00000000000E+00 -0.00000000000E+00 -0.26577742350E+04  0.26577742350E+04  0.00000000000E+00 0.  1.
         23    2    1    2    0    0  0.86803105864E+03  0.74426947461E+03 -0.23127228971E+04  0.25815440066E+04  0.90924635998E+02 0.  0.
         11    1    3    3    0    0  0.73316482800E+03  0.66522730390E+03 -0.20279131225E+04  0.22566545290E+04  0.00000000000E+00 0.  1.
        -11    1    3    3    0    0  0.13486623064E+03  0.79042170707E+02 -0.28480977460E+03  0.32488947755E+03  0.00000000000E+00 0. -1.
         22    1    1    2    0    0 -0.86803105864E+03 -0.74426947461E+03  0.13410707967E+04  0.17623523630E+04  0.00000000000E+00 0. -1.
<mgrwt>
<rscale>  0 0.42338313E+04</rscale>
<asrwt>0</asrwt>
<pdfrwt beam="1">  1        2 0.40888834E+00 0.42338313E+04</pdfrwt>
<pdfrwt beam="2">  1       -2 0.25940341E+00 0.42338313E+04</pdfrwt>
<totfact> 0.12253519E-01</totfact>
</mgrwt>
</event>
<event>
 6    1  0.6091287E-004  0.3599909E+04  0.7818608E-02  0.8090512E-01
         -2   -1    0    0    0  501 -0.00000000000E+00  0.00000000000E+00  0.15243126458E+04  0.15243126458E+04  0.00000000000E+00 0.  1.
          2   -1    0    0  501    0  0.00000000000E+00 -0.00000000000E+00 -0.21254412211E+04  0.21254412211E+04  0.00000000000E+00 0. -1.
         23    2    1    2    0    0 -0.71214999533E+03 -0.66607423112E+03 -0.18332643235E+04  0.20784579052E+04  0.91195868832E+02 0.  0.
         11    1    3    3    0    0 -0.10633324850E+03 -0.14618360180E+03 -0.31970547848E+03  0.36727101457E+03  0.00000000000E+00 0.  1.
        -11    1    3    3    0    0 -0.60581674683E+03 -0.51989062932E+03 -0.15135588450E+04  0.17111868906E+04  0.00000000000E+00 0. -1.
         22    1    1    2    0    0  0.71214999533E+03  0.66607423112E+03  0.12321357482E+04  0.15712959617E+04  0.00000000000E+00 0.  1.
<mgrwt>
<rscale>  0 0.35999094E+04</rscale>
<asrwt>0</asrwt>
<pdfrwt beam="1">  1        2 0.32699096E+00 0.35999094E+04</pdfrwt>
<pdfrwt beam="2">  1       -2 0.23450964E+00 0.35999094E+04</pdfrwt>
<totfact> 0.37138564E-01</totfact>
</mgrwt>
</event>
<event>
 6    1  0.6091287E-004  0.3795881E+04  0.7818608E-02  0.8047039E-01
         -2   -1    0    0    0  501 -0.00000000000E+00  0.00000000000E+00  0.12531370957E+04  0.12531370957E+04  0.00000000000E+00 0. -1.
          2   -1    0    0  501    0  0.00000000000E+00 -0.00000000000E+00 -0.28745288482E+04  0.28745288482E+04  0.00000000000E+00 0.  1.
         23    2    1    2    0    0  0.25161977204E+03  0.80220402144E+03  0.10380002931E+04  0.13385424518E+04  0.86066747625E+02 0.  0.
         13    1    3    3    0    0  0.98651662536E+02  0.32069495944E+03  0.48203390982E+03  0.58731090382E+03  0.00000000000E+00 0. -1.
        -13    1    3    3    0    0  0.15296810950E+03  0.48150906201E+03  0.55596638332E+03  0.75123154799E+03  0.00000000000E+00 0.  1.
         22    1    1    2    0    0 -0.25161977204E+03 -0.80220402144E+03 -0.26593920457E+04  0.27891234921E+04  0.00000000000E+00 0.  1.
<mgrwt>
<rscale>  0 0.37958813E+04</rscale>
<asrwt>0</asrwt>
<pdfrwt beam="1">  1        2 0.44223520E+00 0.37958813E+04</pdfrwt>
<pdfrwt beam="2">  1       -2 0.19279032E+00 0.37958813E+04</pdfrwt>
<totfact> 0.24792514E-01</totfact>
</mgrwt>
</event>
<event>
 6    1  0.6091287E-004  0.3448541E+04  0.7818608E-02  0.8126094E-01
         -2   -1    0    0    0  501 -0.00000000000E+00  0.00000000000E+00  0.17299808482E+04  0.17299808482E+04  0.00000000000E+00 0. -1.
          2   -1    0    0  501    0  0.00000000000E+00 -0.00000000000E+00 -0.17185791166E+04  0.17185791166E+04  0.00000000000E+00 0.  1.
         23    2    1    2    0    0  0.12777828183E+03 -0.88426972947E+03  0.14782737924E+04  0.17310111629E+04  0.11334018259E+03 0.  0.
         13    1    3    3    0    0  0.70548806852E+02 -0.37388297190E+03  0.73372896173E+03  0.82651303687E+03  0.00000000000E+00 0. -1.
        -13    1    3    3    0    0  0.57229474980E+02 -0.51038675757E+03  0.74454483070E+03  0.90449812605E+03  0.00000000000E+00 0.  1.
         22    1    1    2    0    0 -0.12777828183E+03  0.88426972947E+03 -0.14668720609E+04  0.17175488018E+04  0.00000000000E+00 0.  1.
<mgrwt>
<rscale>  0 0.34485411E+04</rscale>
<asrwt>0</asrwt>
<pdfrwt beam="1">  1        2 0.26439679E+00 0.34485411E+04</pdfrwt>
<pdfrwt beam="2">  1       -2 0.26615090E+00 0.34485411E+04</pdfrwt>
<totfact> 0.40430746E-01</totfact>
</mgrwt>
</event>
<event>
 6    1  0.6091287E-004  0.2161369E+04  0.7818608E-02  0.8534681E-01
          1   -1    0    0  501    0  0.00000000000E+00  0.00000000000E+00  0.84893722151E+03  0.84893722151E+03  0.00000000000E+00 0.  1.
         -1   -1    0    0    0  501 -0.00000000000E+00 -0.00000000000E+00 -0.13756956108E+04  0.13756956108E+04  0.00000000000E+00 0. -1.
         23    2    1    2    0    0  0.21682411878E+03 -0.67443066293E+03  0.57344515530E+03  0.91607742382E+03  0.92136218260E+02 0.  0.
         13    1    3    3    0    0  0.88052453532E+02 -0.20065778258E+03  0.22471284454E+03  0.31386723751E+03  0.00000000000E+00 0.  1.
        -13    1    3    3    0    0  0.12877166525E+03 -0.47377288035E+03  0.34873231076E+03  0.60221018631E+03  0.00000000000E+00 0. -1.
         22    1    1    2    0    0 -0.21682411878E+03  0.67443066293E+03 -0.11002035446E+04  0.13085554085E+04  0.00000000000E+00 0. -1.
<mgrwt>
<rscale>  0 0.21613692E+04</rscale>
<asrwt>0</asrwt>
<pdfrwt beam="1">  1        1 0.13060573E+00 0.21613692E+04</pdfrwt>
<pdfrwt beam="2">  1       -1 0.21164548E+00 0.21613692E+04</pdfrwt>
<totfact> 0.23001040E+00</totfact>
</mgrwt>
</event>
<event>
 6    1  0.6091287E-004  0.1605278E+04  0.7818608E-02  0.8817312E-01
          2   -1    0    0  501    0  0.00000000000E+00  0.00000000000E+00  0.72984836965E+03  0.72984836965E+03  0.00000000000E+00 0. -1.
         -2   -1    0    0    0  501 -0.00000000000E+00 -0.00000000000E+00 -0.88268912694E+03  0.88268912694E+03  0.00000000000E+00 0.  1.
         23    2    1    2    0    0 -0.42546876953E+03 -0.37805057766E+03  0.48818775645E+03  0.75529571707E+03  0.90545135497E+02 0.  0.
         11    1    3    3    0    0 -0.14634629553E+03 -0.15021366265E+03  0.23475593543E+03  0.31478839222E+03  0.00000000000E+00 0.  1.
        -11    1    3    3    0    0 -0.27912247401E+03 -0.22783691501E+03  0.25343182102E+03  0.44050732485E+03  0.00000000000E+00 0. -1.
         22    1    1    2    0    0  0.42546876953E+03  0.37805057766E+03 -0.64102851374E+03  0.85724177952E+03  0.00000000000E+00 0.  1.
<mgrwt>
<rscale>  0 0.16052778E+04</rscale>
<asrwt>0</asrwt>
<pdfrwt beam="1">  1        2 0.11228436E+00 0.16052778E+04</pdfrwt>
<pdfrwt beam="2">  1       -2 0.13579833E+00 0.16052778E+04</pdfrwt>
<totfact> 0.14464304E+01</totfact>
</mgrwt>
</event>
<event>
 6    1  0.6091287E-004  0.2230513E+04  0.7818608E-02  0.8505834E-01
          2   -1    0    0  501    0  0.00000000000E+00  0.00000000000E+00  0.15572861691E+04  0.15572861691E+04  0.00000000000E+00 0.  1.
         -2   -1    0    0    0  501 -0.00000000000E+00 -0.00000000000E+00 -0.79869504819E+03  0.79869504819E+03  0.00000000000E+00 0. -1.
         23    2    1    2    0    0 -0.53605047670E+03 -0.95358163126E+03  0.59855152955E+03  0.12504131679E+04  0.92742200641E+02 0.  0.
         13    1    3    3    0    0 -0.47237544964E+03 -0.77047440003E+03  0.48295228142E+03  0.10247010650E+04  0.00000000000E+00 0.  1.
        -13    1    3    3    0    0 -0.63675027063E+02 -0.18310723123E+03  0.11559924813E+03  0.22571210283E+03  0.00000000000E+00 0. -1.
         22    1    1    2    0    0  0.53605047670E+03  0.95358163126E+03  0.16003959132E+03  0.11055680494E+04  0.00000000000E+00 0.  1.
<mgrwt>
<rscale>  0 0.22305127E+04</rscale>
<asrwt>0</asrwt>
<pdfrwt beam="1">  1        2 0.23958249E+00 0.22305127E+04</pdfrwt>
<pdfrwt beam="2">  1       -2 0.12287616E+00 0.22305127E+04</pdfrwt>
<totfact> 0.53788426E+00</totfact>
</mgrwt>
</event>
<event>
 6    1  0.6091287E-004  0.3171635E+04  0.7818608E-02  0.8196349E-01
          2   -1    0    0  501    0  0.00000000000E+00  0.00000000000E+00  0.34992645510E+04  0.34992645510E+04  0.00000000000E+00 0.  1.
         -2   -1    0    0    0  501 -0.00000000000E+00 -0.00000000000E+00 -0.71867015289E+03  0.71867015289E+03  0.00000000000E+00 0. -1.
         23    2    1    2    0    0 -0.65421189113E+03  0.14398417550E+04  0.15226672610E+04  0.21971630295E+04  0.88726051587E+02 0.  0.
         11    1    3    3    0    0 -0.44522553751E+03  0.10119277765E+04  0.10099962341E+04  0.14974364751E+04  0.00000000000E+00 0. -1.
        -11    1    3    3    0    0 -0.20898635362E+03  0.42791397852E+03  0.51267102688E+03  0.69972655432E+03  0.00000000000E+00 0.  1.
         22    1    1    2    0    0  0.65421189113E+03 -0.14398417550E+04  0.12579271371E+04  0.20207716744E+04  0.00000000000E+00 0.  1.
<mgrwt>
<rscale>  0 0.31716349E+04</rscale>
<asrwt>0</asrwt>
<pdfrwt beam="1">  1        2 0.53834838E+00 0.31716349E+04</pdfrwt>
<pdfrwt beam="2">  1       -2 0.11056464E+00 0.31716349E+04</pdfrwt>
<totfact> 0.44525217E-01</totfact>
</mgrwt>
</event>
<event>
 6    1  0.6091287E-004  0.4456038E+04  0.7818608E-02  0.7918379E-01
          2   -1    0    0  501    0  0.00000000000E+00  0.00000000000E+00  0.33980049929E+04  0.33980049929E+04  0.00000000000E+00 0.  1.
         -2   -1    0    0    0  501 -0.00000000000E+00 -0.00000000000E+00 -0.14608772000E+04  0.14608772000E+04  0.00000000000E+00 0. -1.
         23    2    1    2    0    0 -0.22197746684E+04  0.16252517619E+03  0.89482768218E+03  0.24011996398E+04  0.10596753413E+03 0.  0.
         13    1    3    3    0    0 -0.56482690113E+03 -0.43983941716E+00  0.24815521633E+03  0.61693649032E+03  0.00000000000E+00 0. -1.
        -13    1    3    3    0    0 -0.16549477672E+04  0.16296501561E+03  0.64667246586E+03  0.17842631495E+04  0.00000000000E+00 0.  1.
         22    1    1    2    0    0  0.22197746684E+04 -0.16252517619E+03  0.10423001107E+04  0.24576825531E+04  0.00000000000E+00 0. -1.
<mgrwt>
<rscale>  0 0.44560377E+04</rscale>
<asrwt>0</asrwt>
<pdfrwt beam="1">  1        2 0.52277000E+00 0.44560377E+04</pdfrwt>
<pdfrwt beam="2">  1       -2 0.22475034E+00 0.44560377E+04</pdfrwt>
<totfact> 0.66974990E-02</totfact>
</mgrwt>
</event>
<event>
 6    1  0.6091287E-004  0.7978075E+03  0.7818608E-02  0.9563196E-01
         -2   -1    0    0    0  501 -0.00000000000E+00  0.00000000000E+00  0.22585317055E+03  0.22585317055E+03  0.00000000000E+00 0. -1.
          2   -1    0    0  501    0  0.00000000000E+00 -0.00000000000E+00 -0.70454715709E+03  0.70454715709E+03  0.00000000000E+00 0.  1.
         23    2    1    2    0    0  0.89965781585E+02 -0.15295710539E+03  0.16729011549E+03  0.26048602115E+03  0.91527408608E+02 0.  0.
         13    1    3    3    0    0  0.96681815889E+02 -0.85196700133E+02  0.12913284811E+03  0.18243120265E+03  0.00000000000E+00 0.  1.
        -13    1    3    3    0    0 -0.67160343047E+01 -0.67760405259E+02  0.38157267382E+02  0.78054818504E+02  0.00000000000E+00 0. -1.
         22    1    1    2    0    0 -0.89965781585E+02  0.15295710539E+03 -0.64598410204E+03  0.66991430649E+03  0.00000000000E+00 0.  1.
<mgrwt>
<rscale>  0 0.79780752E+03</rscale>
<asrwt>0</asrwt>
<pdfrwt beam="1">  1        2 0.10839187E+00 0.79780752E+03</pdfrwt>
<pdfrwt beam="2">  1       -2 0.34746642E-01 0.79780752E+03</pdfrwt>
<totfact> 0.31730107E+02</totfact>
</mgrwt>
</event>
<event>
 6    1  0.6091287E-004  0.3483991E+04  0.7818608E-02  0.8117594E-01
          2   -1    0    0  501    0  0.00000000000E+00  0.00000000000E+00  0.20528564241E+04  0.20528564241E+04  0.00000000000E+00 0.  1.
         -2   -1    0    0    0  501 -0.00000000000E+00 -0.00000000000E+00 -0.14782076478E+04  0.14782076478E+04  0.00000000000E+00 0. -1.
         23    2    1    2    0    0  0.14993525294E+04  0.87365254538E+03  0.14392078430E+03  0.17430894130E+04  0.79503031820E+02 0.  0.
         11    1    3    3    0    0  0.72381139468E+03  0.42769969137E+03  0.10926454674E+03  0.84780227780E+03  0.00000000000E+00 0. -1.
        -11    1    3    3    0    0  0.77554113476E+03  0.44595285401E+03  0.34656237561E+02  0.89528713523E+03  0.00000000000E+00 0.  1.
         22    1    1    2    0    0 -0.14993525294E+04 -0.87365254538E+03  0.43072799200E+03  0.17879746588E+04  0.00000000000E+00 0.  1.
<mgrwt>
<rscale>  0 0.34839909E+04</rscale>
<asrwt>0</asrwt>
<pdfrwt beam="1">  1        2 0.31582406E+00 0.34839909E+04</pdfrwt>
<pdfrwt beam="2">  1       -2 0.22741656E+00 0.34839909E+04</pdfrwt>
<totfact> 0.45590109E-01</totfact>
</mgrwt>
</event>
<event>
 6    1  0.6091287E-004  0.2578411E+04  0.7818608E-02  0.8375572E-01
          2   -1    0    0  501    0  0.00000000000E+00  0.00000000000E+00  0.39104219508E+04  0.39104219508E+04  0.00000000000E+00 0.  1.
         -2   -1    0    0    0  501 -0.00000000000E+00 -0.00000000000E+00 -0.42503101425E+03  0.42503101425E+03  0.00000000000E+00 0. -1.
         23    2    1    2    0    0  0.46892482147E+03  0.61626663071E+03  0.34746382650E+04  0.35609914306E+04  0.88734704900E+02 0.  0.
         13    1    3    3    0    0  0.36687074820E+03  0.53639462746E+03  0.28926959924E+04  0.29647939974E+04  0.00000000000E+00 0. -1.
        -13    1    3    3    0    0  0.10205407327E+03  0.79872003253E+02  0.58194227260E+03  0.59619743325E+03  0.00000000000E+00 0.  1.
         22    1    1    2    0    0 -0.46892482147E+03 -0.61626663071E+03  0.10752671483E+02  0.77446153440E+03  0.00000000000E+00 0. -1.
<mgrwt>
<rscale>  0 0.25784108E+04</rscale>
<asrwt>0</asrwt>
<pdfrwt beam="1">  1        2 0.60160335E+00 0.25784108E+04</pdfrwt>
<pdfrwt beam="2">  1       -2 0.65389389E-01 0.25784108E+04</pdfrwt>
<totfact> 0.77214058E-01</totfact>
</mgrwt>
</event>
<event>
 6    1  0.7591315E-004  0.3748701E+04  0.7818608E-02  0.8057254E-01
         -2   -1    0    0    0  501 -0.00000000000E+00  0.00000000000E+00  0.12999988378E+04  0.12999988378E+04  0.00000000000E+00 0. -1.
          2   -1    0    0  501    0  0.00000000000E+00 -0.00000000000E+00 -0.27024556712E+04  0.27024556712E+04  0.00000000000E+00 0.  1.
         23    2    1    2    0    0 -0.20310169104E+03  0.18223934545E+04 -0.11104700549E+04  0.21456765258E+04  0.91737727320E+02 0.  0.
         11    1    3    3    0    0 -0.32149703146E+02  0.60855908436E+03 -0.34004567043E+03  0.69786017263E+03  0.00000000000E+00 0.  1.
        -11    1    3    3    0    0 -0.17095198789E+03  0.12138343702E+04 -0.77042438452E+03  0.14478163532E+04  0.00000000000E+00 0. -1.
         22    1    1    2    0    0  0.20310169104E+03 -0.18223934545E+04 -0.29198677848E+03  0.18567779832E+04  0.00000000000E+00 0. -1.
<mgrwt>
<rscale>  0 0.37487007E+04</rscale>
<asrwt>0</asrwt>
<pdfrwt beam="1">  1        2 0.41576241E+00 0.37487007E+04</pdfrwt>
<pdfrwt beam="2">  1       -2 0.19999982E+00 0.37487007E+04</pdfrwt>
<totfact> 0.28335589E-01</totfact>
</mgrwt>
</event>
<event>
 6    1  0.6091287E-004  0.2176723E+04  0.7818608E-02  0.8528180E-01
         -2   -1    0    0    0  501 -0.00000000000E+00  0.00000000000E+00  0.98237053923E+03  0.98237053923E+03  0.00000000000E+00 0. -1.
          2   -1    0    0  501    0  0.00000000000E+00 -0.00000000000E+00 -0.12057877935E+04  0.12057877935E+04  0.00000000000E+00 0.  1.
         23    2    1    2    0    0 -0.67406232745E+03 -0.26250846998E+03 -0.92693414531E+03  0.11790960284E+04  0.88259935905E+02 0.  0.
         11    1    3    3    0    0 -0.23379151021E+03 -0.58112273107E+02 -0.26316971706E+03  0.35678257596E+03  0.00000000000E+00 0.  1.
        -11    1    3    3    0    0 -0.44027081724E+03 -0.20439619687E+03 -0.66376442825E+03  0.82231345241E+03  0.00000000000E+00 0. -1.
         22    1    1    2    0    0  0.67406232745E+03  0.26250846998E+03  0.70351689103E+03  0.10090623044E+04  0.00000000000E+00 0. -1.
<mgrwt>
<rscale>  0 0.21767227E+04</rscale>
<asrwt>0</asrwt>
<pdfrwt beam="1">  1        2 0.18550582E+00 0.21767227E+04</pdfrwt>
<pdfrwt beam="2">  1       -2 0.15113393E+00 0.21767227E+04</pdfrwt>
<totfact> 0.50541327E+00</totfact>
</mgrwt>
</event>
<event>
 6    1  0.6091287E-004  0.1605932E+04  0.7818608E-02  0.8816912E-01
         -2   -1    0    0    0  501 -0.00000000000E+00  0.00000000000E+00  0.19483421516E+03  0.19483421516E+03  0.00000000000E+00 0. -1.
          2   -1    0    0  501    0  0.00000000000E+00 -0.00000000000E+00 -0.33092473426E+04  0.33092473426E+04  0.00000000000E+00 0.  1.
         23    2    1    2    0    0 -0.17677633384E+03  0.65599107828E+03 -0.24858352310E+04  0.25785091193E+04  0.88081300745E+02 0.  0.
         11    1    3    3    0    0 -0.91017023745E+02  0.19063368465E+03 -0.71672294036E+03  0.74720617875E+03  0.00000000000E+00 0. -1.
        -11    1    3    3    0    0 -0.85759310095E+02  0.46535739363E+03 -0.17691122907E+04  0.18313029405E+04  0.00000000000E+00 0.  1.
         22    1    1    2    0    0  0.17677633384E+03 -0.65599107828E+03 -0.62857789645E+03  0.92557243849E+03  0.00000000000E+00 0. -1.
<mgrwt>
<rscale>  0 0.16059323E+04</rscale>
<asrwt>0</asrwt>
<pdfrwt beam="1">  1        2 0.50911497E+00 0.16059323E+04</pdfrwt>
<pdfrwt beam="2">  1       -2 0.29974495E-01 0.16059323E+04</pdfrwt>
<totfact> 0.10911008E+01</totfact>
</mgrwt>
</event>
<event>
 6    1  0.6091287E-004  0.1507772E+04  0.7818608E-02  0.8879301E-01
          2   -1    0    0  501    0  0.00000000000E+00  0.00000000000E+00  0.10246641984E+04  0.10246641984E+04  0.00000000000E+00 0.  1.
         -2   -1    0    0    0  501 -0.00000000000E+00 -0.00000000000E+00 -0.55466375543E+03  0.55466375543E+03  0.00000000000E+00 0. -1.
         23    2    1    2    0    0  0.21542952626E+03 -0.49949129372E+03 -0.30651538022E+03  0.63123605061E+03  0.92767666747E+02 0.  0.
         11    1    3    3    0    0  0.19038887828E+03 -0.37053895019E+03 -0.26386505313E+03  0.49312453279E+03  0.00000000000E+00 0.  1.
        -11    1    3    3    0    0  0.25040647981E+02 -0.12895234353E+03 -0.42650327092E+02  0.13811151782E+03  0.00000000000E+00 0. -1.
         22    1    1    2    0    0 -0.21542952626E+03  0.49949129372E+03  0.77651582318E+03  0.94809190321E+03  0.00000000000E+00 0.  1.
<mgrwt>
<rscale>  0 0.15077720E+04</rscale>
<asrwt>0</asrwt>
<pdfrwt beam="1">  1        2 0.15764065E+00 0.15077720E+04</pdfrwt>
<pdfrwt beam="2">  1       -2 0.85332886E-01 0.15077720E+04</pdfrwt>
<totfact> 0.28016304E+01</totfact>
</mgrwt>
</event>
<event>
 6    1  0.6091287E-004  0.1108081E+04  0.7818608E-02  0.9197351E-01
          2   -1    0    0  501    0  0.00000000000E+00  0.00000000000E+00  0.12988587984E+04  0.12988587984E+04  0.00000000000E+00 0.  1.
         -2   -1    0    0    0  501 -0.00000000000E+00 -0.00000000000E+00 -0.23633116493E+03  0.23633116493E+03  0.00000000000E+00 0. -1.
         23    2    1    2    0    0 -0.15087132635E+03 -0.41959521292E+03  0.98179045622E+03  0.10820445213E+04  0.89919665802E+02 0.  0.
         11    1    3    3    0    0 -0.10283101714E+03 -0.20290115126E+03  0.58022926466E+03  0.62322475467E+03  0.00000000000E+00 0.  1.
        -11    1    3    3    0    0 -0.48040309209E+02 -0.21669406166E+03  0.40156119157E+03  0.45881976662E+03  0.00000000000E+00 0. -1.
         22    1    1    2    0    0  0.15087132635E+03  0.41959521292E+03  0.80737177194E+02  0.45314544200E+03  0.00000000000E+00 0.  1.
<mgrwt>
<rscale>  0 0.11080809E+04</rscale>
<asrwt>0</asrwt>
<pdfrwt beam="1">  1        2 0.19982443E+00 0.11080809E+04</pdfrwt>
<pdfrwt beam="2">  1       -2 0.36358642E-01 0.11080809E+04</pdfrwt>
<totfact> 0.11688283E+02</totfact>
</mgrwt>
</event>
<event>
 6    1  0.6091287E-004  0.1986495E+04  0.7818608E-02  0.8612961E-01
          2   -1    0    0  501    0  0.00000000000E+00  0.00000000000E+00  0.13762648935E+04  0.13762648935E+04  0.00000000000E+00 0.  1.
         -2   -1    0    0    0  501 -0.00000000000E+00 -0.00000000000E+00 -0.71682482431E+03  0.71682482431E+03  0.00000000000E+00 0. -1.
         23    2    1    2    0    0 -0.20458315283E+03 -0.25075370657E+03 -0.65682955661E+03  0.73762027309E+03  0.89033213250E+02 0.  0.
         11    1    3    3    0    0 -0.88421818864E+02 -0.17753258888E+03 -0.38777638685E+03  0.43555340013E+03  0.00000000000E+00 0. -1.
        -11    1    3    3    0    0 -0.11616133396E+03 -0.73221117685E+02 -0.26905316976E+03  0.30206687296E+03  0.00000000000E+00 0.  1.
         22    1    1    2    0    0  0.20458315283E+03  0.25075370657E+03  0.13162696258E+04  0.13554694447E+04  0.00000000000E+00 0.  1.
<mgrwt>
<rscale>  0 0.19864952E+04</rscale>
<asrwt>0</asrwt>
<pdfrwt beam="1">  1        2 0.21173306E+00 0.19864952E+04</pdfrwt>
<pdfrwt beam="2">  1       -2 0.11028074E+00 0.19864952E+04</pdfrwt>
<totfact> 0.90698707E+00</totfact>
</mgrwt>
</event>
<event>
 6    1  0.6091287E-004  0.1906596E+04  0.7818608E-02  0.8651580E-01
         -2   -1    0    0    0  501 -0.00000000000E+00  0.00000000000E+00  0.97650575855E+03  0.97650575855E+03  0.00000000000E+00 0. -1.
          2   -1    0    0  501    0  0.00000000000E+00 -0.00000000000E+00 -0.93064197269E+03  0.93064197269E+03  0.00000000000E+00 0.  1.
         23    2    1    2    0    0 -0.54998151253E+03 -0.22381729140E+02 -0.75294385914E+03  0.93705791084E+03  0.90401699875E+02 0.  0.
         11    1    3    3    0    0 -0.18080319751E+03  0.35083585697E+02 -0.25142670218E+03  0.31166655385E+03  0.00000000000E+00 0.  1.
        -11    1    3    3    0    0 -0.36917831501E+03 -0.57465314837E+02 -0.50151715695E+03  0.62539135700E+03  0.00000000000E+00 0. -1.
         22    1    1    2    0    0  0.54998151253E+03  0.22381729140E+02  0.79880764500E+03  0.97008982039E+03  0.00000000000E+00 0. -1.
<mgrwt>
<rscale>  0 0.19065962E+04</rscale>
<asrwt>0</asrwt>
<pdfrwt beam="1">  1        2 0.14317569E+00 0.19065962E+04</pdfrwt>
<pdfrwt beam="2">  1       -2 0.15023165E+00 0.19065962E+04</pdfrwt>
<totfact> 0.78092876E+00</totfact>
</mgrwt>
</event>
<event>
 6    1  0.6091287E-004  0.2677769E+04  0.7818608E-02  0.8342254E-01
         -2   -1    0    0    0  501 -0.00000000000E+00  0.00000000000E+00  0.74938393974E+03  0.74938393974E+03  0.00000000000E+00 0. -1.
          2   -1    0    0  501    0  0.00000000000E+00 -0.00000000000E+00 -0.23921140338E+04  0.23921140338E+04  0.00000000000E+00 0.  1.
         23    2    1    2    0    0 -0.13220504002E+04  0.18189754312E+03 -0.92433626103E+03  0.16259143645E+04  0.91082492326E+02 0.  0.
         13    1    3    3    0    0 -0.94269400639E+03  0.12307074779E+03 -0.70706648202E+03  0.11848043757E+04  0.00000000000E+00 0. -1.
        -13    1    3    3    0    0 -0.37935639377E+03  0.58826795334E+02 -0.21726977901E+03  0.44110998879E+03  0.00000000000E+00 0.  1.
         22    1    1    2    0    0  0.13220504002E+04 -0.18189754312E+03 -0.71839383304E+03  0.15155836091E+04  0.00000000000E+00 0. -1.
<mgrwt>
<rscale>  0 0.26777691E+04</rscale>
<asrwt>0</asrwt>
<pdfrwt beam="1">  1        2 0.36801755E+00 0.26777691E+04</pdfrwt>
<pdfrwt beam="2">  1       -2 0.11528983E+00 0.26777691E+04</pdfrwt>
<totfact> 0.20686538E+00</totfact>
</mgrwt>
</event>
<event>
 6    1  0.6091287E-004  0.1873507E+04  0.7818608E-02  0.8668157E-01
          2   -1    0    0  501    0  0.00000000000E+00  0.00000000000E+00  0.29681556170E+04  0.29681556170E+04  0.00000000000E+00 0. -1.
         -2   -1    0    0    0  501 -0.00000000000E+00 -0.00000000000E+00 -0.29564041508E+03  0.29564041508E+03  0.00000000000E+00 0.  1.
         23    2    1    2    0    0  0.38389203627E+03  0.33034050107E+03 -0.28838897971E+02  0.51537613781E+03  0.91010654488E+02 0.  0.
         13    1    3    3    0    0  0.13191887713E+03  0.85415825508E+02  0.27342207537E+02  0.15951817986E+03  0.00000000000E+00 0.  1.
        -13    1    3    3    0    0  0.25197315914E+03  0.24492467557E+03 -0.56181105507E+02  0.35585795796E+03  0.00000000000E+00 0. -1.
         22    1    1    2    0    0 -0.38389203627E+03 -0.33034050107E+03  0.27013540999E+04  0.27484198942E+04  0.00000000000E+00 0.  1.
<mgrwt>
<rscale>  0 0.18735066E+04</rscale>
<asrwt>0</asrwt>
<pdfrwt beam="1">  1        2 0.45663931E+00 0.18735066E+04</pdfrwt>
<pdfrwt beam="2">  1       -2 0.45483143E-01 0.18735066E+04</pdfrwt>
<totfact> 0.78664956E+00</totfact>
</mgrwt>
</event>
<event>
 6    1  0.6091287E-004  0.6998870E+03  0.7818608E-02  0.9717425E-01
         -2   -1    0    0    0  501 -0.00000000000E+00  0.00000000000E+00  0.48825210444E+03  0.48825210444E+03  0.00000000000E+00 0. -1.
          2   -1    0    0  501    0  0.00000000000E+00 -0.00000000000E+00 -0.25081396403E+03  0.25081396403E+03  0.00000000000E+00 0.  1.
         23    2    1    2    0    0 -0.36394407863E+02 -0.32416300058E+03  0.23708425557E+03  0.41286623846E+03  0.88562874544E+02 0.  0.
         11    1    3    3    0    0 -0.20093047308E+02 -0.23647184346E+03  0.12075611023E+03  0.26627936732E+03  0.00000000000E+00 0. -1.
        -11    1    3    3    0    0 -0.16301360556E+02 -0.87691157123E+02  0.11632814533E+03  0.14658687114E+03  0.00000000000E+00 0.  1.
         22    1    1    2    0    0  0.36394407863E+02  0.32416300058E+03  0.35388484199E+00  0.32619983002E+03  0.00000000000E+00 0.  1.
<mgrwt>
<rscale>  0 0.69988698E+03</rscale>
<asrwt>0</asrwt>
<pdfrwt beam="1">  1        2 0.38586764E-01 0.69988698E+03</pdfrwt>
<pdfrwt beam="2">  1       -2 0.75115708E-01 0.69988698E+03</pdfrwt>
<totfact> 0.21549409E+02</totfact>
</mgrwt>
</event>
<event>
 6    1  0.6091287E-004  0.1118119E+04  0.7818608E-02  0.9187710E-01
          1   -1    0    0  501    0  0.00000000000E+00  0.00000000000E+00  0.12284621456E+04  0.12284621456E+04  0.00000000000E+00 0. -1.
         -1   -1    0    0    0  501 -0.00000000000E+00 -0.00000000000E+00 -0.25442184085E+03  0.25442184085E+03  0.00000000000E+00 0.  1.
         23    2    1    2    0    0  0.42115252196E+03 -0.99620891159E+00  0.10030391412E+02  0.43089275445E+03  0.90540145255E+02 0.  0.
         11    1    3    3    0    0  0.99951586390E+02 -0.37604162192E+02 -0.81478176729E+01  0.10710172533E+03  0.00000000000E+00 0. -1.
        -11    1    3    3    0    0  0.32120093557E+03  0.36607953280E+02  0.18178209084E+02  0.32379102912E+03  0.00000000000E+00 0.  1.
         22    1    1    2    0    0 -0.42115252196E+03  0.99620891159E+00  0.96400991338E+03  0.10519912320E+04  0.00000000000E+00 0. -1.
<mgrwt>
<rscale>  0 0.11181191E+04</rscale>
<asrwt>0</asrwt>
<pdfrwt beam="1">  1        1 0.18899417E+00 0.11181191E+04</pdfrwt>
<pdfrwt beam="2">  1       -1 0.39141823E-01 0.11181191E+04</pdfrwt>
<totfact> 0.64212452E+01</totfact>
</mgrwt>
</event>
<event>
 6    1  0.6091287E-004  0.4657766E+04  0.7818608E-02  0.7883584E-01
         -1   -1    0    0    0  501 -0.00000000000E+00  0.00000000000E+00  0.18875108846E+04  0.18875108846E+04  0.00000000000E+00 0. -1.
          1   -1    0    0  501    0  0.00000000000E+00 -0.00000000000E+00 -0.28734649028E+04  0.28734649028E+04  0.00000000000E+00 0.  1.
         23    2    1    2    0    0 -0.82940705870E+03 -0.18375690340E+04 -0.16830001958E+04  0.26277975488E+04  0.90853039607E+02 0.  0.
         11    1    3    3    0    0 -0.83190001895E+02 -0.19157319912E+03 -0.13978512021E+03  0.25131801939E+03  0.00000000000E+00 0.  1.
        -11    1    3    3    0    0 -0.74621705681E+03 -0.16459958349E+04 -0.15432150756E+04  0.23764795294E+04  0.00000000000E+00 0. -1.
         22    1    1    2    0    0  0.82940705870E+03  0.18375690340E+04  0.69704617761E+03  0.21331782386E+04  0.00000000000E+00 0. -1.
<mgrwt>
<rscale>  0 0.46577661E+04</rscale>
<asrwt>0</asrwt>
<pdfrwt beam="1">  1        1 0.44207152E+00 0.46577661E+04</pdfrwt>
<pdfrwt beam="2">  1       -1 0.29038629E+00 0.46577661E+04</pdfrwt>
<totfact> 0.20877663E-02</totfact>
</mgrwt>
</event>
<event>
 6    1  0.6091287E-004  0.3537132E+04  0.7818608E-02  0.8105046E-01
          2   -1    0    0  501    0  0.00000000000E+00  0.00000000000E+00  0.34889324988E+04  0.34889324988E+04  0.00000000000E+00 0. -1.
         -2   -1    0    0    0  501 -0.00000000000E+00 -0.00000000000E+00 -0.89649928114E+03  0.89649928114E+03  0.00000000000E+00 0.  1.
         23    2    1    2    0    0  0.13638158510E+04  0.97222837104E+03  0.59725774343E+03  0.17804467792E+04  0.89734277995E+02 0.  0.
         13    1    3    3    0    0  0.15650071294E+03  0.78169627234E+02  0.65530068839E+02  0.18680779881E+03  0.00000000000E+00 0. -1.
        -13    1    3    3    0    0  0.12073151381E+04  0.89405874380E+03  0.53172767459E+03  0.15936389804E+04  0.00000000000E+00 0.  1.
         22    1    1    2    0    0 -0.13638158510E+04 -0.97222837104E+03  0.19951754742E+04  0.26049850007E+04  0.00000000000E+00 0. -1.
<mgrwt>
<rscale>  0 0.35371319E+04</rscale>
<asrwt>0</asrwt>
<pdfrwt beam="1">  1        2 0.53675884E+00 0.35371319E+04</pdfrwt>
<pdfrwt beam="2">  1       -2 0.13792297E+00 0.35371319E+04</pdfrwt>
<totfact> 0.25273452E-01</totfact>
</mgrwt>
</event>
<event>
 6    1  0.6091287E-004  0.2595523E+04  0.7818608E-02  0.8369724E-01
         -2   -1    0    0    0  501 -0.00000000000E+00  0.00000000000E+00  0.39144828978E+03  0.39144828978E+03  0.00000000000E+00 0. -1.
          2   -1    0    0  501    0  0.00000000000E+00 -0.00000000000E+00 -0.43024445162E+04  0.43024445162E+04  0.00000000000E+00 0.  1.
         23    2    1    2    0    0  0.11876528406E+02  0.81626008901E+03 -0.37789351468E+04  0.38669334880E+04  0.80013574847E+02 0.  0.
         13    1    3    3    0    0 -0.28813092721E+02  0.32050659824E+03 -0.15804514719E+04  0.16128798867E+04  0.00000000000E+00 0. -1.
        -13    1    3    3    0    0  0.40689621127E+02  0.49575349077E+03 -0.21984836749E+04  0.22540536013E+04  0.00000000000E+00 0.  1.
         22    1    1    2    0    0 -0.11876528406E+02 -0.81626008901E+03 -0.13206107964E+03  0.82695931798E+03  0.00000000000E+00 0. -1.
<mgrwt>
<rscale>  0 0.25955227E+04</rscale>
<asrwt>0</asrwt>
<pdfrwt beam="1">  1        2 0.66191455E+00 0.25955227E+04</pdfrwt>
<pdfrwt beam="2">  1       -2 0.60222813E-01 0.25955227E+04</pdfrwt>
<totfact> 0.43065570E-01</totfact>
</mgrwt>
</event>
<event>
 6    1  0.6091287E-004  0.2262218E+04  0.7818608E-02  0.8492969E-01
          2   -1    0    0  501    0  0.00000000000E+00  0.00000000000E+00  0.39962674212E+04  0.39962674212E+04  0.00000000000E+00 0.  1.
         -2   -1    0    0    0  501 -0.00000000000E+00 -0.00000000000E+00 -0.32015063531E+03  0.32015063531E+03  0.00000000000E+00 0. -1.
         23    2    1    2    0    0 -0.81510190544E+03  0.27128750143E+03  0.44244412058E+03  0.97058080238E+03  0.91006974683E+02 0.  0.
         11    1    3    3    0    0 -0.45686475738E+03  0.10458889543E+03  0.24588530379E+03  0.52926725404E+03  0.00000000000E+00 0.  1.
        -11    1    3    3    0    0 -0.35823714806E+03  0.16669860600E+03  0.19655881678E+03  0.44131354834E+03  0.00000000000E+00 0. -1.
         22    1    1    2    0    0  0.81510190544E+03 -0.27128750143E+03  0.32336726653E+04  0.33458372541E+04  0.00000000000E+00 0.  1.
<mgrwt>
<rscale>  0 0.22622180E+04</rscale>
<asrwt>0</asrwt>
<pdfrwt beam="1">  1        2 0.61481034E+00 0.22622180E+04</pdfrwt>
<pdfrwt beam="2">  1       -2 0.49253947E-01 0.22622180E+04</pdfrwt>
<totfact> 0.12302304E+00</totfact>
</mgrwt>
</event>
<event>
 6    1  0.6091287E-004  0.4652248E+04  0.7818608E-02  0.7884512E-01
          2   -1    0    0  501    0  0.00000000000E+00  0.00000000000E+00  0.36231918509E+04  0.36231918509E+04  0.00000000000E+00 0.  1.
         -2   -1    0    0    0  501 -0.00000000000E+00 -0.00000000000E+00 -0.14933937565E+04  0.14933937565E+04  0.00000000000E+00 0. -1.
         23    2    1    2    0    0 -0.10512353865E+04  0.94106192644E+03 -0.96773539546E+03  0.17128513187E+04  0.81574855960E+02 0.  0.
         13    1    3    3    0    0 -0.79169931550E+03  0.73186972929E+03 -0.77498735272E+03  0.13277900827E+04  0.00000000000E+00 0.  1.
        -13    1    3    3    0    0 -0.25953607099E+03  0.20919219715E+03 -0.19274804274E+03  0.38506123600E+03  0.00000000000E+00 0. -1.
         22    1    1    2    0    0  0.10512353865E+04 -0.94106192644E+03  0.30975334898E+04  0.34037342887E+04  0.00000000000E+00 0.  1.
<mgrwt>
<rscale>  0 0.46522477E+04</rscale>
<asrwt>0</asrwt>
<pdfrwt beam="1">  1        2 0.55741413E+00 0.46522477E+04</pdfrwt>
<pdfrwt beam="2">  1       -2 0.22975289E+00 0.46522477E+04</pdfrwt>
<totfact> 0.42558384E-02</totfact>
</mgrwt>
</event>
<event>
 6    1  0.6091287E-004  0.1584811E+04  0.7818608E-02  0.8829934E-01
         -2   -1    0    0    0  501 -0.00000000000E+00  0.00000000000E+00  0.77476297850E+03  0.77476297850E+03  0.00000000000E+00 0. -1.
          2   -1    0    0  501    0  0.00000000000E+00 -0.00000000000E+00 -0.81044960764E+03  0.81044960764E+03  0.00000000000E+00 0.  1.
         23    2    1    2    0    0  0.50391148304E+03  0.60617185044E+03  0.14591210364E+02  0.79533983933E+03  0.10479246922E+03 0.  0.
         13    1    3    3    0    0  0.22842497416E+03  0.27210998300E+03  0.58714919366E+02  0.36009617246E+03  0.00000000000E+00 0. -1.
        -13    1    3    3    0    0  0.27548650888E+03  0.33406186745E+03 -0.44123709002E+02  0.43524366687E+03  0.00000000000E+00 0.  1.
         22    1    1    2    0    0 -0.50391148304E+03 -0.60617185044E+03 -0.50277839503E+02  0.78987274681E+03  0.00000000000E+00 0.  1.
<mgrwt>
<rscale>  0 0.15848108E+04</rscale>
<asrwt>0</asrwt>
<pdfrwt beam="1">  1        2 0.12468455E+00 0.15848108E+04</pdfrwt>
<pdfrwt beam="2">  1       -2 0.11919430E+00 0.15848108E+04</pdfrwt>
<totfact> 0.17548808E+01</totfact>
</mgrwt>
</event>
<event>
 6    1  0.6091287E-004  0.1741144E+04  0.7818608E-02  0.8738240E-01
          2   -1    0    0  501    0  0.00000000000E+00  0.00000000000E+00  0.26876065708E+03  0.26876065708E+03  0.00000000000E+00 0.  1.
         -2   -1    0    0    0  501 -0.00000000000E+00 -0.00000000000E+00 -0.28199658325E+04  0.28199658325E+04  0.00000000000E+00 0. -1.
         23    2    1    2    0    0 -0.77678834426E+03  0.31755621289E+03 -0.88472779186E+03  0.12228784384E+04  0.91903913568E+02 0.  0.
         11    1    3    3    0    0 -0.11380350142E+03  0.78179928571E+02 -0.17057919882E+03  0.21945523743E+03  0.00000000000E+00 0.  1.
        -11    1    3    3    0    0 -0.66298484284E+03  0.23937628432E+03 -0.71414859304E+03  0.10034232010E+04  0.00000000000E+00 0. -1.
         22    1    1    2    0    0  0.77678834426E+03 -0.31755621289E+03 -0.16664773836E+04  0.18658480512E+04  0.00000000000E+00 0. -1.
<mgrwt>
<rscale>  0 0.17411443E+04</rscale>
<asrwt>0</asrwt>
<pdfrwt beam="1">  1        2 0.41347797E-01 0.17411443E+04</pdfrwt>
<pdfrwt beam="2">  1       -2 0.43384086E+00 0.17411443E+04</pdfrwt>
<totfact> 0.52546620E-01</totfact>
</mgrwt>
</event>
<event>
 6    1  0.6091287E-004  0.1242487E+04  0.7818608E-02  0.9076459E-01
          2   -1    0    0  501    0  0.00000000000E+00  0.00000000000E+00  0.78890496134E+03  0.78890496134E+03  0.00000000000E+00 0.  1.
         -2   -1    0    0    0  501 -0.00000000000E+00 -0.00000000000E+00 -0.48921450032E+03  0.48921450032E+03  0.00000000000E+00 0. -1.
         23    2    1    2    0    0  0.42045018298E+03  0.32417980121E+02  0.61566038722E+03  0.75117897540E+03  0.86039868051E+02 0.  0.
         13    1    3    3    0    0  0.18896332903E+03 -0.16952028764E+02  0.32514304185E+03  0.37644721896E+03  0.00000000000E+00 0.  1.
        -13    1    3    3    0    0  0.23148685395E+03  0.49370008885E+02  0.29051734537E+03  0.37473175644E+03  0.00000000000E+00 0. -1.
         22    1    1    2    0    0 -0.42045018298E+03 -0.32417980121E+02 -0.31596992620E+03  0.52694048626E+03  0.00000000000E+00 0. -1.
<mgrwt>
<rscale>  0 0.12424874E+04</rscale>
<asrwt>0</asrwt>
<pdfrwt beam="1">  1        2 0.12136999E+00 0.12424874E+04</pdfrwt>
<pdfrwt beam="2">  1       -2 0.75263769E-01 0.12424874E+04</pdfrwt>
<totfact> 0.54734515E+01</totfact>
</mgrwt>
</event>
<event>
 6    1  0.6091287E-004  0.3014202E+04  0.7818608E-02  0.8239687E-01
          2   -1    0    0  501    0  0.00000000000E+00  0.00000000000E+00  0.11815557676E+04  0.11815557676E+04  0.00000000000E+00 0.  1.
         -2   -1    0    0    0  501 -0.00000000000E+00 -0.00000000000E+00 -0.19223406520E+04  0.19223406520E+04  0.00000000000E+00 0. -1.
         23    2    1    2    0    0  0.62257306875E+03 -0.16019172874E+03  0.10313823580E+04  0.12187345296E+04  0.91135445401E+02 0.  0.
         13    1    3    3    0    0  0.95689030451E+02 -0.10213717133E+02  0.10443491683E+03  0.14201183901E+03  0.00000000000E+00 0.  1.
        -13    1    3    3    0    0  0.52688403829E+03 -0.14997801161E+03  0.92694744120E+03  0.10767226906E+04  0.00000000000E+00 0. -1.
         22    1    1    2    0    0 -0.62257306875E+03  0.16019172874E+03 -0.17721672425E+04  0.18851618899E+04  0.00000000000E+00 0. -1.
<mgrwt>
<rscale>  0 0.30142015E+04</rscale>
<asrwt>0</asrwt>
<pdfrwt beam="1">  1        2 0.18177781E+00 0.30142015E+04</pdfrwt>
<pdfrwt beam="2">  1       -2 0.29574471E+00 0.30142015E+04</pdfrwt>
<totfact> 0.56060756E-01</totfact>
</mgrwt>
</event>
<event>
 6    1  0.1957073E-003  0.4434914E+04  0.7818608E-02  0.7922132E-01
          2   -1    0    0  501    0  0.00000000000E+00  0.00000000000E+00  0.20331897936E+04  0.20331897936E+04  0.00000000000E+00 0.  1.
         -2   -1    0    0    0  501 -0.00000000000E+00 -0.00000000000E+00 -0.24184240563E+04  0.24184240563E+04  0.00000000000E+00 0. -1.
         23    2    1    2    0    0  0.20229122901E+04  0.56587400106E+03  0.51759619336E+03  0.21652432870E+04  0.89359689049E+02 0.  0.
         13    1    3    3    0    0  0.72845426543E+03  0.21659225394E+03  0.14501161754E+03  0.77368352090E+03  0.00000000000E+00 0.  1.
        -13    1    3    3    0    0  0.12944580247E+04  0.34928174711E+03  0.37258457582E+03  0.13915597661E+04  0.00000000000E+00 0. -1.
         22    1    1    2    0    0 -0.20229122901E+04 -0.56587400106E+03 -0.90283045598E+03  0.22863705629E+04  0.00000000000E+00 0. -1.
<mgrwt>
<rscale>  0 0.44349138E+04</rscale>
<asrwt>0</asrwt>
<pdfrwt beam="1">  1        2 0.31279843E+00 0.44349138E+04</pdfrwt>
<pdfrwt beam="2">  1       -2 0.37206524E+00 0.44349138E+04</pdfrwt>
<totfact> 0.54918005E-02</totfact>
</mgrwt>
</event>
<event>
 6    1  0.6091287E-004  0.2838573E+04  0.7818608E-02  0.8291392E-01
         -2   -1    0    0    0  501 -0.00000000000E+00  0.00000000000E+00  0.18559212234E+04  0.18559212234E+04  0.00000000000E+00 0. -1.
          2   -1    0    0  501    0  0.00000000000E+00 -0.00000000000E+00 -0.10853766829E+04  0.10853766829E+04  0.00000000000E+00 0.  1.
         23    2    1    2    0    0 -0.62941944596E+03  0.12562002631E+04  0.18774595083E+03  0.14201594721E+04  0.86002582645E+02 0.  0.
         13    1    3    3    0    0 -0.22437939747E+03  0.38594992189E+03  0.30521645712E+02  0.44747628660E+03  0.00000000000E+00 0.  1.
        -13    1    3    3    0    0 -0.40504004848E+03  0.87025034122E+03  0.15722430511E+03  0.97268318552E+03  0.00000000000E+00 0. -1.
         22    1    1    2    0    0  0.62941944596E+03 -0.12562002631E+04  0.58279858967E+03  0.15211384342E+04  0.00000000000E+00 0.  1.
<mgrwt>
<rscale>  0 0.28385726E+04</rscale>
<asrwt>0</asrwt>
<pdfrwt beam="1">  1        2 0.16698103E+00 0.28385726E+04</pdfrwt>
<pdfrwt beam="2">  1       -2 0.28552634E+00 0.28385726E+04</pdfrwt>
<totfact> 0.75187177E-01</totfact>
</mgrwt>
</event>
<event>
 6    1  0.6091287E-004  0.1908387E+04  0.7818608E-02  0.8650693E-01
         -4   -1    0    0    0  501 -0.00000000000E+00  0.00000000000E+00  0.52772739223E+03  0.52772739223E+03  0.00000000000E+00 0. -1.
          4   -1    0    0  501    0  0.00000000000E+00 -0.00000000000E+00 -0.17252941498E+04  0.17252941498E+04  0.00000000000E+00 0.  1.
         23    2    1    2    0    0  0.93835005386E+03  0.63424490773E+02 -0.77443135154E+03  0.12217276647E+04  0.91384237554E+02 0.  0.
         13    1    3    3    0    0  0.56084149009E+03 -0.65601962353E+01 -0.45099854559E+03  0.71971237401E+03  0.00000000000E+00 0. -1.
        -13    1    3    3    0    0  0.37750856376E+03  0.69984687008E+02 -0.32343280595E+03  0.50201529070E+03  0.00000000000E+00 0.  1.
         22    1    1    2    0    0 -0.93835005386E+03 -0.63424490773E+02 -0.42313540607E+03  0.10312938774E+04  0.00000000000E+00 0.  1.
<mgrwt>
<rscale>  0 0.19083867E+04</rscale>
<asrwt>0</asrwt>
<pdfrwt beam="1">  1        4 0.26542987E+00 0.19083867E+04</pdfrwt>
<pdfrwt beam="2">  1       -4 0.81188829E-01 0.19083867E+04</pdfrwt>
<totfact> 0.12738482E-01</totfact>
</mgrwt>
</event>
<event>
 6    1  0.6091287E-004  0.2779281E+04  0.7818608E-02  0.8309730E-01
          2   -1    0    0  501    0  0.00000000000E+00  0.00000000000E+00  0.12794132874E+04  0.12794132874E+04  0.00000000000E+00 0.  1.
         -2   -1    0    0    0  501 -0.00000000000E+00 -0.00000000000E+00 -0.15093647125E+04  0.15093647125E+04  0.00000000000E+00 0. -1.
         23    2    1    2    0    0  0.20470980047E+03  0.29543884866E+03  0.12303395368E+04  0.12849030354E+04  0.89723011814E+02 0.  0.
         13    1    3    3    0    0  0.36373354578E+02  0.11096233597E+03  0.48406628520E+03  0.49795163359E+03  0.00000000000E+00 0.  1.
        -13    1    3    3    0    0  0.16833644590E+03  0.18447651268E+03  0.74627325156E+03  0.78695140177E+03  0.00000000000E+00 0. -1.
         22    1    1    2    0    0 -0.20470980047E+03 -0.29543884866E+03 -0.14602909618E+04  0.15038749645E+04  0.00000000000E+00 0. -1.
<mgrwt>
<rscale>  0 0.27792814E+04</rscale>
<asrwt>0</asrwt>
<pdfrwt beam="1">  1        2 0.19683281E+00 0.27792814E+04</pdfrwt>
<pdfrwt beam="2">  1       -2 0.23220996E+00 0.27792814E+04</pdfrwt>
<totfact> 0.12269602E+00</totfact>
</mgrwt>
</event>
<event>
 6    1  0.6091287E-004  0.2635874E+04  0.7818608E-02  0.8356117E-01
         -2   -1    0    0    0  501 -0.00000000000E+00  0.00000000000E+00  0.59933155654E+03  0.59933155654E+03  0.00000000000E+00 0. -1.
          2   -1    0    0  501    0  0.00000000000E+00 -0.00000000000E+00 -0.28981577758E+04  0.28981577758E+04  0.00000000000E+00 0.  1.
         23    2    1    2    0    0  0.97585140704E+03 -0.78782536984E+03 -0.62032918100E+03  0.14021833668E+04  0.91406341173E+02 0.  0.
         11    1    3    3    0    0  0.83085569942E+03 -0.64335313207E+03 -0.54774076523E+03  0.11850081821E+04  0.00000000000E+00 0.  1.
        -11    1    3    3    0    0  0.14499570762E+03 -0.14447223777E+03 -0.72588415771E+02  0.21717518463E+03  0.00000000000E+00 0. -1.
         22    1    1    2    0    0 -0.97585140704E+03  0.78782536984E+03 -0.16784970382E+04  0.20953059656E+04  0.00000000000E+00 0. -1.
<mgrwt>
<rscale>  0 0.26358736E+04</rscale>
<asrwt>0</asrwt>
<pdfrwt beam="1">  1        2 0.44587042E+00 0.26358736E+04</pdfrwt>
<pdfrwt beam="2">  1       -2 0.92204857E-01 0.26358736E+04</pdfrwt>
<totfact> 0.17747062E+00</totfact>
</mgrwt>
</event>
<event>
 6    1  0.6091287E-004  0.2218040E+04  0.7818608E-02  0.8510957E-01
          2   -1    0    0  501    0  0.00000000000E+00  0.00000000000E+00  0.17324950566E+04  0.17324950566E+04  0.00000000000E+00 0.  1.
         -2   -1    0    0    0  501 -0.00000000000E+00 -0.00000000000E+00 -0.70991560312E+03  0.70991560312E+03  0.00000000000E+00 0. -1.
         23    2    1    2    0    0  0.19615589300E+03  0.69539069625E+03  0.14358285317E+04  0.16100524703E+04  0.92844115112E+02 0.  0.
         13    1    3    3    0    0  0.23075947159E+02  0.20634078725E+03  0.35735377181E+03  0.41329255745E+03  0.00000000000E+00 0. -1.
        -13    1    3    3    0    0  0.17307994584E+03  0.48904990900E+03  0.10784747599E+04  0.11967599128E+04  0.00000000000E+00 0.  1.
         22    1    1    2    0    0 -0.19615589300E+03 -0.69539069625E+03 -0.41324907828E+03  0.83235818941E+03  0.00000000000E+00 0. -1.
<mgrwt>
<rscale>  0 0.22180399E+04</rscale>
<asrwt>0</asrwt>
<pdfrwt beam="1">  1        2 0.26653770E+00 0.22180399E+04</pdfrwt>
<pdfrwt beam="2">  1       -2 0.10921779E+00 0.22180399E+04</pdfrwt>
<totfact> 0.57396848E+00</totfact>
</mgrwt>
</event>
<event>
 6    1  0.6091287E-004  0.2228163E+04  0.7818608E-02  0.8506797E-01
         -2   -1    0    0    0  501 -0.00000000000E+00  0.00000000000E+00  0.12718449007E+04  0.12718449007E+04  0.00000000000E+00 0. -1.
          2   -1    0    0  501    0  0.00000000000E+00 -0.00000000000E+00 -0.97588756540E+03  0.97588756540E+03  0.00000000000E+00 0.  1.
         23    2    1    2    0    0  0.97100290331E+03  0.46310068235E+03 -0.13660942115E+03  0.10882399569E+04  0.91077931151E+02 0.  0.
         11    1    3    3    0    0  0.52179975389E+03  0.29262161598E+03 -0.98038429630E+02  0.60622926932E+03  0.00000000000E+00 0. -1.
        -11    1    3    3    0    0  0.44920314942E+03  0.17047906637E+03 -0.38570991516E+02  0.48201068755E+03  0.00000000000E+00 0.  1.
         22    1    1    2    0    0 -0.97100290331E+03 -0.46310068235E+03  0.43256675649E+03  0.11594925093E+04  0.00000000000E+00 0. -1.
<mgrwt>
<rscale>  0 0.22281630E+04</rscale>
<asrwt>0</asrwt>
<pdfrwt beam="1">  1        2 0.15013655E+00 0.22281630E+04</pdfrwt>
<pdfrwt beam="2">  1       -2 0.19566845E+00 0.22281630E+04</pdfrwt>
<totfact> 0.33816216E+00</totfact>
</mgrwt>
</event>
<event>
 6    1  0.6091287E-004  0.1718178E+04  0.7818608E-02  0.8751064E-01
         -2   -1    0    0    0  501 -0.00000000000E+00  0.00000000000E+00  0.14366104516E+04  0.14366104516E+04  0.00000000000E+00 0. -1.
          2   -1    0    0  501    0  0.00000000000E+00 -0.00000000000E+00 -0.51373284871E+03  0.51373284871E+03  0.00000000000E+00 0.  1.
         23    2    1    2    0    0 -0.44069945267E+02  0.63935880421E+03 -0.18263952520E+03  0.67249747194E+03  0.90409142264E+02 0.  0.
         11    1    3    3    0    0 -0.47914173304E+02  0.47348371836E+03 -0.96641712590E+02  0.48561530059E+03  0.00000000000E+00 0.  1.
        -11    1    3    3    0    0  0.38442280370E+01  0.16587508585E+03 -0.85997812607E+02  0.18688217135E+03  0.00000000000E+00 0. -1.
         22    1    1    2    0    0  0.44069945267E+02 -0.63935880421E+03  0.11055171281E+04  0.12778458284E+04  0.00000000000E+00 0. -1.
<mgrwt>
<rscale>  0 0.17181781E+04</rscale>
<asrwt>0</asrwt>
<pdfrwt beam="1">  1        2 0.79035823E-01 0.17181781E+04</pdfrwt>
<pdfrwt beam="2">  1       -2 0.22101699E+00 0.17181781E+04</pdfrwt>
<totfact> 0.55167228E+00</totfact>
</mgrwt>
</event>
<event>
 6    1  0.6091287E-004  0.4446120E+04  0.7818608E-02  0.7920138E-01
          1   -1    0    0  501    0  0.00000000000E+00  0.00000000000E+00  0.23233373531E+04  0.23233373531E+04  0.00000000000E+00 0.  1.
         -1   -1    0    0    0  501 -0.00000000000E+00 -0.00000000000E+00 -0.21271103281E+04  0.21271103281E+04  0.00000000000E+00 0. -1.
         23    2    1    2    0    0 -0.10726673472E+04  0.15044246523E+03 -0.18440246022E+04  0.21404964101E+04  0.89721653864E+02 0.  0.
         11    1    3    3    0    0 -0.64286811569E+03  0.50469984921E+02 -0.10553767362E+04  0.12367888618E+04  0.00000000000E+00 0. -1.
        -11    1    3    3    0    0 -0.42979923149E+03  0.99972480306E+02 -0.78864786599E+03  0.90370754824E+03  0.00000000000E+00 0.  1.
         22    1    1    2    0    0  0.10726673472E+04 -0.15044246523E+03  0.20402516272E+04  0.23099512712E+04  0.00000000000E+00 0.  1.
<mgrwt>
<rscale>  0 0.44461196E+04</rscale>
<asrwt>0</asrwt>
<pdfrwt beam="1">  1        1 0.35743651E+00 0.44461196E+04</pdfrwt>
<pdfrwt beam="2">  1       -1 0.32724774E+00 0.44461196E+04</pdfrwt>
<totfact> 0.29709118E-02</totfact>
</mgrwt>
</event>
<event>
 6    1  0.6091287E-004  0.4395334E+04  0.7818608E-02  0.7929221E-01
         -2   -1    0    0    0  501 -0.00000000000E+00  0.00000000000E+00  0.25793197079E+04  0.25793197079E+04  0.00000000000E+00 0. -1.
          2   -1    0    0  501    0  0.00000000000E+00 -0.00000000000E+00 -0.18724857942E+04  0.18724857942E+04  0.00000000000E+00 0.  1.
         23    2    1    2    0    0  0.14972204960E+04 -0.96613807023E+03 -0.94770473482E+03  0.20202236869E+04  0.89819243173E+02 0.  0.
         13    1    3    3    0    0  0.11250154274E+04 -0.70074751623E+03 -0.66686677445E+03  0.14837176578E+04  0.00000000000E+00 0. -1.
        -13    1    3    3    0    0  0.37220506867E+03 -0.26539055400E+03 -0.28083796038E+03  0.53650602912E+03  0.00000000000E+00 0.  1.
         22    1    1    2    0    0 -0.14972204960E+04  0.96613807023E+03  0.16545386485E+04  0.24315818151E+04  0.00000000000E+00 0. -1.
<mgrwt>
<rscale>  0 0.43953337E+04</rscale>
<asrwt>0</asrwt>
<pdfrwt beam="1">  1        2 0.28807474E+00 0.43953337E+04</pdfrwt>
<pdfrwt beam="2">  1       -2 0.39681842E+00 0.43953337E+04</pdfrwt>
<totfact> 0.46796099E-02</totfact>
</mgrwt>
</event>
<event>
 6    1  0.6091287E-004  0.8785535E+03  0.7818608E-02  0.9452795E-01
          2   -1    0    0  501    0  0.00000000000E+00  0.00000000000E+00  0.76259993400E+03  0.76259993400E+03  0.00000000000E+00 0.  1.
         -2   -1    0    0    0  501 -0.00000000000E+00 -0.00000000000E+00 -0.25303448199E+03  0.25303448199E+03  0.00000000000E+00 0. -1.
         23    2    1    2    0    0 -0.38593713875E+03  0.14670628583E+03  0.41430543902E+03  0.59190728747E+03  0.90747070394E+02 0.  0.
         11    1    3    3    0    0 -0.24620739012E+03  0.94156818240E+02  0.20070380401E+03  0.33130892278E+03  0.00000000000E+00 0.  1.
        -11    1    3    3    0    0 -0.13972974862E+03  0.52549467594E+02  0.21360163501E+03  0.26059836468E+03  0.00000000000E+00 0. -1.
         22    1    1    2    0    0  0.38593713875E+03 -0.14670628583E+03  0.95260012996E+02  0.42372712852E+03  0.00000000000E+00 0. -1.
<mgrwt>
<rscale>  0 0.87855354E+03</rscale>
<asrwt>0</asrwt>
<pdfrwt beam="1">  1        2 0.11732307E+00 0.87855354E+03</pdfrwt>
<pdfrwt beam="2">  1       -2 0.38928382E-01 0.87855354E+03</pdfrwt>
<totfact> 0.22954870E+02</totfact>
</mgrwt>
</event>
<event>
 6    1  0.6091287E-004  0.1599854E+04  0.7818608E-02  0.8820638E-01
          2   -1    0    0  501    0  0.00000000000E+00  0.00000000000E+00  0.84900386404E+03  0.84900386404E+03  0.00000000000E+00 0.  1.
         -2   -1    0    0    0  501 -0.00000000000E+00 -0.00000000000E+00 -0.75368707597E+03  0.75368707597E+03  0.00000000000E+00 0. -1.
         23    2    1    2    0    0  0.18091440471E+03  0.74508352907E+03 -0.17125803824E+03  0.79093874560E+03  0.91516646067E+02 0.  0.
         13    1    3    3    0    0  0.72874508677E+02  0.39894843776E+03 -0.13061043070E+03  0.42606294678E+03  0.00000000000E+00 0.  1.
        -13    1    3    3    0    0  0.10803989604E+03  0.34613509130E+03 -0.40647607544E+02  0.36487579882E+03  0.00000000000E+00 0. -1.
         22    1    1    2    0    0 -0.18091440471E+03 -0.74508352907E+03  0.26657482630E+03  0.81175219442E+03  0.00000000000E+00 0. -1.
<mgrwt>
<rscale>  0 0.15998540E+04</rscale>
<asrwt>0</asrwt>
<pdfrwt beam="1">  1        2 0.13061598E+00 0.15998540E+04</pdfrwt>
<pdfrwt beam="2">  1       -2 0.11595186E+00 0.15998540E+04</pdfrwt>
<totfact> 0.17616770E+01</totfact>
</mgrwt>
</event>
<event>
 6    1  0.6091287E-004  0.7676684E+03  0.7818608E-02  0.9608032E-01
         -2   -1    0    0    0  501 -0.00000000000E+00  0.00000000000E+00  0.59537339491E+02  0.59537339491E+02  0.00000000000E+00 0. -1.
          2   -1    0    0  501    0  0.00000000000E+00 -0.00000000000E+00 -0.24745598099E+04  0.24745598099E+04  0.00000000000E+00 0.  1.
         23    2    1    2    0    0  0.26232363084E+02  0.25440069046E+03 -0.21445619346E+04  0.21618650315E+04  0.95428898755E+02 0.  0.
         11    1    3    3    0    0  0.32496051657E+02  0.13004898434E+03 -0.14541940165E+04  0.14603591919E+04  0.00000000000E+00 0.  1.
        -11    1    3    3    0    0 -0.62636885732E+01  0.12435170612E+03 -0.69036791813E+03  0.70150583960E+03  0.00000000000E+00 0. -1.
         22    1    1    2    0    0 -0.26232363084E+02 -0.25440069046E+03 -0.27046053575E+03  0.37223211788E+03  0.00000000000E+00 0.  1.
<mgrwt>
<rscale>  0 0.76766844E+03</rscale>
<asrwt>0</asrwt>
<pdfrwt beam="1">  1        2 0.38070156E+00 0.76766844E+03</pdfrwt>
<pdfrwt beam="2">  1       -2 0.91595894E-02 0.76766844E+03</pdfrwt>
<totfact> 0.29513002E+02</totfact>
</mgrwt>
</event>
<event>
 6    1  0.6091287E-004  0.1145183E+04  0.7818608E-02  0.9162239E-01
         -1   -1    0    0    0  501 -0.00000000000E+00  0.00000000000E+00  0.25358771206E+03  0.25358771206E+03  0.00000000000E+00 0. -1.
          1   -1    0    0  501    0  0.00000000000E+00 -0.00000000000E+00 -0.12928904578E+04  0.12928904578E+04  0.00000000000E+00 0.  1.
         23    2    1    2    0    0  0.21237713330E+01 -0.53121429693E+03 -0.79938608181E+03  0.96359469495E+03  0.85460450999E+02 0.  0.
         13    1    3    3    0    0 -0.15926864571E+02 -0.29780373624E+03 -0.51633981029E+03  0.59627806435E+03  0.00000000000E+00 0. -1.
        -13    1    3    3    0    0  0.18050635904E+02 -0.23341056069E+03 -0.28304627153E+03  0.36731663061E+03  0.00000000000E+00 0.  1.
         22    1    1    2    0    0 -0.21237713330E+01  0.53121429693E+03 -0.23991666388E+03  0.58288347487E+03  0.00000000000E+00 0. -1.
<mgrwt>
<rscale>  0 0.11451832E+04</rscale>
<asrwt>0</asrwt>
<pdfrwt beam="1">  1        1 0.19890622E+00 0.11451832E+04</pdfrwt>
<pdfrwt beam="2">  1       -1 0.39013494E-01 0.11451832E+04</pdfrwt>
<totfact> 0.57939530E+01</totfact>
</mgrwt>
</event>
<event>
 6    1  0.6091287E-004  0.4852191E+04  0.7818608E-02  0.7851721E-01
          2   -1    0    0  501    0  0.00000000000E+00  0.00000000000E+00  0.31435123447E+04  0.31435123447E+04  0.00000000000E+00 0.  1.
         -2   -1    0    0    0  501 -0.00000000000E+00 -0.00000000000E+00 -0.18724089077E+04  0.18724089077E+04  0.00000000000E+00 0. -1.
         23    2    1    2    0    0  0.96866444580E+03  0.19192779510E+03  0.29256523752E+04  0.30890898442E+04  0.88809670120E+02 0.  0.
         13    1    3    3    0    0  0.41722733003E+03  0.63705112684E+02  0.11269403127E+04  0.12033833365E+04  0.00000000000E+00 0. -1.
        -13    1    3    3    0    0  0.55143711578E+03  0.12822268241E+03  0.17987120625E+04  0.18857065076E+04  0.00000000000E+00 0.  1.
         22    1    1    2    0    0 -0.96866444580E+03 -0.19192779510E+03 -0.16545489382E+04  0.19268314083E+04  0.00000000000E+00 0. -1.
<mgrwt>
<rscale>  0 0.48521915E+04</rscale>
<asrwt>0</asrwt>
<pdfrwt beam="1">  1        2 0.48361728E+00 0.48521915E+04</pdfrwt>
<pdfrwt beam="2">  1       -2 0.28806291E+00 0.48521915E+04</pdfrwt>
<totfact> 0.39048959E-02</totfact>
</mgrwt>
</event>
<event>
 6    1  0.6091287E-004  0.1862268E+04  0.7818608E-02  0.8673870E-01
         -2   -1    0    0    0  501 -0.00000000000E+00  0.00000000000E+00  0.80749015857E+03  0.80749015857E+03  0.00000000000E+00 0. -1.
          2   -1    0    0  501    0  0.00000000000E+00 -0.00000000000E+00 -0.10737099226E+04  0.10737099226E+04  0.00000000000E+00 0.  1.
         23    2    1    2    0    0 -0.52466071204E+03 -0.96614125355E+02  0.63486515495E+03  0.83403381778E+03  0.89193566199E+02 0.  0.
         13    1    3    3    0    0 -0.43624577777E+03 -0.64787680786E+02  0.56596196667E+03  0.71751011834E+03  0.00000000000E+00 0. -1.
        -13    1    3    3    0    0 -0.88414934264E+02 -0.31826444569E+02  0.68903188285E+02  0.11652369944E+03  0.00000000000E+00 0.  1.
         22    1    1    2    0    0  0.52466071204E+03  0.96614125355E+02 -0.90108491900E+03  0.10471662634E+04  0.00000000000E+00 0.  1.
<mgrwt>
<rscale>  0 0.18622676E+04</rscale>
<asrwt>0</asrwt>
<pdfrwt beam="1">  1        2 0.16518614E+00 0.18622676E+04</pdfrwt>
<pdfrwt beam="2">  1       -2 0.12422926E+00 0.18622676E+04</pdfrwt>
<totfact> 0.10349191E+01</totfact>
</mgrwt>
</event>
<event>
 6    1  0.6091287E-004  0.4962717E+04  0.7818608E-02  0.7834284E-01
          2   -1    0    0  501    0  0.00000000000E+00  0.00000000000E+00  0.25606906760E+04  0.25606906760E+04  0.00000000000E+00 0.  1.
         -2   -1    0    0    0  501 -0.00000000000E+00 -0.00000000000E+00 -0.24044842214E+04  0.24044842214E+04  0.00000000000E+00 0. -1.
         23    2    1    2    0    0 -0.85699318082E+03  0.13645262139E+03  0.24029870835E+04  0.25566318057E+04  0.94671203146E+02 0.  0.
         11    1    3    3    0    0 -0.62132668342E+03  0.10185409912E+03  0.16134568968E+04  0.17319538859E+04  0.00000000000E+00 0. -1.
        -11    1    3    3    0    0 -0.23566649740E+03  0.34598522273E+02  0.78953018666E+03  0.82467791979E+03  0.00000000000E+00 0.  1.
         22    1    1    2    0    0  0.85699318082E+03 -0.13645262139E+03 -0.22467806289E+04  0.24085430917E+04  0.00000000000E+00 0. -1.
<mgrwt>
<rscale>  0 0.49627171E+04</rscale>
<asrwt>0</asrwt>
<pdfrwt beam="1">  1        2 0.39395241E+00 0.49627171E+04</pdfrwt>
<pdfrwt beam="2">  1       -2 0.36992065E+00 0.49627171E+04</pdfrwt>
<totfact> 0.27241513E-02</totfact>
</mgrwt>
</event>
<event>
 6    1  0.6091287E-004  0.6029046E+04  0.7818608E-02  0.7686811E-01
          2   -1    0    0  501    0  0.00000000000E+00  0.00000000000E+00  0.34306652224E+04  0.34306652224E+04  0.00000000000E+00 0.  1.
         -2   -1    0    0    0  501 -0.00000000000E+00 -0.00000000000E+00 -0.26488593131E+04  0.26488593131E+04  0.00000000000E+00 0. -1.
         23    2    1    2    0    0  0.15318922139E+04  0.86139916579E+03 -0.20778570391E+04  0.27229824970E+04  0.91877779867E+02 0.  0.
         13    1    3    3    0    0  0.33428167318E+03  0.18952686388E+03 -0.51467303710E+03  0.64230289138E+03  0.00000000000E+00 0. -1.
        -13    1    3    3    0    0  0.11976105407E+04  0.67187230191E+03 -0.15631840020E+04  0.20806796056E+04  0.00000000000E+00 0.  1.
         22    1    1    2    0    0 -0.15318922139E+04 -0.86139916579E+03  0.28596629483E+04  0.33565420384E+04  0.00000000000E+00 0.  1.
<mgrwt>
<rscale>  0 0.60290462E+04</rscale>
<asrwt>0</asrwt>
<pdfrwt beam="1">  1        2 0.52779465E+00 0.60290462E+04</pdfrwt>
<pdfrwt beam="2">  1       -2 0.40751682E+00 0.60290462E+04</pdfrwt>
<totfact> 0.40414951E-03</totfact>
</mgrwt>
</event>
<event>
 6    1  0.6091287E-004  0.1801454E+04  0.7818608E-02  0.8705527E-01
          2   -1    0    0  501    0  0.00000000000E+00  0.00000000000E+00  0.55328107035E+03  0.55328107035E+03  0.00000000000E+00 0.  1.
         -2   -1    0    0    0  501 -0.00000000000E+00 -0.00000000000E+00 -0.14663600097E+04  0.14663600097E+04  0.00000000000E+00 0. -1.
         23    2    1    2    0    0  0.38431399085E+03 -0.62175189300E+03 -0.10433311373E+04  0.12771868424E+04  0.91617182483E+02 0.  0.
         13    1    3    3    0    0  0.45020104350E+02 -0.30072757100E+02 -0.89074433982E+02  0.10423739878E+03  0.00000000000E+00 0. -1.
        -13    1    3    3    0    0  0.33929388650E+03 -0.59167913590E+03 -0.95425670336E+03  0.11729494436E+04  0.00000000000E+00 0.  1.
         22    1    1    2    0    0 -0.38431399085E+03  0.62175189300E+03  0.13025219797E+03  0.74245423771E+03  0.00000000000E+00 0.  1.
<mgrwt>
<rscale>  0 0.18014541E+04</rscale>
<asrwt>0</asrwt>
<pdfrwt beam="1">  1        2 0.85120165E-01 0.18014541E+04</pdfrwt>
<pdfrwt beam="2">  1       -2 0.22559385E+00 0.18014541E+04</pdfrwt>
<totfact> 0.46988680E+00</totfact>
</mgrwt>
</event>
<event>
 6    1  0.6091287E-004  0.1365603E+04  0.7818608E-02  0.8979100E-01
          2   -1    0    0  501    0  0.00000000000E+00  0.00000000000E+00  0.59135672246E+03  0.59135672246E+03  0.00000000000E+00 0.  1.
         -2   -1    0    0    0  501 -0.00000000000E+00 -0.00000000000E+00 -0.78838647329E+03  0.78838647329E+03  0.00000000000E+00 0. -1.
         23    2    1    2    0    0  0.15911085755E+03  0.37098392559E+03  0.45363390540E+03  0.61403533267E+03  0.91161020163E+02 0.  0.
         13    1    3    3    0    0  0.19878444957E+02  0.39980369711E+02  0.14874677167E+02  0.47062071321E+02  0.00000000000E+00 0.  1.
        -13    1    3    3    0    0  0.13923241260E+03  0.33100355588E+03  0.43875922824E+03  0.56697326135E+03  0.00000000000E+00 0. -1.
         22    1    1    2    0    0 -0.15911085755E+03 -0.37098392559E+03 -0.65066365623E+03  0.76570786308E+03  0.00000000000E+00 0. -1.
<mgrwt>
<rscale>  0 0.13656026E+04</rscale>
<asrwt>0</asrwt>
<pdfrwt beam="1">  1        2 0.90977958E-01 0.13656026E+04</pdfrwt>
<pdfrwt beam="2">  1       -2 0.12129023E+00 0.13656026E+04</pdfrwt>
<totfact> 0.25457163E+01</totfact>
</mgrwt>
</event>
<event>
 6    1  0.6091287E-004  0.2062838E+04  0.7818608E-02  0.8577793E-01
          2   -1    0    0  501    0  0.00000000000E+00  0.00000000000E+00  0.18426312517E+04  0.18426312517E+04  0.00000000000E+00 0.  1.
         -2   -1    0    0    0  501 -0.00000000000E+00 -0.00000000000E+00 -0.57733996689E+03  0.57733996689E+03  0.00000000000E+00 0. -1.
         23    2    1    2    0    0 -0.51325127946E+03 -0.50629234854E+03 -0.22824187175E+03  0.76153819075E+03  0.89929115957E+02 0.  0.
         11    1    3    3    0    0 -0.33554744526E+03 -0.38799743432E+03 -0.15577767348E+03  0.53609773420E+03  0.00000000000E+00 0. -1.
        -11    1    3    3    0    0 -0.17770383420E+03 -0.11829491422E+03 -0.72464198272E+02  0.22544045655E+03  0.00000000000E+00 0.  1.
         22    1    1    2    0    0  0.51325127946E+03  0.50629234854E+03  0.14935331565E+04  0.16584330278E+04  0.00000000000E+00 0.  1.
<mgrwt>
<rscale>  0 0.20628375E+04</rscale>
<asrwt>0</asrwt>
<pdfrwt beam="1">  1        2 0.28348173E+00 0.20628375E+04</pdfrwt>
<pdfrwt beam="2">  1       -2 0.88821534E-01 0.20628375E+04</pdfrwt>
<totfact> 0.82279558E+00</totfact>
</mgrwt>
</event>
<event>
 6    1  0.6091287E-004  0.1346358E+04  0.7818608E-02  0.8993590E-01
         -2   -1    0    0    0  501 -0.00000000000E+00  0.00000000000E+00  0.79543903054E+03  0.79543903054E+03  0.00000000000E+00 0. -1.
          2   -1    0    0  501    0  0.00000000000E+00 -0.00000000000E+00 -0.56971060492E+03  0.56971060492E+03  0.00000000000E+00 0.  1.
         23    2    1    2    0    0  0.52030893113E+01 -0.18335755750E+03  0.76679618764E+03  0.79383414544E+03  0.92461835676E+02 0.  0.
         11    1    3    3    0    0 -0.11957796032E+02 -0.45998449529E+02  0.38104534555E+03  0.38399791875E+03  0.00000000000E+00 0. -1.
        -11    1    3    3    0    0  0.17160885343E+02 -0.13735910797E+03  0.38575084210E+03  0.40983622669E+03  0.00000000000E+00 0.  1.
         22    1    1    2    0    0 -0.52030893113E+01  0.18335755750E+03 -0.54106776202E+03  0.57131549002E+03  0.00000000000E+00 0.  1.
<mgrwt>
<rscale>  0 0.13463581E+04</rscale>
<asrwt>0</asrwt>
<pdfrwt beam="1">  1        2 0.87647785E-01 0.13463581E+04</pdfrwt>
<pdfrwt beam="2">  1       -2 0.12237524E+00 0.13463581E+04</pdfrwt>
<totfact> 0.26073105E+01</totfact>
</mgrwt>
</event>
<event>
 6    1  0.6091287E-004  0.2507237E+04  0.7818608E-02  0.8400412E-01
         -2   -1    0    0    0  501 -0.00000000000E+00  0.00000000000E+00  0.13524976687E+04  0.13524976687E+04  0.00000000000E+00 0. -1.
          2   -1    0    0  501    0  0.00000000000E+00 -0.00000000000E+00 -0.11619683172E+04  0.11619683172E+04  0.00000000000E+00 0.  1.
         23    2    1    2    0    0  0.77506406195E+03  0.82589272756E+03  0.63194629213E+03  0.12988706531E+04  0.69898209728E+02 0.  0.
         13    1    3    3    0    0  0.66215275695E+03  0.66835018426E+03  0.53130338955E+03  0.10804728289E+04  0.00000000000E+00 0. -1.
        -13    1    3    3    0    0  0.11291130500E+03  0.15754254330E+03  0.10064290258E+03  0.21839782413E+03  0.00000000000E+00 0.  1.
         22    1    1    2    0    0 -0.77506406195E+03 -0.82589272756E+03 -0.44141694069E+03  0.12155953328E+04  0.00000000000E+00 0. -1.
<mgrwt>
<rscale>  0 0.25072371E+04</rscale>
<asrwt>0</asrwt>
<pdfrwt beam="1">  1        2 0.17876436E+00 0.25072371E+04</pdfrwt>
<pdfrwt beam="2">  1       -2 0.20807657E+00 0.25072371E+04</pdfrwt>
<totfact> 0.20967689E+00</totfact>
</mgrwt>
</event>
<event>
 6    1  0.6091287E-004  0.2717603E+04  0.7818608E-02  0.8329316E-01
         -2   -1    0    0    0  501 -0.00000000000E+00  0.00000000000E+00  0.43050972760E+03  0.43050972760E+03  0.00000000000E+00 0. -1.
          2   -1    0    0  501    0  0.00000000000E+00 -0.00000000000E+00 -0.42887349055E+04  0.42887349055E+04  0.00000000000E+00 0.  1.
         23    2    1    2    0    0  0.67208259197E+03 -0.21141507296E+03  0.83257168450E+02  0.71528728691E+03  0.91174575425E+02 0.  0.
         13    1    3    3    0    0  0.57438449356E+03 -0.14545888378E+03  0.66947064568E+02  0.59628662803E+03  0.00000000000E+00 0. -1.
        -13    1    3    3    0    0  0.97698098416E+02 -0.65956189178E+02  0.16310103883E+02  0.11900065888E+03  0.00000000000E+00 0.  1.
         22    1    1    2    0    0 -0.67208259197E+03  0.21141507296E+03 -0.39414823464E+04  0.40039573462E+04  0.00000000000E+00 0.  1.
<mgrwt>
<rscale>  0 0.27176034E+04</rscale>
<asrwt>0</asrwt>
<pdfrwt beam="1">  1        2 0.65980538E+00 0.27176034E+04</pdfrwt>
<pdfrwt beam="2">  1       -2 0.66232265E-01 0.27176034E+04</pdfrwt>
<totfact> 0.35730662E-01</totfact>
</mgrwt>
</event>
<event>
 6    1  0.6091287E-004  0.4065941E+04  0.7818608E-02  0.7991375E-01
         -2   -1    0    0    0  501 -0.00000000000E+00  0.00000000000E+00  0.38398048462E+04  0.38398048462E+04  0.00000000000E+00 0. -1.
          2   -1    0    0  501    0  0.00000000000E+00 -0.00000000000E+00 -0.10763485277E+04  0.10763485277E+04  0.00000000000E+00 0.  1.
         23    2    1    2    0    0 -0.11323082909E+03 -0.17838958994E+04  0.25506092367E+04  0.31160395774E+04  0.94812283055E+02 0.  0.
         11    1    3    3    0    0 -0.15260447707E+02 -0.25255777291E+03  0.30599784097E+03  0.39705539739E+03  0.00000000000E+00 0. -1.
        -11    1    3    3    0    0 -0.97970381385E+02 -0.15313381265E+04  0.22446113957E+04  0.27189841800E+04  0.00000000000E+00 0.  1.
         22    1    1    2    0    0  0.11323082909E+03  0.17838958994E+04  0.21284708178E+03  0.18001137966E+04  0.00000000000E+00 0.  1.
<mgrwt>
<rscale>  0 0.40659406E+04</rscale>
<asrwt>0</asrwt>
<pdfrwt beam="1">  1        2 0.16559208E+00 0.40659406E+04</pdfrwt>
<pdfrwt beam="2">  1       -2 0.59073920E+00 0.40659406E+04</pdfrwt>
<totfact> 0.97816333E-03</totfact>
</mgrwt>
</event>
<event>
 6    1  0.6343674E-004  0.3865545E+04  0.7818608E-02  0.8032234E-01
          2   -1    0    0  501    0  0.00000000000E+00  0.00000000000E+00  0.27059999127E+04  0.27059999127E+04  0.00000000000E+00 0.  1.
         -2   -1    0    0    0  501 -0.00000000000E+00 -0.00000000000E+00 -0.13804913589E+04  0.13804913589E+04  0.00000000000E+00 0. -1.
         23    2    1    2    0    0  0.18848135987E+04 -0.34542907130E+03  0.92243117198E+03  0.21283505919E+04  0.84577950817E+02 0.  0.
         13    1    3    3    0    0  0.55944999512E+03 -0.80341093370E+02  0.23695328681E+03  0.61285059228E+03  0.00000000000E+00 0.  1.
        -13    1    3    3    0    0  0.13253636036E+04 -0.26508797793E+03  0.68547788517E+03  0.15154999996E+04  0.00000000000E+00 0. -1.
         22    1    1    2    0    0 -0.18848135987E+04  0.34542907130E+03  0.40307738183E+03  0.19581406796E+04  0.00000000000E+00 0.  1.
<mgrwt>
<rscale>  0 0.38655450E+04</rscale>
<asrwt>0</asrwt>
<pdfrwt beam="1">  1        2 0.41630768E+00 0.38655450E+04</pdfrwt>
<pdfrwt beam="2">  1       -2 0.21238329E+00 0.38655450E+04</pdfrwt>
<totfact> 0.23213070E-01</totfact>
</mgrwt>
</event>
<event>
 6    1  0.6091287E-004  0.2595630E+04  0.7818608E-02  0.8369687E-01
          2   -1    0    0  501    0  0.00000000000E+00  0.00000000000E+00  0.22832418710E+04  0.22832418710E+04  0.00000000000E+00 0.  1.
         -2   -1    0    0    0  501 -0.00000000000E+00 -0.00000000000E+00 -0.73768979336E+03  0.73768979336E+03  0.00000000000E+00 0. -1.
         23    2    1    2    0    0 -0.80180871617E+03  0.92297392552E+03  0.27207204747E+03  0.12555621643E+04  0.87378858051E+02 0.  0.
         13    1    3    3    0    0 -0.44562797809E+03  0.45125902070E+03  0.12403438481E+03  0.64622250598E+03  0.00000000000E+00 0.  1.
        -13    1    3    3    0    0 -0.35618073808E+03  0.47171490482E+03  0.14803766266E+03  0.60933965830E+03  0.00000000000E+00 0. -1.
         22    1    1    2    0    0  0.80180871617E+03 -0.92297392552E+03  0.12734800302E+04  0.17653695001E+04  0.00000000000E+00 0.  1.
<mgrwt>
<rscale>  0 0.25956303E+04</rscale>
<asrwt>0</asrwt>
<pdfrwt beam="1">  1        2 0.35126798E+00 0.25956303E+04</pdfrwt>
<pdfrwt beam="2">  1       -2 0.11349074E+00 0.25956303E+04</pdfrwt>
<totfact> 0.24967202E+00</totfact>
</mgrwt>
</event>
<event>
 6    1  0.6091287E-004  0.4326405E+04  0.7818608E-02  0.7941753E-01
          2   -1    0    0  501    0  0.00000000000E+00  0.00000000000E+00  0.22120843172E+04  0.22120843172E+04  0.00000000000E+00 0.  1.
         -2   -1    0    0    0  501 -0.00000000000E+00 -0.00000000000E+00 -0.21154012217E+04  0.21154012217E+04  0.00000000000E+00 0. -1.
         23    2    1    2    0    0  0.48766715106E+03  0.17952137987E+04 -0.10539824082E+04  0.21401028714E+04  0.92463776986E+02 0.  0.
         13    1    3    3    0    0  0.13137454221E+03  0.36358548432E+03 -0.24249398648E+03  0.45635184697E+03  0.00000000000E+00 0.  1.
        -13    1    3    3    0    0  0.35629260885E+03  0.14316283144E+04 -0.81148842171E+03  0.16837510244E+04  0.00000000000E+00 0. -1.
         22    1    1    2    0    0 -0.48766715106E+03 -0.17952137987E+04  0.11506655037E+04  0.21873826676E+04  0.00000000000E+00 0.  1.
<mgrwt>
<rscale>  0 0.43264054E+04</rscale>
<asrwt>0</asrwt>
<pdfrwt beam="1">  1        2 0.34032066E+00 0.43264054E+04</pdfrwt>
<pdfrwt beam="2">  1       -2 0.32544634E+00 0.43264054E+04</pdfrwt>
<totfact> 0.86540575E-02</totfact>
</mgrwt>
</event>
<event>
 6    1  0.6091287E-004  0.5549691E+03  0.7818608E-02  0.1000350E+00
         -2   -1    0    0    0  501 -0.00000000000E+00  0.00000000000E+00  0.79954858000E+02  0.79954858000E+02  0.00000000000E+00 0. -1.
          2   -1    0    0  501    0  0.00000000000E+00 -0.00000000000E+00 -0.96301441160E+03  0.96301441160E+03  0.00000000000E+00 0.  1.
         23    2    1    2    0    0 -0.16814337976E+02 -0.20907309030E+02 -0.95843045320E+03  0.96296545695E+03  0.89407494827E+02 0.  0.
         11    1    3    3    0    0  0.34996440305E+02  0.43756792131E+01 -0.40949026434E+03  0.41100629434E+03  0.00000000000E+00 0. -1.
        -11    1    3    3    0    0 -0.51810778281E+02 -0.25282988243E+02 -0.54894018886E+03  0.55195916261E+03  0.00000000000E+00 0.  1.
         22    1    1    2    0    0  0.16814337976E+02  0.20907309030E+02  0.75370899597E+02  0.80003812650E+02  0.00000000000E+00 0. -1.
<mgrwt>
<rscale>  0 0.55496912E+03</rscale>
<asrwt>0</asrwt>
<pdfrwt beam="1">  1        2 0.14815605E+00 0.55496912E+03</pdfrwt>
<pdfrwt beam="2">  1       -2 0.12300748E-01 0.55496912E+03</pdfrwt>
<totfact> 0.13095328E+03</totfact>
</mgrwt>
</event>
<event>
 6    1  0.6091287E-004  0.1842367E+04  0.7818608E-02  0.8684088E-01
         -2   -1    0    0    0  501 -0.00000000000E+00  0.00000000000E+00  0.26863011939E+03  0.26863011939E+03  0.00000000000E+00 0. -1.
          2   -1    0    0  501    0  0.00000000000E+00 -0.00000000000E+00 -0.31589119586E+04  0.31589119586E+04  0.00000000000E+00 0.  1.
         23    2    1    2    0    0 -0.83412469200E+03 -0.32424511934E+03 -0.10617786405E+04  0.13917810785E+04  0.93711204770E+02 0.  0.
         11    1    3    3    0    0 -0.32300461083E+03 -0.17490828572E+03 -0.42995298420E+03  0.56549487677E+03  0.00000000000E+00 0.  1.
        -11    1    3    3    0    0 -0.51112008117E+03 -0.14933683361E+03 -0.63182565629E+03  0.82628620175E+03  0.00000000000E+00 0. -1.
         22    1    1    2    0    0  0.83412469200E+03  0.32424511934E+03 -0.18285031987E+04  0.20357609995E+04  0.00000000000E+00 0.  1.
<mgrwt>
<rscale>  0 0.18423668E+04</rscale>
<asrwt>0</asrwt>
<pdfrwt beam="1">  1        2 0.48598645E+00 0.18423668E+04</pdfrwt>
<pdfrwt beam="2">  1       -2 0.41327711E-01 0.18423668E+04</pdfrwt>
<totfact> 0.72297701E+00</totfact>
</mgrwt>
</event>
<event>
 6    1  0.6091287E-004  0.5287067E+03  0.7818608E-02  0.1006546E+00
          2   -1    0    0  501    0  0.00000000000E+00  0.00000000000E+00  0.80040106232E+03  0.80040106232E+03  0.00000000000E+00 0.  1.
         -2   -1    0    0    0  501 -0.00000000000E+00 -0.00000000000E+00 -0.87309597869E+02  0.87309597869E+02  0.00000000000E+00 0. -1.
         23    2    1    2    0    0  0.14383786316E+03  0.16663625255E+03  0.14653021700E+03  0.27988780882E+03  0.91701196752E+02 0.  0.
         11    1    3    3    0    0  0.44110805244E+02  0.63632853156E+02  0.37035680836E+01  0.77515285954E+02  0.00000000000E+00 0. -1.
        -11    1    3    3    0    0  0.99727057913E+02  0.10300339940E+03  0.14282664892E+03  0.20237252286E+03  0.00000000000E+00 0.  1.
         22    1    1    2    0    0 -0.14383786316E+03 -0.16663625255E+03  0.56656124745E+03  0.60782285137E+03  0.00000000000E+00 0.  1.
<mgrwt>
<rscale>  0 0.52870670E+03</rscale>
<asrwt>0</asrwt>
<pdfrwt beam="1">  1        2 0.12313862E+00 0.52870670E+03</pdfrwt>
<pdfrwt beam="2">  1       -2 0.13432246E-01 0.52870670E+03</pdfrwt>
<totfact> 0.14576009E+03</totfact>
</mgrwt>
</event>
<event>
 6    1  0.6091287E-004  0.2119195E+04  0.7818608E-02  0.8552835E-01
         -2   -1    0    0    0  501 -0.00000000000E+00  0.00000000000E+00  0.96914021590E+03  0.96914021590E+03  0.00000000000E+00 0. -1.
          2   -1    0    0  501    0  0.00000000000E+00 -0.00000000000E+00 -0.11584980439E+04  0.11584980439E+04  0.00000000000E+00 0.  1.
         23    2    1    2    0    0 -0.11535622716E+02 -0.73147982272E+03 -0.86169353731E+03  0.11340432178E+04  0.91337100332E+02 0.  0.
         13    1    3    3    0    0  0.36170321125E+01 -0.53202333942E+02 -0.10482096719E+03  0.11760529929E+03  0.00000000000E+00 0.  1.
        -13    1    3    3    0    0 -0.15152654828E+02 -0.67827748878E+03 -0.75687257011E+03  0.10164379185E+04  0.00000000000E+00 0. -1.
         22    1    1    2    0    0  0.11535622716E+02  0.73147982272E+03  0.67233570927E+03  0.99359504206E+03  0.00000000000E+00 0. -1.
<mgrwt>
<rscale>  0 0.21191952E+04</rscale>
<asrwt>0</asrwt>
<pdfrwt beam="1">  1        2 0.17823047E+00 0.21191952E+04</pdfrwt>
<pdfrwt beam="2">  1       -2 0.14909849E+00 0.21191952E+04</pdfrwt>
<totfact> 0.56203443E+00</totfact>
</mgrwt>
</event>
<event>
 6    1  0.6091287E-004  0.2511848E+04  0.7818608E-02  0.8398777E-01
         -2   -1    0    0    0  501 -0.00000000000E+00  0.00000000000E+00  0.53468409086E+03  0.53468409086E+03  0.00000000000E+00 0. -1.
          2   -1    0    0  501    0  0.00000000000E+00 -0.00000000000E+00 -0.29500512663E+04  0.29500512663E+04  0.00000000000E+00 0.  1.
         23    2    1    2    0    0  0.75625831102E+03  0.96926718557E+03 -0.15552793894E+04  0.19843499034E+04  0.85703267655E+02 0.  0.
         11    1    3    3    0    0  0.18424497189E+03  0.20872356247E+03 -0.40462476043E+03  0.49115469249E+03  0.00000000000E+00 0.  1.
        -11    1    3    3    0    0  0.57201333913E+03  0.76054362310E+03 -0.11506546290E+04  0.14931952110E+04  0.00000000000E+00 0. -1.
         22    1    1    2    0    0 -0.75625831102E+03 -0.96926718557E+03 -0.86008778597E+03  0.15003854537E+04  0.00000000000E+00 0. -1.
<mgrwt>
<rscale>  0 0.25118483E+04</rscale>
<asrwt>0</asrwt>
<pdfrwt beam="1">  1        2 0.45385405E+00 0.25118483E+04</pdfrwt>
<pdfrwt beam="2">  1       -2 0.82259090E-01 0.25118483E+04</pdfrwt>
<totfact> 0.21638798E+00</totfact>
</mgrwt>
</event>
<event>
 6    1  0.6091287E-004  0.2344866E+04  0.7818608E-02  0.8460438E-01
         -2   -1    0    0    0  501 -0.00000000000E+00  0.00000000000E+00  0.94759554265E+03  0.94759554265E+03  0.00000000000E+00 0. -1.
          2   -1    0    0  501    0  0.00000000000E+00 -0.00000000000E+00 -0.14506174345E+04  0.14506174345E+04  0.00000000000E+00 0.  1.
         23    2    1    2    0    0  0.19259482153E+03 -0.11452770624E+04 -0.40327826325E+03  0.12325796272E+04  0.88695349161E+02 0.  0.
         11    1    3    3    0    0  0.25815830208E+02 -0.45505651395E+02 -0.21058333983E+02  0.56397471825E+02  0.00000000000E+00 0. -1.
        -11    1    3    3    0    0  0.16677899132E+03 -0.10997714110E+04 -0.38221992926E+03  0.11761821554E+04  0.00000000000E+00 0.  1.
         22    1    1    2    0    0 -0.19259482153E+03  0.11452770624E+04 -0.99743628575E+02  0.11656333499E+04  0.00000000000E+00 0. -1.
<mgrwt>
<rscale>  0 0.23448656E+04</rscale>
<asrwt>0</asrwt>
<pdfrwt beam="1">  1        2 0.22317191E+00 0.23448656E+04</pdfrwt>
<pdfrwt beam="2">  1       -2 0.14578393E+00 0.23448656E+04</pdfrwt>
<totfact> 0.39517095E+00</totfact>
</mgrwt>
</event>
<event>
 6    1  0.6091287E-004  0.1906128E+04  0.7818608E-02  0.8651812E-01
          1   -1    0    0  501    0  0.00000000000E+00  0.00000000000E+00  0.15236717596E+04  0.15236717596E+04  0.00000000000E+00 0. -1.
         -1   -1    0    0    0  501 -0.00000000000E+00 -0.00000000000E+00 -0.59614586583E+03  0.59614586583E+03  0.00000000000E+00 0.  1.
         23    2    1    2    0    0  0.59605954736E+02 -0.64599330755E+03  0.12379745359E+04  0.14006246175E+04  0.91149021710E+02 0.  0.
         13    1    3    3    0    0 -0.11400520086E+02 -0.24920425953E+02  0.81906579521E+02  0.86369481050E+02  0.00000000000E+00 0. -1.
        -13    1    3    3    0    0  0.71006474822E+02 -0.62107288160E+03  0.11560679564E+04  0.13142551364E+04  0.00000000000E+00 0.  1.
         22    1    1    2    0    0 -0.59605954736E+02  0.64599330755E+03 -0.31044864219E+03  0.71919300795E+03  0.00000000000E+00 0.  1.
<mgrwt>
<rscale>  0 0.19061276E+04</rscale>
<asrwt>0</asrwt>
<pdfrwt beam="1">  1        1 0.23441104E+00 0.19061276E+04</pdfrwt>
<pdfrwt beam="2">  1       -1 0.91714749E-01 0.19061276E+04</pdfrwt>
<totfact> 0.68234830E+00</totfact>
</mgrwt>
</event>
<event>
 6    1  0.6091287E-004  0.1259134E+04  0.7818608E-02  0.9062615E-01
          2   -1    0    0  501    0  0.00000000000E+00  0.00000000000E+00  0.74207763973E+03  0.74207763973E+03  0.00000000000E+00 0.  1.
         -2   -1    0    0    0  501 -0.00000000000E+00 -0.00000000000E+00 -0.53411511342E+03  0.53411511342E+03  0.00000000000E+00 0. -1.
         23    2    1    2    0    0 -0.40259263772E+03  0.33491133951E+03 -0.24362745804E+03  0.58468718467E+03  0.90875345001E+02 0.  0.
         11    1    3    3    0    0 -0.22655757610E+03  0.13407427452E+03 -0.14048976827E+03  0.29839842721E+03  0.00000000000E+00 0. -1.
        -11    1    3    3    0    0 -0.17603506162E+03  0.20083706500E+03 -0.10313768977E+03  0.28628875745E+03  0.00000000000E+00 0.  1.
         22    1    1    2    0    0  0.40259263772E+03 -0.33491133951E+03  0.45158998435E+03  0.69150556848E+03  0.00000000000E+00 0.  1.
<mgrwt>
<rscale>  0 0.12591344E+04</rscale>
<asrwt>0</asrwt>
<pdfrwt beam="1">  1        2 0.11416579E+00 0.12591344E+04</pdfrwt>
<pdfrwt beam="2">  1       -2 0.82171556E-01 0.12591344E+04</pdfrwt>
<totfact> 0.48647333E+01</totfact>
</mgrwt>
</event>
<event>
 6    1  0.6091287E-004  0.6177016E+04  0.7818608E-02  0.7668833E-01
          2   -1    0    0  501    0  0.00000000000E+00  0.00000000000E+00  0.30707138620E+04  0.30707138620E+04  0.00000000000E+00 0.  1.
         -2   -1    0    0    0  501 -0.00000000000E+00 -0.00000000000E+00 -0.31064053489E+04  0.31064053489E+04  0.00000000000E+00 0. -1.
         23    2    1    2    0    0 -0.20147611211E+04 -0.42692188871E+03  0.22829335364E+04  0.30759022445E+04  0.88681519837E+02 0.  0.
         11    1    3    3    0    0 -0.16895600946E+03 -0.36661376247E+02  0.23014970570E+03  0.28785252591E+03  0.00000000000E+00 0.  1.
        -11    1    3    3    0    0 -0.18458051116E+04 -0.39026051246E+03  0.20527838307E+04  0.27880497186E+04  0.00000000000E+00 0. -1.
         22    1    1    2    0    0  0.20147611211E+04  0.42692188871E+03 -0.23186250233E+04  0.31012169664E+04  0.00000000000E+00 0. -1.
<mgrwt>
<rscale>  0 0.61770161E+04</rscale>
<asrwt>0</asrwt>
<pdfrwt beam="1">  1        2 0.47241752E+00 0.61770161E+04</pdfrwt>
<pdfrwt beam="2">  1       -2 0.47790851E+00 0.61770161E+04</pdfrwt>
<totfact> 0.23954469E-03</totfact>
</mgrwt>
</event>
<event>
 6    1  0.6091287E-004  0.1336160E+04  0.7818608E-02  0.9001372E-01
         -2   -1    0    0    0  501 -0.00000000000E+00  0.00000000000E+00  0.47289976472E+03  0.47289976472E+03  0.00000000000E+00 0. -1.
          2   -1    0    0  501    0  0.00000000000E+00 -0.00000000000E+00 -0.94381666331E+03  0.94381666331E+03  0.00000000000E+00 0.  1.
         23    2    1    2    0    0  0.46574472145E+03  0.47009614257E+03 -0.16809839662E+03  0.68897500833E+03  0.92309058805E+02 0.  0.
         13    1    3    3    0    0  0.89604142103E+02  0.53164248976E+02 -0.53002946318E+01  0.10432369230E+03  0.00000000000E+00 0.  1.
        -13    1    3    3    0    0  0.37614057935E+03  0.41693189359E+03 -0.16279810198E+03  0.58465131603E+03  0.00000000000E+00 0. -1.
         22    1    1    2    0    0 -0.46574472145E+03 -0.47009614257E+03 -0.30281850197E+03  0.72774141971E+03  0.00000000000E+00 0. -1.
<mgrwt>
<rscale>  0 0.13361597E+04</rscale>
<asrwt>0</asrwt>
<pdfrwt beam="1">  1        2 0.14520256E+00 0.13361597E+04</pdfrwt>
<pdfrwt beam="2">  1       -2 0.72753810E-01 0.13361597E+04</pdfrwt>
<totfact> 0.45778836E+01</totfact>
</mgrwt>
</event>
<event>
 6    1  0.6091287E-004  0.3088577E+04  0.7818608E-02  0.8218880E-01
         -2   -1    0    0    0  501 -0.00000000000E+00  0.00000000000E+00  0.11990985091E+04  0.11990985091E+04  0.00000000000E+00 0. -1.
          2   -1    0    0  501    0  0.00000000000E+00 -0.00000000000E+00 -0.19888494443E+04  0.19888494443E+04  0.00000000000E+00 0.  1.
         23    2    1    2    0    0  0.14221656037E+04  0.25782599410E+03 -0.95250702945E+03  0.17334656420E+04  0.92759060646E+02 0.  0.
         13    1    3    3    0    0  0.16168005515E+03  0.19490641603E+02 -0.14187614346E+03  0.21598417865E+03  0.00000000000E+00 0. -1.
        -13    1    3    3    0    0  0.12604855486E+04  0.23833535250E+03 -0.81063088599E+03  0.15174814634E+04  0.00000000000E+00 0.  1.
         22    1    1    2    0    0 -0.14221656037E+04 -0.25782599410E+03  0.16275609427E+03  0.14544823113E+04  0.00000000000E+00 0.  1.
<mgrwt>
<rscale>  0 0.30885766E+04</rscale>
<asrwt>0</asrwt>
<pdfrwt beam="1">  1        2 0.30597684E+00 0.30885766E+04</pdfrwt>
<pdfrwt beam="2">  1       -2 0.18447669E+00 0.30885766E+04</pdfrwt>
<totfact> 0.97305771E-01</totfact>
</mgrwt>
</event>
<event>
 6    1  0.6091287E-004  0.1298412E+04  0.7818608E-02  0.9030825E-01
         -4   -1    0    0    0  501 -0.00000000000E+00  0.00000000000E+00  0.70902633369E+03  0.70902633369E+03  0.00000000000E+00 0.  1.
          4   -1    0    0  501    0  0.00000000000E+00 -0.00000000000E+00 -0.59443266020E+03  0.59443266020E+03  0.00000000000E+00 0. -1.
         23    2    1    2    0    0  0.21904258206E+03 -0.53277773844E+03 -0.23475783969E+03  0.62975412446E+03  0.98220378000E+02 0.  0.
         11    1    3    3    0    0  0.12256722210E+03 -0.24640454071E+03 -0.16045856585E+03  0.31856690502E+03  0.00000000000E+00 0. -1.
        -11    1    3    3    0    0  0.96475359963E+02 -0.28637319773E+03 -0.74299273838E+02  0.31118721945E+03  0.00000000000E+00 0.  1.
         22    1    1    2    0    0 -0.21904258206E+03  0.53277773844E+03  0.34935151318E+03  0.67370486943E+03  0.00000000000E+00 0. -1.
<mgrwt>
<rscale>  0 0.12984120E+04</rscale>
<asrwt>0</asrwt>
<pdfrwt beam="1">  1        4 0.91451179E-01 0.12984120E+04</pdfrwt>
<pdfrwt beam="2">  1       -4 0.10908097E+00 0.12984120E+04</pdfrwt>
<totfact> 0.13355866E+00</totfact>
</mgrwt>
</event>
<event>
 6    1  0.6091287E-004  0.1352759E+04  0.7818608E-02  0.8988742E-01
          2   -1    0    0  501    0  0.00000000000E+00  0.00000000000E+00  0.13635998269E+04  0.13635998269E+04  0.00000000000E+00 0.  1.
         -2   -1    0    0    0  501 -0.00000000000E+00 -0.00000000000E+00 -0.33550125985E+03  0.33550125985E+03  0.00000000000E+00 0. -1.
         23    2    1    2    0    0 -0.32271327355E+03  0.44616212588E+03  0.10029722238E+04  0.11478880312E+04  0.92136588772E+02 0.  0.
         13    1    3    3    0    0 -0.25225403185E+03  0.34128266869E+03  0.84515539296E+03  0.94572384700E+03  0.00000000000E+00 0.  1.
        -13    1    3    3    0    0 -0.70459241701E+02  0.10487945719E+03  0.15781683082E+03  0.20216418420E+03  0.00000000000E+00 0. -1.
         22    1    1    2    0    0  0.32271327355E+03 -0.44616212588E+03  0.25126343276E+02  0.55121305556E+03  0.00000000000E+00 0. -1.
<mgrwt>
<rscale>  0 0.13527593E+04</rscale>
<asrwt>0</asrwt>
<pdfrwt beam="1">  1        2 0.20978459E+00 0.13527593E+04</pdfrwt>
<pdfrwt beam="2">  1       -2 0.51615579E-01 0.13527593E+04</pdfrwt>
<totfact> 0.52565244E+01</totfact>
</mgrwt>
</event>
<event>
 6    1  0.6091287E-004  0.4914150E+04  0.7818608E-02  0.7841888E-01
         -2   -1    0    0    0  501 -0.00000000000E+00  0.00000000000E+00  0.17879571713E+04  0.17879571713E+04  0.00000000000E+00 0. -1.
          2   -1    0    0  501    0  0.00000000000E+00 -0.00000000000E+00 -0.33766010422E+04  0.33766010422E+04  0.00000000000E+00 0.  1.
         23    2    1    2    0    0  0.53105473599E+03  0.11329055202E+04  0.14267604663E+04  0.18998748649E+04  0.91569774183E+02 0.  0.
         13    1    3    3    0    0  0.27596886330E+03  0.50513734818E+03  0.61197476400E+03  0.84014026556E+03  0.00000000000E+00 0.  1.
        -13    1    3    3    0    0  0.25508587269E+03  0.62776817201E+03  0.81478570234E+03  0.10597345993E+04  0.00000000000E+00 0. -1.
         22    1    1    2    0    0 -0.53105473599E+03 -0.11329055202E+04 -0.30154043372E+04  0.32646833487E+04  0.00000000000E+00 0.  1.
<mgrwt>
<rscale>  0 0.49141502E+04</rscale>
<asrwt>0</asrwt>
<pdfrwt beam="1">  1        2 0.51947708E+00 0.49141502E+04</pdfrwt>
<pdfrwt beam="2">  1       -2 0.27507033E+00 0.49141502E+04</pdfrwt>
<totfact> 0.32670684E-02</totfact>
</mgrwt>
</event>
<event>
 6    1  0.6104476E-004  0.4626856E+04  0.7818608E-02  0.7888797E-01
          2   -1    0    0  501    0  0.00000000000E+00  0.00000000000E+00  0.23112240561E+04  0.23112240561E+04  0.00000000000E+00 0.  1.
         -2   -1    0    0    0  501 -0.00000000000E+00 -0.00000000000E+00 -0.23156339042E+04  0.23156339042E+04  0.00000000000E+00 0. -1.
         23    2    1    2    0    0  0.45565397391E+02 -0.18774482136E+04 -0.13516309773E+04  0.23156044538E+04  0.90717626385E+02 0.  0.
         11    1    3    3    0    0  0.17301653452E+02 -0.10648155996E+04 -0.71188080531E+03  0.12809784890E+04  0.00000000000E+00 0. -1.
        -11    1    3    3    0    0  0.28263743939E+02 -0.81263261402E+03 -0.63975017194E+03  0.10346259648E+04  0.00000000000E+00 0.  1.
         22    1    1    2    0    0 -0.45565397391E+02  0.18774482136E+04  0.13472211292E+04  0.23112535065E+04  0.00000000000E+00 0.  1.
<mgrwt>
<rscale>  0 0.46268559E+04</rscale>
<asrwt>0</asrwt>
<pdfrwt beam="1">  1        2 0.35557293E+00 0.46268559E+04</pdfrwt>
<pdfrwt beam="2">  1       -2 0.35625137E+00 0.46268559E+04</pdfrwt>
<totfact> 0.47596848E-02</totfact>
</mgrwt>
</event>
<event>
 6    1  0.6091287E-004  0.2603691E+04  0.7818608E-02  0.8366949E-01
          2   -1    0    0  501    0  0.00000000000E+00  0.00000000000E+00  0.15381325415E+04  0.15381325415E+04  0.00000000000E+00 0. -1.
         -2   -1    0    0    0  501 -0.00000000000E+00 -0.00000000000E+00 -0.11018564113E+04  0.11018564113E+04  0.00000000000E+00 0.  1.
         23    2    1    2    0    0 -0.52908126521E+03 -0.11694543916E+04  0.42927228005E+03  0.13564003844E+04  0.89424567043E+02 0.  0.
         11    1    3    3    0    0 -0.15960298343E+03 -0.26057469660E+03  0.10299313450E+03  0.32245909908E+03  0.00000000000E+00 0.  1.
        -11    1    3    3    0    0 -0.36947828178E+03 -0.90887969497E+03  0.32627914555E+03  0.10339412853E+04  0.00000000000E+00 0. -1.
         22    1    1    2    0    0  0.52908126521E+03  0.11694543916E+04  0.70038501661E+01  0.12835885685E+04  0.00000000000E+00 0. -1.
<mgrwt>
<rscale>  0 0.26036906E+04</rscale>
<asrwt>0</asrwt>
<pdfrwt beam="1">  1        2 0.23663578E+00 0.26036906E+04</pdfrwt>
<pdfrwt beam="2">  1       -2 0.16951637E+00 0.26036906E+04</pdfrwt>
<totfact> 0.22953269E+00</totfact>
</mgrwt>
</event>
<event>
 6    1  0.6091287E-004  0.5305769E+04  0.7818608E-02  0.7782996E-01
          2   -1    0    0  501    0  0.00000000000E+00  0.00000000000E+00  0.36926686732E+04  0.36926686732E+04  0.00000000000E+00 0.  1.
         -2   -1    0    0    0  501 -0.00000000000E+00 -0.00000000000E+00 -0.19058834409E+04  0.19058834409E+04  0.00000000000E+00 0. -1.
         23    2    1    2    0    0 -0.55762515951E+03  0.17143242106E+04  0.29462636299E+04  0.34551334728E+04  0.87319072456E+02 0.  0.
         11    1    3    3    0    0 -0.28424741629E+03  0.84015494151E+03  0.13683530515E+04  0.16306584538E+04  0.00000000000E+00 0. -1.
        -11    1    3    3    0    0 -0.27337774322E+03  0.87416926905E+03  0.15779105784E+04  0.18244750190E+04  0.00000000000E+00 0.  1.
         22    1    1    2    0    0  0.55762515951E+03 -0.17143242106E+04 -0.11594783976E+04  0.21434186413E+04  0.00000000000E+00 0. -1.
<mgrwt>
<rscale>  0 0.53057690E+04</rscale>
<asrwt>0</asrwt>
<pdfrwt beam="1">  1        2 0.56810287E+00 0.53057690E+04</pdfrwt>
<pdfrwt beam="2">  1       -2 0.29321284E+00 0.53057690E+04</pdfrwt>
<totfact> 0.14644502E-02</totfact>
</mgrwt>
</event>
<event>
 6    1  0.6091287E-004  0.2176402E+04  0.7818608E-02  0.8528315E-01
         -2   -1    0    0    0  501 -0.00000000000E+00  0.00000000000E+00  0.20111126340E+04  0.20111126340E+04  0.00000000000E+00 0. -1.
          2   -1    0    0  501    0  0.00000000000E+00 -0.00000000000E+00 -0.58881891633E+03  0.58881891633E+03  0.00000000000E+00 0.  1.
         23    2    1    2    0    0 -0.68441550310E+03 -0.80724536908E+03  0.10058751321E+04  0.14626215200E+04  0.86065455190E+02 0.  0.
         13    1    3    3    0    0 -0.44964656255E+03 -0.48053200645E+03  0.66053582357E+03  0.93241654568E+03  0.00000000000E+00 0. -1.
        -13    1    3    3    0    0 -0.23476894055E+03 -0.32671336263E+03  0.34533930850E+03  0.53020497429E+03  0.00000000000E+00 0.  1.
         22    1    1    2    0    0  0.68441550310E+03  0.80724536908E+03  0.41641858563E+03  0.11373100304E+04  0.00000000000E+00 0.  1.
<mgrwt>
<rscale>  0 0.21764018E+04</rscale>
<asrwt>0</asrwt>
<pdfrwt beam="1">  1        2 0.90587527E-01 0.21764018E+04</pdfrwt>
<pdfrwt beam="2">  1       -2 0.30940194E+00 0.21764018E+04</pdfrwt>
<totfact> 0.12941634E+00</totfact>
</mgrwt>
</event>
<event>
 6    1  0.6091287E-004  0.2932291E+04  0.7818608E-02  0.8263334E-01
         -1   -1    0    0    0  501 -0.00000000000E+00  0.00000000000E+00  0.58685037192E+03  0.58685037192E+03  0.00000000000E+00 0. -1.
          1   -1    0    0  501    0  0.00000000000E+00 -0.00000000000E+00 -0.36629142709E+04  0.36629142709E+04  0.00000000000E+00 0.  1.
         23    2    1    2    0    0 -0.33986526966E+03  0.83582376178E+03  0.13271049745E+03  0.91654654474E+03  0.91300220503E+02 0.  0.
         11    1    3    3    0    0 -0.20933501300E+03  0.40076403634E+03  0.50598305168E+02  0.45496499753E+03  0.00000000000E+00 0.  1.
        -11    1    3    3    0    0 -0.13053025666E+03  0.43505972544E+03  0.82112192277E+02  0.46158154721E+03  0.00000000000E+00 0. -1.
         22    1    1    2    0    0  0.33986526966E+03 -0.83582376178E+03 -0.32087743964E+04  0.33332180981E+04  0.00000000000E+00 0.  1.
<mgrwt>
<rscale>  0 0.29322910E+04</rscale>
<asrwt>0</asrwt>
<pdfrwt beam="1">  1        1 0.56352526E+00 0.29322910E+04</pdfrwt>
<pdfrwt beam="2">  1       -1 0.90284675E-01 0.29322910E+04</pdfrwt>
<totfact> 0.18984585E-01</totfact>
</mgrwt>
</event>
<event>
 6    1  0.6091287E-004  0.3349032E+04  0.7818608E-02  0.8150530E-01
          2   -1    0    0  501    0  0.00000000000E+00  0.00000000000E+00  0.17616484566E+04  0.17616484566E+04  0.00000000000E+00 0.  1.
         -2   -1    0    0    0  501 -0.00000000000E+00 -0.00000000000E+00 -0.15916934928E+04  0.15916934928E+04  0.00000000000E+00 0. -1.
         23    2    1    2    0    0  0.48752893398E+03 -0.47825060131E+03 -0.14443902673E+04  0.16004818226E+04  0.94184505108E+02 0.  0.
         13    1    3    3    0    0  0.21236577766E+03 -0.18869460105E+03 -0.49962134015E+03  0.57474025395E+03  0.00000000000E+00 0.  1.
        -13    1    3    3    0    0  0.27516315633E+03 -0.28955600026E+03 -0.94476892713E+03  0.10257415686E+04  0.00000000000E+00 0. -1.
         22    1    1    2    0    0 -0.48752893398E+03  0.47825060131E+03  0.16143452310E+04  0.17528601268E+04  0.00000000000E+00 0.  1.
<mgrwt>
<rscale>  0 0.33490323E+04</rscale>
<asrwt>0</asrwt>
<pdfrwt beam="1">  1        2 0.27102284E+00 0.33490323E+04</pdfrwt>
<pdfrwt beam="2">  1       -2 0.24487592E+00 0.33490323E+04</pdfrwt>
<totfact> 0.52103463E-01</totfact>
</mgrwt>
</event>
<event>
 6    1  0.6091287E-004  0.1755813E+04  0.7818608E-02  0.8730157E-01
         -2   -1    0    0    0  501 -0.00000000000E+00  0.00000000000E+00  0.43904235619E+03  0.43904235619E+03  0.00000000000E+00 0. -1.
          2   -1    0    0  501    0  0.00000000000E+00 -0.00000000000E+00 -0.17554565470E+04  0.17554565470E+04  0.00000000000E+00 0.  1.
         23    2    1    2    0    0 -0.43858188819E+03 -0.82242562669E+02  0.28157568302E+03  0.53537577676E+03  0.90688727594E+02 0.  0.
         11    1    3    3    0    0 -0.44000463007E+02 -0.48718833466E+01  0.65058276040E+02  0.78691519705E+02  0.00000000000E+00 0. -1.
        -11    1    3    3    0    0 -0.39458142518E+03 -0.77370679323E+02  0.21651740698E+03  0.45668425706E+03  0.00000000000E+00 0.  1.
         22    1    1    2    0    0  0.43858188819E+03  0.82242562669E+02 -0.15979898738E+04  0.16591231264E+04  0.00000000000E+00 0.  1.
<mgrwt>
<rscale>  0 0.17558129E+04</rscale>
<asrwt>0</asrwt>
<pdfrwt beam="1">  1        2 0.27007024E+00 0.17558129E+04</pdfrwt>
<pdfrwt beam="2">  1       -2 0.67544978E-01 0.17558129E+04</pdfrwt>
<totfact> 0.17386226E+01</totfact>
</mgrwt>
</event>
<event>
 6    1  0.6091287E-004  0.2406201E+04  0.7818608E-02  0.8437186E-01
          2   -1    0    0  501    0  0.00000000000E+00  0.00000000000E+00  0.15939071341E+04  0.15939071341E+04  0.00000000000E+00 0.  1.
         -2   -1    0    0    0  501 -0.00000000000E+00 -0.00000000000E+00 -0.90811470545E+03  0.90811470545E+03  0.00000000000E+00 0. -1.
         23    2    1    2    0    0  0.54550770177E+03 -0.50353010113E+03  0.13255315562E+04  0.15220282851E+04  0.91733191893E+02 0.  0.
         13    1    3    3    0    0  0.19146061076E+03 -0.12390128567E+03  0.43889025307E+03  0.49460423401E+03  0.00000000000E+00 0. -1.
        -13    1    3    3    0    0  0.35404709100E+03 -0.37962881546E+03  0.88664130317E+03  0.10274240510E+04  0.00000000000E+00 0.  1.
         22    1    1    2    0    0 -0.54550770177E+03  0.50353010113E+03 -0.63973912761E+03  0.97999355448E+03  0.00000000000E+00 0. -1.
<mgrwt>
<rscale>  0 0.24062007E+04</rscale>
<asrwt>0</asrwt>
<pdfrwt beam="1">  1        2 0.24521648E+00 0.24062007E+04</pdfrwt>
<pdfrwt beam="2">  1       -2 0.13970995E+00 0.24062007E+04</pdfrwt>
<totfact> 0.36485159E+00</totfact>
</mgrwt>
</event>
<event>
 6    1  0.6091287E-004  0.1821552E+04  0.7818608E-02  0.8694922E-01
          2   -1    0    0  501    0  0.00000000000E+00  0.00000000000E+00  0.33525538721E+04  0.33525538721E+04  0.00000000000E+00 0.  1.
         -2   -1    0    0    0  501 -0.00000000000E+00 -0.00000000000E+00 -0.24742713298E+03  0.24742713298E+03  0.00000000000E+00 0. -1.
         23    2    1    2    0    0  0.77571882353E+03  0.33271913696E+03  0.22205698596E+04  0.23773270923E+04  0.91169541603E+02 0.  0.
         11    1    3    3    0    0  0.18464332487E+03  0.40182846394E+02  0.52927084177E+03  0.56199238652E+03  0.00000000000E+00 0. -1.
        -11    1    3    3    0    0  0.59107549866E+03  0.29253629057E+03  0.16912990178E+04  0.18153347058E+04  0.00000000000E+00 0.  1.
         22    1    1    2    0    0 -0.77571882353E+03 -0.33271913696E+03  0.88455687954E+03  0.12226539128E+04  0.00000000000E+00 0.  1.
<mgrwt>
<rscale>  0 0.18215519E+04</rscale>
<asrwt>0</asrwt>
<pdfrwt beam="1">  1        2 0.51577749E+00 0.18215519E+04</pdfrwt>
<pdfrwt beam="2">  1       -2 0.38065715E-01 0.18215519E+04</pdfrwt>
<totfact> 0.63461025E+00</totfact>
</mgrwt>
</event>
<event>
 6    1  0.6091287E-004  0.7968091E+03  0.7818608E-02  0.9564647E-01
          2   -1    0    0  501    0  0.00000000000E+00  0.00000000000E+00  0.10959479140E+04  0.10959479140E+04  0.00000000000E+00 0.  1.
         -2   -1    0    0    0  501 -0.00000000000E+00 -0.00000000000E+00 -0.14483003158E+03  0.14483003158E+03  0.00000000000E+00 0. -1.
         23    2    1    2    0    0 -0.39091411790E+03 -0.35909795973E+02  0.44636892810E+03  0.60134470598E+03  0.90922353750E+02 0.  0.
         13    1    3    3    0    0 -0.33329672903E+03 -0.57572770693E+02  0.34788629446E+03  0.48520738595E+03  0.00000000000E+00 0.  1.
        -13    1    3    3    0    0 -0.57617388867E+02  0.21662974720E+02  0.98482633640E+02  0.11613732002E+03  0.00000000000E+00 0. -1.
         22    1    1    2    0    0  0.39091411790E+03  0.35909795973E+02  0.50474895433E+03  0.63943323961E+03  0.00000000000E+00 0.  1.
<mgrwt>
<rscale>  0 0.79680906E+03</rscale>
<asrwt>0</asrwt>
<pdfrwt beam="1">  1        2 0.16860737E+00 0.79680906E+03</pdfrwt>
<pdfrwt beam="2">  1       -2 0.22281544E-01 0.79680906E+03</pdfrwt>
<totfact> 0.38830575E+02</totfact>
</mgrwt>
</event>
<event>
 6    1  0.6091287E-004  0.8917796E+03  0.7818608E-02  0.9435916E-01
          2   -1    0    0  501    0  0.00000000000E+00  0.00000000000E+00  0.29931927726E+03  0.29931927726E+03  0.00000000000E+00 0.  1.
         -2   -1    0    0    0  501 -0.00000000000E+00 -0.00000000000E+00 -0.66423291473E+03  0.66423291473E+03  0.00000000000E+00 0. -1.
         23    2    1    2    0    0  0.67535636450E+02 -0.34990938795E+03  0.97441156822E+02  0.37979745087E+03  0.88054998010E+02 0.  0.
         13    1    3    3    0    0  0.68811830179E+02 -0.13362372077E+03  0.30280729560E+02  0.15332087043E+03  0.00000000000E+00 0. -1.
        -13    1    3    3    0    0 -0.12761937296E+01 -0.21628566718E+03  0.67160427262E+02  0.22647658044E+03  0.00000000000E+00 0.  1.
         22    1    1    2    0    0 -0.67535636450E+02  0.34990938795E+03 -0.46235479429E+03  0.58375474111E+03  0.00000000000E+00 0. -1.
<mgrwt>
<rscale>  0 0.89177960E+03</rscale>
<asrwt>0</asrwt>
<pdfrwt beam="1">  1        2 0.46049120E-01 0.89177960E+03</pdfrwt>
<pdfrwt beam="2">  1       -2 0.10218968E+00 0.89177960E+03</pdfrwt>
<totfact> 0.86661088E+01</totfact>
</mgrwt>
</event>
<event>
 6    1  0.6091287E-004  0.1104808E+04  0.7818608E-02  0.9200518E-01
         -2   -1    0    0    0  501 -0.00000000000E+00  0.00000000000E+00  0.16360819095E+03  0.16360819095E+03  0.00000000000E+00 0. -1.
          2   -1    0    0  501    0  0.00000000000E+00 -0.00000000000E+00 -0.18651289236E+04  0.18651289236E+04  0.00000000000E+00 0.  1.
         23    2    1    2    0    0  0.22051154480E+02 -0.22870289198E+03 -0.17714969426E+04  0.17885539841E+04  0.89065537615E+02 0.  0.
         13    1    3    3    0    0  0.50073141577E+02 -0.14363118052E+03 -0.93729082258E+03  0.94955322211E+03  0.00000000000E+00 0. -1.
        -13    1    3    3    0    0 -0.28021987098E+02 -0.85071711465E+02 -0.83420612003E+03  0.83900076195E+03  0.00000000000E+00 0.  1.
         22    1    1    2    0    0 -0.22051154480E+02  0.22870289198E+03  0.69976209962E+02  0.24018313050E+03  0.00000000000E+00 0. -1.
<mgrwt>
<rscale>  0 0.11048083E+04</rscale>
<asrwt>0</asrwt>
<pdfrwt beam="1">  1        2 0.28694293E+00 0.11048083E+04</pdfrwt>
<pdfrwt beam="2">  1       -2 0.25170489E-01 0.11048083E+04</pdfrwt>
<totfact> 0.11178071E+02</totfact>
</mgrwt>
</event>
<event>
 6    1  0.6091287E-004  0.1172241E+04  0.7818608E-02  0.9137507E-01
          4   -1    0    0  501    0  0.00000000000E+00  0.00000000000E+00  0.25970074742E+03  0.25970074742E+03  0.00000000000E+00 0.  1.
         -4   -1    0    0    0  501 -0.00000000000E+00 -0.00000000000E+00 -0.13228207075E+04  0.13228207075E+04  0.00000000000E+00 0. -1.
         23    2    1    2    0    0  0.35444376125E+03 -0.45883379979E+03 -0.46020552675E+03  0.74606186256E+03  0.93060948827E+02 0.  0.
         11    1    3    3    0    0  0.21922427265E+03 -0.27437367511E+03 -0.33485458445E+03  0.48525023239E+03  0.00000000000E+00 0. -1.
        -11    1    3    3    0    0  0.13521948860E+03 -0.18446012468E+03 -0.12535094230E+03  0.26081163017E+03  0.00000000000E+00 0.  1.
         22    1    1    2    0    0 -0.35444376125E+03  0.45883379979E+03 -0.60291443330E+03  0.83645959232E+03  0.00000000000E+00 0. -1.
<mgrwt>
<rscale>  0 0.11722415E+04</rscale>
<asrwt>0</asrwt>
<pdfrwt beam="1">  1        4 0.39953961E-01 0.11722415E+04</pdfrwt>
<pdfrwt beam="2">  1       -4 0.20351088E+00 0.11722415E+04</pdfrwt>
<totfact> 0.15064344E+00</totfact>
</mgrwt>
</event>
<event>
 6    1  0.6091287E-004  0.4079106E+04  0.7818608E-02  0.7988776E-01
         -2   -1    0    0    0  501 -0.00000000000E+00  0.00000000000E+00  0.14326466236E+04  0.14326466236E+04  0.00000000000E+00 0.  1.
          2   -1    0    0  501    0  0.00000000000E+00 -0.00000000000E+00 -0.29035607047E+04  0.29035607047E+04  0.00000000000E+00 0. -1.
         23    2    1    2    0    0  0.17911053167E+04 -0.52587235468E+03  0.13496791865E+03  0.18737985511E+04  0.91130028279E+02 0.  0.
         11    1    3    3    0    0  0.78274651755E+03 -0.27692044969E+03  0.57202134171E+02  0.83225544777E+03  0.00000000000E+00 0.  1.
        -11    1    3    3    0    0  0.10083587992E+04 -0.24895190499E+03  0.77765784482E+02  0.10415431033E+04  0.00000000000E+00 0. -1.
         22    1    1    2    0    0 -0.17911053167E+04  0.52587235468E+03 -0.16058819997E+04  0.24624087772E+04  0.00000000000E+00 0. -1.
<mgrwt>
<rscale>  0 0.40791060E+04</rscale>
<asrwt>0</asrwt>
<pdfrwt beam="1">  1        2 0.44670164E+00 0.40791060E+04</pdfrwt>
<pdfrwt beam="2">  1       -2 0.22040717E+00 0.40791060E+04</pdfrwt>
<totfact> 0.15388334E-01</totfact>
</mgrwt>
</event>
<event>
 6    1  0.6091287E-004  0.1626709E+04  0.7818608E-02  0.8804305E-01
         -2   -1    0    0    0  501 -0.00000000000E+00  0.00000000000E+00  0.33223056594E+03  0.33223056594E+03  0.00000000000E+00 0. -1.
          2   -1    0    0  501    0  0.00000000000E+00 -0.00000000000E+00 -0.19912247016E+04  0.19912247016E+04  0.00000000000E+00 0.  1.
         23    2    1    2    0    0 -0.34918502905E+03  0.56666200253E+03 -0.17075363459E+03  0.69314983644E+03  0.90905898668E+02 0.  0.
         13    1    3    3    0    0 -0.24971718429E+03  0.45623507815E+03 -0.15991885331E+03  0.54413523899E+03  0.00000000000E+00 0. -1.
        -13    1    3    3    0    0 -0.99467844763E+02  0.11042692438E+03 -0.10834781277E+02  0.14901459745E+03  0.00000000000E+00 0.  1.
         22    1    1    2    0    0  0.34918502905E+03 -0.56666200253E+03 -0.14882405011E+04  0.16303054311E+04  0.00000000000E+00 0.  1.
<mgrwt>
<rscale>  0 0.16267092E+04</rscale>
<asrwt>0</asrwt>
<pdfrwt beam="1">  1        2 0.30634226E+00 0.16267092E+04</pdfrwt>
<pdfrwt beam="2">  1       -2 0.51112396E-01 0.16267092E+04</pdfrwt>
<totfact> 0.23395285E+01</totfact>
</mgrwt>
</event>
<event>
 6    1  0.6091287E-004  0.1734387E+04  0.7818608E-02  0.8741992E-01
         -2   -1    0    0    0  501 -0.00000000000E+00  0.00000000000E+00  0.40224526937E+03  0.40224526937E+03  0.00000000000E+00 0. -1.
          2   -1    0    0  501    0  0.00000000000E+00 -0.00000000000E+00 -0.18695665376E+04  0.18695665376E+04  0.00000000000E+00 0.  1.
         23    2    1    2    0    0 -0.18834098841E+03 -0.68963149504E+03 -0.13729885357E+04  0.15507274906E+04  0.92705469745E+02 0.  0.
         13    1    3    3    0    0 -0.70852684130E+02 -0.21548456098E+03 -0.34973690703E+03  0.41685681355E+03  0.00000000000E+00 0. -1.
        -13    1    3    3    0    0 -0.11748830428E+03 -0.47414693407E+03 -0.10232516286E+04  0.11338706770E+04  0.00000000000E+00 0.  1.
         22    1    1    2    0    0  0.18834098841E+03  0.68963149504E+03 -0.94332732525E+02  0.72108431636E+03  0.00000000000E+00 0. -1.
<mgrwt>
<rscale>  0 0.17343867E+04</rscale>
<asrwt>0</asrwt>
<pdfrwt beam="1">  1        2 0.28762562E+00 0.17343867E+04</pdfrwt>
<pdfrwt beam="2">  1       -2 0.61883888E-01 0.17343867E+04</pdfrwt>
<totfact> 0.18169466E+01</totfact>
</mgrwt>
</event>
<event>
 6    1  0.6091287E-004  0.2745487E+04  0.7818608E-02  0.8320395E-01
         -2   -1    0    0    0  501 -0.00000000000E+00  0.00000000000E+00  0.13726268860E+04  0.13726268860E+04  0.00000000000E+00 0. -1.
          2   -1    0    0  501    0  0.00000000000E+00 -0.00000000000E+00 -0.13728597245E+04  0.13728597245E+04  0.00000000000E+00 0.  1.
         23    2    1    2    0    0  0.10247089610E+04  0.86048428016E+03 -0.29961992345E+03  0.13743213113E+04  0.92332642725E+02 0.  0.
         13    1    3    3    0    0  0.52399615526E+03  0.49612267628E+03 -0.17816394653E+03  0.74327119714E+03  0.00000000000E+00 0. -1.
        -13    1    3    3    0    0  0.50071280574E+03  0.36436160387E+03 -0.12145597693E+03  0.63105011413E+03  0.00000000000E+00 0.  1.
         22    1    1    2    0    0 -0.10247089610E+04 -0.86048428016E+03  0.29938708499E+03  0.13711652992E+04  0.00000000000E+00 0. -1.
<mgrwt>
<rscale>  0 0.27454866E+04</rscale>
<asrwt>0</asrwt>
<pdfrwt beam="1">  1        2 0.21120919E+00 0.27454866E+04</pdfrwt>
<pdfrwt beam="2">  1       -2 0.21117337E+00 0.27454866E+04</pdfrwt>
<totfact> 0.14754313E+00</totfact>
</mgrwt>
</event>
<event>
 6    1  0.6091287E-004  0.1141281E+04  0.7818608E-02  0.9165865E-01
         -2   -1    0    0    0  501 -0.00000000000E+00  0.00000000000E+00  0.55853036537E+03  0.55853036537E+03  0.00000000000E+00 0. -1.
          2   -1    0    0  501    0  0.00000000000E+00 -0.00000000000E+00 -0.58301311487E+03  0.58301311487E+03  0.00000000000E+00 0.  1.
         23    2    1    2    0    0  0.15171357082E+03  0.13792953695E+03 -0.54125411071E+03  0.58558106739E+03  0.88924740072E+02 0.  0.
         13    1    3    3    0    0  0.96060635518E+02  0.95814148050E+02 -0.45404829105E+03  0.47388590110E+03  0.00000000000E+00 0.  1.
        -13    1    3    3    0    0  0.55652935299E+02  0.42115388895E+02 -0.87205819662E+02  0.11169516629E+03  0.00000000000E+00 0. -1.
         22    1    1    2    0    0 -0.15171357082E+03 -0.13792953695E+03  0.51677136121E+03  0.55596241285E+03  0.00000000000E+00 0. -1.
<mgrwt>
<rscale>  0 0.11412809E+04</rscale>
<asrwt>0</asrwt>
<pdfrwt beam="1">  1        2 0.89694325E-01 0.11412809E+04</pdfrwt>
<pdfrwt beam="2">  1       -2 0.85927749E-01 0.11412809E+04</pdfrwt>
<totfact> 0.59806361E+01</totfact>
</mgrwt>
</event>
<event>
 6    1  0.6091287E-004  0.3594380E+04  0.7818608E-02  0.8091780E-01
          2   -1    0    0  501    0  0.00000000000E+00  0.00000000000E+00  0.21620410067E+04  0.21620410067E+04  0.00000000000E+00 0.  1.
         -2   -1    0    0    0  501 -0.00000000000E+00 -0.00000000000E+00 -0.14939085923E+04  0.14939085923E+04  0.00000000000E+00 0. -1.
         23    2    1    2    0    0 -0.46310719525E+03  0.13224567109E+04 -0.80853087225E+03  0.16202938106E+04  0.90938631879E+02 0.  0.
         11    1    3    3    0    0 -0.21129483837E+03  0.56922025200E+03 -0.40086331260E+03  0.72756346761E+03  0.00000000000E+00 0.  1.
        -11    1    3    3    0    0 -0.25181235687E+03  0.75323645894E+03 -0.40766755965E+03  0.89273034302E+03  0.00000000000E+00 0. -1.
         22    1    1    2    0    0  0.46310719525E+03 -0.13224567109E+04  0.14766632866E+04  0.20356557884E+04  0.00000000000E+00 0.  1.
<mgrwt>
<rscale>  0 0.35943799E+04</rscale>
<asrwt>0</asrwt>
<pdfrwt beam="1">  1        2 0.33262169E+00 0.35943799E+04</pdfrwt>
<pdfrwt beam="2">  1       -2 0.22983209E+00 0.35943799E+04</pdfrwt>
<totfact> 0.37907081E-01</totfact>
</mgrwt>
</event>
<event>
 6    1  0.6091287E-004  0.3502153E+04  0.7818608E-02  0.8113280E-01
          1   -1    0    0  501    0  0.00000000000E+00  0.00000000000E+00  0.12745350590E+04  0.12745350590E+04  0.00000000000E+00 0.  1.
         -1   -1    0    0    0  501 -0.00000000000E+00 -0.00000000000E+00 -0.24057938875E+04  0.24057938875E+04  0.00000000000E+00 0. -1.
         23    2    1    2    0    0 -0.31373961128E+03 -0.59638853918E+03 -0.22631358050E+04  0.23630372843E+04  0.89720130720E+02 0.  0.
         11    1    3    3    0    0 -0.28428880236E+03 -0.50587340578E+03 -0.20273944052E+04  0.21088044243E+04  0.00000000000E+00 0. -1.
        -11    1    3    3    0    0 -0.29450808922E+02 -0.90515133399E+02 -0.23574139981E+03  0.25423286000E+03  0.00000000000E+00 0.  1.
         22    1    1    2    0    0  0.31373961128E+03  0.59638853918E+03  0.11318769765E+04  0.13172916622E+04  0.00000000000E+00 0.  1.
<mgrwt>
<rscale>  0 0.35021529E+04</rscale>
<asrwt>0</asrwt>
<pdfrwt beam="1">  1        1 0.19608232E+00 0.35021529E+04</pdfrwt>
<pdfrwt beam="2">  1       -1 0.37012214E+00 0.35021529E+04</pdfrwt>
<totfact> 0.87709474E-02</totfact>
</mgrwt>
</event>
<event>
 6    1  0.6091287E-004  0.5336582E+03  0.7818608E-02  0.1005349E+00
          2   -1    0    0  501    0  0.00000000000E+00  0.00000000000E+00  0.11814765049E+04  0.11814765049E+04  0.00000000000E+00 0.  1.
         -2   -1    0    0    0  501 -0.00000000000E+00 -0.00000000000E+00 -0.60261682979E+02  0.60261682979E+02  0.00000000000E+00 0. -1.
         23    2    1    2    0    0 -0.13031560248E+03 -0.12141615752E+03  0.13850142517E+03  0.24301417209E+03  0.90272938945E+02 0.  0.
         11    1    3    3    0    0 -0.36914450373E+02 -0.51933547279E+02  0.21830303989E+01  0.63753710488E+02  0.00000000000E+00 0. -1.
        -11    1    3    3    0    0 -0.93401152106E+02 -0.69482610240E+02  0.13631839477E+03  0.17926046160E+03  0.00000000000E+00 0.  1.
         22    1    1    2    0    0  0.13031560248E+03  0.12141615752E+03  0.98271339671E+03  0.99872401575E+03  0.00000000000E+00 0.  1.
<mgrwt>
<rscale>  0 0.53365818E+03</rscale>
<asrwt>0</asrwt>
<pdfrwt beam="1">  1        2 0.18176560E+00 0.53365818E+03</pdfrwt>
<pdfrwt beam="2">  1       -2 0.92710291E-02 0.53365818E+03</pdfrwt>
<totfact> 0.15252021E+03</totfact>
</mgrwt>
</event>
<event>
 6    1  0.6091287E-004  0.1532880E+04  0.7818608E-02  0.8862878E-01
          2   -1    0    0  501    0  0.00000000000E+00  0.00000000000E+00  0.28937905828E+04  0.28937905828E+04  0.00000000000E+00 0.  1.
         -2   -1    0    0    0  501 -0.00000000000E+00 -0.00000000000E+00 -0.20299679836E+03  0.20299679836E+03  0.00000000000E+00 0. -1.
         23    2    1    2    0    0 -0.40716916713E+03  0.60423937090E+03  0.88847934356E+03  0.11527633865E+04  0.92606335145E+02 0.  0.
         11    1    3    3    0    0 -0.16086008187E+03  0.16272567713E+03  0.26806855906E+03  0.35244341999E+03  0.00000000000E+00 0. -1.
        -11    1    3    3    0    0 -0.24630908525E+03  0.44151369377E+03  0.62041078450E+03  0.80031996650E+03  0.00000000000E+00 0.  1.
         22    1    1    2    0    0  0.40716916713E+03 -0.60423937090E+03  0.18023144409E+04  0.19440239947E+04  0.00000000000E+00 0.  1.
<mgrwt>
<rscale>  0 0.15328799E+04</rscale>
<asrwt>0</asrwt>
<pdfrwt beam="1">  1        2 0.44519852E+00 0.15328799E+04</pdfrwt>
<pdfrwt beam="2">  1       -2 0.31230279E-01 0.15328799E+04</pdfrwt>
<totfact> 0.18685496E+01</totfact>
</mgrwt>
</event>
<event>
 6    1  0.6091287E-004  0.3210185E+04  0.7818608E-02  0.8186133E-01
         -2   -1    0    0    0  501 -0.00000000000E+00  0.00000000000E+00  0.97377185087E+03  0.97377185087E+03  0.00000000000E+00 0. -1.
          2   -1    0    0  501    0  0.00000000000E+00 -0.00000000000E+00 -0.26457139294E+04  0.26457139294E+04  0.00000000000E+00 0.  1.
         23    2    1    2    0    0  0.94201519618E+03  0.10147309380E+04 -0.17502495835E+04  0.22326896266E+04  0.66767193437E+02 0.  0.
         13    1    3    3    0    0  0.50920988653E+03  0.50485718880E+03 -0.88111777112E+03  0.11360211337E+04  0.00000000000E+00 0.  1.
        -13    1    3    3    0    0  0.43280530965E+03  0.50987374921E+03 -0.86913181235E+03  0.10966684930E+04  0.00000000000E+00 0. -1.
         22    1    1    2    0    0 -0.94201519618E+03 -0.10147309380E+04  0.78307504943E+02  0.13867961536E+04  0.00000000000E+00 0.  1.
<mgrwt>
<rscale>  0 0.32101849E+04</rscale>
<asrwt>0</asrwt>
<pdfrwt beam="1">  1        2 0.40703290E+00 0.32101849E+04</pdfrwt>
<pdfrwt beam="2">  1       -2 0.14981106E+00 0.32101849E+04</pdfrwt>
<totfact> 0.72317387E-01</totfact>
</mgrwt>
</event>
<event>
 6    1  0.6091287E-004  0.1265185E+04  0.7818608E-02  0.9057639E-01
          2   -1    0    0  501    0  0.00000000000E+00  0.00000000000E+00  0.20799112294E+04  0.20799112294E+04  0.00000000000E+00 0.  1.
         -2   -1    0    0    0  501 -0.00000000000E+00 -0.00000000000E+00 -0.19239918024E+03  0.19239918024E+03  0.00000000000E+00 0. -1.
         23    2    1    2    0    0  0.20979485945E+03  0.59047042856E+03  0.92291588279E+03  0.11220430606E+04  0.12057235629E+03 0.  0.
         13    1    3    3    0    0  0.33203090327E+02  0.26597544110E+03  0.36314854756E+03  0.45135601034E+03  0.00000000000E+00 0.  1.
        -13    1    3    3    0    0  0.17659176912E+03  0.32449498745E+03  0.55976733523E+03  0.67068705026E+03  0.00000000000E+00 0. -1.
         22    1    1    2    0    0 -0.20979485945E+03 -0.59047042856E+03  0.96459616635E+03  0.11502673490E+04  0.00000000000E+00 0. -1.
<mgrwt>
<rscale>  0 0.12651849E+04</rscale>
<asrwt>0</asrwt>
<pdfrwt beam="1">  1        2 0.31998633E+00 0.12651849E+04</pdfrwt>
<pdfrwt beam="2">  1       -2 0.29599875E-01 0.12651849E+04</pdfrwt>
<totfact> 0.62384227E+01</totfact>
</mgrwt>
</event>
<event>
 6    1  0.6091287E-004  0.2794417E+04  0.7818608E-02  0.8305004E-01
          2   -1    0    0  501    0  0.00000000000E+00  0.00000000000E+00  0.22107845995E+04  0.22107845995E+04  0.00000000000E+00 0.  1.
         -2   -1    0    0    0  501 -0.00000000000E+00 -0.00000000000E+00 -0.88303096386E+03  0.88303096386E+03  0.00000000000E+00 0. -1.
         23    2    1    2    0    0  0.20140430179E+02 -0.11078475099E+04  0.16042080882E+04  0.19518178373E+04  0.91528889661E+02 0.  0.
         13    1    3    3    0    0 -0.34912173279E+02 -0.28892250549E+03  0.41688914885E+03  0.50842072780E+03  0.00000000000E+00 0. -1.
        -13    1    3    3    0    0  0.55052603458E+02 -0.81892500438E+03  0.11873189394E+04  0.14433971095E+04  0.00000000000E+00 0.  1.
         22    1    1    2    0    0 -0.20140430179E+02  0.11078475099E+04 -0.27645445255E+03  0.11419977261E+04  0.00000000000E+00 0. -1.
<mgrwt>
<rscale>  0 0.27944168E+04</rscale>
<asrwt>0</asrwt>
<pdfrwt beam="1">  1        2 0.34012071E+00 0.27944168E+04</pdfrwt>
<pdfrwt beam="2">  1       -2 0.13585092E+00 0.27944168E+04</pdfrwt>
<totfact> 0.17208605E+00</totfact>
</mgrwt>
</event>
<event>
 6    1  0.6091287E-004  0.2427884E+04  0.7818608E-02  0.8429137E-01
         -2   -1    0    0    0  501 -0.00000000000E+00  0.00000000000E+00  0.87814667728E+03  0.87814667728E+03  0.00000000000E+00 0. -1.
          2   -1    0    0  501    0  0.00000000000E+00 -0.00000000000E+00 -0.16781421768E+04  0.16781421768E+04  0.00000000000E+00 0.  1.
         23    2    1    2    0    0  0.47054759329E+03  0.46031471925E+03  0.67251228339E+03  0.94334624846E+03  0.65762412136E+02 0.  0.
         11    1    3    3    0    0  0.27795927220E+03  0.29749968315E+03  0.45213885344E+03  0.60843813266E+03  0.00000000000E+00 0. -1.
        -11    1    3    3    0    0  0.19258832109E+03  0.16281503610E+03  0.22037342995E+03  0.33490811580E+03  0.00000000000E+00 0.  1.
         22    1    1    2    0    0 -0.47054759329E+03 -0.46031471925E+03 -0.14725077829E+04  0.16129426057E+04  0.00000000000E+00 0.  1.
<mgrwt>
<rscale>  0 0.24278838E+04</rscale>
<asrwt>0</asrwt>
<pdfrwt beam="1">  1        2 0.25817572E+00 0.24278838E+04</pdfrwt>
<pdfrwt beam="2">  1       -2 0.13509949E+00 0.24278838E+04</pdfrwt>
<totfact> 0.35636443E+00</totfact>
</mgrwt>
</event>
<event>
 6    1  0.6091287E-004  0.2771750E+04  0.7818608E-02  0.8312093E-01
         -2   -1    0    0    0  501 -0.00000000000E+00  0.00000000000E+00  0.80633301029E+03  0.80633301029E+03  0.00000000000E+00 0. -1.
          2   -1    0    0  501    0  0.00000000000E+00 -0.00000000000E+00 -0.23819550592E+04  0.23819550592E+04  0.00000000000E+00 0.  1.
         23    2    1    2    0    0  0.10637031060E+04 -0.83506627089E+03 -0.11321731900E+04  0.17651061187E+04  0.70593936436E+02 0.  0.
         13    1    3    3    0    0  0.83404118714E+03 -0.64557759476E+03 -0.84514994829E+03  0.13515448819E+04  0.00000000000E+00 0. -1.
        -13    1    3    3    0    0  0.22966191884E+03 -0.18948867613E+03 -0.28702324168E+03  0.41356123683E+03  0.00000000000E+00 0.  1.
         22    1    1    2    0    0 -0.10637031060E+04  0.83506627089E+03 -0.44344885896E+03  0.14231819508E+04  0.00000000000E+00 0. -1.
<mgrwt>
<rscale>  0 0.27717496E+04</rscale>
<asrwt>0</asrwt>
<pdfrwt beam="1">  1        2 0.36645462E+00 0.27717496E+04</pdfrwt>
<pdfrwt beam="2">  1       -2 0.12405123E+00 0.27717496E+04</pdfrwt>
<totfact> 0.17351390E+00</totfact>
</mgrwt>
</event>
<event>
 6    1  0.6091287E-004  0.2810320E+04  0.7818608E-02  0.8300071E-01
         -2   -1    0    0    0  501 -0.00000000000E+00  0.00000000000E+00  0.67844654904E+03  0.67844654904E+03  0.00000000000E+00 0. -1.
          2   -1    0    0  501    0  0.00000000000E+00 -0.00000000000E+00 -0.29102882575E+04  0.29102882575E+04  0.00000000000E+00 0.  1.
         23    2    1    2    0    0  0.11292135980E+03  0.67587720512E+03  0.44745423123E+03  0.82319906055E+03  0.88770346054E+02 0.  0.
         13    1    3    3    0    0  0.81387992622E+02  0.44154251180E+03  0.24247936381E+03  0.51027447216E+03  0.00000000000E+00 0.  1.
        -13    1    3    3    0    0  0.31533367174E+02  0.23433469332E+03  0.20497486743E+03  0.31292458839E+03  0.00000000000E+00 0. -1.
         22    1    1    2    0    0 -0.11292135980E+03 -0.67587720512E+03 -0.26792959397E+04  0.27655357460E+04  0.00000000000E+00 0.  1.
<mgrwt>
<rscale>  0 0.28103203E+04</rscale>
<asrwt>0</asrwt>
<pdfrwt beam="1">  1        2 0.44773666E+00 0.28103203E+04</pdfrwt>
<pdfrwt beam="2">  1       -2 0.10437639E+00 0.28103203E+04</pdfrwt>
<totfact> 0.12830679E+00</totfact>
</mgrwt>
</event>
<event>
 6    1  0.6091287E-004  0.2959534E+04  0.7818608E-02  0.8255382E-01
         -2   -1    0    0    0  501 -0.00000000000E+00  0.00000000000E+00  0.83775463794E+03  0.83775463794E+03  0.00000000000E+00 0.  1.
          2   -1    0    0  501    0  0.00000000000E+00 -0.00000000000E+00 -0.26137844959E+04  0.26137844959E+04  0.00000000000E+00 0. -1.
         23    2    1    2    0    0  0.13577200514E+04  0.63170837412E+02 -0.21134510508E+03  0.13789483231E+04  0.97146445163E+02 0.  0.
         11    1    3    3    0    0  0.10401807205E+04  0.51068525184E+02 -0.20321145973E+03  0.10610743720E+04  0.00000000000E+00 0. -1.
        -11    1    3    3    0    0  0.31753933094E+03  0.12102312228E+02 -0.81336453572E+01  0.31787395118E+03  0.00000000000E+00 0.  1.
         22    1    1    2    0    0 -0.13577200514E+04 -0.63170837412E+02 -0.15646847529E+04  0.20725908107E+04  0.00000000000E+00 0. -1.
<mgrwt>
<rscale>  0 0.29595338E+04</rscale>
<asrwt>0</asrwt>
<pdfrwt beam="1">  1        2 0.40212069E+00 0.29595338E+04</pdfrwt>
<pdfrwt beam="2">  1       -2 0.12888533E+00 0.29595338E+04</pdfrwt>
<totfact> 0.11383608E+00</totfact>
</mgrwt>
</event>
<event>
 6    1  0.6091287E-004  0.8692313E+03  0.7818608E-02  0.9464883E-01
         -2   -1    0    0    0  501 -0.00000000000E+00  0.00000000000E+00  0.59531660695E+02  0.59531660695E+02  0.00000000000E+00 0. -1.
          2   -1    0    0  501    0  0.00000000000E+00 -0.00000000000E+00 -0.31729463011E+04  0.31729463011E+04  0.00000000000E+00 0.  1.
         23    2    1    2    0    0 -0.39774786868E+03  0.10464834917E+03 -0.11068541362E+04  0.11842007098E+04  0.89725126003E+02 0.  0.
         13    1    3    3    0    0 -0.29861855133E+03  0.45458940644E+02 -0.86448816512E+03  0.91573977861E+03  0.00000000000E+00 0. -1.
        -13    1    3    3    0    0 -0.99129317347E+02  0.59189408527E+02 -0.24236597108E+03  0.26846093119E+03  0.00000000000E+00 0.  1.
         22    1    1    2    0    0  0.39774786868E+03 -0.10464834917E+03 -0.20065605042E+04  0.20482772520E+04  0.00000000000E+00 0.  1.
<mgrwt>
<rscale>  0 0.86923130E+03</rscale>
<asrwt>0</asrwt>
<pdfrwt beam="1">  1        2 0.48814564E+00 0.86923130E+03</pdfrwt>
<pdfrwt beam="2">  1       -2 0.91587160E-02 0.86923130E+03</pdfrwt>
<totfact> 0.11190337E+02</totfact>
</mgrwt>
</event>
<event>
 6    1  0.6091287E-004  0.8820884E+03  0.7818608E-02  0.9448253E-01
         -2   -1    0    0    0  501 -0.00000000000E+00  0.00000000000E+00  0.35316142804E+03  0.35316142804E+03  0.00000000000E+00 0. -1.
          2   -1    0    0  501    0  0.00000000000E+00 -0.00000000000E+00 -0.55079626581E+03  0.55079626581E+03  0.00000000000E+00 0.  1.
         23    2    1    2    0    0  0.34862568527E+03 -0.62844001622E+02 -0.35994771967E+03  0.51429795946E+03  0.97215190391E+02 0.  0.
         11    1    3    3    0    0  0.66636698794E+02  0.11359495255E+02 -0.11537664685E+03  0.13372082260E+03  0.00000000000E+00 0.  1.
        -11    1    3    3    0    0  0.28198898647E+03 -0.74203496877E+02 -0.24457107282E+03  0.38057713686E+03  0.00000000000E+00 0. -1.
         22    1    1    2    0    0 -0.34862568527E+03  0.62844001622E+02  0.16231288191E+03  0.38965973439E+03  0.00000000000E+00 0. -1.
<mgrwt>
<rscale>  0 0.88208842E+03</rscale>
<asrwt>0</asrwt>
<pdfrwt beam="1">  1        2 0.84737887E-01 0.88208842E+03</pdfrwt>
<pdfrwt beam="2">  1       -2 0.54332527E-01 0.88208842E+03</pdfrwt>
<totfact> 0.17602312E+02</totfact>
</mgrwt>
</event>
<event>
 6    1  0.6091287E-004  0.1063351E+04  0.7818608E-02  0.9241667E-01
          2   -1    0    0  501    0  0.00000000000E+00  0.00000000000E+00  0.41352753672E+04  0.41352753672E+04  0.00000000000E+00 0.  1.
         -2   -1    0    0    0  501 -0.00000000000E+00 -0.00000000000E+00 -0.68357962424E+02  0.68357962424E+02  0.00000000000E+00 0. -1.
         23    2    1    2    0    0 -0.31524426539E+03  0.41750082183E+03  0.23211621216E+04  0.23811769126E+04  0.92325573071E+02 0.  0.
         13    1    3    3    0    0 -0.28485304793E+02  0.93219493649E+02  0.37604748873E+03  0.38847522490E+03  0.00000000000E+00 0.  1.
        -13    1    3    3    0    0 -0.28675896059E+03  0.32428132818E+03  0.19451146328E+04  0.19927016877E+04  0.00000000000E+00 0. -1.
         22    1    1    2    0    0  0.31524426539E+03 -0.41750082183E+03  0.17457552832E+04  0.18224564171E+04  0.00000000000E+00 0.  1.
<mgrwt>
<rscale>  0 0.10633513E+04</rscale>
<asrwt>0</asrwt>
<pdfrwt beam="1">  1        2 0.63619602E+00 0.10633513E+04</pdfrwt>
<pdfrwt beam="2">  1       -2 0.10516613E-01 0.10633513E+04</pdfrwt>
<totfact> 0.17629548E+01</totfact>
</mgrwt>
</event>
<event>
 6    1  0.6091287E-004  0.2269409E+04  0.7818608E-02  0.8490081E-01
          2   -1    0    0  501    0  0.00000000000E+00  0.00000000000E+00  0.22261160570E+04  0.22261160570E+04  0.00000000000E+00 0.  1.
         -2   -1    0    0    0  501 -0.00000000000E+00 -0.00000000000E+00 -0.57838606045E+03  0.57838606045E+03  0.00000000000E+00 0. -1.
         23    2    1    2    0    0 -0.58031364523E+03 -0.89237745857E+03  0.13041520577E+04  0.16859551782E+04  0.92362425522E+02 0.  0.
         13    1    3    3    0    0 -0.19671613259E+03 -0.29840666947E+03  0.37071336385E+03  0.51494871137E+03  0.00000000000E+00 0.  1.
        -13    1    3    3    0    0 -0.38359751264E+03 -0.59397078910E+03  0.93343869388E+03  0.11710064668E+04  0.00000000000E+00 0. -1.
         22    1    1    2    0    0  0.58031364523E+03  0.89237745857E+03  0.34357793884E+03  0.11185469393E+04  0.00000000000E+00 0.  1.
<mgrwt>
<rscale>  0 0.22694092E+04</rscale>
<asrwt>0</asrwt>
<pdfrwt beam="1">  1        2 0.34247939E+00 0.22694092E+04</pdfrwt>
<pdfrwt beam="2">  1       -2 0.88982472E-01 0.22694092E+04</pdfrwt>
<totfact> 0.49214069E+00</totfact>
</mgrwt>
</event>
<event>
 6    1  0.6091287E-004  0.3572485E+04  0.7818608E-02  0.8096824E-01
          2   -1    0    0  501    0  0.00000000000E+00  0.00000000000E+00  0.36702191976E+04  0.36702191976E+04  0.00000000000E+00 0.  1.
         -2   -1    0    0    0  501 -0.00000000000E+00 -0.00000000000E+00 -0.86933813913E+03  0.86933813913E+03  0.00000000000E+00 0. -1.
         23    2    1    2    0    0 -0.15572292438E+04  0.31128757285E+03  0.24374243351E+04  0.29104583034E+04  0.88697664828E+02 0.  0.
         11    1    3    3    0    0 -0.82581965840E+03  0.13272313678E+03  0.13392031543E+04  0.15789422497E+04  0.00000000000E+00 0. -1.
        -11    1    3    3    0    0 -0.73140958538E+03  0.17856443607E+03  0.10982211808E+04  0.13315160537E+04  0.00000000000E+00 0.  1.
         22    1    1    2    0    0  0.15572292438E+04 -0.31128757285E+03  0.36345672337E+03  0.16290990333E+04  0.00000000000E+00 0. -1.
<mgrwt>
<rscale>  0 0.35724846E+04</rscale>
<asrwt>0</asrwt>
<pdfrwt beam="1">  1        2 0.56464910E+00 0.35724846E+04</pdfrwt>
<pdfrwt beam="2">  1       -2 0.13374433E+00 0.35724846E+04</pdfrwt>
<totfact> 0.20221318E-01</totfact>
</mgrwt>
</event>
<event>
 6    1  0.6091287E-004  0.3887704E+04  0.7818608E-02  0.8027591E-01
          2   -1    0    0  501    0  0.00000000000E+00  0.00000000000E+00  0.14541277807E+04  0.14541277807E+04  0.00000000000E+00 0.  1.
         -2   -1    0    0    0  501 -0.00000000000E+00 -0.00000000000E+00 -0.25985071406E+04  0.25985071406E+04  0.00000000000E+00 0. -1.
         23    2    1    2    0    0 -0.11077698927E+04 -0.15958709062E+04 -0.55176267733E+03  0.20215877488E+04  0.91743606816E+02 0.  0.
         13    1    3    3    0    0 -0.72281468956E+03 -0.97009939210E+03 -0.36214524516E+03  0.12628155386E+04  0.00000000000E+00 0. -1.
        -13    1    3    3    0    0 -0.38495520315E+03 -0.62577151413E+03 -0.18961743217E+03  0.75877221016E+03  0.00000000000E+00 0.  1.
         22    1    1    2    0    0  0.11077698927E+04  0.15958709062E+04 -0.59261668256E+03  0.20310471725E+04  0.00000000000E+00 0.  1.
<mgrwt>
<rscale>  0 0.38877044E+04</rscale>
<asrwt>0</asrwt>
<pdfrwt beam="1">  1        2 0.22371197E+00 0.38877044E+04</pdfrwt>
<pdfrwt beam="2">  1       -2 0.39977033E+00 0.38877044E+04</pdfrwt>
<totfact> 0.79861404E-02</totfact>
</mgrwt>
</event>
<event>
 6    1  0.6091287E-004  0.4217594E+04  0.7818608E-02  0.7962034E-01
          2   -1    0    0  501    0  0.00000000000E+00  0.00000000000E+00  0.23026100691E+04  0.23026100691E+04  0.00000000000E+00 0.  1.
         -2   -1    0    0    0  501 -0.00000000000E+00 -0.00000000000E+00 -0.19312977039E+04  0.19312977039E+04  0.00000000000E+00 0. -1.
         23    2    1    2    0    0  0.13972392952E+04  0.10595434528E+04  0.13600663293E+04  0.22208145368E+04  0.85596789279E+02 0.  0.
         13    1    3    3    0    0  0.97367010346E+03  0.78365382228E+03  0.98613036053E+03  0.15920426726E+04  0.00000000000E+00 0. -1.
        -13    1    3    3    0    0  0.42356919172E+03  0.27588963055E+03  0.37393596874E+03  0.62877186414E+03  0.00000000000E+00 0.  1.
         22    1    1    2    0    0 -0.13972392952E+04 -0.10595434528E+04 -0.98875396398E+03  0.20130932362E+04  0.00000000000E+00 0.  1.
<mgrwt>
<rscale>  0 0.42175944E+04</rscale>
<asrwt>0</asrwt>
<pdfrwt beam="1">  1        2 0.35424771E+00 0.42175944E+04</pdfrwt>
<pdfrwt beam="2">  1       -2 0.29712272E+00 0.42175944E+04</pdfrwt>
<totfact> 0.11592757E-01</totfact>
</mgrwt>
</event>
<event>
 6    1  0.6091287E-004  0.2469291E+04  0.7818608E-02  0.8414008E-01
         -2   -1    0    0    0  501 -0.00000000000E+00  0.00000000000E+00  0.10119965908E+04  0.10119965908E+04  0.00000000000E+00 0. -1.
          2   -1    0    0  501    0  0.00000000000E+00 -0.00000000000E+00 -0.15062795204E+04  0.15062795204E+04  0.00000000000E+00 0.  1.
         23    2    1    2    0    0 -0.24413822017E+03 -0.71834387147E+03  0.74380276958E+03  0.10662163375E+04  0.89181444121E+02 0.  0.
         13    1    3    3    0    0 -0.66649212605E+02 -0.99810143154E+02  0.10450639441E+03  0.15914071977E+03  0.00000000000E+00 0.  1.
        -13    1    3    3    0    0 -0.17748900757E+03 -0.61853372832E+03  0.63929637518E+03  0.90707561768E+03  0.00000000000E+00 0. -1.
         22    1    1    2    0    0  0.24413822017E+03  0.71834387147E+03 -0.12380856991E+04  0.14520597738E+04  0.00000000000E+00 0.  1.
<mgrwt>
<rscale>  0 0.24692912E+04</rscale>
<asrwt>0</asrwt>
<pdfrwt beam="1">  1        2 0.23173531E+00 0.24692912E+04</pdfrwt>
<pdfrwt beam="2">  1       -2 0.15569178E+00 0.24692912E+04</pdfrwt>
<totfact> 0.30541234E+00</totfact>
</mgrwt>
</event>
<event>
 6    1  0.6091287E-004  0.1792375E+04  0.7818608E-02  0.8710365E-01
          2   -1    0    0  501    0  0.00000000000E+00  0.00000000000E+00  0.14711135595E+04  0.14711135595E+04  0.00000000000E+00 0.  1.
         -2   -1    0    0    0  501 -0.00000000000E+00 -0.00000000000E+00 -0.54594857031E+03  0.54594857031E+03  0.00000000000E+00 0. -1.
         23    2    1    2    0    0  0.43721994813E+03 -0.44165377861E+02  0.13397819579E+04  0.14128940287E+04  0.90232910105E+02 0.  0.
         13    1    3    3    0    0  0.53903593877E+02 -0.85463820255E+01  0.28211144327E+03  0.28734213841E+03  0.00000000000E+00 0. -1.
        -13    1    3    3    0    0  0.38331635425E+03 -0.35618995835E+02  0.10576705146E+04  0.11255518903E+04  0.00000000000E+00 0.  1.
         22    1    1    2    0    0 -0.43721994813E+03  0.44165377861E+02 -0.41461696870E+03  0.60416810109E+03  0.00000000000E+00 0. -1.
<mgrwt>
<rscale>  0 0.17923753E+04</rscale>
<asrwt>0</asrwt>
<pdfrwt beam="1">  1        2 0.22632516E+00 0.17923753E+04</pdfrwt>
<pdfrwt beam="2">  1       -2 0.83992089E-01 0.17923753E+04</pdfrwt>
<totfact> 0.15416092E+01</totfact>
</mgrwt>
</event>
<event>
 6    1  0.6091287E-004  0.9693918E+03  0.7818608E-02  0.9342767E-01
          2   -1    0    0  501    0  0.00000000000E+00  0.00000000000E+00  0.55268024620E+03  0.55268024620E+03  0.00000000000E+00 0.  1.
         -2   -1    0    0    0  501 -0.00000000000E+00 -0.00000000000E+00 -0.42507417556E+03  0.42507417556E+03  0.00000000000E+00 0. -1.
         23    2    1    2    0    0 -0.58403657007E+01 -0.19401574104E+03 -0.37884430807E+03  0.43538166827E+03  0.91421932084E+02 0.  0.
         13    1    3    3    0    0 -0.48714984619E+02 -0.10505689884E+03 -0.20352751232E+03  0.23416564648E+03  0.00000000000E+00 0.  1.
        -13    1    3    3    0    0  0.42874618918E+02 -0.88958842198E+02 -0.17531679575E+03  0.20121602179E+03  0.00000000000E+00 0. -1.
         22    1    1    2    0    0  0.58403657007E+01  0.19401574104E+03  0.50645037871E+03  0.54237275350E+03  0.00000000000E+00 0.  1.
<mgrwt>
<rscale>  0 0.96939177E+03</rscale>
<asrwt>0</asrwt>
<pdfrwt beam="1">  1        2 0.85027730E-01 0.96939177E+03</pdfrwt>
<pdfrwt beam="2">  1       -2 0.65396027E-01 0.96939177E+03</pdfrwt>
<totfact> 0.11802413E+02</totfact>
</mgrwt>
</event>
<event>
 6    1  0.6091287E-004  0.4517065E+04  0.7818608E-02  0.7907656E-01
          2   -1    0    0  501    0  0.00000000000E+00  0.00000000000E+00  0.51472491125E+04  0.51472491125E+04  0.00000000000E+00 0.  1.
         -2   -1    0    0    0  501 -0.00000000000E+00 -0.00000000000E+00 -0.99100863605E+03  0.99100863605E+03  0.00000000000E+00 0. -1.
         23    2    1    2    0    0  0.13146342562E+04 -0.88298131683E+03  0.42654426179E+04  0.45508559906E+04  0.91489269544E+02 0.  0.
         13    1    3    3    0    0  0.75827540672E+03 -0.55337301236E+03  0.24501962243E+04  0.26238644822E+04  0.00000000000E+00 0. -1.
        -13    1    3    3    0    0  0.55635884949E+03 -0.32960830447E+03  0.18152463936E+04  0.19269915084E+04  0.00000000000E+00 0.  1.
         22    1    1    2    0    0 -0.13146342562E+04  0.88298131683E+03 -0.10920214151E+03  0.15874017580E+04  0.00000000000E+00 0. -1.
<mgrwt>
<rscale>  0 0.45170647E+04</rscale>
<asrwt>0</asrwt>
<pdfrwt beam="1">  1        2 0.79188446E+00 0.45170647E+04</pdfrwt>
<pdfrwt beam="2">  1       -2 0.15246287E+00 0.45170647E+04</pdfrwt>
<totfact> 0.46722089E-03</totfact>
</mgrwt>
</event>
<event>
 6    1  0.6091287E-004  0.2135260E+04  0.7818608E-02  0.8545868E-01
          2   -1    0    0  501    0  0.00000000000E+00  0.00000000000E+00  0.24093461118E+04  0.24093461118E+04  0.00000000000E+00 0.  1.
         -2   -1    0    0    0  501 -0.00000000000E+00 -0.00000000000E+00 -0.47308852993E+03  0.47308852993E+03  0.00000000000E+00 0. -1.
         23    2    1    2    0    0  0.33083057319E+03  0.64430790017E+03  0.20250836116E+04  0.21527281240E+04  0.93237352029E+02 0.  0.
         11    1    3    3    0    0  0.75921601746E+02  0.23949686988E+03  0.74037952649E+03  0.78184696939E+03  0.00000000000E+00 0. -1.
        -11    1    3    3    0    0  0.25490897144E+03  0.40481103029E+03  0.12847040851E+04  0.13708811546E+04  0.00000000000E+00 0.  1.
         22    1    1    2    0    0 -0.33083057319E+03 -0.64430790017E+03 -0.88826029716E+02  0.72970651767E+03  0.00000000000E+00 0. -1.
<mgrwt>
<rscale>  0 0.21352602E+04</rscale>
<asrwt>0</asrwt>
<pdfrwt beam="1">  1        2 0.37066863E+00 0.21352602E+04</pdfrwt>
<pdfrwt beam="2">  1       -2 0.72782852E-01 0.21352602E+04</pdfrwt>
<totfact> 0.61577583E+00</totfact>
</mgrwt>
</event>
<event>
 6    1  0.6091287E-004  0.3068294E+04  0.7818608E-02  0.8224493E-01
          2   -1    0    0  501    0  0.00000000000E+00  0.00000000000E+00  0.22441064038E+04  0.22441064038E+04  0.00000000000E+00 0.  1.
         -2   -1    0    0    0  501 -0.00000000000E+00 -0.00000000000E+00 -0.10487949904E+04  0.10487949904E+04  0.00000000000E+00 0. -1.
         23    2    1    2    0    0  0.52947314273E+03 -0.20602722707E+03 -0.92959737472E+03  0.10933499889E+04  0.92053744655E+02 0.  0.
         11    1    3    3    0    0  0.72683090100E+02 -0.18473258842E+02 -0.18789117200E+03  0.20230468455E+03  0.00000000000E+00 0.  1.
        -11    1    3    3    0    0  0.45679005263E+03 -0.18755396823E+03 -0.74170620272E+03  0.89104530431E+03  0.00000000000E+00 0. -1.
         22    1    1    2    0    0 -0.52947314273E+03  0.20602722707E+03  0.21249087881E+04  0.21995514054E+04  0.00000000000E+00 0.  1.
<mgrwt>
<rscale>  0 0.30682943E+04</rscale>
<asrwt>0</asrwt>
<pdfrwt beam="1">  1        2 0.34524714E+00 0.30682943E+04</pdfrwt>
<pdfrwt beam="2">  1       -2 0.16135308E+00 0.30682943E+04</pdfrwt>
<totfact> 0.10217860E+00</totfact>
</mgrwt>
</event>
<event>
 6    1  0.6091287E-004  0.2867826E+04  0.7818608E-02  0.8282515E-01
         -2   -1    0    0    0  501 -0.00000000000E+00  0.00000000000E+00  0.10998997664E+04  0.10998997664E+04  0.00000000000E+00 0. -1.
          2   -1    0    0  501    0  0.00000000000E+00 -0.00000000000E+00 -0.18693578144E+04  0.18693578144E+04  0.00000000000E+00 0.  1.
         23    2    1    2    0    0 -0.32655721955E+03  0.10474940192E+04  0.56841275112E+03  0.12390027982E+04  0.90285881964E+02 0.  0.
         13    1    3    3    0    0 -0.34222000132E+02  0.11647566972E+03  0.32412866854E+02  0.12565158522E+03  0.00000000000E+00 0.  1.
        -13    1    3    3    0    0 -0.29233521941E+03  0.93101834945E+03  0.53599988427E+03  0.11133512130E+04  0.00000000000E+00 0. -1.
         22    1    1    2    0    0  0.32655721955E+03 -0.10474940192E+04 -0.13378707991E+04  0.17302547826E+04  0.00000000000E+00 0.  1.
<mgrwt>
<rscale>  0 0.28678258E+04</rscale>
<asrwt>0</asrwt>
<pdfrwt beam="1">  1        2 0.28759351E+00 0.28678258E+04</pdfrwt>
<pdfrwt beam="2">  1       -2 0.16921535E+00 0.28678258E+04</pdfrwt>
<totfact> 0.14754951E+00</totfact>
</mgrwt>
</event>
<event>
 6    1  0.6091287E-004  0.2834774E+04  0.7818608E-02  0.8292553E-01
         -2   -1    0    0    0  501 -0.00000000000E+00  0.00000000000E+00  0.13364263413E+04  0.13364263413E+04  0.00000000000E+00 0. -1.
          2   -1    0    0  501    0  0.00000000000E+00 -0.00000000000E+00 -0.15032526316E+04  0.15032526316E+04  0.00000000000E+00 0.  1.
         23    2    1    2    0    0  0.32627876267E+03  0.10152659237E+04 -0.10166791044E+04  0.14760541958E+04  0.88751680453E+02 0.  0.
         13    1    3    3    0    0  0.11871670513E+03  0.51251750293E+03 -0.48998658592E+03  0.71892607497E+03  0.00000000000E+00 0.  1.
        -13    1    3    3    0    0  0.20756205753E+03  0.50274842082E+03 -0.52669251846E+03  0.75712812084E+03  0.00000000000E+00 0. -1.
         22    1    1    2    0    0 -0.32627876267E+03 -0.10152659237E+04  0.84985281414E+03  0.13636247771E+04  0.00000000000E+00 0. -1.
<mgrwt>
<rscale>  0 0.28347744E+04</rscale>
<asrwt>0</asrwt>
<pdfrwt beam="1">  1        2 0.23126963E+00 0.28347744E+04</pdfrwt>
<pdfrwt beam="2">  1       -2 0.20560405E+00 0.28347744E+04</pdfrwt>
<totfact> 0.13409356E+00</totfact>
</mgrwt>
</event>
<event>
 6    1  0.6091287E-004  0.3140646E+04  0.7818608E-02  0.8204671E-01
          2   -1    0    0  501    0  0.00000000000E+00  0.00000000000E+00  0.31834396217E+04  0.31834396217E+04  0.00000000000E+00 0.  1.
         -2   -1    0    0    0  501 -0.00000000000E+00 -0.00000000000E+00 -0.77460703624E+03  0.77460703624E+03  0.00000000000E+00 0. -1.
         23    2    1    2    0    0 -0.91551486264E+03 -0.80910545318E+03 -0.35235723609E+02  0.12255955609E+04  0.89575804363E+02 0.  0.
         13    1    3    3    0    0 -0.71751970738E+03 -0.58373779225E+03 -0.19131897275E+02  0.92517585900E+03  0.00000000000E+00 0. -1.
        -13    1    3    3    0    0 -0.19799515526E+03 -0.22536766093E+03 -0.16103826334E+02  0.30041970195E+03  0.00000000000E+00 0.  1.
         22    1    1    2    0    0  0.91551486264E+03  0.80910545318E+03  0.24440683090E+04  0.27324510970E+04  0.00000000000E+00 0.  1.
<mgrwt>
<rscale>  0 0.31406463E+04</rscale>
<asrwt>0</asrwt>
<pdfrwt beam="1">  1        2 0.48975993E+00 0.31406463E+04</pdfrwt>
<pdfrwt beam="2">  1       -2 0.11917032E+00 0.31406463E+04</pdfrwt>
<totfact> 0.60720338E-01</totfact>
</mgrwt>
</event>
<event>
 6    1  0.6091287E-004  0.4442452E+04  0.7818608E-02  0.7920790E-01
         -2   -1    0    0    0  501 -0.00000000000E+00  0.00000000000E+00  0.12044281151E+04  0.12044281151E+04  0.00000000000E+00 0. -1.
          2   -1    0    0  501    0  0.00000000000E+00 -0.00000000000E+00 -0.40964218081E+04  0.40964218081E+04  0.00000000000E+00 0.  1.
         23    2    1    2    0    0  0.55379331643E+03 -0.56612838366E+03 -0.39216013359E+04  0.40018963897E+04  0.95022587022E+02 0.  0.
         11    1    3    3    0    0  0.25522235179E+03 -0.23271349586E+03 -0.14963945480E+04  0.15357378237E+04  0.00000000000E+00 0. -1.
        -11    1    3    3    0    0  0.29857096464E+03 -0.33341488780E+03 -0.24252067879E+04  0.24661585659E+04  0.00000000000E+00 0.  1.
         22    1    1    2    0    0 -0.55379331643E+03  0.56612838366E+03  0.10296076429E+04  0.12989535336E+04  0.00000000000E+00 0. -1.
<mgrwt>
<rscale>  0 0.44424523E+04</rscale>
<asrwt>0</asrwt>
<pdfrwt beam="1">  1        2 0.63021874E+00 0.44424523E+04</pdfrwt>
<pdfrwt beam="2">  1       -2 0.18529663E+00 0.44424523E+04</pdfrwt>
<totfact> 0.36003450E-02</totfact>
</mgrwt>
</event>
<event>
 6    1  0.6091287E-004  0.2749230E+04  0.7818608E-02  0.8319206E-01
         -2   -1    0    0    0  501 -0.00000000000E+00  0.00000000000E+00  0.10554830579E+04  0.10554830579E+04  0.00000000000E+00 0. -1.
          2   -1    0    0  501    0  0.00000000000E+00 -0.00000000000E+00 -0.17902386623E+04  0.17902386623E+04  0.00000000000E+00 0.  1.
         23    2    1    2    0    0 -0.16408246856E+03  0.53160844700E+03  0.93202533222E+03  0.10885395191E+04  0.81954055872E+02 0.  0.
         13    1    3    3    0    0 -0.14256220584E+03  0.33447152352E+03  0.58173616564E+03  0.68601177030E+03  0.00000000000E+00 0.  1.
        -13    1    3    3    0    0 -0.21520262716E+02  0.19713692349E+03  0.35028916659E+03  0.40252774878E+03  0.00000000000E+00 0. -1.
         22    1    1    2    0    0  0.16408246856E+03 -0.53160844700E+03 -0.16667809366E+04  0.17571822012E+04  0.00000000000E+00 0.  1.
<mgrwt>
<rscale>  0 0.27492301E+04</rscale>
<asrwt>0</asrwt>
<pdfrwt beam="1">  1        2 0.27542133E+00 0.27492301E+04</pdfrwt>
<pdfrwt beam="2">  1       -2 0.16238201E+00 0.27492301E+04</pdfrwt>
<totfact> 0.18471743E+00</totfact>
</mgrwt>
</event>
<event>
 6    1  0.6091287E-004  0.4600650E+04  0.7818608E-02  0.7893249E-01
          2   -1    0    0  501    0  0.00000000000E+00  0.00000000000E+00  0.28638861037E+04  0.28638861037E+04  0.00000000000E+00 0.  1.
         -2   -1    0    0    0  501 -0.00000000000E+00 -0.00000000000E+00 -0.18476627528E+04  0.18476627528E+04  0.00000000000E+00 0. -1.
         23    2    1    2    0    0 -0.77753614448E+03 -0.11010236736E+04 -0.13995313733E+04  0.19451999137E+04  0.91099141633E+02 0.  0.
         11    1    3    3    0    0 -0.62501714611E+02 -0.89631927546E+02 -0.15210248625E+03  0.18728457782E+03  0.00000000000E+00 0.  1.
        -11    1    3    3    0    0 -0.71503442986E+03 -0.10113917460E+04 -0.12474288871E+04  0.17579153359E+04  0.00000000000E+00 0. -1.
         22    1    1    2    0    0  0.77753614448E+03  0.11010236736E+04  0.24157547242E+04  0.27663489428E+04  0.00000000000E+00 0.  1.
<mgrwt>
<rscale>  0 0.46006503E+04</rscale>
<asrwt>0</asrwt>
<pdfrwt beam="1">  1        2 0.44059786E+00 0.46006503E+04</pdfrwt>
<pdfrwt beam="2">  1       -2 0.28425581E+00 0.46006503E+04</pdfrwt>
<totfact> 0.63017630E-02</totfact>
</mgrwt>
</event>
<event>
 6    1  0.6091287E-004  0.3654307E+04  0.7818608E-02  0.8078164E-01
          2   -1    0    0  501    0  0.00000000000E+00  0.00000000000E+00  0.99945667786E+03  0.99945667786E+03  0.00000000000E+00 0.  1.
         -2   -1    0    0    0  501 -0.00000000000E+00 -0.00000000000E+00 -0.33403051939E+04  0.33403051939E+04  0.00000000000E+00 0. -1.
         23    2    1    2    0    0  0.15299204723E+04  0.25727395010E+03 -0.23148981317E+04  0.27881433750E+04  0.90241799505E+02 0.  0.
         11    1    3    3    0    0  0.93303452206E+03  0.12740991460E+03 -0.14630720738E+04  0.17399329294E+04  0.00000000000E+00 0. -1.
        -11    1    3    3    0    0  0.59688595028E+03  0.12986403549E+03 -0.85182605788E+03  0.10482104456E+04  0.00000000000E+00 0.  1.
         22    1    1    2    0    0 -0.15299204723E+04 -0.25727395010E+03 -0.25950384365E+02  0.15516184968E+04  0.00000000000E+00 0.  1.
<mgrwt>
<rscale>  0 0.36543072E+04</rscale>
<asrwt>0</asrwt>
<pdfrwt beam="1">  1        2 0.15376257E+00 0.36543072E+04</pdfrwt>
<pdfrwt beam="2">  1       -2 0.51389310E+00 0.36543072E+04</pdfrwt>
<totfact> 0.27745945E-02</totfact>
</mgrwt>
</event>
<event>
 6    1  0.6091287E-004  0.2048652E+04  0.7818608E-02  0.8584206E-01
          2   -1    0    0  501    0  0.00000000000E+00  0.00000000000E+00  0.23228216720E+04  0.23228216720E+04  0.00000000000E+00 0.  1.
         -2   -1    0    0    0  501 -0.00000000000E+00 -0.00000000000E+00 -0.45171103051E+03  0.45171103051E+03  0.00000000000E+00 0. -1.
         23    2    1    2    0    0  0.29832525075E+03 -0.72425695191E+03  0.47466718297E+02  0.78978504947E+03  0.89225822472E+02 0.  0.
         13    1    3    3    0    0  0.10222242667E+03 -0.36327913430E+03  0.14670155266E+02  0.37767230159E+03  0.00000000000E+00 0. -1.
        -13    1    3    3    0    0  0.19610282408E+03 -0.36097781761E+03  0.32796563031E+02  0.41211274788E+03  0.00000000000E+00 0.  1.
         22    1    1    2    0    0 -0.29832525075E+03  0.72425695191E+03  0.18236439232E+04  0.19847476530E+04  0.00000000000E+00 0.  1.
<mgrwt>
<rscale>  0 0.20486524E+04</rscale>
<asrwt>0</asrwt>
<pdfrwt beam="1">  1        2 0.35735717E+00 0.20486524E+04</pdfrwt>
<pdfrwt beam="2">  1       -2 0.69494006E-01 0.20486524E+04</pdfrwt>
<totfact> 0.76912970E+00</totfact>
</mgrwt>
</event>
<event>
 6    1  0.6091287E-004  0.3824191E+04  0.7818608E-02  0.8040983E-01
          2   -1    0    0  501    0  0.00000000000E+00  0.00000000000E+00  0.18806098941E+04  0.18806098941E+04  0.00000000000E+00 0.  1.
         -2   -1    0    0    0  501 -0.00000000000E+00 -0.00000000000E+00 -0.19441081073E+04  0.19441081073E+04  0.00000000000E+00 0. -1.
         23    2    1    2    0    0  0.70952779837E+03 -0.17530301192E+04  0.24291004362E+03  0.19088812873E+04  0.90984527318E+02 0.  0.
         13    1    3    3    0    0  0.48026483070E+03 -0.10688489548E+04  0.14936861718E+03  0.11812719329E+04  0.00000000000E+00 0.  1.
        -13    1    3    3    0    0  0.22926296767E+03 -0.68418116441E+03  0.93541426445E+02  0.72760935435E+03  0.00000000000E+00 0. -1.
         22    1    1    2    0    0 -0.70952779837E+03  0.17530301192E+04 -0.30640825688E+03  0.19158367141E+04  0.00000000000E+00 0. -1.
<mgrwt>
<rscale>  0 0.38241909E+04</rscale>
<asrwt>0</asrwt>
<pdfrwt beam="1">  1        2 0.28932460E+00 0.38241909E+04</pdfrwt>
<pdfrwt beam="2">  1       -2 0.29909355E+00 0.38241909E+04</pdfrwt>
<totfact> 0.20052417E-01</totfact>
</mgrwt>
</event>
<event>
 6    1  0.6091287E-004  0.2283824E+04  0.7818608E-02  0.8484327E-01
          2   -1    0    0  501    0  0.00000000000E+00  0.00000000000E+00  0.15950462681E+04  0.15950462681E+04  0.00000000000E+00 0.  1.
         -2   -1    0    0    0  501 -0.00000000000E+00 -0.00000000000E+00 -0.81750780719E+03  0.81750780719E+03  0.00000000000E+00 0. -1.
         23    2    1    2    0    0 -0.52953221583E+03 -0.95485202985E+03  0.73598215204E+03  0.13199088020E+04  0.91338660328E+02 0.  0.
         13    1    3    3    0    0 -0.35989445403E+03 -0.63022372351E+03  0.53912353721E+03  0.90407972441E+03  0.00000000000E+00 0. -1.
        -13    1    3    3    0    0 -0.16963776181E+03 -0.32462830634E+03  0.19685861482E+03  0.41582907755E+03  0.00000000000E+00 0.  1.
         22    1    1    2    0    0  0.52953221583E+03  0.95485202985E+03  0.41556308874E+02  0.10926452733E+04  0.00000000000E+00 0. -1.
<mgrwt>
<rscale>  0 0.22838238E+04</rscale>
<asrwt>0</asrwt>
<pdfrwt beam="1">  1        2 0.24539173E+00 0.22838238E+04</pdfrwt>
<pdfrwt beam="2">  1       -2 0.12577043E+00 0.22838238E+04</pdfrwt>
<totfact> 0.48111537E+00</totfact>
</mgrwt>
</event>
<event>
 6    1  0.6091287E-004  0.1942713E+04  0.7818608E-02  0.8633883E-01
          2   -1    0    0  501    0  0.00000000000E+00  0.00000000000E+00  0.40304256219E+03  0.40304256219E+03  0.00000000000E+00 0.  1.
         -2   -1    0    0    0  501 -0.00000000000E+00 -0.00000000000E+00 -0.23410273043E+04  0.23410273043E+04  0.00000000000E+00 0. -1.
         23    2    1    2    0    0  0.11427213375E+02  0.83771430792E+03 -0.28299346282E+03  0.88910572198E+03  0.92346315400E+02 0.  0.
         11    1    3    3    0    0 -0.33122466748E+02  0.54959665222E+03 -0.20256223568E+03  0.58667285369E+03  0.00000000000E+00 0.  1.
        -11    1    3    3    0    0  0.44549680123E+02  0.28811765569E+03 -0.80431227143E+02  0.30243286829E+03  0.00000000000E+00 0. -1.
         22    1    1    2    0    0 -0.11427213375E+02 -0.83771430792E+03 -0.16549912793E+04  0.18549641445E+04  0.00000000000E+00 0. -1.
<mgrwt>
<rscale>  0 0.19427132E+04</rscale>
<asrwt>0</asrwt>
<pdfrwt beam="1">  1        2 0.62006550E-01 0.19427132E+04</pdfrwt>
<pdfrwt beam="2">  1       -2 0.36015804E+00 0.19427132E+04</pdfrwt>
<totfact> 0.99019944E-01</totfact>
</mgrwt>
</event>
<event>
 6    1  0.6091287E-004  0.2419802E+04  0.7818608E-02  0.8432127E-01
          2   -1    0    0  501    0  0.00000000000E+00  0.00000000000E+00  0.98089026129E+03  0.98089026129E+03  0.00000000000E+00 0.  1.
         -2   -1    0    0    0  501 -0.00000000000E+00 -0.00000000000E+00 -0.14923799115E+04  0.14923799115E+04  0.00000000000E+00 0. -1.
         23    2    1    2    0    0 -0.94410620320E+03  0.49120378835E+03 -0.84142544081E+03  0.13590550632E+04  0.80101234631E+02 0.  0.
         11    1    3    3    0    0 -0.71484297132E+03  0.40950306997E+03 -0.65452083653E+03  0.10521838069E+04  0.00000000000E+00 0. -1.
        -11    1    3    3    0    0 -0.22926323188E+03  0.81700718384E+02 -0.18690460428E+03  0.30687125636E+03  0.00000000000E+00 0.  1.
         22    1    1    2    0    0  0.94410620320E+03 -0.49120378835E+03  0.32993579056E+03  0.11142151096E+04  0.00000000000E+00 0.  1.
<mgrwt>
<rscale>  0 0.24198024E+04</rscale>
<asrwt>0</asrwt>
<pdfrwt beam="1">  1        2 0.15090620E+00 0.24198024E+04</pdfrwt>
<pdfrwt beam="2">  1       -2 0.22959691E+00 0.24198024E+04</pdfrwt>
<totfact> 0.20004367E+00</totfact>
</mgrwt>
</event>
<event>
 6    1  0.6091287E-004  0.4731372E+04  0.7818608E-02  0.7871337E-01
          2   -1    0    0  501    0  0.00000000000E+00  0.00000000000E+00  0.30640601370E+04  0.30640601370E+04  0.00000000000E+00 0.  1.
         -2   -1    0    0    0  501 -0.00000000000E+00 -0.00000000000E+00 -0.18264881836E+04  0.18264881836E+04  0.00000000000E+00 0. -1.
         23    2    1    2    0    0 -0.20540576612E+03  0.23550728656E+04  0.68433302199E+03  0.24626617815E+04  0.88496520028E+02 0.  0.
         11    1    3    3    0    0 -0.17127614636E+02  0.36121358395E+03  0.13456401675E+03  0.38584463585E+03  0.00000000000E+00 0. -1.
        -11    1    3    3    0    0 -0.18827815148E+03  0.19938592817E+04  0.54976900524E+03  0.20768171457E+04  0.00000000000E+00 0.  1.
         22    1    1    2    0    0  0.20540576612E+03 -0.23550728656E+04  0.55323893141E+03  0.24278865390E+04  0.00000000000E+00 0.  1.
<mgrwt>
<rscale>  0 0.47313717E+04</rscale>
<asrwt>0</asrwt>
<pdfrwt beam="1">  1        2 0.47139387E+00 0.47313717E+04</pdfrwt>
<pdfrwt beam="2">  1       -2 0.28099818E+00 0.47313717E+04</pdfrwt>
<totfact> 0.48960348E-02</totfact>
</mgrwt>
</event>
<event>
 6    1  0.6091287E-004  0.1570883E+04  0.7818608E-02  0.8838638E-01
          2   -1    0    0  501    0  0.00000000000E+00  0.00000000000E+00  0.12229924000E+04  0.12229924000E+04  0.00000000000E+00 0.  1.
         -2   -1    0    0    0  501 -0.00000000000E+00 -0.00000000000E+00 -0.50443348808E+03  0.50443348808E+03  0.00000000000E+00 0. -1.
         23    2    1    2    0    0  0.46285753612E+02  0.73814547650E+03  0.78181834572E+02  0.74911923028E+03  0.89811505130E+02 0.  0.
         13    1    3    3    0    0  0.50850253879E+02  0.46616436822E+03  0.87116680382E+02  0.47695312403E+03  0.00000000000E+00 0.  1.
        -13    1    3    3    0    0 -0.45645002665E+01  0.27198110828E+03 -0.89348458096E+01  0.27216610625E+03  0.00000000000E+00 0. -1.
         22    1    1    2    0    0 -0.46285753612E+02 -0.73814547650E+03  0.64037707731E+03  0.97830665776E+03  0.00000000000E+00 0.  1.
<mgrwt>
<rscale>  0 0.15708830E+04</rscale>
<asrwt>0</asrwt>
<pdfrwt beam="1">  1        2 0.18815268E+00 0.15708830E+04</pdfrwt>
<pdfrwt beam="2">  1       -2 0.77605152E-01 0.15708830E+04</pdfrwt>
<totfact> 0.26103178E+01</totfact>
</mgrwt>
</event>
<event>
 6    1  0.6091287E-004  0.3395188E+04  0.7818608E-02  0.8139088E-01
          2   -1    0    0  501    0  0.00000000000E+00  0.00000000000E+00  0.17732589885E+04  0.17732589885E+04  0.00000000000E+00 0.  1.
         -2   -1    0    0    0  501 -0.00000000000E+00 -0.00000000000E+00 -0.16251572201E+04  0.16251572201E+04  0.00000000000E+00 0. -1.
         23    2    1    2    0    0  0.70623761288E+03 -0.15414074587E+04  0.20467978696E+02  0.16981224388E+04  0.92153998530E+02 0.  0.
         13    1    3    3    0    0  0.28100672513E+03 -0.65147960416E+03  0.51161191534E+02  0.71134233792E+03  0.00000000000E+00 0.  1.
        -13    1    3    3    0    0  0.42523088775E+03 -0.88992785451E+03 -0.30693212837E+02  0.98678010085E+03  0.00000000000E+00 0. -1.
         22    1    1    2    0    0 -0.70623761288E+03  0.15414074587E+04  0.12763378973E+03  0.17002937698E+04  0.00000000000E+00 0.  1.
<mgrwt>
<rscale>  0 0.33951876E+04</rscale>
<asrwt>0</asrwt>
<pdfrwt beam="1">  1        2 0.27280908E+00 0.33951876E+04</pdfrwt>
<pdfrwt beam="2">  1       -2 0.25002419E+00 0.33951876E+04</pdfrwt>
<totfact> 0.47539471E-01</totfact>
</mgrwt>
</event>
<event>
 6    1  0.6091287E-004  0.2082854E+04  0.7818608E-02  0.8568834E-01
         -2   -1    0    0    0  501 -0.00000000000E+00  0.00000000000E+00  0.19571898153E+04  0.19571898153E+04  0.00000000000E+00 0. -1.
          2   -1    0    0  501    0  0.00000000000E+00 -0.00000000000E+00 -0.55414663036E+03  0.55414663036E+03  0.00000000000E+00 0.  1.
         23    2    1    2    0    0 -0.79664000813E+03  0.41941890018E+03  0.13292151345E+04  0.16080103155E+04  0.91305994673E+02 0.  0.
         11    1    3    3    0    0 -0.21202553192E+03  0.14957003966E+03  0.34003082458E+03  0.42772302325E+03  0.00000000000E+00 0. -1.
        -11    1    3    3    0    0 -0.58461447621E+03  0.26984886052E+03  0.98918430994E+03  0.11802872923E+04  0.00000000000E+00 0.  1.
         22    1    1    2    0    0  0.79664000813E+03 -0.41941890018E+03  0.73828050443E+02  0.90332613015E+03  0.00000000000E+00 0.  1.
<mgrwt>
<rscale>  0 0.20828539E+04</rscale>
<asrwt>0</asrwt>
<pdfrwt beam="1">  1        2 0.85253329E-01 0.20828539E+04</pdfrwt>
<pdfrwt beam="2">  1       -2 0.30110612E+00 0.20828539E+04</pdfrwt>
<totfact> 0.15769491E+00</totfact>
</mgrwt>
</event>
<event>
 6    1  0.6091287E-004  0.2919274E+04  0.7818608E-02  0.8267166E-01
         -2   -1    0    0    0  501 -0.00000000000E+00  0.00000000000E+00  0.16258745941E+04  0.16258745941E+04  0.00000000000E+00 0. -1.
          2   -1    0    0  501    0  0.00000000000E+00 -0.00000000000E+00 -0.13103964982E+04  0.13103964982E+04  0.00000000000E+00 0.  1.
         23    2    1    2    0    0 -0.27430469727E+03 -0.47780954153E+03  0.15158185502E+04  0.16155280320E+04  0.93166088993E+02 0.  0.
         13    1    3    3    0    0 -0.10571733409E+03 -0.24362607932E+03  0.83081566963E+03  0.87222961320E+03  0.00000000000E+00 0. -1.
        -13    1    3    3    0    0 -0.16858736318E+03 -0.23418346222E+03  0.68500288058E+03  0.74329841881E+03  0.00000000000E+00 0.  1.
         22    1    1    2    0    0  0.27430469727E+03  0.47780954153E+03 -0.12003404544E+04  0.13207430603E+04  0.00000000000E+00 0.  1.
<mgrwt>
<rscale>  0 0.29192741E+04</rscale>
<asrwt>0</asrwt>
<pdfrwt beam="1">  1        2 0.20159946E+00 0.29192741E+04</pdfrwt>
<pdfrwt beam="2">  1       -2 0.25013455E+00 0.29192741E+04</pdfrwt>
<totfact> 0.90100860E-01</totfact>
</mgrwt>
</event>
<event>
 6    1  0.6091287E-004  0.1862361E+04  0.7818608E-02  0.8673822E-01
         -2   -1    0    0    0  501 -0.00000000000E+00  0.00000000000E+00  0.18901715400E+04  0.18901715400E+04  0.00000000000E+00 0. -1.
          2   -1    0    0  501    0  0.00000000000E+00 -0.00000000000E+00 -0.45873979238E+03  0.45873979238E+03  0.00000000000E+00 0.  1.
         23    2    1    2    0    0  0.18932140078E+03  0.20837282548E+03  0.18339759519E+04  0.18576846396E+04  0.90898849437E+02 0.  0.
         11    1    3    3    0    0  0.86690805448E+02  0.16070386190E+03  0.11099670838E+04  0.11248857516E+04  0.00000000000E+00 0. -1.
        -11    1    3    3    0    0  0.10263059533E+03  0.47668963578E+02  0.72400886814E+03  0.73279888805E+03  0.00000000000E+00 0.  1.
         22    1    1    2    0    0 -0.18932140078E+03 -0.20837282548E+03 -0.40254420434E+03  0.49122669272E+03  0.00000000000E+00 0.  1.
<mgrwt>
<rscale>  0 0.18623608E+04</rscale>
<asrwt>0</asrwt>
<pdfrwt beam="1">  1        2 0.70575354E-01 0.18623608E+04</pdfrwt>
<pdfrwt beam="2">  1       -2 0.29079562E+00 0.18623608E+04</pdfrwt>
<totfact> 0.23148865E+00</totfact>
</mgrwt>
</event>
<event>
 6    1  0.6091287E-004  0.2397665E+04  0.7818608E-02  0.8440378E-01
         -2   -1    0    0    0  501 -0.00000000000E+00  0.00000000000E+00  0.84598729596E+03  0.84598729596E+03  0.00000000000E+00 0. -1.
          2   -1    0    0  501    0  0.00000000000E+00 -0.00000000000E+00 -0.16988431060E+04  0.16988431060E+04  0.00000000000E+00 0.  1.
         23    2    1    2    0    0 -0.96281014796E+02  0.54179477401E+03  0.70147670332E+03  0.89596376907E+03  0.88712452444E+02 0.  0.
         11    1    3    3    0    0 -0.50785857252E+02  0.45591697175E+03  0.55292819316E+03  0.71844907629E+03  0.00000000000E+00 0. -1.
        -11    1    3    3    0    0 -0.45495157544E+02  0.85877802265E+02  0.14854851016E+03  0.17751469278E+03  0.00000000000E+00 0.  1.
         22    1    1    2    0    0  0.96281014796E+02 -0.54179477401E+03 -0.15543325133E+04  0.16488666329E+04  0.00000000000E+00 0.  1.
<mgrwt>
<rscale>  0 0.23976653E+04</rscale>
<asrwt>0</asrwt>
<pdfrwt beam="1">  1        2 0.26136048E+00 0.23976653E+04</pdfrwt>
<pdfrwt beam="2">  1       -2 0.13015189E+00 0.23976653E+04</pdfrwt>
<totfact> 0.38255642E+00</totfact>
</mgrwt>
</event>
<event>
 6    1  0.6091287E-004  0.3748681E+04  0.7818608E-02  0.8057258E-01
          2   -1    0    0  501    0  0.00000000000E+00  0.00000000000E+00  0.21786752952E+04  0.21786752952E+04  0.00000000000E+00 0.  1.
         -2   -1    0    0    0  501 -0.00000000000E+00 -0.00000000000E+00 -0.16125175107E+04  0.16125175107E+04  0.00000000000E+00 0. -1.
         23    2    1    2    0    0  0.37743139356E+03  0.17985255560E+04  0.65044120676E+03  0.19515590576E+04  0.91435001299E+02 0.  0.
         11    1    3    3    0    0  0.46361291405E+02  0.14328803427E+03  0.33132992123E+02  0.15420319475E+03  0.00000000000E+00 0. -1.
        -11    1    3    3    0    0  0.33107010216E+03  0.16552375218E+04  0.61730821464E+03  0.17973558629E+04  0.00000000000E+00 0.  1.
         22    1    1    2    0    0 -0.37743139356E+03 -0.17985255560E+04 -0.84283422293E+02  0.18396337483E+04  0.00000000000E+00 0.  1.
<mgrwt>
<rscale>  0 0.37486809E+04</rscale>
<asrwt>0</asrwt>
<pdfrwt beam="1">  1        2 0.33518081E+00 0.37486809E+04</pdfrwt>
<pdfrwt beam="2">  1       -2 0.24807962E+00 0.37486809E+04</pdfrwt>
<totfact> 0.28227586E-01</totfact>
</mgrwt>
</event>
<event>
 6    1  0.6091287E-004  0.8164432E+03  0.7818608E-02  0.9536517E-01
         -3   -1    0    0    0  501 -0.00000000000E+00  0.00000000000E+00  0.46385873718E+03  0.46385873718E+03  0.00000000000E+00 0. -1.
          3   -1    0    0  501    0  0.00000000000E+00 -0.00000000000E+00 -0.35925779760E+03  0.35925779760E+03  0.00000000000E+00 0.  1.
         23    2    1    2    0    0 -0.29895841026E+03  0.17566386330E+03  0.26029958289E+03  0.44301655916E+03  0.90960842670E+02 0.  0.
         11    1    3    3    0    0 -0.19001822485E+03  0.15948683669E+03  0.17231182346E+03  0.30205022986E+03  0.00000000000E+00 0. -1.
        -11    1    3    3    0    0 -0.10894018541E+03  0.16177026613E+02  0.87987759428E+02  0.14096632930E+03  0.00000000000E+00 0.  1.
         22    1    1    2    0    0  0.29895841026E+03 -0.17566386330E+03 -0.15569864331E+03  0.38009997562E+03  0.00000000000E+00 0.  1.
<mgrwt>
<rscale>  0 0.81644318E+03</rscale>
<asrwt>0</asrwt>
<pdfrwt beam="1">  1        3 0.55270430E-01 0.81644318E+03</pdfrwt>
<pdfrwt beam="2">  1       -3 0.71362883E-01 0.81644318E+03</pdfrwt>
<totfact> 0.15895333E+01</totfact>
</mgrwt>
</event>
<event>
 6    1  0.6091287E-004  0.2021821E+04  0.7818608E-02  0.8596486E-01
         -2   -1    0    0    0  501 -0.00000000000E+00  0.00000000000E+00  0.33982245753E+03  0.33982245753E+03  0.00000000000E+00 0. -1.
          2   -1    0    0  501    0  0.00000000000E+00 -0.00000000000E+00 -0.30072749468E+04  0.30072749468E+04  0.00000000000E+00 0.  1.
         23    2    1    2    0    0  0.53361188380E+03 -0.22419293167E+03  0.31258513918E+02  0.58701675481E+03  0.92776411861E+02 0.  0.
         13    1    3    3    0    0  0.44833875039E+03 -0.22312016728E+03  0.30795896813E+02  0.50173561903E+03  0.00000000000E+00 0. -1.
        -13    1    3    3    0    0  0.85273133414E+02 -0.10727643865E+01  0.46261710558E+00  0.85281135782E+02  0.00000000000E+00 0.  1.
         22    1    1    2    0    0 -0.53361188380E+03  0.22419293167E+03 -0.26987110032E+04  0.27600806495E+04  0.00000000000E+00 0.  1.
<mgrwt>
<rscale>  0 0.20218205E+04</rscale>
<asrwt>0</asrwt>
<pdfrwt beam="1">  1        2 0.46265767E+00 0.20218205E+04</pdfrwt>
<pdfrwt beam="2">  1       -2 0.52280380E-01 0.20218205E+04</pdfrwt>
<totfact> 0.55306770E+00</totfact>
</mgrwt>
</event>
<event>
 6    1  0.6091287E-004  0.1849711E+04  0.7818608E-02  0.8680302E-01
          2   -1    0    0  501    0  0.00000000000E+00  0.00000000000E+00  0.12151245940E+04  0.12151245940E+04  0.00000000000E+00 0.  1.
         -2   -1    0    0    0  501 -0.00000000000E+00 -0.00000000000E+00 -0.70392576804E+03  0.70392576804E+03  0.00000000000E+00 0. -1.
         23    2    1    2    0    0 -0.71219909783E+03 -0.11724783234E+03  0.85261229608E+03  0.11205907408E+04  0.88324808348E+02 0.  0.
         11    1    3    3    0    0 -0.54604853280E+03 -0.52594842370E+02  0.65732683370E+03  0.85616224159E+03  0.00000000000E+00 0. -1.
        -11    1    3    3    0    0 -0.16615056503E+03 -0.64652989969E+02  0.19528546239E+03  0.26442849920E+03  0.00000000000E+00 0.  1.
         22    1    1    2    0    0  0.71219909783E+03  0.11724783234E+03 -0.34141347014E+03  0.79845962123E+03  0.00000000000E+00 0. -1.
<mgrwt>
<rscale>  0 0.18497108E+04</rscale>
<asrwt>0</asrwt>
<pdfrwt beam="1">  1        2 0.18694224E+00 0.18497108E+04</pdfrwt>
<pdfrwt beam="2">  1       -2 0.10829627E+00 0.18497108E+04</pdfrwt>
<totfact> 0.11904408E+01</totfact>
</mgrwt>
</event>
<event>
 6    1  0.6091287E-004  0.4578266E+04  0.7818608E-02  0.7897076E-01
          2   -1    0    0  501    0  0.00000000000E+00  0.00000000000E+00  0.20207125824E+04  0.20207125824E+04  0.00000000000E+00 0.  1.
         -2   -1    0    0    0  501 -0.00000000000E+00 -0.00000000000E+00 -0.25932093439E+04  0.25932093439E+04  0.00000000000E+00 0. -1.
         23    2    1    2    0    0 -0.22876041056E+04  0.34232420609E+02 -0.24602983342E+03  0.23028864316E+04  0.91928424682E+02 0.  0.
         11    1    3    3    0    0 -0.12699899933E+04  0.25094158032E+02 -0.18211092852E+03  0.12832258921E+04  0.00000000000E+00 0. -1.
        -11    1    3    3    0    0 -0.10176141123E+04  0.91382625769E+01 -0.63918904905E+02  0.10196605395E+04  0.00000000000E+00 0.  1.
         22    1    1    2    0    0  0.22876041056E+04 -0.34232420609E+02 -0.32646692802E+03  0.23110354947E+04  0.00000000000E+00 0.  1.
<mgrwt>
<rscale>  0 0.45782664E+04</rscale>
<asrwt>0</asrwt>
<pdfrwt beam="1">  1        2 0.31087886E+00 0.45782664E+04</pdfrwt>
<pdfrwt beam="2">  1       -2 0.39895528E+00 0.45782664E+04</pdfrwt>
<totfact> 0.36944475E-02</totfact>
</mgrwt>
</event>
<event>
 6    1  0.6091287E-004  0.4052623E+04  0.7818608E-02  0.7994014E-01
         -2   -1    0    0    0  501 -0.00000000000E+00  0.00000000000E+00  0.15451979888E+04  0.15451979888E+04  0.00000000000E+00 0. -1.
          2   -1    0    0  501    0  0.00000000000E+00 -0.00000000000E+00 -0.26572246372E+04  0.26572246372E+04  0.00000000000E+00 0.  1.
         23    2    1    2    0    0 -0.13999454835E+04  0.12455084632E+04 -0.13531548394E+04  0.23131684098E+04  0.92635760344E+02 0.  0.
         11    1    3    3    0    0 -0.94546896748E+03  0.87767715582E+03 -0.88991987982E+03  0.15672224318E+04  0.00000000000E+00 0. -1.
        -11    1    3    3    0    0 -0.45447651603E+03  0.36783130742E+03 -0.46323495960E+03  0.74594597803E+03  0.00000000000E+00 0.  1.
         22    1    1    2    0    0  0.13999454835E+04 -0.12455084632E+04  0.24112819110E+03  0.18892542162E+04  0.00000000000E+00 0.  1.
<mgrwt>
<rscale>  0 0.40526229E+04</rscale>
<asrwt>0</asrwt>
<pdfrwt beam="1">  1        2 0.40880379E+00 0.40526229E+04</pdfrwt>
<pdfrwt beam="2">  1       -2 0.23772277E+00 0.40526229E+04</pdfrwt>
<totfact> 0.16923537E-01</totfact>
</mgrwt>
</event>
<event>
 6    1  0.6091287E-004  0.1999689E+04  0.7818608E-02  0.8606766E-01
         -2   -1    0    0    0  501 -0.00000000000E+00  0.00000000000E+00  0.29856381684E+03  0.29856381684E+03  0.00000000000E+00 0. -1.
          2   -1    0    0  501    0  0.00000000000E+00 -0.00000000000E+00 -0.33483260628E+04  0.33483260628E+04  0.00000000000E+00 0.  1.
         23    2    1    2    0    0  0.47746127938E+03 -0.23206100270E+03 -0.30687364036E+04  0.31156821981E+04  0.92254335766E+02 0.  0.
         13    1    3    3    0    0  0.18798895840E+03 -0.11704918525E+03 -0.10542907848E+04  0.10772972752E+04  0.00000000000E+00 0.  1.
        -13    1    3    3    0    0  0.28947232098E+03 -0.11501181745E+03 -0.20144456188E+04  0.20383849229E+04  0.00000000000E+00 0. -1.
         22    1    1    2    0    0 -0.47746127938E+03  0.23206100270E+03  0.18974157623E+02  0.53120768155E+03  0.00000000000E+00 0. -1.
<mgrwt>
<rscale>  0 0.19996890E+04</rscale>
<asrwt>0</asrwt>
<pdfrwt beam="1">  1        2 0.51512704E+00 0.19996890E+04</pdfrwt>
<pdfrwt beam="2">  1       -2 0.45932899E-01 0.19996890E+04</pdfrwt>
<totfact> 0.43355846E+00</totfact>
</mgrwt>
</event>
<event>
 6    1  0.6091287E-004  0.1406509E+04  0.7818608E-02  0.8949121E-01
          2   -1    0    0  501    0  0.00000000000E+00  0.00000000000E+00  0.10854681311E+04  0.10854681311E+04  0.00000000000E+00 0.  1.
         -2   -1    0    0    0  501 -0.00000000000E+00 -0.00000000000E+00 -0.45562525682E+03  0.45562525682E+03  0.00000000000E+00 0. -1.
         23    2    1    2    0    0 -0.25448715305E+03  0.53463605467E+02 -0.39615318288E+03  0.48265587089E+03  0.91636658726E+02 0.  0.
         13    1    3    3    0    0 -0.14415789979E+03  0.39325452816E+01 -0.14822128938E+03  0.20680066637E+03  0.00000000000E+00 0. -1.
        -13    1    3    3    0    0 -0.11032925325E+03  0.49531060186E+02 -0.24793189350E+03  0.27585520452E+03  0.00000000000E+00 0.  1.
         22    1    1    2    0    0  0.25448715305E+03 -0.53463605467E+02  0.10259960572E+04  0.10584375170E+04  0.00000000000E+00 0.  1.
<mgrwt>
<rscale>  0 0.14065087E+04</rscale>
<asrwt>0</asrwt>
<pdfrwt beam="1">  1        2 0.16699510E+00 0.14065087E+04</pdfrwt>
<pdfrwt beam="2">  1       -2 0.70096194E-01 0.14065087E+04</pdfrwt>
<totfact> 0.40110793E+01</totfact>
</mgrwt>
</event>
<event>
 6    1  0.6091287E-004  0.4605249E+04  0.7818608E-02  0.7892466E-01
         -2   -1    0    0    0  501 -0.00000000000E+00  0.00000000000E+00  0.18689819360E+04  0.18689819360E+04  0.00000000000E+00 0. -1.
          2   -1    0    0  501    0  0.00000000000E+00 -0.00000000000E+00 -0.28368806678E+04  0.28368806678E+04  0.00000000000E+00 0.  1.
         23    2    1    2    0    0 -0.12188346876E+04  0.60160888922E+03 -0.23822359145E+04  0.27442711790E+04  0.92114602113E+02 0.  0.
         13    1    3    3    0    0 -0.38358133689E+03  0.18290135399E+03 -0.83202777001E+03  0.93426856811E+03  0.00000000000E+00 0. -1.
        -13    1    3    3    0    0 -0.83525335075E+03  0.41870753524E+03 -0.15502081445E+04  0.18100026108E+04  0.00000000000E+00 0.  1.
         22    1    1    2    0    0  0.12188346876E+04 -0.60160888922E+03  0.14143371828E+04  0.19615914248E+04  0.00000000000E+00 0. -1.
<mgrwt>
<rscale>  0 0.46052486E+04</rscale>
<asrwt>0</asrwt>
<pdfrwt beam="1">  1        2 0.43644318E+00 0.46052486E+04</pdfrwt>
<pdfrwt beam="2">  1       -2 0.28753568E+00 0.46052486E+04</pdfrwt>
<totfact> 0.62485341E-02</totfact>
</mgrwt>
</event>
<event>
 6    1  0.6091287E-004  0.2130839E+04  0.7818608E-02  0.8547779E-01
         -4   -1    0    0    0  501 -0.00000000000E+00  0.00000000000E+00  0.40937834332E+03  0.40937834332E+03  0.00000000000E+00 0.  1.
          4   -1    0    0  501    0  0.00000000000E+00 -0.00000000000E+00 -0.27727861774E+04  0.27727861774E+04  0.00000000000E+00 0. -1.
         23    2    1    2    0    0 -0.94506444298E+03 -0.44098581425E+03 -0.14923850905E+04  0.18233798028E+04  0.99425134068E+02 0.  0.
         11    1    3    3    0    0 -0.88691431649E+03 -0.43799492951E+03 -0.14177107659E+04  0.17286874728E+04  0.00000000000E+00 0. -1.
        -11    1    3    3    0    0 -0.58150126485E+02 -0.29908847475E+01 -0.74674324629E+02  0.94692329999E+02  0.00000000000E+00 0.  1.
         22    1    1    2    0    0  0.94506444298E+03  0.44098581425E+03 -0.87102274364E+03  0.13587847179E+04  0.00000000000E+00 0. -1.
<mgrwt>
<rscale>  0 0.21308389E+04</rscale>
<asrwt>0</asrwt>
<pdfrwt beam="1">  1        4 0.42658250E+00 0.21308389E+04</pdfrwt>
<pdfrwt beam="2">  1       -4 0.62981282E-01 0.21308389E+04</pdfrwt>
<totfact> 0.19212941E-02</totfact>
</mgrwt>
</event>
<event>
 6    1  0.6091287E-004  0.3073434E+04  0.7818608E-02  0.8223067E-01
          2   -1    0    0  501    0  0.00000000000E+00  0.00000000000E+00  0.28752535954E+04  0.28752535954E+04  0.00000000000E+00 0.  1.
         -2   -1    0    0    0  501 -0.00000000000E+00 -0.00000000000E+00 -0.82131838943E+03  0.82131838943E+03  0.00000000000E+00 0. -1.
         23    2    1    2    0    0 -0.85375790849E+03 -0.29968992528E+03 -0.46372332268E+03  0.10212549785E+04  0.95946825944E+02 0.  0.
         11    1    3    3    0    0 -0.66274383394E+03 -0.27406921424E+03 -0.36590380043E+03  0.80512664519E+03  0.00000000000E+00 0. -1.
        -11    1    3    3    0    0 -0.19101407455E+03 -0.25620711038E+02 -0.97819522255E+02  0.21612833328E+03  0.00000000000E+00 0.  1.
         22    1    1    2    0    0  0.85375790849E+03  0.29968992528E+03  0.25176585286E+04  0.26753170063E+04  0.00000000000E+00 0.  1.
<mgrwt>
<rscale>  0 0.30734337E+04</rscale>
<asrwt>0</asrwt>
<pdfrwt beam="1">  1        2 0.44234670E+00 0.30734337E+04</pdfrwt>
<pdfrwt beam="2">  1       -2 0.12635668E+00 0.30734337E+04</pdfrwt>
<totfact> 0.82568695E-01</totfact>
</mgrwt>
</event>
<event>
 6    1  0.6091287E-004  0.3649847E+04  0.7818608E-02  0.8079168E-01
          2   -1    0    0  501    0  0.00000000000E+00  0.00000000000E+00  0.21160475115E+04  0.21160475115E+04  0.00000000000E+00 0.  1.
         -2   -1    0    0    0  501 -0.00000000000E+00 -0.00000000000E+00 -0.15738518378E+04  0.15738518378E+04  0.00000000000E+00 0. -1.
         23    2    1    2    0    0 -0.46052238746E+03  0.97132697272E+03  0.17607732282E+04  0.20649414380E+04  0.90021241997E+02 0.  0.
         13    1    3    3    0    0 -0.36227169916E+03  0.78541548490E+03  0.14791366712E+04  0.17134653659E+04  0.00000000000E+00 0. -1.
        -13    1    3    3    0    0 -0.98250688302E+02  0.18591148782E+03  0.28163655696E+03  0.35147607212E+03  0.00000000000E+00 0.  1.
         22    1    1    2    0    0  0.46052238746E+03 -0.97132697272E+03 -0.12185775545E+04  0.16249579113E+04  0.00000000000E+00 0. -1.
<mgrwt>
<rscale>  0 0.36498467E+04</rscale>
<asrwt>0</asrwt>
<pdfrwt beam="1">  1        2 0.32554577E+00 0.36498467E+04</pdfrwt>
<pdfrwt beam="2">  1       -2 0.24213105E+00 0.36498467E+04</pdfrwt>
<totfact> 0.33574688E-01</totfact>
</mgrwt>
</event>
<event>
 6    1  0.6091287E-004  0.1046817E+04  0.7818608E-02  0.9258636E-01
         -2   -1    0    0    0  501 -0.00000000000E+00  0.00000000000E+00  0.28872788511E+03  0.28872788511E+03  0.00000000000E+00 0. -1.
          2   -1    0    0  501    0  0.00000000000E+00 -0.00000000000E+00 -0.94883990452E+03  0.94883990452E+03  0.00000000000E+00 0.  1.
         23    2    1    2    0    0 -0.21091898052E+03  0.21431248925E+03  0.16698074526E+03  0.35751148419E+03  0.97546053974E+02 0.  0.
         11    1    3    3    0    0 -0.98225324397E+02  0.59948454886E+02  0.10716593679E+03  0.15724684290E+03  0.00000000000E+00 0. -1.
        -11    1    3    3    0    0 -0.11269365612E+03  0.15436403436E+03  0.59814808477E+02  0.20026464128E+03  0.00000000000E+00 0.  1.
         22    1    1    2    0    0  0.21091898052E+03 -0.21431248925E+03 -0.82709276467E+03  0.88005630545E+03  0.00000000000E+00 0.  1.
<mgrwt>
<rscale>  0 0.10468172E+04</rscale>
<asrwt>0</asrwt>
<pdfrwt beam="1">  1        2 0.14597537E+00 0.10468172E+04</pdfrwt>
<pdfrwt beam="2">  1       -2 0.44419674E-01 0.10468172E+04</pdfrwt>
<totfact> 0.13012162E+02</totfact>
</mgrwt>
</event>
<event>
 6    1  0.6091287E-004  0.1051182E+04  0.7818608E-02  0.9254125E-01
         -1   -1    0    0    0  501 -0.00000000000E+00  0.00000000000E+00  0.36142438417E+03  0.36142438417E+03  0.00000000000E+00 0. -1.
          1   -1    0    0  501    0  0.00000000000E+00 -0.00000000000E+00 -0.76432505755E+03  0.76432505755E+03  0.00000000000E+00 0.  1.
         23    2    1    2    0    0  0.48766349370E+03 -0.17382569584E+03 -0.27334858899E+03  0.59206901469E+03  0.88290494533E+02 0.  0.
         13    1    3    3    0    0  0.32849600543E+03 -0.13632934464E+03 -0.14455856814E+03  0.38391730283E+03  0.00000000000E+00 0.  1.
        -13    1    3    3    0    0  0.15916748828E+03 -0.37496351194E+02 -0.12879002085E+03  0.20815171185E+03  0.00000000000E+00 0. -1.
         22    1    1    2    0    0 -0.48766349370E+03  0.17382569584E+03 -0.12955208439E+03  0.53368042703E+03  0.00000000000E+00 0. -1.
<mgrwt>
<rscale>  0 0.10511816E+04</rscale>
<asrwt>0</asrwt>
<pdfrwt beam="1">  1        1 0.11758847E+00 0.10511816E+04</pdfrwt>
<pdfrwt beam="2">  1       -1 0.55603751E-01 0.10511816E+04</pdfrwt>
<totfact> 0.77727672E+01</totfact>
</mgrwt>
</event>
<event>
 6    1  0.6091287E-004  0.3417584E+04  0.7818608E-02  0.8133604E-01
          2   -1    0    0  501    0  0.00000000000E+00  0.00000000000E+00  0.40861088656E+04  0.40861088656E+04  0.00000000000E+00 0.  1.
         -2   -1    0    0    0  501 -0.00000000000E+00 -0.00000000000E+00 -0.71460900659E+03  0.71460900659E+03  0.00000000000E+00 0. -1.
         23    2    1    2    0    0 -0.63915677683E+03 -0.13832815636E+04  0.60440739797E+03  0.16417955943E+04  0.90527349823E+02 0.  0.
         11    1    3    3    0    0 -0.53234022711E+03 -0.10665025030E+04  0.48329054620E+03  0.12862283850E+04  0.00000000000E+00 0.  1.
        -11    1    3    3    0    0 -0.10681654971E+03 -0.31677906063E+03  0.12111685177E+03  0.35556720930E+03  0.00000000000E+00 0. -1.
         22    1    1    2    0    0  0.63915677683E+03  0.13832815636E+04  0.27670924610E+04  0.31589222778E+04  0.00000000000E+00 0. -1.
<mgrwt>
<rscale>  0 0.34175841E+04</rscale>
<asrwt>0</asrwt>
<pdfrwt beam="1">  1        2 0.62863212E+00 0.34175841E+04</pdfrwt>
<pdfrwt beam="2">  1       -2 0.10993985E+00 0.34175841E+04</pdfrwt>
<totfact> 0.15776874E-01</totfact>
</mgrwt>
</event>
<event>
 6    1  0.6091287E-004  0.2278046E+04  0.7818608E-02  0.8486628E-01
          1   -1    0    0  501    0  0.00000000000E+00  0.00000000000E+00  0.11016995045E+04  0.11016995045E+04  0.00000000000E+00 0.  1.
         -1   -1    0    0    0  501 -0.00000000000E+00 -0.00000000000E+00 -0.11776109441E+04  0.11776109441E+04  0.00000000000E+00 0. -1.
         23    2    1    2    0    0 -0.63259400766E+03  0.13671555102E+03 -0.97457856248E+03  0.11718498768E+04  0.67545828151E+02 0.  0.
         11    1    3    3    0    0 -0.33852727074E+03  0.38659637779E+02 -0.50877004374E+03  0.61232527144E+03  0.00000000000E+00 0. -1.
        -11    1    3    3    0    0 -0.29406673691E+03  0.98055913242E+02 -0.46580851874E+03  0.55952460537E+03  0.00000000000E+00 0.  1.
         22    1    1    2    0    0  0.63259400766E+03 -0.13671555102E+03  0.89866712289E+03  0.11074605718E+04  0.00000000000E+00 0.  1.
<mgrwt>
<rscale>  0 0.22780460E+04</rscale>
<asrwt>0</asrwt>
<pdfrwt beam="1">  1        1 0.16949223E+00 0.22780460E+04</pdfrwt>
<pdfrwt beam="2">  1       -1 0.18117091E+00 0.22780460E+04</pdfrwt>
<totfact> 0.23368517E+00</totfact>
</mgrwt>
</event>
<event>
 6    1  0.6091287E-004  0.4479872E+04  0.7818608E-02  0.7914170E-01
          2   -1    0    0  501    0  0.00000000000E+00  0.00000000000E+00  0.31711228595E+04  0.31711228595E+04  0.00000000000E+00 0.  1.
         -2   -1    0    0    0  501 -0.00000000000E+00 -0.00000000000E+00 -0.15821883286E+04  0.15821883286E+04  0.00000000000E+00 0. -1.
         23    2    1    2    0    0  0.15517261650E+04 -0.63352931941E+03  0.23698316923E+04  0.29042536265E+04  0.96816255193E+02 0.  0.
         13    1    3    3    0    0  0.11955072189E+04 -0.52389826667E+03  0.18033015306E+04  0.22261184413E+04  0.00000000000E+00 0. -1.
        -13    1    3    3    0    0  0.35621894609E+03 -0.10963105274E+03  0.56653016170E+03  0.67813518519E+03  0.00000000000E+00 0.  1.
         22    1    1    2    0    0 -0.15517261650E+04  0.63352931941E+03 -0.78089716135E+03  0.18490575617E+04  0.00000000000E+00 0. -1.
<mgrwt>
<rscale>  0 0.44798721E+04</rscale>
<asrwt>0</asrwt>
<pdfrwt beam="1">  1        2 0.48786505E+00 0.44798721E+04</pdfrwt>
<pdfrwt beam="2">  1       -2 0.24341359E+00 0.44798721E+04</pdfrwt>
<totfact> 0.72449277E-02</totfact>
</mgrwt>
</event>
<event>
 6    1  0.6091287E-004  0.2178788E+04  0.7818608E-02  0.8527309E-01
          2   -1    0    0  501    0  0.00000000000E+00  0.00000000000E+00  0.12926236168E+04  0.12926236168E+04  0.00000000000E+00 0.  1.
         -2   -1    0    0    0  501 -0.00000000000E+00 -0.00000000000E+00 -0.91811679466E+03  0.91811679466E+03  0.00000000000E+00 0. -1.
         23    2    1    2    0    0  0.52797062302E+03  0.73975083910E+03  0.79369222983E+03  0.12098904283E+04  0.88900000800E+02 0.  0.
         11    1    3    3    0    0  0.23978000171E+03  0.31355243890E+03  0.28924760253E+03  0.48936055903E+03  0.00000000000E+00 0.  1.
        -11    1    3    3    0    0  0.28819062131E+03  0.42619840020E+03  0.50444462729E+03  0.72052986929E+03  0.00000000000E+00 0. -1.
         22    1    1    2    0    0 -0.52797062302E+03 -0.73975083910E+03 -0.41918540769E+03  0.10008499831E+04  0.00000000000E+00 0. -1.
<mgrwt>
<rscale>  0 0.21787882E+04</rscale>
<asrwt>0</asrwt>
<pdfrwt beam="1">  1        2 0.19886517E+00 0.21787882E+04</pdfrwt>
<pdfrwt beam="2">  1       -2 0.14124874E+00 0.21787882E+04</pdfrwt>
<totfact> 0.53660168E+00</totfact>
</mgrwt>
</event>
<event>
 6    1  0.6091287E-004  0.3867534E+04  0.7818608E-02  0.8031816E-01
          2   -1    0    0  501    0  0.00000000000E+00  0.00000000000E+00  0.21161910823E+04  0.21161910823E+04  0.00000000000E+00 0.  1.
         -2   -1    0    0    0  501 -0.00000000000E+00 -0.00000000000E+00 -0.17670684179E+04  0.17670684179E+04  0.00000000000E+00 0. -1.
         23    2    1    2    0    0 -0.79680321190E+03 -0.73673754457E+03 -0.14310409158E+04  0.17983950106E+04  0.93107159522E+02 0.  0.
         13    1    3    3    0    0 -0.46308516089E+03 -0.36917095565E+03 -0.80570504293E+03  0.99994783711E+03  0.00000000000E+00 0. -1.
        -13    1    3    3    0    0 -0.33371805100E+03 -0.36756658891E+03 -0.62533587292E+03  0.79844717346E+03  0.00000000000E+00 0.  1.
         22    1    1    2    0    0  0.79680321190E+03  0.73673754457E+03  0.17801635802E+04  0.20848644897E+04  0.00000000000E+00 0.  1.
<mgrwt>
<rscale>  0 0.38675338E+04</rscale>
<asrwt>0</asrwt>
<pdfrwt beam="1">  1        2 0.32556786E+00 0.38675338E+04</pdfrwt>
<pdfrwt beam="2">  1       -2 0.27185668E+00 0.38675338E+04</pdfrwt>
<totfact> 0.21668177E-01</totfact>
</mgrwt>
</event>
<event>
 6    1  0.6091287E-004  0.3208661E+04  0.7818608E-02  0.8186534E-01
          2   -1    0    0  501    0  0.00000000000E+00  0.00000000000E+00  0.11527525028E+04  0.11527525028E+04  0.00000000000E+00 0.  1.
         -2   -1    0    0    0  501 -0.00000000000E+00 -0.00000000000E+00 -0.22328092957E+04  0.22328092957E+04  0.00000000000E+00 0. -1.
         23    2    1    2    0    0  0.14201638567E+04 -0.74034697757E+03 -0.46908336808E+03  0.16714242449E+04  0.92955759834E+02 0.  0.
         11    1    3    3    0    0  0.73636037849E+03 -0.36780177715E+03 -0.28709588272E+03  0.87173895184E+03  0.00000000000E+00 0. -1.
        -11    1    3    3    0    0  0.68380347816E+03 -0.37254520042E+03 -0.18198748536E+03  0.79968529305E+03  0.00000000000E+00 0.  1.
         22    1    1    2    0    0 -0.14201638567E+04  0.74034697757E+03 -0.61097342482E+03  0.17141375536E+04  0.00000000000E+00 0.  1.
<mgrwt>
<rscale>  0 0.32086611E+04</rscale>
<asrwt>0</asrwt>
<pdfrwt beam="1">  1        2 0.17734654E+00 0.32086611E+04</pdfrwt>
<pdfrwt beam="2">  1       -2 0.34350912E+00 0.32086611E+04</pdfrwt>
<totfact> 0.29077840E-01</totfact>
</mgrwt>
</event>
<event>
 6    1  0.6091287E-004  0.3358291E+04  0.7818608E-02  0.8148220E-01
         -2   -1    0    0    0  501 -0.00000000000E+00  0.00000000000E+00  0.96377321560E+03  0.96377321560E+03  0.00000000000E+00 0. -1.
          2   -1    0    0  501    0  0.00000000000E+00 -0.00000000000E+00 -0.29255120877E+04  0.29255120877E+04  0.00000000000E+00 0.  1.
         23    2    1    2    0    0 -0.12787309484E+04 -0.75825385740E+03 -0.80628441659E+02  0.14916451714E+04  0.91665812345E+02 0.  0.
         13    1    3    3    0    0 -0.94152063013E+03 -0.59725933170E+03 -0.81747394156E+02  0.11179724696E+04  0.00000000000E+00 0. -1.
        -13    1    3    3    0    0 -0.33721031825E+03 -0.16099452570E+03  0.11189524971E+01  0.37367270183E+03  0.00000000000E+00 0.  1.
         22    1    1    2    0    0  0.12787309484E+04  0.75825385740E+03 -0.18811104305E+04  0.23976401319E+04  0.00000000000E+00 0.  1.
<mgrwt>
<rscale>  0 0.33582913E+04</rscale>
<asrwt>0</asrwt>
<pdfrwt beam="1">  1        2 0.45007878E+00 0.33582913E+04</pdfrwt>
<pdfrwt beam="2">  1       -2 0.14827280E+00 0.33582913E+04</pdfrwt>
<totfact> 0.49727764E-01</totfact>
</mgrwt>
</event>
<event>
 6    1  0.6091287E-004  0.1690466E+04  0.7818608E-02  0.8766821E-01
          2   -1    0    0  501    0  0.00000000000E+00  0.00000000000E+00  0.15819209674E+04  0.15819209674E+04  0.00000000000E+00 0.  1.
         -2   -1    0    0    0  501 -0.00000000000E+00 -0.00000000000E+00 -0.45161490397E+03  0.45161490397E+03  0.00000000000E+00 0. -1.
         23    2    1    2    0    0  0.70579897519E+03 -0.24308282411E+03  0.96017030156E+02  0.75799862883E+03  0.90006657929E+02 0.  0.
         11    1    3    3    0    0  0.22886000976E+03 -0.66907293401E+02  0.71672283557E+02  0.24897872642E+03  0.00000000000E+00 0.  1.
        -11    1    3    3    0    0  0.47693896543E+03 -0.17617553071E+03  0.24344746598E+02  0.50901990241E+03  0.00000000000E+00 0. -1.
         22    1    1    2    0    0 -0.70579897519E+03  0.24308282411E+03  0.10342890333E+04  0.12755372425E+04  0.00000000000E+00 0.  1.
<mgrwt>
<rscale>  0 0.16904663E+04</rscale>
<asrwt>0</asrwt>
<pdfrwt beam="1">  1        2 0.24337245E+00 0.16904663E+04</pdfrwt>
<pdfrwt beam="2">  1       -2 0.69479217E-01 0.16904663E+04</pdfrwt>
<totfact> 0.20537263E+01</totfact>
</mgrwt>
</event>
<event>
 6    1  0.6091287E-004  0.1575106E+04  0.7818608E-02  0.8835989E-01
          2   -1    0    0  501    0  0.00000000000E+00  0.00000000000E+00  0.10559594978E+04  0.10559594978E+04  0.00000000000E+00 0.  1.
         -2   -1    0    0    0  501 -0.00000000000E+00 -0.00000000000E+00 -0.58737080782E+03  0.58737080782E+03  0.00000000000E+00 0. -1.
         23    2    1    2    0    0  0.64188810077E+03 -0.37075669014E+03 -0.32174349295E+02  0.74876645733E+03  0.10067354011E+03 0.  0.
         11    1    3    3    0    0  0.20989705770E+03 -0.11646306358E+03 -0.57549227356E+02  0.24684475603E+03  0.00000000000E+00 0. -1.
        -11    1    3    3    0    0  0.43199104307E+03 -0.25429362656E+03  0.25374878062E+02  0.50192170130E+03  0.00000000000E+00 0.  1.
         22    1    1    2    0    0 -0.64188810077E+03  0.37075669014E+03  0.50076303930E+03  0.89456384832E+03  0.00000000000E+00 0. -1.
<mgrwt>
<rscale>  0 0.15751061E+04</rscale>
<asrwt>0</asrwt>
<pdfrwt beam="1">  1        2 0.16245531E+00 0.15751061E+04</pdfrwt>
<pdfrwt beam="2">  1       -2 0.90364740E-01 0.15751061E+04</pdfrwt>
<totfact> 0.23348682E+01</totfact>
</mgrwt>
</event>
<event>
 6    1  0.6091287E-004  0.3396230E+04  0.7818608E-02  0.8138832E-01
         -2   -1    0    0    0  501 -0.00000000000E+00  0.00000000000E+00  0.88682269723E+03  0.88682269723E+03  0.00000000000E+00 0. -1.
          2   -1    0    0  501    0  0.00000000000E+00 -0.00000000000E+00 -0.32516028691E+04  0.32516028691E+04  0.00000000000E+00 0.  1.
         23    2    1    2    0    0  0.10764460562E+03 -0.10559443131E+03 -0.32427781366E+04  0.32475731817E+04  0.91564088718E+02 0.  0.
         13    1    3    3    0    0  0.38810957578E+02 -0.15220436292E+01 -0.14190920401E+04  0.14196234801E+04  0.00000000000E+00 0.  1.
        -13    1    3    3    0    0  0.68833648038E+02 -0.10407238768E+03 -0.18236860966E+04  0.18279497017E+04  0.00000000000E+00 0. -1.
         22    1    1    2    0    0 -0.10764460562E+03  0.10559443131E+03  0.87799796475E+03  0.89085238460E+03  0.00000000000E+00 0. -1.
<mgrwt>
<rscale>  0 0.33962304E+04</rscale>
<asrwt>0</asrwt>
<pdfrwt beam="1">  1        2 0.50024660E+00 0.33962304E+04</pdfrwt>
<pdfrwt beam="2">  1       -2 0.13643426E+00 0.33962304E+04</pdfrwt>
<totfact> 0.38123158E-01</totfact>
</mgrwt>
</event>
<event>
 6    1  0.6091287E-004  0.5266839E+04  0.7818608E-02  0.7788613E-01
         -2   -1    0    0    0  501 -0.00000000000E+00  0.00000000000E+00  0.17319392016E+04  0.17319392016E+04  0.00000000000E+00 0. -1.
          2   -1    0    0  501    0  0.00000000000E+00 -0.00000000000E+00 -0.40041226325E+04  0.40041226325E+04  0.00000000000E+00 0.  1.
         23    2    1    2    0    0 -0.13897626527E+04 -0.16803379448E+04  0.47004019027E+03  0.22325255880E+04  0.90867382085E+02 0.  0.
         13    1    3    3    0    0 -0.21630805372E+03 -0.24110994105E+03  0.39777514699E+02  0.32635169442E+03  0.00000000000E+00 0. -1.
        -13    1    3    3    0    0 -0.11734545990E+04 -0.14392280037E+04  0.43026267557E+03  0.19061738936E+04  0.00000000000E+00 0.  1.
         22    1    1    2    0    0  0.13897626527E+04  0.16803379448E+04 -0.27422236211E+04  0.35035362461E+04  0.00000000000E+00 0. -1.
<mgrwt>
<rscale>  0 0.52668385E+04</rscale>
<asrwt>0</asrwt>
<pdfrwt beam="1">  1        2 0.61601887E+00 0.52668385E+04</pdfrwt>
<pdfrwt beam="2">  1       -2 0.26645219E+00 0.52668385E+04</pdfrwt>
<totfact> 0.12268843E-02</totfact>
</mgrwt>
</event>
<event>
 6    1  0.6091287E-004  0.3922899E+04  0.7818608E-02  0.8020283E-01
         -2   -1    0    0    0  501 -0.00000000000E+00  0.00000000000E+00  0.20137787790E+04  0.20137787790E+04  0.00000000000E+00 0. -1.
          2   -1    0    0  501    0  0.00000000000E+00 -0.00000000000E+00 -0.19104798231E+04  0.19104798231E+04  0.00000000000E+00 0.  1.
         23    2    1    2    0    0 -0.18299441206E+04 -0.58233279081E+03 -0.34260021776E+03  0.19528040535E+04  0.90894435883E+02 0.  0.
         11    1    3    3    0    0 -0.90994170698E+03 -0.25026648858E+03 -0.14209684703E+03  0.95436824095E+03  0.00000000000E+00 0. -1.
        -11    1    3    3    0    0 -0.92000241364E+03 -0.33206630223E+03 -0.20050337074E+03  0.99843581259E+03  0.00000000000E+00 0.  1.
         22    1    1    2    0    0  0.18299441206E+04  0.58233279081E+03  0.44589917363E+03  0.19714545485E+04  0.00000000000E+00 0.  1.
<mgrwt>
<rscale>  0 0.39228988E+04</rscale>
<asrwt>0</asrwt>
<pdfrwt beam="1">  1        2 0.29391997E+00 0.39228988E+04</pdfrwt>
<pdfrwt beam="2">  1       -2 0.30981212E+00 0.39228988E+04</pdfrwt>
<totfact> 0.16455335E-01</totfact>
</mgrwt>
</event>
<event>
 6    1  0.6091287E-004  0.1917243E+04  0.7818608E-02  0.8646320E-01
         -2   -1    0    0    0  501 -0.00000000000E+00  0.00000000000E+00  0.57689864881E+03  0.57689864881E+03  0.00000000000E+00 0.  1.
          2   -1    0    0  501    0  0.00000000000E+00 -0.00000000000E+00 -0.15929238868E+04  0.15929238868E+04  0.00000000000E+00 0. -1.
         23    2    1    2    0    0 -0.92428265683E+03  0.24580621964E+03 -0.51750433937E+03  0.10912854645E+04  0.91510089800E+02 0.  0.
         11    1    3    3    0    0 -0.66473698395E+03  0.20916049178E+03 -0.34592426127E+03  0.77800190468E+03  0.00000000000E+00 0. -1.
        -11    1    3    3    0    0 -0.25954567288E+03  0.36645727857E+02 -0.17158007810E+03  0.31328355986E+03  0.00000000000E+00 0.  1.
         22    1    1    2    0    0  0.92428265683E+03 -0.24580621964E+03 -0.49852089865E+03  0.10785370711E+04  0.00000000000E+00 0. -1.
<mgrwt>
<rscale>  0 0.19172435E+04</rscale>
<asrwt>0</asrwt>
<pdfrwt beam="1">  1        2 0.24506521E+00 0.19172435E+04</pdfrwt>
<pdfrwt beam="2">  1       -2 0.88753639E-01 0.19172435E+04</pdfrwt>
<totfact> 0.11487323E+01</totfact>
</mgrwt>
</event>
<event>
 6    1  0.6091287E-004  0.2975381E+04  0.7818608E-02  0.8250796E-01
          2   -1    0    0  501    0  0.00000000000E+00  0.00000000000E+00  0.11502664970E+04  0.11502664970E+04  0.00000000000E+00 0.  1.
         -2   -1    0    0    0  501 -0.00000000000E+00 -0.00000000000E+00 -0.19240957912E+04  0.19240957912E+04  0.00000000000E+00 0. -1.
         23    2    1    2    0    0 -0.89012848054E+03 -0.11741688646E+04 -0.58944860097E+03  0.15894388981E+04  0.88685529760E+02 0.  0.
         11    1    3    3    0    0 -0.47923769468E+03 -0.58082529525E+03 -0.26685425989E+03  0.79889798324E+03  0.00000000000E+00 0.  1.
        -11    1    3    3    0    0 -0.41089078586E+03 -0.59334356931E+03 -0.32259434107E+03  0.79054091484E+03  0.00000000000E+00 0. -1.
         22    1    1    2    0    0  0.89012848054E+03  0.11741688646E+04 -0.18438069327E+03  0.14849233901E+04  0.00000000000E+00 0.  1.
<mgrwt>
<rscale>  0 0.29753809E+04</rscale>
<asrwt>0</asrwt>
<pdfrwt beam="1">  1        2 0.17696408E+00 0.29753809E+04</pdfrwt>
<pdfrwt beam="2">  1       -2 0.29601474E+00 0.29753809E+04</pdfrwt>
<totfact> 0.58520870E-01</totfact>
</mgrwt>
</event>
<event>
 6    1  0.6091287E-004  0.1503592E+04  0.7818608E-02  0.8882068E-01
         -2   -1    0    0    0  501 -0.00000000000E+00  0.00000000000E+00  0.13168596192E+03  0.13168596192E+03  0.00000000000E+00 0. -1.
          2   -1    0    0  501    0  0.00000000000E+00 -0.00000000000E+00 -0.42920106988E+04  0.42920106988E+04  0.00000000000E+00 0.  1.
         23    2    1    2    0    0 -0.55706330671E+03 -0.17371505404E+03 -0.34693637989E+04  0.35193054480E+04  0.92353776976E+02 0.  0.
         11    1    3    3    0    0 -0.46823553383E+03 -0.12361226393E+03 -0.30142829294E+04  0.30529372881E+04  0.00000000000E+00 0.  1.
        -11    1    3    3    0    0 -0.88827772882E+02 -0.50102790108E+02 -0.45508086947E+03  0.46636815990E+03  0.00000000000E+00 0. -1.
         22    1    1    2    0    0  0.55706330671E+03  0.17371505404E+03 -0.69096093803E+03  0.90439121268E+03  0.00000000000E+00 0. -1.
<mgrwt>
<rscale>  0 0.15035924E+04</rscale>
<asrwt>0</asrwt>
<pdfrwt beam="1">  1        2 0.66030926E+00 0.15035924E+04</pdfrwt>
<pdfrwt beam="2">  1       -2 0.20259381E-01 0.15035924E+04</pdfrwt>
<totfact> 0.40116974E+00</totfact>
</mgrwt>
</event>
<event>
 6    1  0.6091287E-004  0.7690302E+03  0.7818608E-02  0.9605959E-01
         -2   -1    0    0    0  501 -0.00000000000E+00  0.00000000000E+00  0.23223800353E+03  0.23223800353E+03  0.00000000000E+00 0. -1.
          2   -1    0    0  501    0  0.00000000000E+00 -0.00000000000E+00 -0.63663939358E+03  0.63663939358E+03  0.00000000000E+00 0.  1.
         23    2    1    2    0    0  0.12358913687E+03  0.81349380741E+02  0.18940236165E+03  0.25691751931E+03  0.90781940019E+02 0.  0.
         13    1    3    3    0    0  0.64651402728E+02  0.39861283585E+02  0.16358503225E+03  0.18035739125E+03  0.00000000000E+00 0.  1.
        -13    1    3    3    0    0  0.58937734146E+02  0.41488097156E+02  0.25817329400E+02  0.76560128065E+02  0.00000000000E+00 0. -1.
         22    1    1    2    0    0 -0.12358913687E+03 -0.81349380741E+02 -0.59380375169E+03  0.61195987779E+03  0.00000000000E+00 0.  1.
<mgrwt>
<rscale>  0 0.76903020E+03</rscale>
<asrwt>0</asrwt>
<pdfrwt beam="1">  1        2 0.97944521E-01 0.76903020E+03</pdfrwt>
<pdfrwt beam="2">  1       -2 0.35728924E-01 0.76903020E+03</pdfrwt>
<totfact> 0.34175311E+02</totfact>
</mgrwt>
</event>
<event>
 6    1  0.6091287E-004  0.2057720E+04  0.7818608E-02  0.8580100E-01
          2   -1    0    0  501    0  0.00000000000E+00  0.00000000000E+00  0.10415248826E+04  0.10415248826E+04  0.00000000000E+00 0.  1.
         -2   -1    0    0    0  501 -0.00000000000E+00 -0.00000000000E+00 -0.10163490498E+04  0.10163490498E+04  0.00000000000E+00 0. -1.
         23    2    1    2    0    0 -0.20918047682E+03 -0.53721502496E+03 -0.83695369886E+03  0.10207510928E+04  0.95314450783E+02 0.  0.
         11    1    3    3    0    0 -0.11364128593E+03 -0.29350160583E+03 -0.37299741734E+03  0.48804160461E+03  0.00000000000E+00 0.  1.
        -11    1    3    3    0    0 -0.95539190891E+02 -0.24371341913E+03 -0.46395628152E+03  0.53270948820E+03  0.00000000000E+00 0. -1.
         22    1    1    2    0    0  0.20918047682E+03  0.53721502496E+03  0.86212953173E+03  0.10371228396E+04  0.00000000000E+00 0.  1.
<mgrwt>
<rscale>  0 0.20577199E+04</rscale>
<asrwt>0</asrwt>
<pdfrwt beam="1">  1        2 0.16023460E+00 0.20577199E+04</pdfrwt>
<pdfrwt beam="2">  1       -2 0.15636139E+00 0.20577199E+04</pdfrwt>
<totfact> 0.58752689E+00</totfact>
</mgrwt>
</event>
<event>
 6    1  0.6091287E-004  0.3228067E+04  0.7818608E-02  0.8181444E-01
          1   -1    0    0  501    0  0.00000000000E+00  0.00000000000E+00  0.12592922295E+04  0.12592922295E+04  0.00000000000E+00 0.  1.
         -1   -1    0    0    0  501 -0.00000000000E+00 -0.00000000000E+00 -0.20687053814E+04  0.20687053814E+04  0.00000000000E+00 0. -1.
         23    2    1    2    0    0  0.30291737215E+03  0.31099240386E+03 -0.20063441562E+04  0.20547658808E+04  0.90392158111E+02 0.  0.
         11    1    3    3    0    0  0.27807010609E+03  0.23995260479E+03 -0.16132172853E+04  0.16544999988E+04  0.00000000000E+00 0.  1.
        -11    1    3    3    0    0  0.24847266065E+02  0.71039799075E+02 -0.39312687090E+03  0.40026588202E+03  0.00000000000E+00 0. -1.
         22    1    1    2    0    0 -0.30291737215E+03 -0.31099240386E+03  0.11969310043E+04  0.12732317301E+04  0.00000000000E+00 0.  1.
<mgrwt>
<rscale>  0 0.32280673E+04</rscale>
<asrwt>0</asrwt>
<pdfrwt beam="1">  1        1 0.19373727E+00 0.32280673E+04</pdfrwt>
<pdfrwt beam="2">  1       -1 0.31826236E+00 0.32280673E+04</pdfrwt>
<totfact> 0.20284703E-01</totfact>
</mgrwt>
</event>
<event>
 6    1  0.6091287E-004  0.1560803E+04  0.7818608E-02  0.8844997E-01
          2   -1    0    0  501    0  0.00000000000E+00  0.00000000000E+00  0.31826243461E+04  0.31826243461E+04  0.00000000000E+00 0.  1.
         -2   -1    0    0    0  501 -0.00000000000E+00 -0.00000000000E+00 -0.19135991713E+03  0.19135991713E+03  0.00000000000E+00 0. -1.
         23    2    1    2    0    0  0.42181702048E+03  0.42643212005E+03  0.43092398366E+03  0.74432323038E+03  0.92453446782E+02 0.  0.
         11    1    3    3    0    0  0.30922543206E+03  0.25744226321E+03  0.31048470132E+03  0.50822990513E+03  0.00000000000E+00 0. -1.
        -11    1    3    3    0    0  0.11259158842E+03  0.16898985684E+03  0.12043928234E+03  0.23609332525E+03  0.00000000000E+00 0.  1.
         22    1    1    2    0    0 -0.42181702048E+03 -0.42643212005E+03  0.25603404453E+04  0.26296610328E+04  0.00000000000E+00 0.  1.
<mgrwt>
<rscale>  0 0.15608033E+04</rscale>
<asrwt>0</asrwt>
<pdfrwt beam="1">  1        2 0.48963448E+00 0.15608033E+04</pdfrwt>
<pdfrwt beam="2">  1       -2 0.29439990E-01 0.15608033E+04</pdfrwt>
<totfact> 0.13713014E+01</totfact>
</mgrwt>
</event>
<event>
 6    1  0.6091287E-004  0.1718017E+04  0.7818608E-02  0.8751155E-01
         -2   -1    0    0    0  501 -0.00000000000E+00  0.00000000000E+00  0.41891884882E+03  0.41891884882E+03  0.00000000000E+00 0. -1.
          2   -1    0    0  501    0  0.00000000000E+00 -0.00000000000E+00 -0.17614286251E+04  0.17614286251E+04  0.00000000000E+00 0.  1.
         23    2    1    2    0    0  0.63292718415E+03 -0.50102836069E+03 -0.30923315431E+03  0.86913169605E+03  0.90213761089E+02 0.  0.
         11    1    3    3    0    0  0.17236804918E+03 -0.14998754152E+03 -0.13028800655E+03  0.26302465976E+03  0.00000000000E+00 0. -1.
        -11    1    3    3    0    0  0.46055913497E+03 -0.35104081917E+03 -0.17894514776E+03  0.60610703629E+03  0.00000000000E+00 0.  1.
         22    1    1    2    0    0 -0.63292718415E+03  0.50102836069E+03 -0.10332766220E+04  0.13112157779E+04  0.00000000000E+00 0.  1.
<mgrwt>
<rscale>  0 0.17180171E+04</rscale>
<asrwt>0</asrwt>
<pdfrwt beam="1">  1        2 0.27098902E+00 0.17180171E+04</pdfrwt>
<pdfrwt beam="2">  1       -2 0.64449054E-01 0.17180171E+04</pdfrwt>
<totfact> 0.19150496E+01</totfact>
</mgrwt>
</event>
<event>
 6    1  0.6091287E-004  0.3271378E+04  0.7818608E-02  0.8170217E-01
         -2   -1    0    0    0  501 -0.00000000000E+00  0.00000000000E+00  0.11713196873E+04  0.11713196873E+04  0.00000000000E+00 0. -1.
          2   -1    0    0  501    0  0.00000000000E+00 -0.00000000000E+00 -0.22841567443E+04  0.22841567443E+04  0.00000000000E+00 0.  1.
         23    2    1    2    0    0  0.14097620978E+04 -0.15667748027E+03 -0.14145028655E+04  0.20053111772E+04  0.92073642697E+02 0.  0.
         13    1    3    3    0    0  0.56499525028E+03 -0.96805728009E+02 -0.61348746580E+03  0.83961768234E+03  0.00000000000E+00 0. -1.
        -13    1    3    3    0    0  0.84476684751E+03 -0.59871752258E+02 -0.80101539967E+03  0.11656934948E+04  0.00000000000E+00 0.  1.
         22    1    1    2    0    0 -0.14097620978E+04  0.15667748027E+03  0.30166580851E+03  0.14501652544E+04  0.00000000000E+00 0. -1.
<mgrwt>
<rscale>  0 0.32713775E+04</rscale>
<asrwt>0</asrwt>
<pdfrwt beam="1">  1        2 0.35140873E+00 0.32713775E+04</pdfrwt>
<pdfrwt beam="2">  1       -2 0.18020303E+00 0.32713775E+04</pdfrwt>
<totfact> 0.70030093E-01</totfact>
</mgrwt>
</event>
<event>
 6    1  0.6091287E-004  0.5394947E+04  0.7818608E-02  0.7770312E-01
          1   -1    0    0  501    0  0.00000000000E+00  0.00000000000E+00  0.28636865665E+04  0.28636865665E+04  0.00000000000E+00 0.  1.
         -1   -1    0    0    0  501 -0.00000000000E+00 -0.00000000000E+00 -0.25409073392E+04  0.25409073392E+04  0.00000000000E+00 0. -1.
         23    2    1    2    0    0  0.21273114265E+04  0.15591004291E+04 -0.40143305937E+03  0.26695013132E+04  0.94025031470E+02 0.  0.
         13    1    3    3    0    0  0.14009144759E+04  0.10615227523E+04 -0.30212426601E+03  0.17834435776E+04  0.00000000000E+00 0.  1.
        -13    1    3    3    0    0  0.72639695069E+03  0.49757767673E+03 -0.99308793366E+02  0.88605773559E+03  0.00000000000E+00 0. -1.
         22    1    1    2    0    0 -0.21273114265E+04 -0.15591004291E+04  0.72421228674E+03  0.27350925925E+04  0.00000000000E+00 0.  1.
<mgrwt>
<rscale>  0 0.53949466E+04</rscale>
<asrwt>0</asrwt>
<pdfrwt beam="1">  1        1 0.44056716E+00 0.53949466E+04</pdfrwt>
<pdfrwt beam="2">  1       -1 0.39090882E+00 0.53949466E+04</pdfrwt>
<totfact> 0.43354700E-03</totfact>
</mgrwt>
</event>
<event>
 6    1  0.6091287E-004  0.1085092E+04  0.7818608E-02  0.9219845E-01
          2   -1    0    0  501    0  0.00000000000E+00  0.00000000000E+00  0.64834183079E+03  0.64834183079E+03  0.00000000000E+00 0. -1.
         -2   -1    0    0    0  501 -0.00000000000E+00 -0.00000000000E+00 -0.45401424243E+03  0.45401424243E+03  0.00000000000E+00 0.  1.
         23    2    1    2    0    0 -0.16307365453E+03 -0.45900301013E+03  0.33150757606E+03  0.59629764859E+03  0.91634232828E+02 0.  0.
         13    1    3    3    0    0 -0.28816750787E+02 -0.90562883020E+02  0.11205091672E+03  0.14692667847E+03  0.00000000000E+00 0.  1.
        -13    1    3    3    0    0 -0.13425690375E+03 -0.36844012711E+03  0.21945665933E+03  0.44937097013E+03  0.00000000000E+00 0. -1.
         22    1    1    2    0    0  0.16307365453E+03  0.45900301013E+03 -0.13717998770E+03  0.50605842462E+03  0.00000000000E+00 0.  1.
<mgrwt>
<rscale>  0 0.10850925E+04</rscale>
<asrwt>0</asrwt>
<pdfrwt beam="1">  1        2 0.99744897E-01 0.10850925E+04</pdfrwt>
<pdfrwt beam="2">  1       -2 0.69848345E-01 0.10850925E+04</pdfrwt>
<totfact> 0.83770496E+01</totfact>
</mgrwt>
</event>
<event>
 6    1  0.6091287E-004  0.5602728E+04  0.7818608E-02  0.7741710E-01
          2   -1    0    0  501    0  0.00000000000E+00  0.00000000000E+00  0.36584687401E+04  0.36584687401E+04  0.00000000000E+00 0.  1.
         -2   -1    0    0    0  501 -0.00000000000E+00 -0.00000000000E+00 -0.21450618084E+04  0.21450618084E+04  0.00000000000E+00 0. -1.
         23    2    1    2    0    0  0.87941262633E+03  0.18469154386E+04  0.27383210318E+04  0.34192323798E+04  0.91020819272E+02 0.  0.
         13    1    3    3    0    0  0.25567824672E+03  0.46155976684E+03  0.74488715742E+03  0.91283386303E+03  0.00000000000E+00 0. -1.
        -13    1    3    3    0    0  0.62373437962E+03  0.13853556717E+04  0.19934338743E+04  0.25063985168E+04  0.00000000000E+00 0.  1.
         22    1    1    2    0    0 -0.87941262633E+03 -0.18469154386E+04 -0.12249141000E+04  0.23842981687E+04  0.00000000000E+00 0. -1.
<mgrwt>
<rscale>  0 0.56027285E+04</rscale>
<asrwt>0</asrwt>
<pdfrwt beam="1">  1        2 0.56284134E+00 0.56027285E+04</pdfrwt>
<pdfrwt beam="2">  1       -2 0.33000951E+00 0.56027285E+04</pdfrwt>
<totfact> 0.89964539E-03</totfact>
</mgrwt>
</event>
<event>
 6    1  0.6091287E-004  0.6282859E+03  0.7818608E-02  0.9848400E-01
         -2   -1    0    0    0  501 -0.00000000000E+00  0.00000000000E+00  0.22230142256E+03  0.22230142256E+03  0.00000000000E+00 0. -1.
          2   -1    0    0  501    0  0.00000000000E+00 -0.00000000000E+00 -0.44392778877E+03  0.44392778877E+03  0.00000000000E+00 0.  1.
         23    2    1    2    0    0 -0.59993989750E+02 -0.28434203894E+03 -0.21971062402E+03  0.37562063614E+03  0.91479123702E+02 0.  0.
         11    1    3    3    0    0 -0.69415925628E+02 -0.22791275552E+03 -0.13632092271E+03  0.27449260250E+03  0.00000000000E+00 0. -1.
        -11    1    3    3    0    0  0.94219358775E+01 -0.56429283411E+02 -0.83389701308E+02  0.10112803363E+03  0.00000000000E+00 0.  1.
         22    1    1    2    0    0  0.59993989750E+02  0.28434203894E+03 -0.19157421954E+01  0.29060857520E+03  0.00000000000E+00 0. -1.
<mgrwt>
<rscale>  0 0.62828586E+03</rscale>
<asrwt>0</asrwt>
<pdfrwt beam="1">  1        2 0.68296582E-01 0.62828586E+03</pdfrwt>
<pdfrwt beam="2">  1       -2 0.34200219E-01 0.62828586E+03</pdfrwt>
<totfact> 0.56945634E+02</totfact>
</mgrwt>
</event>
<event>
 6    1  0.6091287E-004  0.1082273E+04  0.7818608E-02  0.9222644E-01
         -2   -1    0    0    0  501 -0.00000000000E+00  0.00000000000E+00  0.22798758345E+03  0.22798758345E+03  0.00000000000E+00 0. -1.
          2   -1    0    0  501    0  0.00000000000E+00 -0.00000000000E+00 -0.12844062975E+04  0.12844062975E+04  0.00000000000E+00 0.  1.
         23    2    1    2    0    0 -0.12919466118E+03 -0.33471654812E+03 -0.10899842025E+04  0.11520425662E+04  0.10202982141E+03 0.  0.
         11    1    3    3    0    0 -0.33901147860E+00 -0.11502264695E+02 -0.13770765369E+03  0.13818760764E+03  0.00000000000E+00 0.  1.
        -11    1    3    3    0    0 -0.12885564970E+03 -0.32321428342E+03 -0.95227654884E+03  0.10138549585E+04  0.00000000000E+00 0. -1.
         22    1    1    2    0    0  0.12919466118E+03  0.33471654812E+03  0.33565488450E+02  0.36035131480E+03  0.00000000000E+00 0. -1.
<mgrwt>
<rscale>  0 0.10822730E+04</rscale>
<asrwt>0</asrwt>
<pdfrwt beam="1">  1        2 0.19760096E+00 0.10822730E+04</pdfrwt>
<pdfrwt beam="2">  1       -2 0.35075014E-01 0.10822730E+04</pdfrwt>
<totfact> 0.12788492E+02</totfact>
</mgrwt>
</event>
<event>
 6    1  0.6091287E-004  0.2712749E+04  0.7818608E-02  0.8330880E-01
         -2   -1    0    0    0  501 -0.00000000000E+00  0.00000000000E+00  0.57315460973E+03  0.57315460973E+03  0.00000000000E+00 0. -1.
          2   -1    0    0  501    0  0.00000000000E+00 -0.00000000000E+00 -0.32098708144E+04  0.32098708144E+04  0.00000000000E+00 0.  1.
         23    2    1    2    0    0 -0.32103603567E+03 -0.42828379214E+03  0.41636453460E+03  0.68338138920E+03  0.84614151431E+02 0.  0.
         13    1    3    3    0    0 -0.14643416027E+03 -0.17892550685E+03  0.23176832324E+03  0.32737418340E+03  0.00000000000E+00 0. -1.
        -13    1    3    3    0    0 -0.17460187540E+03 -0.24935828529E+03  0.18459621135E+03  0.35600720580E+03  0.00000000000E+00 0.  1.
         22    1    1    2    0    0  0.32103603567E+03  0.42828379214E+03 -0.30530807393E+04  0.30996440349E+04  0.00000000000E+00 0.  1.
<mgrwt>
<rscale>  0 0.27127493E+04</rscale>
<asrwt>0</asrwt>
<pdfrwt beam="1">  1        2 0.49382628E+00 0.27127493E+04</pdfrwt>
<pdfrwt beam="2">  1       -2 0.88177632E-01 0.27127493E+04</pdfrwt>
<totfact> 0.12401889E+00</totfact>
</mgrwt>
</event>
<event>
 6    1  0.6091287E-004  0.1463451E+04  0.7818608E-02  0.8909128E-01
         -2   -1    0    0    0  501 -0.00000000000E+00  0.00000000000E+00  0.88345050926E+03  0.88345050926E+03  0.00000000000E+00 0. -1.
          2   -1    0    0  501    0  0.00000000000E+00 -0.00000000000E+00 -0.60605785579E+03  0.60605785579E+03  0.00000000000E+00 0.  1.
         23    2    1    2    0    0 -0.43022029641E+02 -0.58596296024E+03  0.57831378803E+03  0.82938942499E+03  0.90755137862E+02 0.  0.
         11    1    3    3    0    0 -0.55791684444E+02 -0.55960245694E+03  0.56512486111E+03  0.79726641126E+03  0.00000000000E+00 0. -1.
        -11    1    3    3    0    0  0.12769654803E+02 -0.26360503300E+02  0.13188926912E+02  0.32123013730E+02  0.00000000000E+00 0.  1.
         22    1    1    2    0    0  0.43022029641E+02  0.58596296024E+03 -0.30092113456E+03  0.66011894007E+03  0.00000000000E+00 0.  1.
<mgrwt>
<rscale>  0 0.14634509E+04</rscale>
<asrwt>0</asrwt>
<pdfrwt beam="1">  1        2 0.93239670E-01 0.14634509E+04</pdfrwt>
<pdfrwt beam="2">  1       -2 0.13591546E+00 0.14634509E+04</pdfrwt>
<totfact> 0.18395897E+01</totfact>
</mgrwt>
</event>
<event>
 6    1  0.6091287E-004  0.6019507E+04  0.7818608E-02  0.7687988E-01
          2   -1    0    0  501    0  0.00000000000E+00  0.00000000000E+00  0.33998161228E+04  0.33998161228E+04  0.00000000000E+00 0.  1.
         -2   -1    0    0    0  501 -0.00000000000E+00 -0.00000000000E+00 -0.26644426743E+04  0.26644426743E+04  0.00000000000E+00 0. -1.
         23    2    1    2    0    0  0.25029750105E+04 -0.12496470015E+04  0.14842615788E+04  0.31681691985E+04  0.88102808280E+02 0.  0.
         11    1    3    3    0    0  0.23839886313E+04 -0.11763938928E+04  0.13931614442E+04  0.30013668878E+04  0.00000000000E+00 0.  1.
        -11    1    3    3    0    0  0.11898637912E+03 -0.73253108755E+02  0.91100134551E+02  0.16680231076E+03  0.00000000000E+00 0. -1.
         22    1    1    2    0    0 -0.25029750105E+04  0.12496470015E+04 -0.74888813022E+03  0.28960895986E+04  0.00000000000E+00 0. -1.
<mgrwt>
<rscale>  0 0.60195067E+04</rscale>
<asrwt>0</asrwt>
<pdfrwt beam="1">  1        2 0.52304863E+00 0.60195067E+04</pdfrwt>
<pdfrwt beam="2">  1       -2 0.40991426E+00 0.60195067E+04</pdfrwt>
<totfact> 0.40961724E-03</totfact>
</mgrwt>
</event>
<event>
 6    1  0.6091287E-004  0.2396234E+04  0.7818608E-02  0.8440915E-01
          2   -1    0    0  501    0  0.00000000000E+00  0.00000000000E+00  0.12514046243E+04  0.12514046243E+04  0.00000000000E+00 0.  1.
         -2   -1    0    0    0  501 -0.00000000000E+00 -0.00000000000E+00 -0.11470980126E+04  0.11470980126E+04  0.00000000000E+00 0. -1.
         23    2    1    2    0    0  0.11263670936E+04  0.21601035159E+03 -0.28838708795E+03  0.11862437358E+04  0.92971967414E+02 0.  0.
         11    1    3    3    0    0  0.88698574479E+03  0.14633382393E+03 -0.25680086789E+03  0.93493528399E+03  0.00000000000E+00 0. -1.
        -11    1    3    3    0    0  0.23938134877E+03  0.69676527664E+02 -0.31586220064E+02  0.25130845180E+03  0.00000000000E+00 0.  1.
         22    1    1    2    0    0 -0.11263670936E+04 -0.21601035159E+03  0.39269369965E+03  0.12122589011E+04  0.00000000000E+00 0.  1.
<mgrwt>
<rscale>  0 0.23962335E+04</rscale>
<asrwt>0</asrwt>
<pdfrwt beam="1">  1        2 0.19252379E+00 0.23962335E+04</pdfrwt>
<pdfrwt beam="2">  1       -2 0.17647662E+00 0.23962335E+04</pdfrwt>
<totfact> 0.30467145E+00</totfact>
</mgrwt>
</event>
<event>
 6    1  0.6120202E-004  0.3227645E+04  0.7818608E-02  0.8181554E-01
         -2   -1    0    0    0  501 -0.00000000000E+00  0.00000000000E+00  0.10690647369E+04  0.10690647369E+04  0.00000000000E+00 0. -1.
          2   -1    0    0  501    0  0.00000000000E+00 -0.00000000000E+00 -0.24361695864E+04  0.24361695864E+04  0.00000000000E+00 0.  1.
         23    2    1    2    0    0  0.10253077374E+04 -0.97692532198E+03  0.15350918849E+03  0.14272771309E+04  0.88971323013E+02 0.  0.
         13    1    3    3    0    0  0.59060776308E+03 -0.51669184849E+03  0.11418882358E+03  0.79298618117E+03  0.00000000000E+00 0.  1.
        -13    1    3    3    0    0  0.43469997433E+03 -0.46023347350E+03  0.39320364915E+02  0.63429094973E+03  0.00000000000E+00 0. -1.
         22    1    1    2    0    0 -0.10253077374E+04  0.97692532198E+03 -0.15206140379E+04  0.20779571924E+04  0.00000000000E+00 0. -1.
<mgrwt>
<rscale>  0 0.32276450E+04</rscale>
<asrwt>0</asrwt>
<pdfrwt beam="1">  1        2 0.37479532E+00 0.32276450E+04</pdfrwt>
<pdfrwt beam="2">  1       -2 0.16447150E+00 0.32276450E+04</pdfrwt>
<totfact> 0.74357445E-01</totfact>
</mgrwt>
</event>
<event>
 6    1  0.6091287E-004  0.2419465E+04  0.7818608E-02  0.8432252E-01
          1   -1    0    0  501    0  0.00000000000E+00  0.00000000000E+00  0.14438166361E+04  0.14438166361E+04  0.00000000000E+00 0. -1.
         -1   -1    0    0    0  501 -0.00000000000E+00 -0.00000000000E+00 -0.10136002122E+04  0.10136002122E+04  0.00000000000E+00 0.  1.
         23    2    1    2    0    0 -0.11177102956E+04 -0.39044597949E+03 -0.28235341111E+02  0.11878096694E+04  0.91488842569E+02 0.  0.
         13    1    3    3    0    0 -0.28287634560E+03 -0.14069843534E+03  0.77822949213E+00  0.31593619965E+03  0.00000000000E+00 0.  1.
        -13    1    3    3    0    0 -0.83483395004E+03 -0.24974754415E+03 -0.29013570603E+02  0.87187346974E+03  0.00000000000E+00 0. -1.
         22    1    1    2    0    0  0.11177102956E+04  0.39044597949E+03  0.45845176506E+03  0.12696071789E+04  0.00000000000E+00 0. -1.
<mgrwt>
<rscale>  0 0.24194651E+04</rscale>
<asrwt>0</asrwt>
<pdfrwt beam="1">  1        1 0.22212564E+00 0.24194651E+04</pdfrwt>
<pdfrwt beam="2">  1       -1 0.15593849E+00 0.24194651E+04</pdfrwt>
<totfact> 0.20100754E+00</totfact>
</mgrwt>
</event>
<event>
 6    1  0.6091287E-004  0.2898587E+04  0.7818608E-02  0.8273298E-01
          1   -1    0    0  501    0  0.00000000000E+00  0.00000000000E+00  0.19108602006E+04  0.19108602006E+04  0.00000000000E+00 0.  1.
         -1   -1    0    0    0  501 -0.00000000000E+00 -0.00000000000E+00 -0.10992179751E+04  0.10992179751E+04  0.00000000000E+00 0. -1.
         23    2    1    2    0    0 -0.11584438054E+04  0.76119349293E+03  0.84056676679E+03  0.16236279555E+04  0.90596161092E+02 0.  0.
         13    1    3    3    0    0 -0.22476957239E+03  0.15735248832E+03  0.12622079198E+03  0.30201465955E+03  0.00000000000E+00 0. -1.
        -13    1    3    3    0    0 -0.93367423305E+03  0.60384100461E+03  0.71434597481E+03  0.13216132960E+04  0.00000000000E+00 0.  1.
         22    1    1    2    0    0  0.11584438054E+04 -0.76119349293E+03 -0.28924541226E+02  0.13864502202E+04  0.00000000000E+00 0. -1.
<mgrwt>
<rscale>  0 0.28985872E+04</rscale>
<asrwt>0</asrwt>
<pdfrwt beam="1">  1        1 0.29397849E+00 0.28985872E+04</pdfrwt>
<pdfrwt beam="2">  1       -1 0.16911046E+00 0.28985872E+04</pdfrwt>
<totfact> 0.73457761E-01</totfact>
</mgrwt>
</event>
<event>
 6    1  0.6091287E-004  0.9827708E+03  0.7818608E-02  0.9327646E-01
         -2   -1    0    0    0  501 -0.00000000000E+00  0.00000000000E+00  0.23057515946E+03  0.23057515946E+03  0.00000000000E+00 0. -1.
          2   -1    0    0  501    0  0.00000000000E+00 -0.00000000000E+00 -0.10472057612E+04  0.10472057612E+04  0.00000000000E+00 0.  1.
         23    2    1    2    0    0 -0.10137537413E+03  0.30880064289E+03  0.59584721370E+02  0.34322857008E+03  0.92847772021E+02 0.  0.
         11    1    3    3    0    0 -0.29159492019E+02  0.18669986190E+03  0.68733710113E+02  0.20107570045E+03  0.00000000000E+00 0.  1.
        -11    1    3    3    0    0 -0.72215882108E+02  0.12210078099E+03 -0.91489887426E+01  0.14215286963E+03  0.00000000000E+00 0. -1.
         22    1    1    2    0    0  0.10137537413E+03 -0.30880064289E+03 -0.87621532309E+03  0.93455235056E+03  0.00000000000E+00 0.  1.
<mgrwt>
<rscale>  0 0.98277085E+03</rscale>
<asrwt>0</asrwt>
<pdfrwt beam="1">  1        2 0.16110858E+00 0.98277085E+03</pdfrwt>
<pdfrwt beam="2">  1       -2 0.35473102E-01 0.98277085E+03</pdfrwt>
<totfact> 0.17512442E+02</totfact>
</mgrwt>
</event>
<event>
 6    1  0.6091287E-004  0.2928825E+04  0.7818608E-02  0.8264353E-01
          2   -1    0    0  501    0  0.00000000000E+00  0.00000000000E+00  0.10889132442E+04  0.10889132442E+04  0.00000000000E+00 0.  1.
         -2   -1    0    0    0  501 -0.00000000000E+00 -0.00000000000E+00 -0.19693983682E+04  0.19693983682E+04  0.00000000000E+00 0. -1.
         23    2    1    2    0    0  0.82350021333E+03  0.13097909112E+03 -0.16959148515E+04  0.18920210123E+04  0.91149348453E+02 0.  0.
         11    1    3    3    0    0  0.24398084369E+03  0.57103294472E+02 -0.59734192757E+03  0.64776910760E+03  0.00000000000E+00 0. -1.
        -11    1    3    3    0    0  0.57951936965E+03  0.73875796648E+02 -0.10985729239E+04  0.12442519047E+04  0.00000000000E+00 0.  1.
         22    1    1    2    0    0 -0.82350021333E+03 -0.13097909112E+03  0.81542972738E+03  0.11662906001E+04  0.00000000000E+00 0.  1.
<mgrwt>
<rscale>  0 0.29288250E+04</rscale>
<asrwt>0</asrwt>
<pdfrwt beam="1">  1        2 0.16752512E+00 0.29288250E+04</pdfrwt>
<pdfrwt beam="2">  1       -2 0.30298436E+00 0.29288250E+04</pdfrwt>
<totfact> 0.58070677E-01</totfact>
</mgrwt>
</event>
<event>
 6    1  0.6091287E-004  0.2349079E+04  0.7818608E-02  0.8458817E-01
         -2   -1    0    0    0  501 -0.00000000000E+00  0.00000000000E+00  0.39631327954E+03  0.39631327954E+03  0.00000000000E+00 0. -1.
          2   -1    0    0  501    0  0.00000000000E+00 -0.00000000000E+00 -0.34809416438E+04  0.34809416438E+04  0.00000000000E+00 0.  1.
         23    2    1    2    0    0  0.10864178661E+04  0.73086099628E+02 -0.22634108147E+04  0.25134207614E+04  0.92790352950E+02 0.  0.
         11    1    3    3    0    0  0.74231381350E+03  0.51037981359E+02 -0.14443788708E+04  0.16247661357E+04  0.00000000000E+00 0.  1.
        -11    1    3    3    0    0  0.34410405259E+03  0.22048118269E+02 -0.81903194394E+03  0.88865462567E+03  0.00000000000E+00 0. -1.
         22    1    1    2    0    0 -0.10864178661E+04 -0.73086099628E+02 -0.82121754951E+03  0.13638341620E+04  0.00000000000E+00 0. -1.
<mgrwt>
<rscale>  0 0.23490793E+04</rscale>
<asrwt>0</asrwt>
<pdfrwt beam="1">  1        2 0.53552947E+00 0.23490793E+04</pdfrwt>
<pdfrwt beam="2">  1       -2 0.60971275E-01 0.23490793E+04</pdfrwt>
<totfact> 0.18991285E+00</totfact>
</mgrwt>
</event>
<event>
 6    1  0.6091287E-004  0.3356269E+04  0.7818608E-02  0.8148723E-01
          2   -1    0    0  501    0  0.00000000000E+00  0.00000000000E+00  0.18743508171E+04  0.18743508171E+04  0.00000000000E+00 0.  1.
         -2   -1    0    0    0  501 -0.00000000000E+00 -0.00000000000E+00 -0.15024592641E+04  0.15024592641E+04  0.00000000000E+00 0. -1.
         23    2    1    2    0    0 -0.25369105324E+03  0.34283796698E+03  0.18178231768E+04  0.18692905017E+04  0.88706569447E+02 0.  0.
         11    1    3    3    0    0 -0.45666271575E+02  0.93134420138E+02  0.31189165260E+03  0.32868804593E+03  0.00000000000E+00 0.  1.
        -11    1    3    3    0    0 -0.20802478166E+03  0.24970354684E+03  0.15059315242E+04  0.15406024557E+04  0.00000000000E+00 0. -1.
         22    1    1    2    0    0  0.25369105324E+03 -0.34283796698E+03 -0.14459316237E+04  0.15075195795E+04  0.00000000000E+00 0. -1.
<mgrwt>
<rscale>  0 0.33562692E+04</rscale>
<asrwt>0</asrwt>
<pdfrwt beam="1">  1        2 0.28836166E+00 0.33562692E+04</pdfrwt>
<pdfrwt beam="2">  1       -2 0.23114758E+00 0.33562692E+04</pdfrwt>
<totfact> 0.54864659E-01</totfact>
</mgrwt>
</event>
<event>
 6    1  0.6091287E-004  0.4515479E+04  0.7818608E-02  0.7907932E-01
         -1   -1    0    0    0  501 -0.00000000000E+00  0.00000000000E+00  0.21822426762E+04  0.21822426762E+04  0.00000000000E+00 0. -1.
          1   -1    0    0  501    0  0.00000000000E+00 -0.00000000000E+00 -0.23358480889E+04  0.23358480889E+04  0.00000000000E+00 0.  1.
         23    2    1    2    0    0 -0.14130096382E+04 -0.40327905546E+03 -0.17907340769E+04  0.23182224742E+04  0.90535469599E+02 0.  0.
         11    1    3    3    0    0 -0.21403371156E+03 -0.91606581127E+02 -0.30756138454E+03  0.38574110573E+03  0.00000000000E+00 0.  1.
        -11    1    3    3    0    0 -0.11989759266E+04 -0.31167247433E+03 -0.14831726924E+04  0.19324813684E+04  0.00000000000E+00 0. -1.
         22    1    1    2    0    0  0.14130096382E+04  0.40327905546E+03  0.16371286642E+04  0.21998682909E+04  0.00000000000E+00 0. -1.
<mgrwt>
<rscale>  0 0.45154789E+04</rscale>
<asrwt>0</asrwt>
<pdfrwt beam="1">  1        1 0.35936124E+00 0.45154789E+04</pdfrwt>
<pdfrwt beam="2">  1       -1 0.33572964E+00 0.45154789E+04</pdfrwt>
<totfact> 0.25479006E-02</totfact>
</mgrwt>
</event>
<event>
 6    1  0.6091287E-004  0.2096240E+04  0.7818608E-02  0.8562901E-01
          1   -1    0    0  501    0  0.00000000000E+00  0.00000000000E+00  0.20277703715E+04  0.20277703715E+04  0.00000000000E+00 0. -1.
         -1   -1    0    0    0  501 -0.00000000000E+00 -0.00000000000E+00 -0.54175557151E+03  0.54175557151E+03  0.00000000000E+00 0.  1.
         23    2    1    2    0    0 -0.63392663666E+03 -0.80612173439E+03  0.99700229593E+03  0.14333796230E+04  0.94171833791E+02 0.  0.
         11    1    3    3    0    0 -0.44162590913E+03 -0.58215034161E+03  0.76519371022E+03  0.10580424746E+04  0.00000000000E+00 0. -1.
        -11    1    3    3    0    0 -0.19230072753E+03 -0.22397139278E+03  0.23180858571E+03  0.37533714844E+03  0.00000000000E+00 0.  1.
         22    1    1    2    0    0  0.63392663666E+03  0.80612173439E+03  0.48901250409E+03  0.11361463200E+04  0.00000000000E+00 0. -1.
<mgrwt>
<rscale>  0 0.20962403E+04</rscale>
<asrwt>0</asrwt>
<pdfrwt beam="1">  1        1 0.31196467E+00 0.20962403E+04</pdfrwt>
<pdfrwt beam="2">  1       -1 0.83347012E-01 0.20962403E+04</pdfrwt>
<totfact> 0.37496123E+00</totfact>
</mgrwt>
</event>
<event>
 6    1  0.9978658E-004  0.4302029E+04  0.7818608E-02  0.7946243E-01
          2   -1    0    0  501    0  0.00000000000E+00  0.00000000000E+00  0.21353178254E+04  0.21353178254E+04  0.00000000000E+00 0.  1.
         -2   -1    0    0    0  501 -0.00000000000E+00 -0.00000000000E+00 -0.21668267611E+04  0.21668267611E+04  0.00000000000E+00 0. -1.
         23    2    1    2    0    0 -0.33173709392E+03  0.65529098356E+03  0.20049168911E+04  0.21373152813E+04  0.94705326057E+02 0.  0.
         11    1    3    3    0    0 -0.12203537785E+03  0.22763873964E+03  0.83915269179E+03  0.87800300077E+03  0.00000000000E+00 0. -1.
        -11    1    3    3    0    0 -0.20970171608E+03  0.42765224392E+03  0.11657641993E+04  0.12593122805E+04  0.00000000000E+00 0.  1.
         22    1    1    2    0    0  0.33173709392E+03 -0.65529098356E+03 -0.20364258268E+04  0.21648293052E+04  0.00000000000E+00 0. -1.
<mgrwt>
<rscale>  0 0.43020292E+04</rscale>
<asrwt>0</asrwt>
<pdfrwt beam="1">  1        2 0.32851043E+00 0.43020292E+04</pdfrwt>
<pdfrwt beam="2">  1       -2 0.33335796E+00 0.43020292E+04</pdfrwt>
<totfact> 0.85509476E-02</totfact>
</mgrwt>
</event>
<event>
 6    1  0.6091287E-004  0.1943603E+04  0.7818608E-02  0.8633452E-01
         -2   -1    0    0    0  501 -0.00000000000E+00  0.00000000000E+00  0.98012400939E+03  0.98012400939E+03  0.00000000000E+00 0. -1.
          2   -1    0    0  501    0  0.00000000000E+00 -0.00000000000E+00 -0.96354921656E+03  0.96354921656E+03  0.00000000000E+00 0.  1.
         23    2    1    2    0    0 -0.14458722579E+03 -0.62285099623E+02  0.96503014926E+03  0.98224072044E+03  0.93427749750E+02 0.  0.
         13    1    3    3    0    0 -0.47738894988E+02  0.23558627773E+02  0.25212588787E+03  0.25768483536E+03  0.00000000000E+00 0. -1.
        -13    1    3    3    0    0 -0.96848330803E+02 -0.85843727396E+02  0.71290426139E+03  0.72455588509E+03  0.00000000000E+00 0.  1.
         22    1    1    2    0    0  0.14458722579E+03  0.62285099623E+02 -0.94845535643E+03  0.96143250550E+03  0.00000000000E+00 0.  1.
<mgrwt>
<rscale>  0 0.19436026E+04</rscale>
<asrwt>0</asrwt>
<pdfrwt beam="1">  1        2 0.14823834E+00 0.19436026E+04</pdfrwt>
<pdfrwt beam="2">  1       -2 0.15078831E+00 0.19436026E+04</pdfrwt>
<totfact> 0.73339397E+00</totfact>
</mgrwt>
</event>
<event>
 6    1  0.6091287E-004  0.3390175E+04  0.7818608E-02  0.8140322E-01
         -2   -1    0    0    0  501 -0.00000000000E+00  0.00000000000E+00  0.23122384628E+04  0.23122384628E+04  0.00000000000E+00 0. -1.
          2   -1    0    0  501    0  0.00000000000E+00 -0.00000000000E+00 -0.12426577850E+04  0.12426577850E+04  0.00000000000E+00 0.  1.
         23    2    1    2    0    0  0.95985110951E+03  0.11029101629E+04  0.14319740917E+04  0.20485583155E+04  0.91194257367E+02 0.  0.
         13    1    3    3    0    0  0.77768638874E+03  0.93040272006E+03  0.11513950897E+04  0.16721710419E+04  0.00000000000E+00 0.  1.
        -13    1    3    3    0    0  0.18216472077E+03  0.17250744287E+03  0.28057900203E+03  0.37638727358E+03  0.00000000000E+00 0. -1.
         22    1    1    2    0    0 -0.95985110951E+03 -0.11029101629E+04 -0.36239341390E+03  0.15063379323E+04  0.00000000000E+00 0.  1.
<mgrwt>
<rscale>  0 0.33901747E+04</rscale>
<asrwt>0</asrwt>
<pdfrwt beam="1">  1        2 0.19117812E+00 0.33901747E+04</pdfrwt>
<pdfrwt beam="2">  1       -2 0.35572899E+00 0.33901747E+04</pdfrwt>
<totfact> 0.21191359E-01</totfact>
</mgrwt>
</event>
<event>
 6    1  0.6091287E-004  0.1207377E+04  0.7818608E-02  0.9106424E-01
         -2   -1    0    0    0  501 -0.00000000000E+00  0.00000000000E+00  0.94804623334E+02  0.94804623334E+02  0.00000000000E+00 0. -1.
          2   -1    0    0  501    0  0.00000000000E+00 -0.00000000000E+00 -0.38441144581E+04  0.38441144581E+04  0.00000000000E+00 0.  1.
         23    2    1    2    0    0  0.33866335520E+03  0.42965421157E+03 -0.26917444442E+04  0.27482301359E+04  0.89359483671E+02 0.  0.
         11    1    3    3    0    0  0.24712481501E+03  0.24769086930E+03 -0.17692952381E+04  0.18035595583E+04  0.00000000000E+00 0. -1.
        -11    1    3    3    0    0  0.91538540192E+02  0.18196334227E+03 -0.92244920615E+03  0.94467057760E+03  0.00000000000E+00 0.  1.
         22    1    1    2    0    0 -0.33866335520E+03 -0.42965421157E+03 -0.10575653905E+04  0.11906889455E+04  0.00000000000E+00 0.  1.
<mgrwt>
<rscale>  0 0.12073770E+04</rscale>
<asrwt>0</asrwt>
<pdfrwt beam="1">  1        2 0.59140236E+00 0.12073770E+04</pdfrwt>
<pdfrwt beam="2">  1       -2 0.14585323E-01 0.12073770E+04</pdfrwt>
<totfact> 0.17084857E+01</totfact>
</mgrwt>
</event>
<event>
 6    1  0.6091287E-004  0.1979398E+04  0.7818608E-02  0.8616314E-01
          2   -1    0    0  501    0  0.00000000000E+00  0.00000000000E+00  0.39072556399E+04  0.39072556399E+04  0.00000000000E+00 0.  1.
         -2   -1    0    0    0  501 -0.00000000000E+00 -0.00000000000E+00 -0.25068862151E+03  0.25068862151E+03  0.00000000000E+00 0. -1.
         23    2    1    2    0    0  0.55144987494E+03 -0.28747493450E+03  0.34437718586E+04  0.35006615349E+04  0.91256589309E+02 0.  0.
         11    1    3    3    0    0  0.31720273140E+03 -0.18486419962E+03  0.22551224739E+04  0.22848128408E+04  0.00000000000E+00 0.  1.
        -11    1    3    3    0    0  0.23424714354E+03 -0.10261073489E+03  0.11886493847E+04  0.12158486941E+04  0.00000000000E+00 0. -1.
         22    1    1    2    0    0 -0.55144987494E+03  0.28747493450E+03  0.21279515974E+03  0.65728272649E+03  0.00000000000E+00 0. -1.
<mgrwt>
<rscale>  0 0.19793984E+04</rscale>
<asrwt>0</asrwt>
<pdfrwt beam="1">  1        2 0.60111621E+00 0.19793984E+04</pdfrwt>
<pdfrwt beam="2">  1       -2 0.38567483E-01 0.19793984E+04</pdfrwt>
<totfact> 0.24217027E+00</totfact>
</mgrwt>
</event>
<event>
 6    1  0.6091287E-004  0.2474624E+04  0.7818608E-02  0.8412082E-01
         -2   -1    0    0    0  501 -0.00000000000E+00  0.00000000000E+00  0.68115900931E+03  0.68115900931E+03  0.00000000000E+00 0. -1.
          2   -1    0    0  501    0  0.00000000000E+00 -0.00000000000E+00 -0.22475533094E+04  0.22475533094E+04  0.00000000000E+00 0.  1.
         23    2    1    2    0    0 -0.99406950535E+03  0.33942132716E+03 -0.15541708716E+04  0.18782217519E+04  0.94280605180E+02 0.  0.
         11    1    3    3    0    0 -0.79791359174E+03  0.24665958689E+03 -0.12837526731E+04  0.15315116641E+04  0.00000000000E+00 0. -1.
        -11    1    3    3    0    0 -0.19615591361E+03  0.92761740271E+02 -0.27041819848E+03  0.34671008778E+03  0.00000000000E+00 0.  1.
         22    1    1    2    0    0  0.99406950535E+03 -0.33942132716E+03 -0.12223428543E+02  0.10504905668E+04  0.00000000000E+00 0.  1.
<mgrwt>
<rscale>  0 0.24746242E+04</rscale>
<asrwt>0</asrwt>
<pdfrwt beam="1">  1        2 0.34577743E+00 0.24746242E+04</pdfrwt>
<pdfrwt beam="2">  1       -2 0.10479369E+00 0.24746242E+04</pdfrwt>
<totfact> 0.32039781E+00</totfact>
</mgrwt>
</event>
<event>
 6    1  0.6091287E-004  0.2146166E+04  0.7818608E-02  0.8541175E-01
          2   -1    0    0  501    0  0.00000000000E+00  0.00000000000E+00  0.14423462552E+04  0.14423462552E+04  0.00000000000E+00 0.  1.
         -2   -1    0    0    0  501 -0.00000000000E+00 -0.00000000000E+00 -0.79835695034E+03  0.79835695034E+03  0.00000000000E+00 0. -1.
         23    2    1    2    0    0 -0.71594867444E+03 -0.57026378260E+03  0.90345581178E+03  0.12893325342E+04  0.91447764382E+02 0.  0.
         13    1    3    3    0    0 -0.13774497853E+03 -0.15447567280E+03  0.22502965814E+03  0.30573642184E+03  0.00000000000E+00 0.  1.
        -13    1    3    3    0    0 -0.57820369591E+03 -0.41578810980E+03  0.67842615364E+03  0.98359611232E+03  0.00000000000E+00 0. -1.
         22    1    1    2    0    0  0.71594867444E+03  0.57026378260E+03 -0.25946650691E+03  0.95137067139E+03  0.00000000000E+00 0. -1.
<mgrwt>
<rscale>  0 0.21461660E+04</rscale>
<asrwt>0</asrwt>
<pdfrwt beam="1">  1        2 0.22189942E+00 0.21461660E+04</pdfrwt>
<pdfrwt beam="2">  1       -2 0.12282415E+00 0.21461660E+04</pdfrwt>
<totfact> 0.62972083E+00</totfact>
</mgrwt>
</event>
<event>
 6    1  0.6091287E-004  0.4749952E+03  0.7818608E-02  0.1020520E+00
         -2   -1    0    0    0  501 -0.00000000000E+00  0.00000000000E+00  0.14454708777E+03  0.14454708777E+03  0.00000000000E+00 0. -1.
          2   -1    0    0  501    0  0.00000000000E+00 -0.00000000000E+00 -0.39021967852E+03  0.39021967852E+03  0.00000000000E+00 0.  1.
         23    2    1    2    0    0 -0.16901075487E+03  0.10427197295E+03  0.88567324345E+00  0.21817829974E+03  0.90353231555E+02 0.  0.
         11    1    3    3    0    0 -0.14430154867E+02  0.68503475517E+00  0.26660179245E+02  0.30322661484E+02  0.00000000000E+00 0.  1.
        -11    1    3    3    0    0 -0.15458060001E+03  0.10358693820E+03 -0.25774506001E+02  0.18785563825E+03  0.00000000000E+00 0. -1.
         22    1    1    2    0    0  0.16901075487E+03 -0.10427197295E+03 -0.24655826399E+03  0.31658846655E+03  0.00000000000E+00 0.  1.
<mgrwt>
<rscale>  0 0.47499523E+03</rscale>
<asrwt>0</asrwt>
<pdfrwt beam="1">  1        2 0.60033796E-01 0.47499523E+03</pdfrwt>
<pdfrwt beam="2">  1       -2 0.22238014E-01 0.47499523E+03</pdfrwt>
<totfact> 0.14429328E+03</totfact>
</mgrwt>
</event>
<event>
 6    1  0.6091287E-004  0.4984356E+03  0.7818608E-02  0.1014188E+00
          2   -1    0    0  501    0  0.00000000000E+00  0.00000000000E+00  0.84231316094E+03  0.84231316094E+03  0.00000000000E+00 0.  1.
         -2   -1    0    0    0  501 -0.00000000000E+00 -0.00000000000E+00 -0.73736838631E+02  0.73736838631E+02  0.00000000000E+00 0. -1.
         23    2    1    2    0    0 -0.78721690220E+02  0.13445488205E+03  0.59348075702E+02  0.18990956852E+03  0.90929809796E+02 0.  0.
         13    1    3    3    0    0 -0.61898578060E+02  0.99743731233E+02 -0.20419404882E+01  0.11740705007E+03  0.00000000000E+00 0. -1.
        -13    1    3    3    0    0 -0.16823112160E+02  0.34711150815E+02  0.61390016190E+02  0.72502518449E+02  0.00000000000E+00 0.  1.
         22    1    1    2    0    0  0.78721690220E+02 -0.13445488205E+03  0.70922824661E+03  0.72614043105E+03  0.00000000000E+00 0.  1.
<mgrwt>
<rscale>  0 0.49843559E+03</rscale>
<asrwt>0</asrwt>
<pdfrwt beam="1">  1        2 0.12958663E+00 0.49843559E+03</pdfrwt>
<pdfrwt beam="2">  1       -2 0.11344130E-01 0.49843559E+03</pdfrwt>
<totfact> 0.17998654E+03</totfact>
</mgrwt>
</event>
<event>
 6    1  0.6091287E-004  0.5949457E+04  0.7818608E-02  0.7696700E-01
         -2   -1    0    0    0  501 -0.00000000000E+00  0.00000000000E+00  0.25609223213E+04  0.25609223213E+04  0.00000000000E+00 0. -1.
          2   -1    0    0  501    0  0.00000000000E+00 -0.00000000000E+00 -0.34553991513E+04  0.34553991513E+04  0.00000000000E+00 0.  1.
         23    2    1    2    0    0 -0.19728281072E+04 -0.20746800333E+04 -0.12616563427E+04  0.31299450634E+04  0.91822611116E+02 0.  0.
         11    1    3    3    0    0 -0.56773840027E+03 -0.58513523286E+03 -0.31516316410E+03  0.87409264491E+03  0.00000000000E+00 0. -1.
        -11    1    3    3    0    0 -0.14050897069E+04 -0.14895448004E+04 -0.94649317860E+03  0.22558524185E+04  0.00000000000E+00 0.  1.
         22    1    1    2    0    0  0.19728281072E+04  0.20746800333E+04  0.36717951276E+03  0.28863764092E+04  0.00000000000E+00 0.  1.
<mgrwt>
<rscale>  0 0.59494567E+04</rscale>
<asrwt>0</asrwt>
<pdfrwt beam="1">  1        2 0.53159987E+00 0.59494567E+04</pdfrwt>
<pdfrwt beam="2">  1       -2 0.39398805E+00 0.59494567E+04</pdfrwt>
<totfact> 0.47902251E-03</totfact>
</mgrwt>
</event>
<event>
 6    1  0.6091287E-004  0.2372876E+04  0.7818608E-02  0.8449729E-01
         -2   -1    0    0    0  501 -0.00000000000E+00  0.00000000000E+00  0.10326952397E+04  0.10326952397E+04  0.00000000000E+00 0. -1.
          2   -1    0    0  501    0  0.00000000000E+00 -0.00000000000E+00 -0.13630694625E+04  0.13630694625E+04  0.00000000000E+00 0.  1.
         23    2    1    2    0    0  0.62723232831E+03  0.19144627665E+03 -0.11614567831E+04  0.13371003114E+04  0.93719331698E+02 0.  0.
         13    1    3    3    0    0  0.37283729201E+03  0.15857223572E+03 -0.74275924196E+03  0.84607570097E+03  0.00000000000E+00 0. -1.
        -13    1    3    3    0    0  0.25439503630E+03  0.32874040934E+02 -0.41869754113E+03  0.49102461039E+03  0.00000000000E+00 0.  1.
         22    1    1    2    0    0 -0.62723232831E+03 -0.19144627665E+03  0.83108256024E+03  0.10586643909E+04  0.00000000000E+00 0. -1.
<mgrwt>
<rscale>  0 0.23728762E+04</rscale>
<asrwt>0</asrwt>
<pdfrwt beam="1">  1        2 0.20970299E+00 0.23728762E+04</pdfrwt>
<pdfrwt beam="2">  1       -2 0.15887619E+00 0.23728762E+04</pdfrwt>
<totfact> 0.35168881E+00</totfact>
</mgrwt>
</event>
<event>
 6    1  0.6091287E-004  0.1851942E+04  0.7818608E-02  0.8679155E-01
          4   -1    0    0  501    0  0.00000000000E+00  0.00000000000E+00  0.66290981595E+03  0.66290981595E+03  0.00000000000E+00 0.  1.
         -4   -1    0    0    0  501 -0.00000000000E+00 -0.00000000000E+00 -0.12934220982E+04  0.12934220982E+04  0.00000000000E+00 0. -1.
         23    2    1    2    0    0 -0.34012590962E+03  0.49366927999E+03 -0.10585426367E+04  0.12197146616E+04  0.88296940678E+02 0.  0.
         11    1    3    3    0    0 -0.27634749182E+03  0.45106348315E+03 -0.91186809666E+03  0.10541961998E+04  0.00000000000E+00 0. -1.
        -11    1    3    3    0    0 -0.63778417803E+02  0.42605796835E+02 -0.14667454003E+03  0.16551846179E+03  0.00000000000E+00 0.  1.
         22    1    1    2    0    0  0.34012590962E+03 -0.49366927999E+03  0.42803035443E+03  0.73661725252E+03  0.00000000000E+00 0.  1.
<mgrwt>
<rscale>  0 0.18519419E+04</rscale>
<asrwt>0</asrwt>
<pdfrwt beam="1">  1        4 0.10198613E+00 0.18519419E+04</pdfrwt>
<pdfrwt beam="2">  1       -4 0.19898801E+00 0.18519419E+04</pdfrwt>
<totfact> 0.19797669E-01</totfact>
</mgrwt>
</event>
<event>
 6    1  0.6091287E-004  0.1838001E+04  0.7818608E-02  0.8686348E-01
         -2   -1    0    0    0  501 -0.00000000000E+00  0.00000000000E+00  0.46231262703E+03  0.46231262703E+03  0.00000000000E+00 0. -1.
          2   -1    0    0  501    0  0.00000000000E+00 -0.00000000000E+00 -0.18268190740E+04  0.18268190740E+04  0.00000000000E+00 0.  1.
         23    2    1    2    0    0  0.12630575636E+03 -0.86989076522E+03 -0.10076922602E+04  0.13404592331E+04  0.93403302106E+02 0.  0.
         11    1    3    3    0    0  0.81827617450E+02 -0.60854814770E+03 -0.76596509457E+03  0.98169706792E+03  0.00000000000E+00 0.  1.
        -11    1    3    3    0    0  0.44478138910E+02 -0.26134261752E+03 -0.24172716567E+03  0.35876216522E+03  0.00000000000E+00 0. -1.
         22    1    1    2    0    0 -0.12630575636E+03  0.86989076522E+03 -0.35681418675E+03  0.94867246791E+03  0.00000000000E+00 0.  1.
<mgrwt>
<rscale>  0 0.18380006E+04</rscale>
<asrwt>0</asrwt>
<pdfrwt beam="1">  1        2 0.28104909E+00 0.18380006E+04</pdfrwt>
<pdfrwt beam="2">  1       -2 0.71125019E-01 0.18380006E+04</pdfrwt>
<totfact> 0.14086181E+01</totfact>
</mgrwt>
</event>
<event>
 6    1  0.6091287E-004  0.9646145E+03  0.7818608E-02  0.9348230E-01
         -2   -1    0    0    0  501 -0.00000000000E+00  0.00000000000E+00  0.36427406378E+03  0.36427406378E+03  0.00000000000E+00 0. -1.
          2   -1    0    0  501    0  0.00000000000E+00 -0.00000000000E+00 -0.63858592141E+03  0.63858592141E+03  0.00000000000E+00 0.  1.
         23    2    1    2    0    0  0.26309698377E+03 -0.39758179467E+03 -0.10349685198E+03  0.49643222876E+03  0.91880645719E+02 0.  0.
         13    1    3    3    0    0  0.11399910122E+03 -0.12577070771E+03 -0.73464770878E+02  0.18496253284E+03  0.00000000000E+00 0. -1.
        -13    1    3    3    0    0  0.14909788255E+03 -0.27181108697E+03 -0.30032081102E+02  0.31146969592E+03  0.00000000000E+00 0.  1.
         22    1    1    2    0    0 -0.26309698377E+03  0.39758179467E+03 -0.17081500565E+03  0.50642775643E+03  0.00000000000E+00 0.  1.
<mgrwt>
<rscale>  0 0.96461451E+03</rscale>
<asrwt>0</asrwt>
<pdfrwt beam="1">  1        2 0.98243987E-01 0.96461451E+03</pdfrwt>
<pdfrwt beam="2">  1       -2 0.56042164E-01 0.96461451E+03</pdfrwt>
<totfact> 0.13748479E+02</totfact>
</mgrwt>
</event>
<event>
 6    1  0.6091287E-004  0.2018994E+04  0.7818608E-02  0.8597792E-01
         -2   -1    0    0    0  501 -0.00000000000E+00  0.00000000000E+00  0.62363713200E+03  0.62363713200E+03  0.00000000000E+00 0. -1.
          2   -1    0    0  501    0  0.00000000000E+00 -0.00000000000E+00 -0.16340975030E+04  0.16340975030E+04  0.00000000000E+00 0.  1.
         23    2    1    2    0    0 -0.64769266418E+03 -0.34659832014E+03 -0.12769017718E+04  0.14763082451E+04  0.96807629721E+02 0.  0.
         13    1    3    3    0    0 -0.33429004810E+03 -0.23079225149E+03 -0.73048792783E+03  0.83583940582E+03  0.00000000000E+00 0.  1.
        -13    1    3    3    0    0 -0.31340261608E+03 -0.11580606865E+03 -0.54641384394E+03  0.64046883933E+03  0.00000000000E+00 0. -1.
         22    1    1    2    0    0  0.64769266418E+03  0.34659832014E+03  0.26644140075E+03  0.78142638987E+03  0.00000000000E+00 0. -1.
<mgrwt>
<rscale>  0 0.20189937E+04</rscale>
<asrwt>0</asrwt>
<pdfrwt beam="1">  1        2 0.25139962E+00 0.20189937E+04</pdfrwt>
<pdfrwt beam="2">  1       -2 0.95944174E-01 0.20189937E+04</pdfrwt>
<totfact> 0.90164835E+00</totfact>
</mgrwt>
</event>
<event>
 6    1  0.6091287E-004  0.1574126E+04  0.7818608E-02  0.8836603E-01
         -2   -1    0    0    0  501 -0.00000000000E+00  0.00000000000E+00  0.25580015971E+03  0.25580015971E+03  0.00000000000E+00 0. -1.
          2   -1    0    0  501    0  0.00000000000E+00 -0.00000000000E+00 -0.24216868841E+04  0.24216868841E+04  0.00000000000E+00 0.  1.
         23    2    1    2    0    0  0.67178569340E+03  0.81074888355E+02 -0.17623841872E+04  0.18896523829E+04  0.83180224059E+02 0.  0.
         11    1    3    3    0    0  0.21245690320E+03 -0.11586512415E+02 -0.58070543872E+03  0.61845855928E+03  0.00000000000E+00 0.  1.
        -11    1    3    3    0    0  0.45932879020E+03  0.92661400770E+02 -0.11816787484E+04  0.12711938236E+04  0.00000000000E+00 0. -1.
         22    1    1    2    0    0 -0.67178569340E+03 -0.81074888355E+02 -0.40350253722E+03  0.78783466091E+03  0.00000000000E+00 0. -1.
<mgrwt>
<rscale>  0 0.15741257E+04</rscale>
<asrwt>0</asrwt>
<pdfrwt beam="1">  1        2 0.37256722E+00 0.15741257E+04</pdfrwt>
<pdfrwt beam="2">  1       -2 0.39353870E-01 0.15741257E+04</pdfrwt>
<totfact> 0.22705607E+01</totfact>
</mgrwt>
</event>
<event>
 6    1  0.6091287E-004  0.1963489E+04  0.7818608E-02  0.8623884E-01
          2   -1    0    0  501    0  0.00000000000E+00  0.00000000000E+00  0.13633390739E+04  0.13633390739E+04  0.00000000000E+00 0.  1.
         -2   -1    0    0    0  501 -0.00000000000E+00 -0.00000000000E+00 -0.70695706521E+03  0.70695706521E+03  0.00000000000E+00 0. -1.
         23    2    1    2    0    0 -0.65807849092E+03  0.61087476585E+03 -0.84169057523E+02  0.90640131508E+03  0.90794459992E+02 0.  0.
         11    1    3    3    0    0 -0.63759759074E+03  0.56393773913E+03 -0.76866306746E+02  0.85467238778E+03  0.00000000000E+00 0.  1.
        -11    1    3    3    0    0 -0.20480900179E+02  0.46937026726E+02 -0.73027507766E+01  0.51728927293E+02  0.00000000000E+00 0. -1.
         22    1    1    2    0    0  0.65807849092E+03 -0.61087476585E+03  0.74055106624E+03  0.11638948241E+04  0.00000000000E+00 0.  1.
<mgrwt>
<rscale>  0 0.19634889E+04</rscale>
<asrwt>0</asrwt>
<pdfrwt beam="1">  1        2 0.20974447E+00 0.19634889E+04</pdfrwt>
<pdfrwt beam="2">  1       -2 0.10876263E+00 0.19634889E+04</pdfrwt>
<totfact> 0.95594223E+00</totfact>
</mgrwt>
</event>
<event>
 6    1  0.6091287E-004  0.2607841E+04  0.7818608E-02  0.8365543E-01
         -2   -1    0    0    0  501 -0.00000000000E+00  0.00000000000E+00  0.13578452730E+04  0.13578452730E+04  0.00000000000E+00 0. -1.
          2   -1    0    0  501    0  0.00000000000E+00 -0.00000000000E+00 -0.12521373408E+04  0.12521373408E+04  0.00000000000E+00 0.  1.
         23    2    1    2    0    0 -0.58032968643E+03 -0.12007564247E+03 -0.11079701567E+04  0.12593475009E+04  0.84602334427E+02 0.  0.
         11    1    3    3    0    0 -0.60617088453E+02 -0.31369746622E+02 -0.90066797787E+02  0.11300672758E+03  0.00000000000E+00 0. -1.
        -11    1    3    3    0    0 -0.51971259797E+03 -0.88705895849E+02 -0.10179033589E+04  0.11463407733E+04  0.00000000000E+00 0.  1.
         22    1    1    2    0    0  0.58032968643E+03  0.12007564247E+03  0.12136780888E+04  0.13506351129E+04  0.00000000000E+00 0. -1.
<mgrwt>
<rscale>  0 0.26078411E+04</rscale>
<asrwt>0</asrwt>
<pdfrwt beam="1">  1        2 0.19263651E+00 0.26078411E+04</pdfrwt>
<pdfrwt beam="2">  1       -2 0.20889927E+00 0.26078411E+04</pdfrwt>
<totfact> 0.18146348E+00</totfact>
</mgrwt>
</event>
<event>
 6    1  0.6091287E-004  0.2974366E+04  0.7818608E-02  0.8251089E-01
          2   -1    0    0  501    0  0.00000000000E+00  0.00000000000E+00  0.35401064372E+04  0.35401064372E+04  0.00000000000E+00 0.  1.
         -2   -1    0    0    0  501 -0.00000000000E+00 -0.00000000000E+00 -0.62475895545E+03  0.62475895545E+03  0.00000000000E+00 0. -1.
         23    2    1    2    0    0 -0.36524456670E+02 -0.14514814038E+04  0.19004441824E+04  0.23933798554E+04  0.91906149507E+02 0.  0.
         11    1    3    3    0    0 -0.61274174443E+02 -0.11797399338E+04  0.15153668493E+04  0.19214259090E+04  0.00000000000E+00 0. -1.
        -11    1    3    3    0    0  0.24749717773E+02 -0.27174147001E+03  0.38507733316E+03  0.47195394645E+03  0.00000000000E+00 0.  1.
         22    1    1    2    0    0  0.36524456670E+02  0.14514814038E+04  0.10149032993E+04  0.17714855372E+04  0.00000000000E+00 0. -1.
<mgrwt>
<rscale>  0 0.29743659E+04</rscale>
<asrwt>0</asrwt>
<pdfrwt beam="1">  1        2 0.54463175E+00 0.29743659E+04</pdfrwt>
<pdfrwt beam="2">  1       -2 0.96116764E-01 0.29743659E+04</pdfrwt>
<totfact> 0.59217176E-01</totfact>
</mgrwt>
</event>
<event>
 6    1  0.6091287E-004  0.2006237E+04  0.7818608E-02  0.8603710E-01
         -2   -1    0    0    0  501 -0.00000000000E+00  0.00000000000E+00  0.83305158582E+03  0.83305158582E+03  0.00000000000E+00 0. -1.
          2   -1    0    0  501    0  0.00000000000E+00 -0.00000000000E+00 -0.12079046573E+04  0.12079046573E+04  0.00000000000E+00 0.  1.
         23    2    1    2    0    0 -0.41520162577E+03  0.12463431998E+03 -0.11056653367E+04  0.11912429558E+04  0.92939976455E+02 0.  0.
         13    1    3    3    0    0 -0.26381554246E+03  0.11767374825E+03 -0.65782362461E+03  0.71845505953E+03  0.00000000000E+00 0.  1.
        -13    1    3    3    0    0 -0.15138608331E+03  0.69605717338E+01 -0.44784171209E+03  0.47278789628E+03  0.00000000000E+00 0. -1.
         22    1    1    2    0    0  0.41520162577E+03 -0.12463431998E+03  0.73081226518E+03  0.84971328735E+03  0.00000000000E+00 0. -1.
<mgrwt>
<rscale>  0 0.20062372E+04</rscale>
<asrwt>0</asrwt>
<pdfrwt beam="1">  1        2 0.18583149E+00 0.20062372E+04</pdfrwt>
<pdfrwt beam="2">  1       -2 0.12816178E+00 0.20062372E+04</pdfrwt>
<totfact> 0.78343544E+00</totfact>
</mgrwt>
</event>
<event>
 6    1  0.6091287E-004  0.2662109E+04  0.7818608E-02  0.8347405E-01
         -2   -1    0    0    0  501 -0.00000000000E+00  0.00000000000E+00  0.74896584765E+03  0.74896584765E+03  0.00000000000E+00 0. -1.
          2   -1    0    0  501    0  0.00000000000E+00 -0.00000000000E+00 -0.23655369103E+04  0.23655369103E+04  0.00000000000E+00 0.  1.
         23    2    1    2    0    0 -0.97403165376E+02 -0.47724047910E+03 -0.22564528415E+04  0.23103295536E+04  0.93794289998E+02 0.  0.
         11    1    3    3    0    0 -0.42271601547E+02 -0.91138833528E+02 -0.61683945312E+03  0.62496726810E+03  0.00000000000E+00 0.  1.
        -11    1    3    3    0    0 -0.55131563829E+02 -0.38610164557E+03 -0.16396133884E+04  0.16853622855E+04  0.00000000000E+00 0. -1.
         22    1    1    2    0    0  0.97403165376E+02  0.47724047910E+03  0.63988177890E+03  0.80417320428E+03  0.00000000000E+00 0. -1.
<mgrwt>
<rscale>  0 0.26621092E+04</rscale>
<asrwt>0</asrwt>
<pdfrwt beam="1">  1        2 0.36392875E+00 0.26621092E+04</pdfrwt>
<pdfrwt beam="2">  1       -2 0.11522552E+00 0.26621092E+04</pdfrwt>
<totfact> 0.21481033E+00</totfact>
</mgrwt>
</event>
<event>
 6    1  0.6091287E-004  0.1802172E+04  0.7818608E-02  0.8705145E-01
          2   -1    0    0  501    0  0.00000000000E+00  0.00000000000E+00  0.20530685754E+03  0.20530685754E+03  0.00000000000E+00 0.  1.
         -2   -1    0    0    0  501 -0.00000000000E+00 -0.00000000000E+00 -0.39548430371E+04  0.39548430371E+04  0.00000000000E+00 0. -1.
         23    2    1    2    0    0  0.45545456046E+03  0.73939550336E+03 -0.24144499104E+04  0.25674792089E+04  0.90755448103E+02 0.  0.
         11    1    3    3    0    0  0.17490050634E+03  0.22474179319E+03 -0.70593472514E+03  0.76121146659E+03  0.00000000000E+00 0. -1.
        -11    1    3    3    0    0  0.28055405412E+03  0.51465371018E+03 -0.17085151853E+04  0.18062677423E+04  0.00000000000E+00 0.  1.
         22    1    1    2    0    0 -0.45545456046E+03 -0.73939550336E+03 -0.13350862691E+04  0.15926706857E+04  0.00000000000E+00 0. -1.
<mgrwt>
<rscale>  0 0.18021725E+04</rscale>
<asrwt>0</asrwt>
<pdfrwt beam="1">  1        2 0.31585673E-01 0.18021725E+04</pdfrwt>
<pdfrwt beam="2">  1       -2 0.60843733E+00 0.18021725E+04</pdfrwt>
<totfact> 0.73053289E-02</totfact>
</mgrwt>
</event>
<event>
 6    1  0.6091287E-004  0.1475953E+04  0.7818608E-02  0.8900603E-01
          2   -1    0    0  501    0  0.00000000000E+00  0.00000000000E+00  0.84348327610E+03  0.84348327610E+03  0.00000000000E+00 0.  1.
         -2   -1    0    0    0  501 -0.00000000000E+00 -0.00000000000E+00 -0.64566689415E+03  0.64566689415E+03  0.00000000000E+00 0. -1.
         23    2    1    2    0    0  0.39229742816E+03 -0.40354802296E+03 -0.37874235077E+03  0.68344038921E+03  0.83046483083E+02 0.  0.
         11    1    3    3    0    0  0.16689933919E+03 -0.12655045482E+03 -0.17025142149E+03  0.26991842018E+03  0.00000000000E+00 0.  1.
        -11    1    3    3    0    0  0.22539808897E+03 -0.27699756815E+03 -0.20849092929E+03  0.41352196902E+03  0.00000000000E+00 0. -1.
         22    1    1    2    0    0 -0.39229742816E+03  0.40354802296E+03  0.57655873272E+03  0.80570978104E+03  0.00000000000E+00 0.  1.
<mgrwt>
<rscale>  0 0.14759529E+04</rscale>
<asrwt>0</asrwt>
<pdfrwt beam="1">  1        2 0.12976666E+00 0.14759529E+04</pdfrwt>
<pdfrwt beam="2">  1       -2 0.99333369E-01 0.14759529E+04</pdfrwt>
<totfact> 0.26058837E+01</totfact>
</mgrwt>
</event>
<event>
 6    1  0.6091287E-004  0.1031806E+04  0.7818608E-02  0.9274333E-01
          2   -1    0    0  501    0  0.00000000000E+00  0.00000000000E+00  0.32216927205E+03  0.32216927205E+03  0.00000000000E+00 0.  1.
         -2   -1    0    0    0  501 -0.00000000000E+00 -0.00000000000E+00 -0.82613661223E+03  0.82613661223E+03  0.00000000000E+00 0. -1.
         23    2    1    2    0    0 -0.43667406111E+03 -0.14379126691E+03 -0.38693513003E+01  0.46899876482E+03  0.92653685498E+02 0.  0.
         11    1    3    3    0    0 -0.91247082467E+02  0.78192767586E+01 -0.57227461732E+01  0.91760127351E+02  0.00000000000E+00 0. -1.
        -11    1    3    3    0    0 -0.34542697864E+03 -0.15161054367E+03  0.18533948729E+01  0.37723863746E+03  0.00000000000E+00 0.  1.
         22    1    1    2    0    0  0.43667406111E+03  0.14379126691E+03 -0.50009798888E+03  0.67930711947E+03  0.00000000000E+00 0. -1.
<mgrwt>
<rscale>  0 0.10318059E+04</rscale>
<asrwt>0</asrwt>
<pdfrwt beam="1">  1        2 0.49564504E-01 0.10318059E+04</pdfrwt>
<pdfrwt beam="2">  1       -2 0.12709794E+00 0.10318059E+04</pdfrwt>
<totfact> 0.46437489E+01</totfact>
</mgrwt>
</event>
<event>
 6    1  0.6091287E-004  0.3380002E+04  0.7818608E-02  0.8142832E-01
          2   -1    0    0  501    0  0.00000000000E+00  0.00000000000E+00  0.19542818610E+04  0.19542818610E+04  0.00000000000E+00 0.  1.
         -2   -1    0    0    0  501 -0.00000000000E+00 -0.00000000000E+00 -0.14614589296E+04  0.14614589296E+04  0.00000000000E+00 0. -1.
         23    2    1    2    0    0  0.16019646191E+03 -0.42023149205E+03 -0.13983867278E+04  0.14717934178E+04  0.91831426499E+02 0.  0.
         13    1    3    3    0    0  0.59793415944E+02 -0.26966924744E+03 -0.77961885252E+03  0.82710477620E+03  0.00000000000E+00 0. -1.
        -13    1    3    3    0    0  0.10040304597E+03 -0.15056224461E+03 -0.61876787523E+03  0.64468864156E+03  0.00000000000E+00 0.  1.
         22    1    1    2    0    0 -0.16019646191E+03  0.42023149205E+03  0.18912096592E+04  0.19439473729E+04  0.00000000000E+00 0.  1.
<mgrwt>
<rscale>  0 0.33800016E+04</rscale>
<asrwt>0</asrwt>
<pdfrwt beam="1">  1        2 0.30065875E+00 0.33800016E+04</pdfrwt>
<pdfrwt beam="2">  1       -2 0.22483983E+00 0.33800016E+04</pdfrwt>
<totfact> 0.54153215E-01</totfact>
</mgrwt>
</event>
<event>
 6    1  0.6091287E-004  0.1585775E+04  0.7818608E-02  0.8829335E-01
          2   -1    0    0  501    0  0.00000000000E+00  0.00000000000E+00  0.17654105900E+04  0.17654105900E+04  0.00000000000E+00 0.  1.
         -2   -1    0    0    0  501 -0.00000000000E+00 -0.00000000000E+00 -0.35610465024E+03  0.35610465024E+03  0.00000000000E+00 0. -1.
         23    2    1    2    0    0  0.54271446011E+03 -0.35833464311E+03  0.13079158973E+04  0.14633187328E+04  0.87835174650E+02 0.  0.
         13    1    3    3    0    0  0.45915663952E+03 -0.28120868111E+03  0.11368481114E+04  0.12579057080E+04  0.00000000000E+00 0. -1.
        -13    1    3    3    0    0  0.83557820585E+02 -0.77125961995E+02  0.17106778591E+03  0.20541302483E+03  0.00000000000E+00 0.  1.
         22    1    1    2    0    0 -0.54271446011E+03  0.35833464311E+03  0.10139004253E+03  0.65819650742E+03  0.00000000000E+00 0. -1.
<mgrwt>
<rscale>  0 0.15857754E+04</rscale>
<asrwt>0</asrwt>
<pdfrwt beam="1">  1        2 0.27160162E+00 0.15857754E+04</pdfrwt>
<pdfrwt beam="2">  1       -2 0.54785332E-01 0.15857754E+04</pdfrwt>
<totfact> 0.27135227E+01</totfact>
</mgrwt>
</event>
<event>
 6    1  0.6091287E-004  0.3365249E+04  0.7818608E-02  0.8146488E-01
         -2   -1    0    0    0  501 -0.00000000000E+00  0.00000000000E+00  0.21269730209E+04  0.21269730209E+04  0.00000000000E+00 0. -1.
          2   -1    0    0  501    0  0.00000000000E+00 -0.00000000000E+00 -0.13311052982E+04  0.13311052982E+04  0.00000000000E+00 0.  1.
         23    2    1    2    0    0  0.43564951021E+03  0.56206387529E+03  0.19637578809E+04  0.20907181919E+04  0.95138044025E+02 0.  0.
         13    1    3    3    0    0  0.16850505692E+03  0.23458226831E+03  0.93299743642E+03  0.97668163246E+03  0.00000000000E+00 0. -1.
        -13    1    3    3    0    0  0.26714445329E+03  0.32748160698E+03  0.10307604445E+04  0.11140365595E+04  0.00000000000E+00 0.  1.
         22    1    1    2    0    0 -0.43564951021E+03 -0.56206387529E+03 -0.11678901583E+04  0.13673601272E+04  0.00000000000E+00 0.  1.
<mgrwt>
<rscale>  0 0.33652489E+04</rscale>
<asrwt>0</asrwt>
<pdfrwt beam="1">  1        2 0.20478543E+00 0.33652489E+04</pdfrwt>
<pdfrwt beam="2">  1       -2 0.32722662E+00 0.33652489E+04</pdfrwt>
<totfact> 0.28445321E-01</totfact>
</mgrwt>
</event>
<event>
 6    1  0.8332847E-004  0.4071483E+04  0.7818608E-02  0.7990279E-01
          2   -1    0    0  501    0  0.00000000000E+00  0.00000000000E+00  0.19995821363E+04  0.19995821363E+04  0.00000000000E+00 0.  1.
         -2   -1    0    0    0  501 -0.00000000000E+00 -0.00000000000E+00 -0.20725548464E+04  0.20725548464E+04  0.00000000000E+00 0. -1.
         23    2    1    2    0    0 -0.49814802108E+03  0.13542384493E+04  0.13982855150E+04  0.20113812976E+04  0.91318753299E+02 0.  0.
         13    1    3    3    0    0 -0.53494472111E+02  0.11203566446E+03  0.90193700781E+02  0.15345537566E+03  0.00000000000E+00 0. -1.
        -13    1    3    3    0    0 -0.44465354897E+03  0.12422027848E+04  0.13080918142E+04  0.18579259220E+04  0.00000000000E+00 0.  1.
         22    1    1    2    0    0  0.49814802108E+03 -0.13542384493E+04 -0.14712582252E+04  0.20607556851E+04  0.00000000000E+00 0. -1.
<mgrwt>
<rscale>  0 0.40714831E+04</rscale>
<asrwt>0</asrwt>
<pdfrwt beam="1">  1        2 0.30762802E+00 0.40714831E+04</pdfrwt>
<pdfrwt beam="2">  1       -2 0.31885459E+00 0.40714831E+04</pdfrwt>
<totfact> 0.12760151E-01</totfact>
</mgrwt>
</event>
<event>
 6    1  0.6091287E-004  0.9523211E+03  0.7818608E-02  0.9362442E-01
         -1   -1    0    0    0  501 -0.00000000000E+00  0.00000000000E+00  0.71131594191E+03  0.71131594191E+03  0.00000000000E+00 0.  1.
          1   -1    0    0  501    0  0.00000000000E+00 -0.00000000000E+00 -0.31874564788E+03  0.31874564788E+03  0.00000000000E+00 0. -1.
         23    2    1    2    0    0  0.36993367493E+03 -0.10440236130E+02  0.51459502849E+03  0.64038228805E+03  0.91222306059E+02 0.  0.
         13    1    3    3    0    0  0.31330093119E+03 -0.32062735233E+02  0.46718407906E+03  0.56342386904E+03  0.00000000000E+00 0.  1.
        -13    1    3    3    0    0  0.56632743738E+02  0.21622499103E+02  0.47410949435E+02  0.76958419013E+02  0.00000000000E+00 0. -1.
         22    1    1    2    0    0 -0.36993367493E+03  0.10440236130E+02 -0.12202473447E+03  0.38967930173E+03  0.00000000000E+00 0. -1.
<mgrwt>
<rscale>  0 0.95232108E+03</rscale>
<asrwt>0</asrwt>
<pdfrwt beam="1">  1        1 0.49037792E-01 0.95232108E+03</pdfrwt>
<pdfrwt beam="2">  1       -1 0.10943322E+00 0.95232108E+03</pdfrwt>
<totfact> 0.62931456E+01</totfact>
</mgrwt>
</event>
<event>
 6    1  0.6091287E-004  0.3212460E+04  0.7818608E-02  0.8185534E-01
          2   -1    0    0  501    0  0.00000000000E+00  0.00000000000E+00  0.26029812858E+04  0.26029812858E+04  0.00000000000E+00 0.  1.
         -2   -1    0    0    0  501 -0.00000000000E+00 -0.00000000000E+00 -0.99116126635E+03  0.99116126635E+03  0.00000000000E+00 0. -1.
         23    2    1    2    0    0 -0.33475096992E+03 -0.31638586217E+03 -0.91349027793E+03  0.10271695637E+04  0.91948893258E+02 0.  0.
         13    1    3    3    0    0 -0.17022237804E+03 -0.13271613965E+03 -0.51709650732E+03  0.56033742477E+03  0.00000000000E+00 0.  1.
        -13    1    3    3    0    0 -0.16452859188E+03 -0.18366972252E+03 -0.39639377061E+03  0.46683213888E+03  0.00000000000E+00 0. -1.
         22    1    1    2    0    0  0.33475096992E+03  0.31638586217E+03  0.25253102973E+04  0.25669729885E+04  0.00000000000E+00 0.  1.
<mgrwt>
<rscale>  0 0.32124596E+04</rscale>
<asrwt>0</asrwt>
<pdfrwt beam="1">  1        2 0.40045866E+00 0.32124596E+04</pdfrwt>
<pdfrwt beam="2">  1       -2 0.15248635E+00 0.32124596E+04</pdfrwt>
<totfact> 0.73102249E-01</totfact>
</mgrwt>
</event>
<event>
 6    1  0.6091287E-004  0.2238388E+04  0.7818608E-02  0.8502618E-01
          2   -1    0    0  501    0  0.00000000000E+00  0.00000000000E+00  0.19273196117E+04  0.19273196117E+04  0.00000000000E+00 0.  1.
         -2   -1    0    0    0  501 -0.00000000000E+00 -0.00000000000E+00 -0.64991538711E+03  0.64991538711E+03  0.00000000000E+00 0. -1.
         23    2    1    2    0    0  0.92976670559E+03  0.23141339731E+03  0.13034904748E+04  0.16187472421E+04  0.56894012943E+02 0.  0.
         13    1    3    3    0    0  0.52529939989E+03  0.15834791519E+03  0.73058018297E+03  0.91365251902E+03  0.00000000000E+00 0.  1.
        -13    1    3    3    0    0  0.40446730570E+03  0.73065482119E+02  0.57291029186E+03  0.70509472312E+03  0.00000000000E+00 0. -1.
         22    1    1    2    0    0 -0.92976670559E+03 -0.23141339731E+03 -0.26086250203E+02  0.95848775669E+03  0.00000000000E+00 0. -1.
<mgrwt>
<rscale>  0 0.22383875E+04</rscale>
<asrwt>0</asrwt>
<pdfrwt beam="1">  1        2 0.29651071E+00 0.22383875E+04</pdfrwt>
<pdfrwt beam="2">  1       -2 0.99986984E-01 0.22383875E+04</pdfrwt>
<totfact> 0.55204469E+00</totfact>
</mgrwt>
</event>
<event>
 6    1  0.6091287E-004  0.3369412E+04  0.7818608E-02  0.8145455E-01
         -2   -1    0    0    0  501 -0.00000000000E+00  0.00000000000E+00  0.20962622428E+04  0.20962622428E+04  0.00000000000E+00 0. -1.
          2   -1    0    0  501    0  0.00000000000E+00 -0.00000000000E+00 -0.13539499106E+04  0.13539499106E+04  0.00000000000E+00 0.  1.
         23    2    1    2    0    0  0.12378583907E+04  0.10877836976E+04  0.72411336365E+03  0.18022139828E+04  0.89823762508E+02 0.  0.
         11    1    3    3    0    0  0.94915485736E+03  0.78988905841E+03  0.51960296875E+03  0.13397040393E+04  0.00000000000E+00 0. -1.
        -11    1    3    3    0    0  0.28870353331E+03  0.29789463918E+03  0.20451039491E+03  0.46250994348E+03  0.00000000000E+00 0.  1.
         22    1    1    2    0    0 -0.12378583907E+04 -0.10877836976E+04  0.18198968535E+02  0.16479981707E+04  0.00000000000E+00 0.  1.
<mgrwt>
<rscale>  0 0.33694119E+04</rscale>
<asrwt>0</asrwt>
<pdfrwt beam="1">  1        2 0.20829999E+00 0.33694119E+04</pdfrwt>
<pdfrwt beam="2">  1       -2 0.32250188E+00 0.33694119E+04</pdfrwt>
<totfact> 0.29508280E-01</totfact>
</mgrwt>
</event>
<event>
 6    1  0.6091287E-004  0.1792952E+04  0.7818608E-02  0.8710056E-01
         -2   -1    0    0    0  501 -0.00000000000E+00  0.00000000000E+00  0.11434960390E+04  0.11434960390E+04  0.00000000000E+00 0. -1.
          2   -1    0    0  501    0  0.00000000000E+00 -0.00000000000E+00 -0.70281769934E+03  0.70281769934E+03  0.00000000000E+00 0.  1.
         23    2    1    2    0    0  0.83971463570E+03  0.30687339167E+03  0.24949937442E+03  0.93207014683E+03  0.84928633895E+02 0.  0.
         11    1    3    3    0    0  0.64073864248E+03  0.25497331795E+03  0.16070346489E+03  0.70808403771E+03  0.00000000000E+00 0. -1.
        -11    1    3    3    0    0  0.19897599322E+03  0.51900073727E+02  0.88795909533E+02  0.22398610912E+03  0.00000000000E+00 0.  1.
         22    1    1    2    0    0 -0.83971463570E+03 -0.30687339167E+03  0.19117896529E+03  0.91424359155E+03  0.00000000000E+00 0. -1.
<mgrwt>
<rscale>  0 0.17929520E+04</rscale>
<asrwt>0</asrwt>
<pdfrwt beam="1">  1        2 0.10812580E+00 0.17929520E+04</pdfrwt>
<pdfrwt beam="2">  1       -2 0.17592247E+00 0.17929520E+04</pdfrwt>
<totfact> 0.74484667E+00</totfact>
</mgrwt>
</event>
<event>
 6    1  0.6091287E-004  0.3760765E+04  0.7818608E-02  0.8054627E-01
         -2   -1    0    0    0  501 -0.00000000000E+00  0.00000000000E+00  0.12821919489E+04  0.12821919489E+04  0.00000000000E+00 0. -1.
          2   -1    0    0  501    0  0.00000000000E+00 -0.00000000000E+00 -0.27576515712E+04  0.27576515712E+04  0.00000000000E+00 0.  1.
         23    2    1    2    0    0 -0.14760961340E+04  0.91913835517E+03  0.27446631867E+02  0.17414957827E+04  0.91537591813E+02 0.  0.
         13    1    3    3    0    0 -0.93030859000E+03  0.60184916072E+03 -0.22162905682E+02  0.11082362922E+04  0.00000000000E+00 0. -1.
        -13    1    3    3    0    0 -0.54578754405E+03  0.31728919445E+03  0.49609537549E+02  0.63325949054E+03  0.00000000000E+00 0.  1.
         22    1    1    2    0    0  0.14760961340E+04 -0.91913835517E+03 -0.15029062542E+04  0.22983477373E+04  0.00000000000E+00 0. -1.
<mgrwt>
<rscale>  0 0.37607652E+04</rscale>
<asrwt>0</asrwt>
<pdfrwt beam="1">  1        2 0.42425409E+00 0.37607652E+04</pdfrwt>
<pdfrwt beam="2">  1       -2 0.19726030E+00 0.37607652E+04</pdfrwt>
<totfact> 0.27345196E-01</totfact>
</mgrwt>
</event>
<event>
 6    1  0.6091287E-004  0.1341225E+04  0.7818608E-02  0.8997498E-01
          2   -1    0    0  501    0  0.00000000000E+00  0.00000000000E+00  0.16443424744E+04  0.16443424744E+04  0.00000000000E+00 0.  1.
         -2   -1    0    0    0  501 -0.00000000000E+00 -0.00000000000E+00 -0.27349581996E+03  0.27349581996E+03  0.00000000000E+00 0. -1.
         23    2    1    2    0    0 -0.28479803637E+03  0.54316762643E+03  0.10656360026E+04  0.12327875415E+04  0.89688576000E+02 0.  0.
         13    1    3    3    0    0 -0.13330903739E+03  0.26635673093E+03  0.60621326658E+03  0.67543447657E+03  0.00000000000E+00 0. -1.
        -13    1    3    3    0    0 -0.15148899899E+03  0.27681089550E+03  0.45942273599E+03  0.55735306497E+03  0.00000000000E+00 0.  1.
         22    1    1    2    0    0  0.28479803637E+03 -0.54316762643E+03  0.30521065184E+03  0.68505075281E+03  0.00000000000E+00 0. -1.
<mgrwt>
<rscale>  0 0.13412245E+04</rscale>
<asrwt>0</asrwt>
<pdfrwt beam="1">  1        2 0.25297576E+00 0.13412245E+04</pdfrwt>
<pdfrwt beam="2">  1       -2 0.42076281E-01 0.13412245E+04</pdfrwt>
<totfact> 0.55098836E+01</totfact>
</mgrwt>
</event>
<event>
 6    1  0.6091287E-004  0.4321204E+04  0.7818608E-02  0.7942709E-01
          2   -1    0    0  501    0  0.00000000000E+00  0.00000000000E+00  0.34312106320E+04  0.34312106320E+04  0.00000000000E+00 0.  1.
         -2   -1    0    0    0  501 -0.00000000000E+00 -0.00000000000E+00 -0.13605115651E+04  0.13605115651E+04  0.00000000000E+00 0. -1.
         23    2    1    2    0    0  0.78966894211E+03 -0.20096159423E+04  0.10845716203E+04  0.24179950404E+04  0.90945819572E+02 0.  0.
         13    1    3    3    0    0  0.17728542494E+03 -0.36255431327E+03  0.18664807216E+03  0.44464958654E+03  0.00000000000E+00 0. -1.
        -13    1    3    3    0    0  0.61238351717E+03 -0.16470616291E+04  0.89792354815E+03  0.19733454539E+04  0.00000000000E+00 0.  1.
         22    1    1    2    0    0 -0.78966894211E+03  0.20096159423E+04  0.98612744661E+03  0.23737271568E+04  0.00000000000E+00 0.  1.
<mgrwt>
<rscale>  0 0.43212043E+04</rscale>
<asrwt>0</asrwt>
<pdfrwt beam="1">  1        2 0.52787856E+00 0.43212043E+04</pdfrwt>
<pdfrwt beam="2">  1       -2 0.20930947E+00 0.43212043E+04</pdfrwt>
<totfact> 0.80575269E-02</totfact>
</mgrwt>
</event>
<event>
 6    1  0.6091287E-004  0.2218955E+04  0.7818608E-02  0.8510580E-01
         -2   -1    0    0    0  501 -0.00000000000E+00  0.00000000000E+00  0.57881848562E+03  0.57881848562E+03  0.00000000000E+00 0. -1.
          2   -1    0    0  501    0  0.00000000000E+00 -0.00000000000E+00 -0.21266429048E+04  0.21266429048E+04  0.00000000000E+00 0.  1.
         23    2    1    2    0    0  0.58257838043E+03  0.66640732590E+03 -0.15858990144E+04  0.18194896255E+04  0.10940987267E+03 0.  0.
         11    1    3    3    0    0  0.20825644465E+03  0.16921354064E+03 -0.43524778503E+03  0.51131653939E+03  0.00000000000E+00 0. -1.
        -11    1    3    3    0    0  0.37432193578E+03  0.49719378526E+03 -0.11506512293E+04  0.13081730861E+04  0.00000000000E+00 0.  1.
         22    1    1    2    0    0 -0.58257838043E+03 -0.66640732590E+03  0.38074595224E+02  0.88597176488E+03  0.00000000000E+00 0. -1.
<mgrwt>
<rscale>  0 0.22189549E+04</rscale>
<asrwt>0</asrwt>
<pdfrwt beam="1">  1        2 0.32717583E+00 0.22189549E+04</pdfrwt>
<pdfrwt beam="2">  1       -2 0.89048997E-01 0.22189549E+04</pdfrwt>
<totfact> 0.56109504E+00</totfact>
</mgrwt>
</event>
<event>
 6    1  0.6091287E-004  0.8086581E+03  0.7818608E-02  0.9547569E-01
          2   -1    0    0  501    0  0.00000000000E+00  0.00000000000E+00  0.44749691819E+03  0.44749691819E+03  0.00000000000E+00 0.  1.
         -2   -1    0    0    0  501 -0.00000000000E+00 -0.00000000000E+00 -0.36532537722E+03  0.36532537722E+03  0.00000000000E+00 0. -1.
         23    2    1    2    0    0 -0.77365240067E+02  0.26811372915E+03 -0.24451176280E+03  0.38318019658E+03  0.95763817668E+02 0.  0.
         13    1    3    3    0    0  0.11741616160E+02  0.32224003079E+02 -0.65515235240E+02  0.73949293256E+02  0.00000000000E+00 0. -1.
        -13    1    3    3    0    0 -0.89106856227E+02  0.23588972607E+03 -0.17899652756E+03  0.30923090332E+03  0.00000000000E+00 0.  1.
         22    1    1    2    0    0  0.77365240067E+02 -0.26811372915E+03  0.32668330377E+03  0.42964209883E+03  0.00000000000E+00 0.  1.
<mgrwt>
<rscale>  0 0.80865810E+03</rscale>
<asrwt>0</asrwt>
<pdfrwt beam="1">  1        2 0.68845680E-01 0.80865810E+03</pdfrwt>
<pdfrwt beam="2">  1       -2 0.56203904E-01 0.80865810E+03</pdfrwt>
<totfact> 0.20949933E+02</totfact>
</mgrwt>
</event>
<event>
 6    1  0.6091287E-004  0.3378969E+04  0.7818608E-02  0.8143087E-01
          2   -1    0    0  501    0  0.00000000000E+00  0.00000000000E+00  0.17603527884E+04  0.17603527884E+04  0.00000000000E+00 0.  1.
         -2   -1    0    0    0  501 -0.00000000000E+00 -0.00000000000E+00 -0.16214691340E+04  0.16214691340E+04  0.00000000000E+00 0. -1.
         23    2    1    2    0    0  0.11708359602E+04 -0.25536269542E+03 -0.11206687801E+04  0.16432767584E+04  0.91613525385E+02 0.  0.
         11    1    3    3    0    0  0.87274031964E+02 -0.11417723950E+02 -0.11605841749E+03  0.14565945677E+03  0.00000000000E+00 0.  1.
        -11    1    3    3    0    0  0.10835619283E+04 -0.24394497147E+03 -0.10046103626E+04  0.14976173016E+04  0.00000000000E+00 0. -1.
         22    1    1    2    0    0 -0.11708359602E+04  0.25536269542E+03  0.12595524345E+04  0.17385451640E+04  0.00000000000E+00 0.  1.
<mgrwt>
<rscale>  0 0.33789689E+04</rscale>
<asrwt>0</asrwt>
<pdfrwt beam="1">  1        2 0.27082350E+00 0.33789689E+04</pdfrwt>
<pdfrwt beam="2">  1       -2 0.24945679E+00 0.33789689E+04</pdfrwt>
<totfact> 0.48785511E-01</totfact>
</mgrwt>
</event>
<event>
 6    1  0.6091287E-004  0.8668496E+03  0.7818608E-02  0.9467997E-01
          2   -1    0    0  501    0  0.00000000000E+00  0.00000000000E+00  0.77229749036E+03  0.77229749036E+03  0.00000000000E+00 0. -1.
         -2   -1    0    0    0  501 -0.00000000000E+00 -0.00000000000E+00 -0.24324439499E+03  0.24324439499E+03  0.00000000000E+00 0.  1.
         23    2    1    2    0    0  0.32874214782E+03 -0.15808855378E+03  0.36657710756E+01  0.37593635760E+03  0.90836757419E+02 0.  0.
         13    1    3    3    0    0  0.44111742436E+02  0.65051582566E+01 -0.13809130384E+02  0.46678206764E+02  0.00000000000E+00 0.  1.
        -13    1    3    3    0    0  0.28463040539E+03 -0.16459371204E+03  0.17474901460E+02  0.32925815084E+03  0.00000000000E+00 0. -1.
         22    1    1    2    0    0 -0.32874214782E+03  0.15808855378E+03  0.52538732430E+03  0.63960552775E+03  0.00000000000E+00 0. -1.
<mgrwt>
<rscale>  0 0.86684955E+03</rscale>
<asrwt>0</asrwt>
<pdfrwt beam="1">  1        2 0.11881500E+00 0.86684955E+03</pdfrwt>
<pdfrwt beam="2">  1       -2 0.37422215E-01 0.86684955E+03</pdfrwt>
<totfact> 0.24384155E+02</totfact>
</mgrwt>
</event>
<event>
 6    1  0.6091287E-004  0.2870050E+04  0.7818608E-02  0.8281845E-01
          2   -1    0    0  501    0  0.00000000000E+00  0.00000000000E+00  0.32711315387E+04  0.32711315387E+04  0.00000000000E+00 0.  1.
         -2   -1    0    0    0  501 -0.00000000000E+00 -0.00000000000E+00 -0.62953641132E+03  0.62953641132E+03  0.00000000000E+00 0. -1.
         23    2    1    2    0    0  0.11489622213E+04 -0.39699100407E+03  0.28938125541E+03  0.12529092482E+04  0.91236122586E+02 0.  0.
         13    1    3    3    0    0  0.43451699767E+03 -0.15944051518E+03  0.65723016487E+02  0.46748883842E+03  0.00000000000E+00 0. -1.
        -13    1    3    3    0    0  0.71444522363E+03 -0.23755048889E+03  0.22365823892E+03  0.78542040983E+03  0.00000000000E+00 0.  1.
         22    1    1    2    0    0 -0.11489622213E+04  0.39699100407E+03  0.23522138719E+04  0.26477587017E+04  0.00000000000E+00 0.  1.
<mgrwt>
<rscale>  0 0.28700498E+04</rscale>
<asrwt>0</asrwt>
<pdfrwt beam="1">  1        2 0.50325100E+00 0.28700498E+04</pdfrwt>
<pdfrwt beam="2">  1       -2 0.96851757E-01 0.28700498E+04</pdfrwt>
<totfact> 0.89679941E-01</totfact>
</mgrwt>
</event>
<event>
 6    1  0.6091287E-004  0.2623866E+04  0.7818608E-02  0.8360140E-01
          2   -1    0    0  501    0  0.00000000000E+00  0.00000000000E+00  0.15684438461E+04  0.15684438461E+04  0.00000000000E+00 0.  1.
         -2   -1    0    0    0  501 -0.00000000000E+00 -0.00000000000E+00 -0.10973727540E+04  0.10973727540E+04  0.00000000000E+00 0. -1.
         23    2    1    2    0    0  0.32568114184E+03  0.89450836073E+02  0.15223739897E+04  0.15615940497E+04  0.82968387818E+02 0.  0.
         11    1    3    3    0    0  0.14642299918E+03 -0.20416146974E+01  0.62375247832E+03  0.64071133679E+03  0.00000000000E+00 0. -1.
        -11    1    3    3    0    0  0.17925814266E+03  0.91492450771E+02  0.89862151137E+03  0.92088271292E+03  0.00000000000E+00 0.  1.
         22    1    1    2    0    0 -0.32568114184E+03 -0.89450836073E+02 -0.10513028976E+04  0.11042225503E+04  0.00000000000E+00 0. -1.
<mgrwt>
<rscale>  0 0.26238655E+04</rscale>
<asrwt>0</asrwt>
<pdfrwt beam="1">  1        2 0.24129905E+00 0.26238655E+04</pdfrwt>
<pdfrwt beam="2">  1       -2 0.16882658E+00 0.26238655E+04</pdfrwt>
<totfact> 0.22284825E+00</totfact>
</mgrwt>
</event>
<event>
 6    1  0.6091287E-004  0.1680633E+04  0.7818608E-02  0.8772488E-01
          2   -1    0    0  501    0  0.00000000000E+00  0.00000000000E+00  0.17817152553E+04  0.17817152553E+04  0.00000000000E+00 0. -1.
         -2   -1    0    0    0  501 -0.00000000000E+00 -0.00000000000E+00 -0.39632133990E+03  0.39632133990E+03  0.00000000000E+00 0.  1.
         23    2    1    2    0    0  0.55242186418E+03  0.51787646449E+03  0.22979277564E+03  0.79645057084E+03  0.90348456339E+02 0.  0.
         13    1    3    3    0    0  0.24012393680E+03  0.21989092816E+03  0.52475609660E+02  0.32979571695E+03  0.00000000000E+00 0. -1.
        -13    1    3    3    0    0  0.31229792738E+03  0.29798553633E+03  0.17731716598E+03  0.46665485389E+03  0.00000000000E+00 0.  1.
         22    1    1    2    0    0 -0.55242186418E+03 -0.51787646449E+03  0.11556011397E+04  0.13815860243E+04  0.00000000000E+00 0. -1.
<mgrwt>
<rscale>  0 0.16806329E+04</rscale>
<asrwt>0</asrwt>
<pdfrwt beam="1">  1        2 0.27411004E+00 0.16806329E+04</pdfrwt>
<pdfrwt beam="2">  1       -2 0.60972515E-01 0.16806329E+04</pdfrwt>
<totfact> 0.21068510E+01</totfact>
</mgrwt>
</event>
<event>
 6    1  0.6091287E-004  0.1646857E+04  0.7818608E-02  0.8792268E-01
          2   -1    0    0  501    0  0.00000000000E+00  0.00000000000E+00  0.85782352365E+03  0.85782352365E+03  0.00000000000E+00 0.  1.
         -2   -1    0    0    0  501 -0.00000000000E+00 -0.00000000000E+00 -0.79041301546E+03  0.79041301546E+03  0.00000000000E+00 0. -1.
         23    2    1    2    0    0 -0.58530187330E+03  0.54216509577E+03 -0.16023211249E+03  0.81857248860E+03  0.88686612589E+02 0.  0.
         11    1    3    3    0    0 -0.44617397254E+03  0.37784659411E+03 -0.14695874325E+03  0.60285664520E+03  0.00000000000E+00 0. -1.
        -11    1    3    3    0    0 -0.13912790076E+03  0.16431850167E+03 -0.13273369244E+02  0.21571584339E+03  0.00000000000E+00 0.  1.
         22    1    1    2    0    0  0.58530187330E+03 -0.54216509577E+03  0.22764262068E+03  0.82966405051E+03  0.00000000000E+00 0.  1.
<mgrwt>
<rscale>  0 0.16468575E+04</rscale>
<asrwt>0</asrwt>
<pdfrwt beam="1">  1        2 0.13197285E+00 0.16468575E+04</pdfrwt>
<pdfrwt beam="2">  1       -2 0.12160200E+00 0.16468575E+04</pdfrwt>
<totfact> 0.15384606E+01</totfact>
</mgrwt>
</event>
<event>
 6    1  0.6091287E-004  0.2644699E+04  0.7818608E-02  0.8353175E-01
          1   -1    0    0  501    0  0.00000000000E+00  0.00000000000E+00  0.16320269575E+04  0.16320269575E+04  0.00000000000E+00 0.  1.
         -1   -1    0    0    0  501 -0.00000000000E+00 -0.00000000000E+00 -0.10714333271E+04  0.10714333271E+04  0.00000000000E+00 0. -1.
         23    2    1    2    0    0 -0.11649521802E+04  0.62109381664E+03  0.24414450770E+03  0.13458848140E+04  0.94489580916E+02 0.  0.
         11    1    3    3    0    0 -0.55516418913E+03  0.24815448183E+03  0.91002772357E+02  0.61487350595E+03  0.00000000000E+00 0. -1.
        -11    1    3    3    0    0 -0.60978799103E+03  0.37293933481E+03  0.15314173534E+03  0.73101130809E+03  0.00000000000E+00 0.  1.
         22    1    1    2    0    0  0.11649521802E+04 -0.62109381664E+03  0.31644912270E+03  0.13575754706E+04  0.00000000000E+00 0. -1.
<mgrwt>
<rscale>  0 0.26446989E+04</rscale>
<asrwt>0</asrwt>
<pdfrwt beam="1">  1        1 0.25108107E+00 0.26446989E+04</pdfrwt>
<pdfrwt beam="2">  1       -1 0.16483590E+00 0.26446989E+04</pdfrwt>
<totfact> 0.12507621E+00</totfact>
</mgrwt>
</event>
<event>
 6    1  0.6091287E-004  0.2866259E+04  0.7818608E-02  0.8282988E-01
          2   -1    0    0  501    0  0.00000000000E+00  0.00000000000E+00  0.23090680594E+04  0.23090680594E+04  0.00000000000E+00 0.  1.
         -2   -1    0    0    0  501 -0.00000000000E+00 -0.00000000000E+00 -0.88947595944E+03  0.88947595944E+03  0.00000000000E+00 0. -1.
         23    2    1    2    0    0  0.43146278868E+03  0.60322298101E+03  0.20770643278E+04  0.22074295789E+04  0.92255196158E+02 0.  0.
         11    1    3    3    0    0  0.16715661186E+03  0.17876261355E+03  0.77143412412E+03  0.80932565309E+03  0.00000000000E+00 0.  1.
        -11    1    3    3    0    0  0.26430617682E+03  0.42446036746E+03  0.13056302037E+04  0.13981039258E+04  0.00000000000E+00 0. -1.
         22    1    1    2    0    0 -0.43146278868E+03 -0.60322298101E+03 -0.65747222778E+03  0.99111443998E+03  0.00000000000E+00 0. -1.
<mgrwt>
<rscale>  0 0.28662593E+04</rscale>
<asrwt>0</asrwt>
<pdfrwt beam="1">  1        2 0.35524124E+00 0.28662593E+04</pdfrwt>
<pdfrwt beam="2">  1       -2 0.13684246E+00 0.28662593E+04</pdfrwt>
<totfact> 0.14772833E+00</totfact>
</mgrwt>
</event>
<event>
 6    1  0.6091287E-004  0.3636126E+04  0.7818608E-02  0.8082266E-01
          2   -1    0    0  501    0  0.00000000000E+00  0.00000000000E+00  0.23628962894E+04  0.23628962894E+04  0.00000000000E+00 0.  1.
         -2   -1    0    0    0  501 -0.00000000000E+00 -0.00000000000E+00 -0.13988563984E+04  0.13988563984E+04  0.00000000000E+00 0. -1.
         23    2    1    2    0    0  0.10393116280E+04  0.14120693631E+04 -0.10387521527E+02  0.17558570454E+04  0.93901634109E+02 0.  0.
         13    1    3    3    0    0  0.45709873981E+03  0.69954975924E+03 -0.10732621044E+02  0.83571784278E+03  0.00000000000E+00 0.  1.
        -13    1    3    3    0    0  0.58221288815E+03  0.71251960387E+03  0.34509951686E+00  0.92013920258E+03  0.00000000000E+00 0. -1.
         22    1    1    2    0    0 -0.10393116280E+04 -0.14120693631E+04  0.97442741253E+03  0.20058956425E+04  0.00000000000E+00 0.  1.
<mgrwt>
<rscale>  0 0.36361257E+04</rscale>
<asrwt>0</asrwt>
<pdfrwt beam="1">  1        2 0.36352251E+00 0.36361257E+04</pdfrwt>
<pdfrwt beam="2">  1       -2 0.21520868E+00 0.36361257E+04</pdfrwt>
<totfact> 0.35968860E-01</totfact>
</mgrwt>
</event>
<event>
 6    1  0.6091287E-004  0.1219994E+04  0.7818608E-02  0.9095533E-01
          2   -1    0    0  501    0  0.00000000000E+00  0.00000000000E+00  0.48318747483E+03  0.48318747483E+03  0.00000000000E+00 0.  1.
         -2   -1    0    0    0  501 -0.00000000000E+00 -0.00000000000E+00 -0.77008713233E+03  0.77008713233E+03  0.00000000000E+00 0. -1.
         23    2    1    2    0    0 -0.14369244868E+03 -0.53911576976E+03  0.99592723226E+02  0.57454808389E+03  0.94305128017E+02 0.  0.
         13    1    3    3    0    0 -0.10625880714E+03 -0.23729376796E+03  0.23627296749E+02  0.26106994381E+03  0.00000000000E+00 0.  1.
        -13    1    3    3    0    0 -0.37433641537E+02 -0.30182200180E+03  0.75965426477E+02  0.31347814009E+03  0.00000000000E+00 0. -1.
         22    1    1    2    0    0  0.14369244868E+03  0.53911576976E+03 -0.38649238073E+03  0.67872652326E+03  0.00000000000E+00 0. -1.
<mgrwt>
<rscale>  0 0.12199942E+04</rscale>
<asrwt>0</asrwt>
<pdfrwt beam="1">  1        2 0.74336535E-01 0.12199942E+04</pdfrwt>
<pdfrwt beam="2">  1       -2 0.11847494E+00 0.12199942E+04</pdfrwt>
<totfact> 0.34602171E+01</totfact>
</mgrwt>
</event>
<event>
 6    1  0.6091287E-004  0.4597063E+04  0.7818608E-02  0.7893861E-01
         -2   -1    0    0    0  501 -0.00000000000E+00  0.00000000000E+00  0.18385306895E+04  0.18385306895E+04  0.00000000000E+00 0. -1.
          2   -1    0    0  501    0  0.00000000000E+00 -0.00000000000E+00 -0.28736247314E+04  0.28736247314E+04  0.00000000000E+00 0.  1.
         23    2    1    2    0    0  0.70526840544E+03 -0.13134579527E+04  0.12743020812E+04  0.19633582711E+04  0.91403442462E+02 0.  0.
         13    1    3    3    0    0  0.41757109505E+03 -0.85374548199E+03  0.84429579448E+03  0.12712522787E+04  0.00000000000E+00 0. -1.
        -13    1    3    3    0    0  0.28769731039E+03 -0.45971247070E+03  0.43000628670E+03  0.69210599241E+03  0.00000000000E+00 0.  1.
         22    1    1    2    0    0 -0.70526840544E+03  0.13134579527E+04 -0.23093961231E+04  0.27487971498E+04  0.00000000000E+00 0.  1.
<mgrwt>
<rscale>  0 0.45970631E+04</rscale>
<asrwt>0</asrwt>
<pdfrwt beam="1">  1        2 0.44209611E+00 0.45970631E+04</pdfrwt>
<pdfrwt beam="2">  1       -2 0.28285088E+00 0.45970631E+04</pdfrwt>
<totfact> 0.63414568E-02</totfact>
</mgrwt>
</event>
<event>
 6    1  0.6091287E-004  0.3259109E+04  0.7818608E-02  0.8173379E-01
          2   -1    0    0  501    0  0.00000000000E+00  0.00000000000E+00  0.27076642004E+04  0.27076642004E+04  0.00000000000E+00 0.  1.
         -2   -1    0    0    0  501 -0.00000000000E+00 -0.00000000000E+00 -0.98071558364E+03  0.98071558364E+03  0.00000000000E+00 0. -1.
         23    2    1    2    0    0 -0.11644562698E+04 -0.69802328787E+03  0.18811664086E+04  0.23220057350E+04  0.98633980395E+02 0.  0.
         11    1    3    3    0    0 -0.75081590177E+03 -0.47114660617E+03  0.11524872441E+04  0.14539362059E+04  0.00000000000E+00 0.  1.
        -11    1    3    3    0    0 -0.41364036798E+03 -0.22687668170E+03  0.72867916443E+03  0.86806952913E+03  0.00000000000E+00 0. -1.
         22    1    1    2    0    0  0.11644562698E+04  0.69802328787E+03 -0.15421779181E+03  0.13663740490E+04  0.00000000000E+00 0. -1.
<mgrwt>
<rscale>  0 0.32591094E+04</rscale>
<asrwt>0</asrwt>
<pdfrwt beam="1">  1        2 0.41656372E+00 0.32591094E+04</pdfrwt>
<pdfrwt beam="2">  1       -2 0.15087932E+00 0.32591094E+04</pdfrwt>
<totfact> 0.64934439E-01</totfact>
</mgrwt>
</event>
<event>
 6    1  0.6091287E-004  0.4994599E+03  0.7818608E-02  0.1013920E+00
          2   -1    0    0  501    0  0.00000000000E+00  0.00000000000E+00  0.15564464655E+04  0.15564464655E+04  0.00000000000E+00 0.  1.
         -2   -1    0    0    0  501 -0.00000000000E+00 -0.00000000000E+00 -0.40068867308E+02  0.40068867308E+02  0.00000000000E+00 0. -1.
         23    2    1    2    0    0 -0.67553115754E+02  0.23624231511E+03  0.74851754769E+03  0.79030015555E+03  0.62625567884E+02 0.  0.
         13    1    3    3    0    0 -0.36819707067E+02  0.75464199688E+02  0.17882109759E+03  0.19755384382E+03  0.00000000000E+00 0. -1.
        -13    1    3    3    0    0 -0.30733408687E+02  0.16077811542E+03  0.56969645010E+03  0.59274631173E+03  0.00000000000E+00 0.  1.
         22    1    1    2    0    0  0.67553115754E+02 -0.23624231511E+03  0.76786005046E+03  0.80621517722E+03  0.00000000000E+00 0.  1.
<mgrwt>
<rscale>  0 0.49945990E+03</rscale>
<asrwt>0</asrwt>
<pdfrwt beam="1">  1        2 0.23945326E+00 0.49945990E+03</pdfrwt>
<pdfrwt beam="2">  1       -2 0.61644423E-02 0.49945990E+03</pdfrwt>
<totfact> 0.17926311E+03</totfact>
</mgrwt>
</event>
<event>
 6    1  0.6091287E-004  0.1456452E+04  0.7818608E-02  0.8913939E-01
         -2   -1    0    0    0  501 -0.00000000000E+00  0.00000000000E+00  0.28290333852E+03  0.28290333852E+03  0.00000000000E+00 0. -1.
          2   -1    0    0  501    0  0.00000000000E+00 -0.00000000000E+00 -0.18745392913E+04  0.18745392913E+04  0.00000000000E+00 0.  1.
         23    2    1    2    0    0 -0.51549243056E+03  0.65819437489E+02 -0.49456991808E+02  0.53005804344E+03  0.91928728126E+02 0.  0.
         11    1    3    3    0    0 -0.74511277111E+02 -0.12350509690E+02  0.16672399116E+02  0.77346198347E+02  0.00000000000E+00 0. -1.
        -11    1    3    3    0    0 -0.44098115345E+03  0.78169947179E+02 -0.66129390924E+02  0.45271184509E+03  0.00000000000E+00 0.  1.
         22    1    1    2    0    0  0.51549243056E+03 -0.65819437489E+02 -0.15421789610E+04  0.16273845864E+04  0.00000000000E+00 0.  1.
<mgrwt>
<rscale>  0 0.14564524E+04</rscale>
<asrwt>0</asrwt>
<pdfrwt beam="1">  1        2 0.28839066E+00 0.14564524E+04</pdfrwt>
<pdfrwt beam="2">  1       -2 0.43523591E-01 0.14564524E+04</pdfrwt>
<totfact> 0.38068993E+01</totfact>
</mgrwt>
</event>
<event>
 6    1  0.6091287E-004  0.3128016E+04  0.7818608E-02  0.8208091E-01
          2   -1    0    0  501    0  0.00000000000E+00  0.00000000000E+00  0.29338469953E+04  0.29338469953E+04  0.00000000000E+00 0.  1.
         -2   -1    0    0    0  501 -0.00000000000E+00 -0.00000000000E+00 -0.83375874591E+03  0.83375874591E+03  0.00000000000E+00 0. -1.
         23    2    1    2    0    0 -0.22334491078E+03  0.10492798741E+04  0.24195171285E+04  0.26482728989E+04  0.91733356625E+02 0.  0.
         11    1    3    3    0    0 -0.21809616771E+03  0.86339180269E+03  0.20217922612E+04  0.22092205166E+04  0.00000000000E+00 0.  1.
        -11    1    3    3    0    0 -0.52487430622E+01  0.18588807136E+03  0.39772486723E+03  0.43905238228E+03  0.00000000000E+00 0. -1.
         22    1    1    2    0    0  0.22334491078E+03 -0.10492798741E+04 -0.31942887903E+03  0.11193328424E+04  0.00000000000E+00 0. -1.
<mgrwt>
<rscale>  0 0.31280157E+04</rscale>
<asrwt>0</asrwt>
<pdfrwt beam="1">  1        2 0.45136107E+00 0.31280157E+04</pdfrwt>
<pdfrwt beam="2">  1       -2 0.12827058E+00 0.31280157E+04</pdfrwt>
<totfact> 0.72818529E-01</totfact>
</mgrwt>
</event>
<event>
 6    1  0.6091287E-004  0.5440404E+03  0.7818608E-02  0.1002883E+00
          2   -1    0    0  501    0  0.00000000000E+00  0.00000000000E+00  0.55306609234E+03  0.55306609234E+03  0.00000000000E+00 0.  1.
         -2   -1    0    0    0  501 -0.00000000000E+00 -0.00000000000E+00 -0.13379052442E+03  0.13379052442E+03  0.00000000000E+00 0. -1.
         23    2    1    2    0    0 -0.21887556650E+03 -0.13219848154E+03  0.13015563664E+03  0.30088603913E+03  0.90603347943E+02 0.  0.
         11    1    3    3    0    0 -0.89437574266E+02 -0.10690988515E+03  0.67865878626E+02  0.15503090245E+03  0.00000000000E+00 0. -1.
        -11    1    3    3    0    0 -0.12943799224E+03 -0.25288596397E+02  0.62289758013E+02  0.14585513668E+03  0.00000000000E+00 0.  1.
         22    1    1    2    0    0  0.21887556650E+03  0.13219848154E+03  0.28911993128E+03  0.38597057763E+03  0.00000000000E+00 0. -1.
<mgrwt>
<rscale>  0 0.54404045E+03</rscale>
<asrwt>0</asrwt>
<pdfrwt beam="1">  1        2 0.85087090E-01 0.54404045E+03</pdfrwt>
<pdfrwt beam="2">  1       -2 0.20583158E-01 0.54404045E+03</pdfrwt>
<totfact> 0.11120749E+03</totfact>
</mgrwt>
</event>
<event>
 6    1  0.6091287E-004  0.1155042E+04  0.7818608E-02  0.9153144E-01
         -2   -1    0    0    0  501 -0.00000000000E+00  0.00000000000E+00  0.15268613862E+03  0.15268613862E+03  0.00000000000E+00 0. -1.
          2   -1    0    0  501    0  0.00000000000E+00 -0.00000000000E+00 -0.21844203303E+04  0.21844203303E+04  0.00000000000E+00 0.  1.
         23    2    1    2    0    0 -0.50452616964E+03 -0.27046176812E+03 -0.11055381119E+04  0.12482835255E+04  0.91109930077E+02 0.  0.
         11    1    3    3    0    0 -0.39670943183E+03 -0.16772900391E+03 -0.81718161318E+03  0.92374086246E+03  0.00000000000E+00 0. -1.
        -11    1    3    3    0    0 -0.10781673781E+03 -0.10273276421E+03 -0.28835649870E+03  0.32454266304E+03  0.00000000000E+00 0.  1.
         22    1    1    2    0    0  0.50452616964E+03  0.27046176812E+03 -0.92619607982E+03  0.10888229434E+04  0.00000000000E+00 0. -1.
<mgrwt>
<rscale>  0 0.11550423E+04</rscale>
<asrwt>0</asrwt>
<pdfrwt beam="1">  1        2 0.33606466E+00 0.11550423E+04</pdfrwt>
<pdfrwt beam="2">  1       -2 0.23490176E-01 0.11550423E+04</pdfrwt>
<totfact> 0.84000285E+01</totfact>
</mgrwt>
</event>
<event>
 6    1  0.6091287E-004  0.2351906E+04  0.7818608E-02  0.8457732E-01
         -2   -1    0    0    0  501 -0.00000000000E+00  0.00000000000E+00  0.67033138507E+03  0.67033138507E+03  0.00000000000E+00 0. -1.
          2   -1    0    0  501    0  0.00000000000E+00 -0.00000000000E+00 -0.20629575775E+04  0.20629575775E+04  0.00000000000E+00 0.  1.
         23    2    1    2    0    0  0.11431302657E+04 -0.23600938354E+03 -0.84593560186E+03  0.14443677721E+04  0.90244031453E+02 0.  0.
         13    1    3    3    0    0  0.71646849151E+03 -0.14234731873E+03 -0.47528308336E+03  0.87148371632E+03  0.00000000000E+00 0. -1.
        -13    1    3    3    0    0  0.42666177414E+03 -0.93662064806E+02 -0.37065251850E+03  0.57288405578E+03  0.00000000000E+00 0.  1.
         22    1    1    2    0    0 -0.11431302657E+04  0.23600938354E+03 -0.54669059051E+03  0.12889211904E+04  0.00000000000E+00 0. -1.
<mgrwt>
<rscale>  0 0.23519058E+04</rscale>
<asrwt>0</asrwt>
<pdfrwt beam="1">  1        2 0.31737809E+00 0.23519058E+04</pdfrwt>
<pdfrwt beam="2">  1       -2 0.10312791E+00 0.23519058E+04</pdfrwt>
<totfact> 0.42696094E+00</totfact>
</mgrwt>
</event>
<event>
 6    1  0.6091287E-004  0.4980887E+04  0.7818608E-02  0.7831462E-01
          2   -1    0    0  501    0  0.00000000000E+00  0.00000000000E+00  0.41291301768E+04  0.41291301768E+04  0.00000000000E+00 0.  1.
         -2   -1    0    0    0  501 -0.00000000000E+00 -0.00000000000E+00 -0.15020858485E+04  0.15020858485E+04  0.00000000000E+00 0. -1.
         23    2    1    2    0    0  0.50360760137E+03  0.20991730358E+04 -0.86639929135E+02  0.21636188314E+04  0.11658439084E+03 0.  0.
         13    1    3    3    0    0  0.13306802339E+03  0.74367990602E+03 -0.64188882363E+02  0.75821310598E+03  0.00000000000E+00 0. -1.
        -13    1    3    3    0    0  0.37053957798E+03  0.13554931298E+04 -0.22451046771E+02  0.14054057255E+04  0.00000000000E+00 0.  1.
         22    1    1    2    0    0 -0.50360760137E+03 -0.20991730358E+04  0.27136842574E+04  0.34675971939E+04  0.00000000000E+00 0.  1.
<mgrwt>
<rscale>  0 0.49808867E+04</rscale>
<asrwt>0</asrwt>
<pdfrwt beam="1">  1        2 0.63525079E+00 0.49808867E+04</pdfrwt>
<pdfrwt beam="2">  1       -2 0.23109013E+00 0.49808867E+04</pdfrwt>
<totfact> 0.16320194E-02</totfact>
</mgrwt>
</event>
<event>
 6    1  0.6091287E-004  0.2142827E+04  0.7818608E-02  0.8542609E-01
          2   -1    0    0  501    0  0.00000000000E+00  0.00000000000E+00  0.28245555869E+04  0.28245555869E+04  0.00000000000E+00 0.  1.
         -2   -1    0    0    0  501 -0.00000000000E+00 -0.00000000000E+00 -0.40640962892E+03  0.40640962892E+03  0.00000000000E+00 0. -1.
         23    2    1    2    0    0  0.40370287731E+03  0.36249260053E+03  0.26007318474E+04  0.26585016749E+04  0.97201414014E+02 0.  0.
         13    1    3    3    0    0  0.29932595220E+03  0.20956369513E+03  0.16638269546E+04  0.17034767691E+04  0.00000000000E+00 0. -1.
        -13    1    3    3    0    0  0.10437692510E+03  0.15292890540E+03  0.93690489283E+03  0.95502490586E+03  0.00000000000E+00 0.  1.
         22    1    1    2    0    0 -0.40370287731E+03 -0.36249260053E+03 -0.18258588945E+03  0.57246354086E+03  0.00000000000E+00 0. -1.
<mgrwt>
<rscale>  0 0.21428267E+04</rscale>
<asrwt>0</asrwt>
<pdfrwt beam="1">  1        2 0.43454700E+00 0.21428267E+04</pdfrwt>
<pdfrwt beam="2">  1       -2 0.62524560E-01 0.21428267E+04</pdfrwt>
<totfact> 0.48731556E+00</totfact>
</mgrwt>
</event>
<event>
 6    1  0.6091287E-004  0.2179717E+04  0.7818608E-02  0.8526918E-01
         -2   -1    0    0    0  501 -0.00000000000E+00  0.00000000000E+00  0.37744763668E+03  0.37744763668E+03  0.00000000000E+00 0. -1.
          2   -1    0    0  501    0  0.00000000000E+00 -0.00000000000E+00 -0.31469044862E+04  0.31469044862E+04  0.00000000000E+00 0.  1.
         23    2    1    2    0    0  0.68946487201E+03 -0.34078916028E+03 -0.14725800494E+03  0.79169300729E+03  0.11659260813E+03 0.  0.
         11    1    3    3    0    0  0.41287765230E+03 -0.23190031841E+03 -0.38258361694E+02  0.47508885031E+03  0.00000000000E+00 0.  1.
        -11    1    3    3    0    0  0.27658721971E+03 -0.10888884188E+03 -0.10899964325E+03  0.31660415699E+03  0.00000000000E+00 0. -1.
         22    1    1    2    0    0 -0.68946487201E+03  0.34078916028E+03 -0.26221988446E+04  0.27326591156E+04  0.00000000000E+00 0.  1.
<mgrwt>
<rscale>  0 0.21797171E+04</rscale>
<asrwt>0</asrwt>
<pdfrwt beam="1">  1        2 0.48413915E+00 0.21797171E+04</pdfrwt>
<pdfrwt beam="2">  1       -2 0.58068868E-01 0.21797171E+04</pdfrwt>
<totfact> 0.35738286E+00</totfact>
</mgrwt>
</event>
<event>
 6    1  0.6091287E-004  0.2599349E+04  0.7818608E-02  0.8368422E-01
          2   -1    0    0  501    0  0.00000000000E+00  0.00000000000E+00  0.31452967576E+04  0.31452967576E+04  0.00000000000E+00 0.  1.
         -2   -1    0    0    0  501 -0.00000000000E+00 -0.00000000000E+00 -0.53704109619E+03  0.53704109619E+03  0.00000000000E+00 0. -1.
         23    2    1    2    0    0  0.10697641451E+04  0.58247696770E+03  0.19438297175E+04  0.22948449425E+04  0.64533678415E+02 0.  0.
         13    1    3    3    0    0  0.69086773232E+03  0.40841814365E+03  0.13009390730E+04  0.15285764865E+04  0.00000000000E+00 0. -1.
        -13    1    3    3    0    0  0.37889641274E+03  0.17405882406E+03  0.64289064452E+03  0.76626845598E+03  0.00000000000E+00 0.  1.
         22    1    1    2    0    0 -0.10697641451E+04 -0.58247696770E+03  0.66442594395E+03  0.13874929113E+04  0.00000000000E+00 0. -1.
<mgrwt>
<rscale>  0 0.25993489E+04</rscale>
<asrwt>0</asrwt>
<pdfrwt beam="1">  1        2 0.48389180E+00 0.25993489E+04</pdfrwt>
<pdfrwt beam="2">  1       -2 0.82621709E-01 0.25993489E+04</pdfrwt>
<totfact> 0.16000371E+00</totfact>
</mgrwt>
</event>
<event>
 6    1  0.6091287E-004  0.4488400E+04  0.7818608E-02  0.7912671E-01
         -2   -1    0    0    0  501 -0.00000000000E+00  0.00000000000E+00  0.25949624413E+04  0.25949624413E+04  0.00000000000E+00 0. -1.
          2   -1    0    0  501    0  0.00000000000E+00 -0.00000000000E+00 -0.19408502196E+04  0.19408502196E+04  0.00000000000E+00 0.  1.
         23    2    1    2    0    0  0.19094314335E+04  0.12597078393E+03 -0.85584244874E+03  0.20982400683E+04  0.91367661509E+02 0.  0.
         11    1    3    3    0    0  0.18514554005E+04  0.13784242563E+03 -0.83011706968E+03  0.20337113816E+04  0.00000000000E+00 0.  1.
        -11    1    3    3    0    0  0.57976033010E+02 -0.11871641699E+02 -0.25725379062E+02  0.64528686707E+02  0.00000000000E+00 0. -1.
         22    1    1    2    0    0 -0.19094314335E+04 -0.12597078393E+03  0.15099546704E+04  0.24375725926E+04  0.00000000000E+00 0. -1.
<mgrwt>
<rscale>  0 0.44883999E+04</rscale>
<asrwt>0</asrwt>
<pdfrwt beam="1">  1        2 0.29859234E+00 0.44883999E+04</pdfrwt>
<pdfrwt beam="2">  1       -2 0.39922499E+00 0.44883999E+04</pdfrwt>
<totfact> 0.41050161E-02</totfact>
</mgrwt>
</event>
<event>
 6    1  0.6091287E-004  0.2128616E+04  0.7818608E-02  0.8548742E-01
          2   -1    0    0  501    0  0.00000000000E+00  0.00000000000E+00  0.24269861180E+04  0.24269861180E+04  0.00000000000E+00 0.  1.
         -2   -1    0    0    0  501 -0.00000000000E+00 -0.00000000000E+00 -0.46673169636E+03  0.46673169636E+03  0.00000000000E+00 0. -1.
         23    2    1    2    0    0  0.66426139467E+03 -0.82422810923E+03  0.11056916540E+04  0.15332499903E+04  0.87785662462E+02 0.  0.
         13    1    3    3    0    0  0.42953500956E+03 -0.48180308740E+03  0.63159672018E+03  0.90307749191E+03  0.00000000000E+00 0.  1.
        -13    1    3    3    0    0  0.23472638511E+03 -0.34242502184E+03  0.47409493384E+03  0.63017249840E+03  0.00000000000E+00 0. -1.
         22    1    1    2    0    0 -0.66426139467E+03  0.82422810923E+03  0.85456276766E+03  0.13604678241E+04  0.00000000000E+00 0. -1.
<mgrwt>
<rscale>  0 0.21286158E+04</rscale>
<asrwt>0</asrwt>
<pdfrwt beam="1">  1        2 0.37338247E+00 0.21286158E+04</pdfrwt>
<pdfrwt beam="2">  1       -2 0.71804878E-01 0.21286158E+04</pdfrwt>
<totfact> 0.62011610E+00</totfact>
</mgrwt>
</event>
<event>
 6    1  0.6091287E-004  0.2053157E+04  0.7818608E-02  0.8582163E-01
          2   -1    0    0  501    0  0.00000000000E+00  0.00000000000E+00  0.13430838390E+04  0.13430838390E+04  0.00000000000E+00 0.  1.
         -2   -1    0    0    0  501 -0.00000000000E+00 -0.00000000000E+00 -0.78465968127E+03  0.78465968127E+03  0.00000000000E+00 0. -1.
         23    2    1    2    0    0 -0.39122674925E+03 -0.92884577265E+03  0.46987335783E+03  0.11159856031E+04  0.93968374055E+02 0.  0.
         11    1    3    3    0    0 -0.21204649747E+03 -0.55224480220E+03  0.22874042149E+03  0.63423987503E+03  0.00000000000E+00 0.  1.
        -11    1    3    3    0    0 -0.17918025178E+03 -0.37660097044E+03  0.24113293634E+03  0.48174572811E+03  0.00000000000E+00 0. -1.
         22    1    1    2    0    0  0.39122674925E+03  0.92884577265E+03  0.88550799877E+02  0.10117579171E+04  0.00000000000E+00 0. -1.
<mgrwt>
<rscale>  0 0.20531573E+04</rscale>
<asrwt>0</asrwt>
<pdfrwt beam="1">  1        2 0.20662828E+00 0.20531573E+04</pdfrwt>
<pdfrwt beam="2">  1       -2 0.12071687E+00 0.20531573E+04</pdfrwt>
<totfact> 0.75539055E+00</totfact>
</mgrwt>
</event>
<event>
 6    1  0.6091287E-004  0.2689496E+04  0.7818608E-02  0.8338421E-01
         -2   -1    0    0    0  501 -0.00000000000E+00  0.00000000000E+00  0.89078234761E+03  0.89078234761E+03  0.00000000000E+00 0. -1.
          2   -1    0    0  501    0  0.00000000000E+00 -0.00000000000E+00 -0.20300662289E+04  0.20300662289E+04  0.00000000000E+00 0.  1.
         23    2    1    2    0    0 -0.77612532859E+03 -0.21429377935E+03 -0.17379021614E+04  0.19175359659E+04  0.91366888869E+02 0.  0.
         11    1    3    3    0    0 -0.47712872451E+03 -0.13492615151E+03 -0.96271064753E+03  0.10828982764E+04  0.00000000000E+00 0. -1.
        -11    1    3    3    0    0 -0.29899660408E+03 -0.79367627843E+02 -0.77519151382E+03  0.83463768948E+03  0.00000000000E+00 0.  1.
         22    1    1    2    0    0  0.77612532859E+03  0.21429377935E+03  0.59861828003E+03  0.10033126107E+04  0.00000000000E+00 0. -1.
<mgrwt>
<rscale>  0 0.26894960E+04</rscale>
<asrwt>0</asrwt>
<pdfrwt beam="1">  1        2 0.31231788E+00 0.26894960E+04</pdfrwt>
<pdfrwt beam="2">  1       -2 0.13704344E+00 0.26894960E+04</pdfrwt>
<totfact> 0.21427464E+00</totfact>
</mgrwt>
</event>
<event>
 6    1  0.6091287E-004  0.2718278E+04  0.7818608E-02  0.8329099E-01
         -2   -1    0    0    0  501 -0.00000000000E+00  0.00000000000E+00  0.10869404109E+04  0.10869404109E+04  0.00000000000E+00 0. -1.
          2   -1    0    0  501    0  0.00000000000E+00 -0.00000000000E+00 -0.16995036354E+04  0.16995036354E+04  0.00000000000E+00 0.  1.
         23    2    1    2    0    0 -0.13001816983E+03  0.67923840132E+03  0.89099434157E+03  0.11314652294E+04  0.89850532614E+02 0.  0.
         13    1    3    3    0    0 -0.43350014277E+02  0.43141304133E+03  0.52168618866E+03  0.67834571968E+03  0.00000000000E+00 0. -1.
        -13    1    3    3    0    0 -0.86668155557E+02  0.24782535999E+03  0.36930815292E+03  0.45311950968E+03  0.00000000000E+00 0.  1.
         22    1    1    2    0    0  0.13001816983E+03 -0.67923840132E+03 -0.15035575660E+04  0.16549788170E+04  0.00000000000E+00 0.  1.
<mgrwt>
<rscale>  0 0.27182783E+04</rscale>
<asrwt>0</asrwt>
<pdfrwt beam="1">  1        2 0.26146210E+00 0.27182783E+04</pdfrwt>
<pdfrwt beam="2">  1       -2 0.16722160E+00 0.27182783E+04</pdfrwt>
<totfact> 0.19182841E+00</totfact>
</mgrwt>
</event>
<event>
 6    1  0.6091287E-004  0.5259542E+04  0.7818608E-02  0.7789672E-01
         -2   -1    0    0    0  501 -0.00000000000E+00  0.00000000000E+00  0.28686627171E+04  0.28686627171E+04  0.00000000000E+00 0. -1.
          2   -1    0    0  501    0  0.00000000000E+00 -0.00000000000E+00 -0.24107731159E+04  0.24107731159E+04  0.00000000000E+00 0.  1.
         23    2    1    2    0    0  0.11110283328E+04 -0.33377832905E+03 -0.21390555333E+04  0.24351580756E+04  0.92974992522E+02 0.  0.
         13    1    3    3    0    0  0.71544939279E+02 -0.25960499477E+02 -0.19381848659E+03  0.20822639509E+03  0.00000000000E+00 0.  1.
        -13    1    3    3    0    0  0.10394833935E+04 -0.30781782957E+03 -0.19452370467E+04  0.22269316805E+04  0.00000000000E+00 0. -1.
         22    1    1    2    0    0 -0.11110283328E+04  0.33377832905E+03  0.25969451346E+04  0.28442777574E+04  0.00000000000E+00 0. -1.
<mgrwt>
<rscale>  0 0.52595418E+04</rscale>
<asrwt>0</asrwt>
<pdfrwt beam="1">  1        2 0.37088817E+00 0.52595418E+04</pdfrwt>
<pdfrwt beam="2">  1       -2 0.44133272E+00 0.52595418E+04</pdfrwt>
<totfact> 0.11103343E-02</totfact>
</mgrwt>
</event>
<event>
 6    1  0.6091287E-004  0.3420099E+04  0.7818608E-02  0.8132991E-01
         -2   -1    0    0    0  501 -0.00000000000E+00  0.00000000000E+00  0.16968380661E+04  0.16968380661E+04  0.00000000000E+00 0. -1.
          2   -1    0    0  501    0  0.00000000000E+00 -0.00000000000E+00 -0.17233638275E+04  0.17233638275E+04  0.00000000000E+00 0.  1.
         23    2    1    2    0    0 -0.14424968164E+04 -0.72379806274E+03  0.54846935773E+03  0.17069301440E+04  0.90062084287E+02 0.  0.
         11    1    3    3    0    0 -0.95688675038E+03 -0.44247730346E+03  0.38588694487E+03  0.11226429314E+04  0.00000000000E+00 0.  1.
        -11    1    3    3    0    0 -0.48561006602E+03 -0.28132075928E+03  0.16258241286E+03  0.58428721259E+03  0.00000000000E+00 0. -1.
         22    1    1    2    0    0  0.14424968164E+04  0.72379806274E+03 -0.57499511916E+03  0.17132717496E+04  0.00000000000E+00 0.  1.
<mgrwt>
<rscale>  0 0.34200990E+04</rscale>
<asrwt>0</asrwt>
<pdfrwt beam="1">  1        2 0.26513290E+00 0.34200990E+04</pdfrwt>
<pdfrwt beam="2">  1       -2 0.26105201E+00 0.34200990E+04</pdfrwt>
<totfact> 0.43274501E-01</totfact>
</mgrwt>
</event>
<event>
 6    1  0.6091287E-004  0.3673135E+04  0.7818608E-02  0.8073942E-01
         -2   -1    0    0    0  501 -0.00000000000E+00  0.00000000000E+00  0.15964844107E+04  0.15964844107E+04  0.00000000000E+00 0. -1.
          2   -1    0    0  501    0  0.00000000000E+00 -0.00000000000E+00 -0.21127545845E+04  0.21127545845E+04  0.00000000000E+00 0.  1.
         23    2    1    2    0    0 -0.86371948424E+01 -0.17388977339E+04 -0.85152493255E+03  0.19382969625E+04  0.89780143148E+02 0.  0.
         13    1    3    3    0    0 -0.34091920715E+02 -0.81085716282E+03 -0.43417637158E+03  0.92041334149E+03  0.00000000000E+00 0.  1.
        -13    1    3    3    0    0  0.25454725872E+02 -0.92804057105E+03 -0.41734856097E+03  0.10178836210E+04  0.00000000000E+00 0. -1.
         22    1    1    2    0    0  0.86371948424E+01  0.17388977339E+04  0.33525475875E+03  0.17709420327E+04  0.00000000000E+00 0. -1.
<mgrwt>
<rscale>  0 0.36731348E+04</rscale>
<asrwt>0</asrwt>
<pdfrwt beam="1">  1        2 0.32503917E+00 0.36731348E+04</pdfrwt>
<pdfrwt beam="2">  1       -2 0.24561299E+00 0.36731348E+04</pdfrwt>
<totfact> 0.32028105E-01</totfact>
</mgrwt>
</event>
<event>
 6    1  0.6091287E-004  0.5585923E+04  0.7818608E-02  0.7743976E-01
         -2   -1    0    0    0  501 -0.00000000000E+00  0.00000000000E+00  0.24601773491E+04  0.24601773491E+04  0.00000000000E+00 0. -1.
          2   -1    0    0  501    0  0.00000000000E+00 -0.00000000000E+00 -0.31707609649E+04  0.31707609649E+04  0.00000000000E+00 0.  1.
         23    2    1    2    0    0  0.88194815923E+03  0.19830179254E+04  0.14154355934E+04  0.25928220677E+04  0.95266510160E+02 0.  0.
         11    1    3    3    0    0  0.39574138091E+03  0.98476452078E+03  0.65843610731E+03  0.12489637742E+04  0.00000000000E+00 0. -1.
        -11    1    3    3    0    0  0.48620677832E+03  0.99825340463E+03  0.75699948606E+03  0.13438582935E+04  0.00000000000E+00 0.  1.
         22    1    1    2    0    0 -0.88194815923E+03 -0.19830179254E+04 -0.21260192091E+04  0.30381162462E+04  0.00000000000E+00 0.  1.
<mgrwt>
<rscale>  0 0.55859231E+04</rscale>
<asrwt>0</asrwt>
<pdfrwt beam="1">  1        2 0.48780938E+00 0.55859231E+04</pdfrwt>
<pdfrwt beam="2">  1       -2 0.37848882E+00 0.55859231E+04</pdfrwt>
<totfact> 0.96396224E-03</totfact>
</mgrwt>
</event>
<event>
 6    1  0.6091287E-004  0.2861509E+04  0.7818608E-02  0.8284423E-01
         -2   -1    0    0    0  501 -0.00000000000E+00  0.00000000000E+00  0.23066930376E+04  0.23066930376E+04  0.00000000000E+00 0. -1.
          2   -1    0    0  501    0  0.00000000000E+00 -0.00000000000E+00 -0.88744262579E+03  0.88744262579E+03  0.00000000000E+00 0.  1.
         23    2    1    2    0    0  0.10387806434E+04 -0.40348136816E+03  0.17094111280E+04  0.20425907529E+04  0.90709094773E+02 0.  0.
         13    1    3    3    0    0  0.47439561158E+03 -0.22960709031E+03  0.77649075483E+03  0.93846071018E+03  0.00000000000E+00 0. -1.
        -13    1    3    3    0    0  0.56438503185E+03 -0.17387427785E+03  0.93292037313E+03  0.11041300427E+04  0.00000000000E+00 0.  1.
         22    1    1    2    0    0 -0.10387806434E+04  0.40348136816E+03 -0.29016071617E+03  0.11515449105E+04  0.00000000000E+00 0.  1.
<mgrwt>
<rscale>  0 0.28615085E+04</rscale>
<asrwt>0</asrwt>
<pdfrwt beam="1">  1        2 0.13652963E+00 0.28615085E+04</pdfrwt>
<pdfrwt beam="2">  1       -2 0.35487585E+00 0.28615085E+04</pdfrwt>
<totfact> 0.37517118E-01</totfact>
</mgrwt>
</event>
<event>
 6    1  0.6091287E-004  0.2976432E+04  0.7818608E-02  0.8250493E-01
          2   -1    0    0  501    0  0.00000000000E+00  0.00000000000E+00  0.16204918908E+04  0.16204918908E+04  0.00000000000E+00 0.  1.
         -2   -1    0    0    0  501 -0.00000000000E+00 -0.00000000000E+00 -0.13667371716E+04  0.13667371716E+04  0.00000000000E+00 0. -1.
         23    2    1    2    0    0  0.11253716061E+04 -0.43889389362E+03  0.99705863842E+03  0.15689237998E+04  0.91141973915E+02 0.  0.
         11    1    3    3    0    0  0.32672436754E+03 -0.16079752533E+03  0.33679620364E+03  0.49602050288E+03  0.00000000000E+00 0.  1.
        -11    1    3    3    0    0  0.79864723856E+03 -0.27809636830E+03  0.66026243478E+03  0.10729032969E+04  0.00000000000E+00 0. -1.
         22    1    1    2    0    0 -0.11253716061E+04  0.43889389362E+03 -0.74330391923E+03  0.14183052626E+04  0.00000000000E+00 0.  1.
<mgrwt>
<rscale>  0 0.29764318E+04</rscale>
<asrwt>0</asrwt>
<pdfrwt beam="1">  1        2 0.24930644E+00 0.29764318E+04</pdfrwt>
<pdfrwt beam="2">  1       -2 0.21026726E+00 0.29764318E+04</pdfrwt>
<totfact> 0.10625993E+00</totfact>
</mgrwt>
</event>
<event>
 6    1  0.6091287E-004  0.5634884E+04  0.7818608E-02  0.7737397E-01
          2   -1    0    0  501    0  0.00000000000E+00  0.00000000000E+00  0.37116646555E+04  0.37116646555E+04  0.00000000000E+00 0.  1.
         -2   -1    0    0    0  501 -0.00000000000E+00 -0.00000000000E+00 -0.21386572168E+04  0.21386572168E+04  0.00000000000E+00 0. -1.
         23    2    1    2    0    0 -0.24661508865E+04  0.45854079860E+03 -0.54351247560E+03  0.25682773255E+04  0.92101849676E+02 0.  0.
         13    1    3    3    0    0 -0.10197646113E+04  0.14684585736E+03 -0.24039306552E+03  0.10579567072E+04  0.00000000000E+00 0. -1.
        -13    1    3    3    0    0 -0.14463862752E+04  0.31169494124E+03 -0.30311941008E+03  0.15103206183E+04  0.00000000000E+00 0.  1.
         22    1    1    2    0    0  0.24661508865E+04 -0.45854079860E+03  0.21165199144E+04  0.32820445467E+04  0.00000000000E+00 0.  1.
<mgrwt>
<rscale>  0 0.56348836E+04</rscale>
<asrwt>0</asrwt>
<pdfrwt beam="1">  1        2 0.57102533E+00 0.56348836E+04</pdfrwt>
<pdfrwt beam="2">  1       -2 0.32902419E+00 0.56348836E+04</pdfrwt>
<totfact> 0.83137620E-03</totfact>
</mgrwt>
</event>
<event>
 6    1  0.6091287E-004  0.1554661E+04  0.7818608E-02  0.8848896E-01
         -2   -1    0    0    0  501 -0.00000000000E+00  0.00000000000E+00  0.11837122970E+04  0.11837122970E+04  0.00000000000E+00 0. -1.
          2   -1    0    0  501    0  0.00000000000E+00 -0.00000000000E+00 -0.51046442660E+03  0.51046442660E+03  0.00000000000E+00 0.  1.
         23    2    1    2    0    0  0.53590893245E+03  0.25795497975E+03  0.87861109845E+03  0.10649603770E+04  0.91891168306E+02 0.  0.
         13    1    3    3    0    0  0.39479736503E+03  0.22781429671E+03  0.70037852208E+03  0.83564010639E+03  0.00000000000E+00 0. -1.
        -13    1    3    3    0    0  0.14111156742E+03  0.30140683034E+02  0.17823257637E+03  0.22932027062E+03  0.00000000000E+00 0.  1.
         22    1    1    2    0    0 -0.53590893245E+03 -0.25795497975E+03 -0.20536322800E+03  0.62921634663E+03  0.00000000000E+00 0.  1.
<mgrwt>
<rscale>  0 0.15546614E+04</rscale>
<asrwt>0</asrwt>
<pdfrwt beam="1">  1        2 0.78532989E-01 0.15546614E+04</pdfrwt>
<pdfrwt beam="2">  1       -2 0.18210958E+00 0.15546614E+04</pdfrwt>
<totfact> 0.10131638E+01</totfact>
</mgrwt>
</event>
<event>
 6    1  0.6091287E-004  0.1391070E+04  0.7818608E-02  0.8960308E-01
          2   -1    0    0  501    0  0.00000000000E+00  0.00000000000E+00  0.18648346108E+04  0.18648346108E+04  0.00000000000E+00 0.  1.
         -2   -1    0    0    0  501 -0.00000000000E+00 -0.00000000000E+00 -0.25941660981E+03  0.25941660981E+03  0.00000000000E+00 0. -1.
         23    2    1    2    0    0 -0.21425835260E+03  0.57892411688E+03  0.32613895828E+03  0.70382359349E+03  0.89113724475E+02 0.  0.
         11    1    3    3    0    0 -0.78155670872E+02  0.10802733584E+03  0.76988703045E+02  0.15396582275E+03  0.00000000000E+00 0.  1.
        -11    1    3    3    0    0 -0.13610268172E+03  0.47089678104E+03  0.24915025524E+03  0.54985777075E+03  0.00000000000E+00 0. -1.
         22    1    1    2    0    0  0.21425835260E+03 -0.57892411688E+03  0.12792790427E+04  0.14204276271E+04  0.00000000000E+00 0. -1.
<mgrwt>
<rscale>  0 0.13910702E+04</rscale>
<asrwt>0</asrwt>
<pdfrwt beam="1">  1        2 0.28689762E+00 0.13910702E+04</pdfrwt>
<pdfrwt beam="2">  1       -2 0.39910249E-01 0.13910702E+04</pdfrwt>
<totfact> 0.45960683E+01</totfact>
</mgrwt>
</event>
<event>
 6    1  0.6700416E-004  0.3333449E+04  0.7818608E-02  0.8154436E-01
         -2   -1    0    0    0  501 -0.00000000000E+00  0.00000000000E+00  0.12219658346E+04  0.12219658346E+04  0.00000000000E+00 0. -1.
          2   -1    0    0  501    0  0.00000000000E+00 -0.00000000000E+00 -0.22733614064E+04  0.22733614064E+04  0.00000000000E+00 0.  1.
         23    2    1    2    0    0 -0.55440821809E+03  0.11121691839E+04 -0.16887748663E+04  0.20987094941E+04  0.91281026711E+02 0.  0.
         13    1    3    3    0    0 -0.48034812237E+03  0.88502864079E+03 -0.13519039911E+04  0.16857207405E+04  0.00000000000E+00 0.  1.
        -13    1    3    3    0    0 -0.74060095725E+02  0.22714054314E+03 -0.33687087519E+03  0.41298875368E+03  0.00000000000E+00 0. -1.
         22    1    1    2    0    0  0.55440821809E+03 -0.11121691839E+04  0.63737929444E+03  0.13966177469E+04  0.00000000000E+00 0. -1.
<mgrwt>
<rscale>  0 0.33334486E+04</rscale>
<asrwt>0</asrwt>
<pdfrwt beam="1">  1        2 0.34974790E+00 0.33334486E+04</pdfrwt>
<pdfrwt beam="2">  1       -2 0.18799475E+00 0.33334486E+04</pdfrwt>
<totfact> 0.62516351E-01</totfact>
</mgrwt>
</event>
<event>
 6    1  0.6091287E-004  0.2026763E+04  0.7818608E-02  0.8594209E-01
         -1   -1    0    0    0  501 -0.00000000000E+00  0.00000000000E+00  0.76232083283E+03  0.76232083283E+03  0.00000000000E+00 0. -1.
          1   -1    0    0  501    0  0.00000000000E+00 -0.00000000000E+00 -0.13471262953E+04  0.13471262953E+04  0.00000000000E+00 0.  1.
         23    2    1    2    0    0  0.34957166837E+03  0.51944715544E+03  0.53299901539E+03  0.82823186543E+03  0.99269199011E+02 0.  0.
         11    1    3    3    0    0  0.27337680147E+03  0.34361609966E+03  0.33167407288E+03  0.55028591673E+03  0.00000000000E+00 0.  1.
        -11    1    3    3    0    0  0.76194866899E+02  0.17583105578E+03  0.20132494252E+03  0.27794594870E+03  0.00000000000E+00 0. -1.
         22    1    1    2    0    0 -0.34957166837E+03 -0.51944715544E+03 -0.11178044778E+04  0.12812152627E+04  0.00000000000E+00 0.  1.
<mgrwt>
<rscale>  0 0.20267634E+04</rscale>
<asrwt>0</asrwt>
<pdfrwt beam="1">  1        1 0.20725020E+00 0.20267634E+04</pdfrwt>
<pdfrwt beam="2">  1       -1 0.11728013E+00 0.20267634E+04</pdfrwt>
<totfact> 0.50732659E+00</totfact>
</mgrwt>
</event>
<event>
 6    1  0.6091287E-004  0.2830764E+04  0.7818608E-02  0.8293780E-01
         -2   -1    0    0    0  501 -0.00000000000E+00  0.00000000000E+00  0.15440947136E+04  0.15440947136E+04  0.00000000000E+00 0. -1.
          2   -1    0    0  501    0  0.00000000000E+00 -0.00000000000E+00 -0.12973989219E+04  0.12973989219E+04  0.00000000000E+00 0.  1.
         23    2    1    2    0    0  0.88899534032E+03  0.88340988271E+03  0.78051225782E+03  0.14792580629E+04  0.90990636908E+02 0.  0.
         11    1    3    3    0    0  0.39950279349E+03  0.44936835578E+03  0.34299972220E+03  0.69223060508E+03  0.00000000000E+00 0. -1.
        -11    1    3    3    0    0  0.48949254683E+03  0.43404152693E+03  0.43751253562E+03  0.78702745780E+03  0.00000000000E+00 0.  1.
         22    1    1    2    0    0 -0.88899534032E+03 -0.88340988271E+03 -0.53381646607E+03  0.13622355727E+04  0.00000000000E+00 0.  1.
<mgrwt>
<rscale>  0 0.28307644E+04</rscale>
<asrwt>0</asrwt>
<pdfrwt beam="1">  1        2 0.19959983E+00 0.28307644E+04</pdfrwt>
<pdfrwt beam="2">  1       -2 0.23755303E+00 0.28307644E+04</pdfrwt>
<totfact> 0.11045669E+00</totfact>
</mgrwt>
</event>
<event>
 6    1  0.6091287E-004  0.1714526E+04  0.7818608E-02  0.8753123E-01
          3   -1    0    0  501    0  0.00000000000E+00  0.00000000000E+00  0.39449646101E+03  0.39449646101E+03  0.00000000000E+00 0.  1.
         -3   -1    0    0    0  501 -0.00000000000E+00 -0.00000000000E+00 -0.18628796915E+04  0.18628796915E+04  0.00000000000E+00 0. -1.
         23    2    1    2    0    0 -0.54812049640E+03  0.63520747121E+03 -0.95214097726E+03  0.12722717550E+04  0.90434329016E+02 0.  0.
         13    1    3    3    0    0 -0.24816396394E+03  0.29315875007E+03 -0.50404043790E+03  0.63370668987E+03  0.00000000000E+00 0. -1.
        -13    1    3    3    0    0 -0.29995653246E+03  0.34204872114E+03 -0.44810053935E+03  0.63856506510E+03  0.00000000000E+00 0.  1.
         22    1    1    2    0    0  0.54812049640E+03 -0.63520747121E+03 -0.51624225322E+03  0.98510439754E+03  0.00000000000E+00 0.  1.
<mgrwt>
<rscale>  0 0.17145255E+04</rscale>
<asrwt>0</asrwt>
<pdfrwt beam="1">  1        3 0.60691761E-01 0.17145255E+04</pdfrwt>
<pdfrwt beam="2">  1       -3 0.28659688E+00 0.17145255E+04</pdfrwt>
<totfact> 0.29861177E-01</totfact>
</mgrwt>
</event>
<event>
 6    1  0.6091287E-004  0.1279902E+04  0.7818608E-02  0.9045656E-01
          2   -1    0    0  501    0  0.00000000000E+00  0.00000000000E+00  0.16614702270E+04  0.16614702270E+04  0.00000000000E+00 0.  1.
         -2   -1    0    0    0  501 -0.00000000000E+00 -0.00000000000E+00 -0.24649099322E+03  0.24649099322E+03  0.00000000000E+00 0. -1.
         23    2    1    2    0    0 -0.38251359323E+03  0.14119548651E+02  0.14697024754E+04  0.15212951578E+04  0.88303909902E+02 0.  0.
         11    1    3    3    0    0 -0.25882827811E+03 -0.13496521136E+01  0.82486859275E+03  0.86452420118E+03  0.00000000000E+00 0.  1.
        -11    1    3    3    0    0 -0.12368531513E+03  0.15469200765E+02  0.64483388261E+03  0.65677095666E+03  0.00000000000E+00 0. -1.
         22    1    1    2    0    0  0.38251359323E+03 -0.14119548651E+02 -0.54723241544E+02  0.38666606242E+03  0.00000000000E+00 0. -1.
<mgrwt>
<rscale>  0 0.12799023E+04</rscale>
<asrwt>0</asrwt>
<pdfrwt beam="1">  1        2 0.25561080E+00 0.12799023E+04</pdfrwt>
<pdfrwt beam="2">  1       -2 0.37921692E-01 0.12799023E+04</pdfrwt>
<totfact> 0.66360426E+01</totfact>
</mgrwt>
</event>
<event>
 6    1  0.6091287E-004  0.4069733E+04  0.7818608E-02  0.7990625E-01
          4   -1    0    0  501    0  0.00000000000E+00  0.00000000000E+00  0.17997621031E+04  0.17997621031E+04  0.00000000000E+00 0.  1.
         -4   -1    0    0    0  501 -0.00000000000E+00 -0.00000000000E+00 -0.23006826480E+04  0.23006826480E+04  0.00000000000E+00 0. -1.
         23    2    1    2    0    0  0.32279235842E+01 -0.13797893162E+04 -0.17561085130E+04  0.22351496506E+04  0.90265579654E+02 0.  0.
         11    1    3    3    0    0 -0.98941606615E+01 -0.10192378345E+03 -0.16758549385E+03  0.19639564608E+03  0.00000000000E+00 0.  1.
        -11    1    3    3    0    0  0.13122084246E+02 -0.12778655327E+04 -0.15885230191E+04  0.20387540046E+04  0.00000000000E+00 0. -1.
         22    1    1    2    0    0 -0.32279235842E+01  0.13797893162E+04  0.12551879681E+04  0.18652951004E+04  0.00000000000E+00 0.  1.
<mgrwt>
<rscale>  0 0.40697329E+04</rscale>
<asrwt>0</asrwt>
<pdfrwt beam="1">  1        4 0.27688648E+00 0.40697329E+04</pdfrwt>
<pdfrwt beam="2">  1       -4 0.35395118E+00 0.40697329E+04</pdfrwt>
<totfact> 0.92114564E-04</totfact>
</mgrwt>
</event>
<event>
 6    1  0.6091287E-004  0.2017828E+04  0.7818608E-02  0.8598331E-01
         -2   -1    0    0    0  501 -0.00000000000E+00  0.00000000000E+00  0.58636952777E+03  0.58636952777E+03  0.00000000000E+00 0. -1.
          2   -1    0    0  501    0  0.00000000000E+00 -0.00000000000E+00 -0.17359487503E+04  0.17359487503E+04  0.00000000000E+00 0.  1.
         23    2    1    2    0    0 -0.46496486577E+03  0.87953244092E+03 -0.75463665927E+03  0.12519214968E+04  0.89784774266E+02 0.  0.
         13    1    3    3    0    0 -0.24510003225E+02  0.61491934439E+02 -0.25681072435E+02  0.71003631883E+02  0.00000000000E+00 0. -1.
        -13    1    3    3    0    0 -0.44045486254E+03  0.81804050648E+03 -0.72895558684E+03  0.11809178650E+04  0.00000000000E+00 0.  1.
         22    1    1    2    0    0  0.46496486577E+03 -0.87953244092E+03 -0.39494256327E+03  0.10703967813E+04  0.00000000000E+00 0. -1.
<mgrwt>
<rscale>  0 0.20178280E+04</rscale>
<asrwt>0</asrwt>
<pdfrwt beam="1">  1        2 0.26706904E+00 0.20178280E+04</pdfrwt>
<pdfrwt beam="2">  1       -2 0.90210697E-01 0.20178280E+04</pdfrwt>
<totfact> 0.91325939E+00</totfact>
</mgrwt>
</event>
<event>
 6    1  0.6091287E-004  0.4300795E+04  0.7818608E-02  0.7946471E-01
          2   -1    0    0  501    0  0.00000000000E+00  0.00000000000E+00  0.13938305371E+04  0.13938305371E+04  0.00000000000E+00 0.  1.
         -2   -1    0    0    0  501 -0.00000000000E+00 -0.00000000000E+00 -0.33176262995E+04  0.33176262995E+04  0.00000000000E+00 0. -1.
         23    2    1    2    0    0 -0.14722568357E+04 -0.14808735248E+03 -0.26702327429E+04  0.30541583662E+04  0.90941574254E+02 0.  0.
         11    1    3    3    0    0 -0.84069672099E+03 -0.78772198614E+02 -0.14310372959E+04  0.16615787006E+04  0.00000000000E+00 0. -1.
        -11    1    3    3    0    0 -0.63156011474E+03 -0.69315153867E+02 -0.12391954471E+04  0.13925796656E+04  0.00000000000E+00 0.  1.
         22    1    1    2    0    0  0.14722568357E+04  0.14808735248E+03  0.74643698049E+03  0.16572984705E+04  0.00000000000E+00 0.  1.
<mgrwt>
<rscale>  0 0.43007947E+04</rscale>
<asrwt>0</asrwt>
<pdfrwt beam="1">  1        2 0.21443547E+00 0.43007947E+04</pdfrwt>
<pdfrwt beam="2">  1       -2 0.51040403E+00 0.43007947E+04</pdfrwt>
<totfact> 0.16054034E-02</totfact>
</mgrwt>
</event>
<event>
 6    1  0.6091287E-004  0.1393538E+04  0.7818608E-02  0.8958510E-01
          2   -1    0    0  501    0  0.00000000000E+00  0.00000000000E+00  0.62157559838E+03  0.62157559838E+03  0.00000000000E+00 0.  1.
         -2   -1    0    0    0  501 -0.00000000000E+00 -0.00000000000E+00 -0.78105834542E+03  0.78105834542E+03  0.00000000000E+00 0. -1.
         23    2    1    2    0    0  0.15382079622E+03 -0.61681586000E+02 -0.75794582285E+03  0.78164802729E+03  0.95006909098E+02 0.  0.
         11    1    3    3    0    0  0.15058634476E+03 -0.23474000116E+02 -0.62185972378E+03  0.64026306466E+03  0.00000000000E+00 0. -1.
        -11    1    3    3    0    0  0.32344514638E+01 -0.38207585883E+02 -0.13608609907E+03  0.14138496262E+03  0.00000000000E+00 0.  1.
         22    1    1    2    0    0 -0.15382079622E+03  0.61681586000E+02  0.59846307581E+03  0.62098591651E+03  0.00000000000E+00 0.  1.
<mgrwt>
<rscale>  0 0.13935377E+04</rscale>
<asrwt>0</asrwt>
<pdfrwt beam="1">  1        2 0.95627016E-01 0.13935377E+04</pdfrwt>
<pdfrwt beam="2">  1       -2 0.12016282E+00 0.13935377E+04</pdfrwt>
<totfact> 0.24477158E+01</totfact>
</mgrwt>
</event>
<event>
 6    1  0.6091287E-004  0.5954405E+04  0.7818608E-02  0.7696081E-01
          2   -1    0    0  501    0  0.00000000000E+00  0.00000000000E+00  0.42738738109E+04  0.42738738109E+04  0.00000000000E+00 0.  1.
         -2   -1    0    0    0  501 -0.00000000000E+00 -0.00000000000E+00 -0.20739344290E+04  0.20739344290E+04  0.00000000000E+00 0. -1.
         23    2    1    2    0    0 -0.12100275095E+04  0.11861257558E+04  0.37090736947E+04  0.40787671965E+04  0.89740112354E+02 0.  0.
         11    1    3    3    0    0 -0.81587821099E+03  0.83072268748E+03  0.24616310797E+04  0.27231204548E+04  0.00000000000E+00 0.  1.
        -11    1    3    3    0    0 -0.39414929854E+03  0.35540306834E+03  0.12474426151E+04  0.13556467417E+04  0.00000000000E+00 0. -1.
         22    1    1    2    0    0  0.12100275095E+04 -0.11861257558E+04 -0.15091343129E+04  0.22690410434E+04  0.00000000000E+00 0. -1.
<mgrwt>
<rscale>  0 0.59544048E+04</rscale>
<asrwt>0</asrwt>
<pdfrwt beam="1">  1        2 0.65751904E+00 0.59544048E+04</pdfrwt>
<pdfrwt beam="2">  1       -2 0.31906684E+00 0.59544048E+04</pdfrwt>
<totfact> 0.32536325E-03</totfact>
</mgrwt>
</event>
<event>
 6    1  0.6091287E-004  0.6975462E+04  0.7818608E-02  0.7579971E-01
          2   -1    0    0  501    0  0.00000000000E+00  0.00000000000E+00  0.35662814758E+04  0.35662814758E+04  0.00000000000E+00 0.  1.
         -2   -1    0    0    0  501 -0.00000000000E+00 -0.00000000000E+00 -0.34109108822E+04  0.34109108822E+04  0.00000000000E+00 0. -1.
         23    2    1    2    0    0  0.22389230593E+04  0.24211147079E+04 -0.10564567860E+04  0.34639177471E+04  0.89734738893E+02 0.  0.
         11    1    3    3    0    0  0.95576532159E+03  0.10133292074E+04 -0.40203883074E+03  0.14498133169E+04  0.00000000000E+00 0. -1.
        -11    1    3    3    0    0  0.12831577377E+04  0.14077855005E+04 -0.65441795526E+03  0.20141044302E+04  0.00000000000E+00 0.  1.
         22    1    1    2    0    0 -0.22389230593E+04 -0.24211147079E+04  0.12118273796E+04  0.35132746110E+04  0.00000000000E+00 0.  1.
<mgrwt>
<rscale>  0 0.69754622E+04</rscale>
<asrwt>0</asrwt>
<pdfrwt beam="1">  1        2 0.54865869E+00 0.69754622E+04</pdfrwt>
<pdfrwt beam="2">  1       -2 0.52475552E+00 0.69754622E+04</pdfrwt>
<totfact> 0.54389592E-04</totfact>
</mgrwt>
</event>
<event>
 6    1  0.6091287E-004  0.3059965E+04  0.7818608E-02  0.8226812E-01
          2   -1    0    0  501    0  0.00000000000E+00  0.00000000000E+00  0.16280813483E+04  0.16280813483E+04  0.00000000000E+00 0. -1.
         -2   -1    0    0    0  501 -0.00000000000E+00 -0.00000000000E+00 -0.14377943743E+04  0.14377943743E+04  0.00000000000E+00 0.  1.
         23    2    1    2    0    0  0.48775888853E+03  0.42398396168E+03 -0.12927382103E+04  0.14481505203E+04  0.91086309718E+02 0.  0.
         13    1    3    3    0    0  0.52243399580E+02  0.89058585693E+02 -0.20620202411E+03  0.23060806411E+03  0.00000000000E+00 0.  1.
        -13    1    3    3    0    0  0.43551548895E+03  0.33492537599E+03 -0.10865361862E+04  0.12175424562E+04  0.00000000000E+00 0. -1.
         22    1    1    2    0    0 -0.48775888853E+03 -0.42398396168E+03  0.14830251843E+04  0.16177252023E+04  0.00000000000E+00 0. -1.
<mgrwt>
<rscale>  0 0.30599648E+04</rscale>
<asrwt>0</asrwt>
<pdfrwt beam="1">  1        2 0.25047405E+00 0.30599648E+04</pdfrwt>
<pdfrwt beam="2">  1       -2 0.22119914E+00 0.30599648E+04</pdfrwt>
<totfact> 0.88989236E-01</totfact>
</mgrwt>
</event>
<event>
 6    1  0.6091287E-004  0.6699811E+03  0.7818608E-02  0.9769992E-01
         -4   -1    0    0    0  501 -0.00000000000E+00  0.00000000000E+00  0.37695955422E+03  0.37695955422E+03  0.00000000000E+00 0. -1.
          4   -1    0    0  501    0  0.00000000000E+00 -0.00000000000E+00 -0.29769422324E+03  0.29769422324E+03  0.00000000000E+00 0.  1.
         23    2    1    2    0    0 -0.82858171347E+02 -0.95272878553E+02 -0.26513040620E+03  0.30784207954E+03  0.92359166812E+02 0.  0.
         11    1    3    3    0    0  0.98255772822E+00 -0.22280195361E+02 -0.13440514899E+03  0.13624285890E+03  0.00000000000E+00 0. -1.
        -11    1    3    3    0    0 -0.83840729075E+02 -0.72992683192E+02 -0.13072525721E+03  0.17159922064E+03  0.00000000000E+00 0.  1.
         22    1    1    2    0    0  0.82858171347E+02  0.95272878553E+02  0.34439573718E+03  0.36681169793E+03  0.00000000000E+00 0. -1.
<mgrwt>
<rscale>  0 0.66998114E+03</rscale>
<asrwt>0</asrwt>
<pdfrwt beam="1">  1        4 0.45799111E-01 0.66998114E+03</pdfrwt>
<pdfrwt beam="2">  1       -4 0.57993778E-01 0.66998114E+03</pdfrwt>
<totfact> 0.25852931E+01</totfact>
</mgrwt>
</event>
<event>
 6    1  0.6091287E-004  0.1867761E+04  0.7818608E-02  0.8671072E-01
         -2   -1    0    0    0  501 -0.00000000000E+00  0.00000000000E+00  0.52422466367E+03  0.52422466367E+03  0.00000000000E+00 0. -1.
          2   -1    0    0  501    0  0.00000000000E+00 -0.00000000000E+00 -0.16636623086E+04  0.16636623086E+04  0.00000000000E+00 0.  1.
         23    2    1    2    0    0 -0.27369903285E+02  0.65179617984E+03  0.20782021323E+03  0.69099315238E+03  0.93246576028E+02 0.  0.
         11    1    3    3    0    0 -0.52375909261E+02  0.38243718764E+03  0.15151454736E+03  0.41467830474E+03  0.00000000000E+00 0.  1.
        -11    1    3    3    0    0  0.25006005977E+02  0.26935899220E+03  0.56305665877E+02  0.27631484764E+03  0.00000000000E+00 0. -1.
         22    1    1    2    0    0  0.27369903285E+02 -0.65179617984E+03 -0.13472578582E+04  0.14968938199E+04  0.00000000000E+00 0.  1.
<mgrwt>
<rscale>  0 0.18677610E+04</rscale>
<asrwt>0</asrwt>
<pdfrwt beam="1">  1        2 0.25594804E+00 0.18677610E+04</pdfrwt>
<pdfrwt beam="2">  1       -2 0.80649950E-01 0.18677610E+04</pdfrwt>
<totfact> 0.13094633E+01</totfact>
</mgrwt>
</event>
<event>
 6    1  0.6091287E-004  0.2309014E+04  0.7818608E-02  0.8474376E-01
         -2   -1    0    0    0  501 -0.00000000000E+00  0.00000000000E+00  0.51706986403E+03  0.51706986403E+03  0.00000000000E+00 0. -1.
          2   -1    0    0  501    0  0.00000000000E+00 -0.00000000000E+00 -0.25777676485E+04  0.25777676485E+04  0.00000000000E+00 0.  1.
         23    2    1    2    0    0 -0.84528576731E+01  0.76330525497E+03 -0.21900403018E+04  0.23206050862E+04  0.78899174455E+02 0.  0.
         13    1    3    3    0    0 -0.75947568763E+01  0.54168089873E+03 -0.16576736559E+04  0.17439489172E+04  0.00000000000E+00 0.  1.
        -13    1    3    3    0    0 -0.85810079674E+00  0.22162435624E+03 -0.53236664587E+03  0.57665616901E+03  0.00000000000E+00 0. -1.
         22    1    1    2    0    0  0.84528576731E+01 -0.76330525497E+03  0.12934251735E+03  0.77423242626E+03  0.00000000000E+00 0. -1.
<mgrwt>
<rscale>  0 0.23090136E+04</rscale>
<asrwt>0</asrwt>
<pdfrwt beam="1">  1        2 0.39657964E+00 0.23090136E+04</pdfrwt>
<pdfrwt beam="2">  1       -2 0.79549209E-01 0.23090136E+04</pdfrwt>
<totfact> 0.39776049E+00</totfact>
</mgrwt>
</event>
<event>
 6    1  0.6091287E-004  0.2857400E+04  0.7818608E-02  0.8285666E-01
         -2   -1    0    0    0  501 -0.00000000000E+00  0.00000000000E+00  0.68838051347E+03  0.68838051347E+03  0.00000000000E+00 0.  1.
          2   -1    0    0  501    0  0.00000000000E+00 -0.00000000000E+00 -0.29651964848E+04  0.29651964848E+04  0.00000000000E+00 0. -1.
         23    2    1    2    0    0  0.69543030319E+02  0.13861689566E+04 -0.71427474827E+03  0.15636402329E+04  0.92096431358E+02 0.  0.
         13    1    3    3    0    0 -0.52566720749E+01  0.72944733797E+03 -0.35315196993E+03  0.81045503597E+03  0.00000000000E+00 0. -1.
        -13    1    3    3    0    0  0.74799702394E+02  0.65672161866E+03 -0.36112277834E+03  0.75318519697E+03  0.00000000000E+00 0.  1.
         22    1    1    2    0    0 -0.69543030319E+02 -0.13861689566E+04 -0.15625412231E+04  0.20899367654E+04  0.00000000000E+00 0. -1.
<mgrwt>
<rscale>  0 0.28573999E+04</rscale>
<asrwt>0</asrwt>
<pdfrwt beam="1">  1        2 0.45618408E+00 0.28573999E+04</pdfrwt>
<pdfrwt beam="2">  1       -2 0.10590469E+00 0.28573999E+04</pdfrwt>
<totfact> 0.11411132E+00</totfact>
</mgrwt>
</event>
<event>
 6    1  0.6091287E-004  0.2671803E+04  0.7818608E-02  0.8344212E-01
         -2   -1    0    0    0  501 -0.00000000000E+00  0.00000000000E+00  0.11176874236E+04  0.11176874236E+04  0.00000000000E+00 0. -1.
          2   -1    0    0  501    0  0.00000000000E+00 -0.00000000000E+00 -0.15967192143E+04  0.15967192143E+04  0.00000000000E+00 0.  1.
         23    2    1    2    0    0 -0.23459304778E+03 -0.26730875153E+03 -0.15464026131E+04  0.15893429333E+04  0.90344071829E+02 0.  0.
         11    1    3    3    0    0 -0.38407152965E+02 -0.90219309905E+01 -0.24349754968E+03  0.24667298461E+03  0.00000000000E+00 0.  1.
        -11    1    3    3    0    0 -0.19618589482E+03 -0.25828682054E+03 -0.13029050634E+04  0.13426699487E+04  0.00000000000E+00 0. -1.
         22    1    1    2    0    0  0.23459304778E+03  0.26730875153E+03  0.10673708224E+04  0.11250637045E+04  0.00000000000E+00 0. -1.
<mgrwt>
<rscale>  0 0.26718031E+04</rscale>
<asrwt>0</asrwt>
<pdfrwt beam="1">  1        2 0.24564911E+00 0.26718031E+04</pdfrwt>
<pdfrwt beam="2">  1       -2 0.17195191E+00 0.26718031E+04</pdfrwt>
<totfact> 0.20333369E+00</totfact>
</mgrwt>
</event>
<event>
 6    1  0.6091287E-004  0.1829001E+04  0.7818608E-02  0.8691027E-01
          2   -1    0    0  501    0  0.00000000000E+00  0.00000000000E+00  0.13075356018E+04  0.13075356018E+04  0.00000000000E+00 0.  1.
         -2   -1    0    0    0  501 -0.00000000000E+00 -0.00000000000E+00 -0.63960892605E+03  0.63960892605E+03  0.00000000000E+00 0. -1.
         23    2    1    2    0    0 -0.21628678036E+03 -0.76007659304E+03  0.81990774123E+03  0.11424118747E+04  0.91431880582E+02 0.  0.
         11    1    3    3    0    0 -0.14579178206E+03 -0.35803650523E+03  0.42390884642E+03  0.57371080943E+03  0.00000000000E+00 0.  1.
        -11    1    3    3    0    0 -0.70494998301E+02 -0.40204008781E+03  0.39599889481E+03  0.56870106531E+03  0.00000000000E+00 0. -1.
         22    1    1    2    0    0  0.21628678036E+03  0.76007659304E+03 -0.15198106551E+03  0.80473265307E+03  0.00000000000E+00 0. -1.
<mgrwt>
<rscale>  0 0.18290013E+04</rscale>
<asrwt>0</asrwt>
<pdfrwt beam="1">  1        2 0.20115932E+00 0.18290013E+04</pdfrwt>
<pdfrwt beam="2">  1       -2 0.98401373E-01 0.18290013E+04</pdfrwt>
<totfact> 0.13228460E+01</totfact>
</mgrwt>
</event>
<event>
 6    1  0.6091287E-004  0.2535186E+04  0.7818608E-02  0.8390556E-01
         -2   -1    0    0    0  501 -0.00000000000E+00  0.00000000000E+00  0.10104283901E+04  0.10104283901E+04  0.00000000000E+00 0. -1.
          2   -1    0    0  501    0  0.00000000000E+00 -0.00000000000E+00 -0.15902089566E+04  0.15902089566E+04  0.00000000000E+00 0.  1.
         23    2    1    2    0    0  0.11819828493E+03  0.37162863842E+03  0.94525442414E+03  0.10265311235E+04  0.90451875398E+02 0.  0.
         13    1    3    3    0    0  0.12952606205E+03  0.32126291383E+03  0.78136838789E+03  0.85470662694E+03  0.00000000000E+00 0. -1.
        -13    1    3    3    0    0 -0.11327777121E+02  0.50365724591E+02  0.16388603625E+03  0.17182449659E+03  0.00000000000E+00 0.  1.
         22    1    1    2    0    0 -0.11819828493E+03 -0.37162863842E+03 -0.15250349906E+04  0.15741062232E+04  0.00000000000E+00 0.  1.
<mgrwt>
<rscale>  0 0.25351862E+04</rscale>
<asrwt>0</asrwt>
<pdfrwt beam="1">  1        2 0.24464753E+00 0.25351862E+04</pdfrwt>
<pdfrwt beam="2">  1       -2 0.15545052E+00 0.25351862E+04</pdfrwt>
<totfact> 0.27361604E+00</totfact>
</mgrwt>
</event>
<event>
 6    1  0.6091287E-004  0.4125308E+04  0.7818608E-02  0.7979734E-01
          2   -1    0    0  501    0  0.00000000000E+00  0.00000000000E+00  0.21557666006E+04  0.21557666006E+04  0.00000000000E+00 0.  1.
         -2   -1    0    0    0  501 -0.00000000000E+00 -0.00000000000E+00 -0.19735628213E+04  0.19735628213E+04  0.00000000000E+00 0. -1.
         23    2    1    2    0    0 -0.13913313452E+04  0.12467442524E+04 -0.78163756598E+03  0.20271485824E+04  0.90553561554E+02 0.  0.
         13    1    3    3    0    0 -0.38263371206E+03  0.33114276022E+03 -0.25469295251E+03  0.56650912200E+03  0.00000000000E+00 0.  1.
        -13    1    3    3    0    0 -0.10086976331E+04  0.91560149222E+03 -0.52694461346E+03  0.14606394604E+04  0.00000000000E+00 0. -1.
         22    1    1    2    0    0  0.13913313452E+04 -0.12467442524E+04  0.96384134528E+03  0.21021808395E+04  0.00000000000E+00 0.  1.
<mgrwt>
<rscale>  0 0.41253077E+04</rscale>
<asrwt>0</asrwt>
<pdfrwt beam="1">  1        2 0.33165640E+00 0.41253077E+04</pdfrwt>
<pdfrwt beam="2">  1       -2 0.30362505E+00 0.41253077E+04</pdfrwt>
<totfact> 0.12896103E-01</totfact>
</mgrwt>
</event>
<event>
 6    1  0.6091287E-004  0.1462491E+04  0.7818608E-02  0.8909787E-01
          2   -1    0    0  501    0  0.00000000000E+00  0.00000000000E+00  0.29654904488E+04  0.29654904488E+04  0.00000000000E+00 0.  1.
         -2   -1    0    0    0  501 -0.00000000000E+00 -0.00000000000E+00 -0.18031411771E+03  0.18031411771E+03  0.00000000000E+00 0. -1.
         23    2    1    2    0    0 -0.38028294530E+03  0.33305651299E+03  0.25260383333E+04  0.25777427202E+04  0.91357052586E+02 0.  0.
         13    1    3    3    0    0 -0.33080751917E+03  0.28868304642E+03  0.23222641084E+04  0.23634047696E+04  0.00000000000E+00 0. -1.
        -13    1    3    3    0    0 -0.49475426127E+02  0.44373466561E+02  0.20377422492E+03  0.21433795059E+03  0.00000000000E+00 0.  1.
         22    1    1    2    0    0  0.38028294530E+03 -0.33305651299E+03  0.25913799783E+03  0.56806184632E+03  0.00000000000E+00 0. -1.
<mgrwt>
<rscale>  0 0.14624907E+04</rscale>
<asrwt>0</asrwt>
<pdfrwt beam="1">  1        2 0.45622926E+00 0.14624907E+04</pdfrwt>
<pdfrwt beam="2">  1       -2 0.27740636E-01 0.14624907E+04</pdfrwt>
<totfact> 0.21185057E+01</totfact>
</mgrwt>
</event>
<event>
 6    1  0.6091287E-004  0.3944407E+04  0.7818608E-02  0.8015856E-01
         -2   -1    0    0    0  501 -0.00000000000E+00  0.00000000000E+00  0.11055146437E+04  0.11055146437E+04  0.00000000000E+00 0. -1.
          2   -1    0    0  501    0  0.00000000000E+00 -0.00000000000E+00 -0.35183494750E+04  0.35183494750E+04  0.00000000000E+00 0.  1.
         23    2    1    2    0    0 -0.70214900198E+03  0.24558439429E+03 -0.33469260589E+04  0.34297739474E+04  0.90057597699E+02 0.  0.
         13    1    3    3    0    0 -0.24514790480E+03  0.43170598078E+02 -0.11753268461E+04  0.12013968499E+04  0.00000000000E+00 0. -1.
        -13    1    3    3    0    0 -0.45700109719E+03  0.20241379622E+03 -0.21715992128E+04  0.22283770976E+04  0.00000000000E+00 0.  1.
         22    1    1    2    0    0  0.70214900198E+03 -0.24558439429E+03  0.93409122762E+03  0.11940901713E+04  0.00000000000E+00 0. -1.
<mgrwt>
<rscale>  0 0.39444071E+04</rscale>
<asrwt>0</asrwt>
<pdfrwt beam="1">  1        2 0.54128453E+00 0.39444071E+04</pdfrwt>
<pdfrwt beam="2">  1       -2 0.17007918E+00 0.39444071E+04</pdfrwt>
<totfact> 0.13286918E-01</totfact>
</mgrwt>
</event>
<event>
 6    1  0.6091287E-004  0.1865566E+04  0.7818608E-02  0.8672189E-01
         -2   -1    0    0    0  501 -0.00000000000E+00  0.00000000000E+00  0.61045068007E+03  0.61045068007E+03  0.00000000000E+00 0. -1.
          2   -1    0    0  501    0  0.00000000000E+00 -0.00000000000E+00 -0.14253146491E+04  0.14253146491E+04  0.00000000000E+00 0.  1.
         23    2    1    2    0    0  0.27090623429E+03  0.11184137719E+03 -0.13718304438E+04  0.14063923590E+04  0.10060824822E+03 0.  0.
         13    1    3    3    0    0  0.27155992730E+03  0.87721972843E+02 -0.12451163746E+04  0.12774015520E+04  0.00000000000E+00 0.  1.
        -13    1    3    3    0    0 -0.65369301076E+00  0.24119404346E+02 -0.12671406916E+03  0.12899080705E+03  0.00000000000E+00 0. -1.
         22    1    1    2    0    0 -0.27090623429E+03 -0.11184137719E+03  0.55696647480E+03  0.62937297009E+03  0.00000000000E+00 0. -1.
<mgrwt>
<rscale>  0 0.18655662E+04</rscale>
<asrwt>0</asrwt>
<pdfrwt beam="1">  1        2 0.21927917E+00 0.18655662E+04</pdfrwt>
<pdfrwt beam="2">  1       -2 0.93915491E-01 0.18655662E+04</pdfrwt>
<totfact> 0.12584936E+01</totfact>
</mgrwt>
</event>
<event>
 6    1  0.6091287E-004  0.7331759E+03  0.7818608E-02  0.9662121E-01
         -2   -1    0    0    0  501 -0.00000000000E+00  0.00000000000E+00  0.71125964502E+02  0.71125964502E+02  0.00000000000E+00 0. -1.
          2   -1    0    0  501    0  0.00000000000E+00 -0.00000000000E+00 -0.18894186163E+04  0.18894186163E+04  0.00000000000E+00 0.  1.
         23    2    1    2    0    0 -0.12326368619E+03  0.11649408452E+03 -0.17754783684E+04  0.17856221096E+04  0.85779213886E+02 0.  0.
         13    1    3    3    0    0 -0.62805872625E+02  0.96258749178E+02 -0.81957132510E+03  0.82759137342E+03  0.00000000000E+00 0. -1.
        -13    1    3    3    0    0 -0.60457813566E+02  0.20235335339E+02 -0.95590704330E+03  0.95803073617E+03  0.00000000000E+00 0.  1.
         22    1    1    2    0    0  0.12326368619E+03 -0.11649408452E+03 -0.42814283353E+02  0.17492247117E+03  0.00000000000E+00 0. -1.
<mgrwt>
<rscale>  0 0.73317589E+03</rscale>
<asrwt>0</asrwt>
<pdfrwt beam="1">  1        2 0.29067980E+00 0.73317589E+03</pdfrwt>
<pdfrwt beam="2">  1       -2 0.10942455E-01 0.73317589E+03</pdfrwt>
<totfact> 0.46602587E+02</totfact>
</mgrwt>
</event>
<event>
 6    1  0.6091287E-004  0.7433729E+03  0.7818608E-02  0.9645805E-01
         -2   -1    0    0    0  501 -0.00000000000E+00  0.00000000000E+00  0.11610186647E+03  0.11610186647E+03  0.00000000000E+00 0. -1.
          2   -1    0    0  501    0  0.00000000000E+00 -0.00000000000E+00 -0.11899103954E+04  0.11899103954E+04  0.00000000000E+00 0.  1.
         23    2    1    2    0    0 -0.26251484532E+03 -0.24373241284E+03 -0.67746720960E+03  0.77177825463E+03  0.91434791785E+02 0.  0.
         13    1    3    3    0    0 -0.65144625088E+02 -0.10715333401E+03 -0.17925848248E+03  0.21876759977E+03  0.00000000000E+00 0. -1.
        -13    1    3    3    0    0 -0.19737022024E+03 -0.13657907884E+03 -0.49820872713E+03  0.55301065487E+03  0.00000000000E+00 0.  1.
         22    1    1    2    0    0  0.26251484532E+03  0.24373241284E+03 -0.39634131935E+03  0.53423400726E+03  0.00000000000E+00 0.  1.
<mgrwt>
<rscale>  0 0.74337290E+03</rscale>
<asrwt>0</asrwt>
<pdfrwt beam="1">  1        2 0.18306314E+00 0.74337290E+03</pdfrwt>
<pdfrwt beam="2">  1       -2 0.17861825E-01 0.74337290E+03</pdfrwt>
<totfact> 0.50307067E+02</totfact>
</mgrwt>
</event>
<event>
 6    1  0.6091287E-004  0.2601586E+04  0.7818608E-02  0.8367663E-01
         -2   -1    0    0    0  501 -0.00000000000E+00  0.00000000000E+00  0.80041054409E+03  0.80041054409E+03  0.00000000000E+00 0. -1.
          2   -1    0    0  501    0  0.00000000000E+00 -0.00000000000E+00 -0.21139932501E+04  0.21139932501E+04  0.00000000000E+00 0.  1.
         23    2    1    2    0    0  0.89412120813E+03  0.37112718309E+03  0.31011250355E+03  0.10240138200E+04  0.12347638593E+03 0.  0.
         11    1    3    3    0    0  0.73146400888E+03  0.26935061258E+03  0.20845086844E+03  0.80687118758E+03  0.00000000000E+00 0.  1.
        -11    1    3    3    0    0  0.16265719925E+03  0.10177657051E+03  0.10166163512E+03  0.21714263245E+03  0.00000000000E+00 0. -1.
         22    1    1    2    0    0 -0.89412120813E+03 -0.37112718309E+03 -0.16236952095E+04  0.18903899741E+04  0.00000000000E+00 0.  1.
<mgrwt>
<rscale>  0 0.26015860E+04</rscale>
<asrwt>0</asrwt>
<pdfrwt beam="1">  1        2 0.32522973E+00 0.26015860E+04</pdfrwt>
<pdfrwt beam="2">  1       -2 0.12314008E+00 0.26015860E+04</pdfrwt>
<totfact> 0.25409409E+00</totfact>
</mgrwt>
</event>
<event>
 6    1  0.6091287E-004  0.3394494E+04  0.7818608E-02  0.8139259E-01
          1   -1    0    0  501    0  0.00000000000E+00  0.00000000000E+00  0.29523252612E+04  0.29523252612E+04  0.00000000000E+00 0.  1.
         -1   -1    0    0    0  501 -0.00000000000E+00 -0.00000000000E+00 -0.97572163702E+03  0.97572163702E+03  0.00000000000E+00 0. -1.
         23    2    1    2    0    0  0.60001243349E+03  0.15802886390E+04  0.82890822230E+03  0.18848797885E+04  0.91410464668E+02 0.  0.
         13    1    3    3    0    0  0.28524897439E+03  0.87645622629E+03  0.44032255670E+03  0.10214824756E+04  0.00000000000E+00 0. -1.
        -13    1    3    3    0    0  0.31476345909E+03  0.70383241271E+03  0.38858566560E+03  0.86339731287E+03  0.00000000000E+00 0.  1.
         22    1    1    2    0    0 -0.60001243349E+03 -0.15802886390E+04  0.11476954019E+04  0.20431671097E+04  0.00000000000E+00 0.  1.
<mgrwt>
<rscale>  0 0.33944942E+04</rscale>
<asrwt>0</asrwt>
<pdfrwt beam="1">  1        1 0.45420388E+00 0.33944942E+04</pdfrwt>
<pdfrwt beam="2">  1       -1 0.15011102E+00 0.33944942E+04</pdfrwt>
<totfact> 0.18543156E-01</totfact>
</mgrwt>
</event>
<event>
 6    1  0.6091287E-004  0.2950286E+04  0.7818608E-02  0.8258071E-01
         -2   -1    0    0    0  501 -0.00000000000E+00  0.00000000000E+00  0.15527808781E+04  0.15527808781E+04  0.00000000000E+00 0. -1.
          2   -1    0    0  501    0  0.00000000000E+00 -0.00000000000E+00 -0.14013872692E+04  0.14013872692E+04  0.00000000000E+00 0.  1.
         23    2    1    2    0    0  0.13462070359E+04  0.40867332294E+01 -0.52469235831E+03  0.14477212283E+04  0.91129573736E+02 0.  0.
         13    1    3    3    0    0  0.14165230698E+03 -0.13391384327E+02 -0.82344693318E+02  0.16439389820E+03  0.00000000000E+00 0. -1.
        -13    1    3    3    0    0  0.12045547289E+04  0.17478117557E+02 -0.44234766499E+03  0.12833273301E+04  0.00000000000E+00 0.  1.
         22    1    1    2    0    0 -0.13462070359E+04 -0.40867332294E+01  0.67608596715E+03  0.15064469190E+04  0.00000000000E+00 0. -1.
<mgrwt>
<rscale>  0 0.29502863E+04</rscale>
<asrwt>0</asrwt>
<pdfrwt beam="1">  1        2 0.21559804E+00 0.29502863E+04</pdfrwt>
<pdfrwt beam="2">  1       -2 0.23888936E+00 0.29502863E+04</pdfrwt>
<totfact> 0.93436897E-01</totfact>
</mgrwt>
</event>
<event>
 6    1  0.6091287E-004  0.3226007E+04  0.7818608E-02  0.8181982E-01
          2   -1    0    0  501    0  0.00000000000E+00  0.00000000000E+00  0.11550137477E+04  0.11550137477E+04  0.00000000000E+00 0.  1.
         -2   -1    0    0    0  501 -0.00000000000E+00 -0.00000000000E+00 -0.22525962537E+04  0.22525962537E+04  0.00000000000E+00 0. -1.
         23    2    1    2    0    0 -0.12371577143E+04  0.51444807773E+03  0.39665438681E+03  0.14006321923E+04  0.96019793196E+02 0.  0.
         11    1    3    3    0    0 -0.52973377623E+03  0.27162174705E+03  0.17031269930E+03  0.61919517334E+03  0.00000000000E+00 0. -1.
        -11    1    3    3    0    0 -0.70742393809E+03  0.24282633068E+03  0.22634168751E+03  0.78143701894E+03  0.00000000000E+00 0.  1.
         22    1    1    2    0    0  0.12371577143E+04 -0.51444807773E+03 -0.14942368928E+04  0.20069778092E+04  0.00000000000E+00 0. -1.
<mgrwt>
<rscale>  0 0.32260066E+04</rscale>
<asrwt>0</asrwt>
<pdfrwt beam="1">  1        2 0.17769443E+00 0.32260066E+04</pdfrwt>
<pdfrwt beam="2">  1       -2 0.34655326E+00 0.32260066E+04</pdfrwt>
<totfact> 0.27696357E-01</totfact>
</mgrwt>
</event>
<event>
 6    1  0.6091287E-004  0.5131208E+04  0.7818608E-02  0.7808580E-01
          2   -1    0    0  501    0  0.00000000000E+00  0.00000000000E+00  0.24681247491E+04  0.24681247491E+04  0.00000000000E+00 0.  1.
         -2   -1    0    0    0  501 -0.00000000000E+00 -0.00000000000E+00 -0.26669332414E+04  0.26669332414E+04  0.00000000000E+00 0. -1.
         23    2    1    2    0    0  0.94944810290E+03 -0.22675593359E+04  0.63241934286E+03  0.25400210435E+04  0.92063207272E+02 0.  0.
         11    1    3    3    0    0  0.34292787720E+03 -0.71701205589E+03  0.22230445247E+03  0.82530302728E+03  0.00000000000E+00 0. -1.
        -11    1    3    3    0    0  0.60652022571E+03 -0.15505472801E+04  0.41011489039E+03  0.17147180162E+04  0.00000000000E+00 0.  1.
         22    1    1    2    0    0 -0.94944810290E+03  0.22675593359E+04 -0.83122783518E+03  0.25950369470E+04  0.00000000000E+00 0. -1.
<mgrwt>
<rscale>  0 0.51312080E+04</rscale>
<asrwt>0</asrwt>
<pdfrwt beam="1">  1        2 0.37971150E+00 0.51312080E+04</pdfrwt>
<pdfrwt beam="2">  1       -2 0.41029742E+00 0.51312080E+04</pdfrwt>
<totfact> 0.16645060E-02</totfact>
</mgrwt>
</event>
<event>
 6    1  0.6091287E-004  0.4305812E+04  0.7818608E-02  0.7945544E-01
         -2   -1    0    0    0  501 -0.00000000000E+00  0.00000000000E+00  0.13453403524E+04  0.13453403524E+04  0.00000000000E+00 0. -1.
          2   -1    0    0  501    0  0.00000000000E+00 -0.00000000000E+00 -0.34452284927E+04  0.34452284927E+04  0.00000000000E+00 0.  1.
         23    2    1    2    0    0 -0.15275277458E+03  0.20570182151E+04 -0.36799867833E+03  0.20972254849E+04  0.90963509444E+02 0.  0.
         11    1    3    3    0    0 -0.40688324707E+02  0.64619351611E+03 -0.15788323962E+03  0.66644483446E+03  0.00000000000E+00 0. -1.
        -11    1    3    3    0    0 -0.11206444987E+03  0.14108246990E+04 -0.21011543871E+03  0.14307806505E+04  0.00000000000E+00 0.  1.
         22    1    1    2    0    0  0.15275277458E+03 -0.20570182151E+04 -0.17318894619E+04  0.26933433601E+04  0.00000000000E+00 0.  1.
<mgrwt>
<rscale>  0 0.43058123E+04</rscale>
<asrwt>0</asrwt>
<pdfrwt beam="1">  1        2 0.53003515E+00 0.43058123E+04</pdfrwt>
<pdfrwt beam="2">  1       -2 0.20697544E+00 0.43058123E+04</pdfrwt>
<totfact> 0.81681452E-02</totfact>
</mgrwt>
</event>
<event>
 6    1  0.6091287E-004  0.3417847E+04  0.7818608E-02  0.8133540E-01
          2   -1    0    0  501    0  0.00000000000E+00  0.00000000000E+00  0.28565733818E+04  0.28565733818E+04  0.00000000000E+00 0.  1.
         -2   -1    0    0    0  501 -0.00000000000E+00 -0.00000000000E+00 -0.10223505677E+04  0.10223505677E+04  0.00000000000E+00 0. -1.
         23    2    1    2    0    0  0.41619915672E+03 -0.86863569215E+03  0.25181503309E+04  0.26976083473E+04  0.90884557491E+02 0.  0.
         11    1    3    3    0    0  0.19053325137E+03 -0.30172545624E+03  0.96938236278E+03  0.10329778972E+04  0.00000000000E+00 0.  1.
        -11    1    3    3    0    0  0.22566590535E+03 -0.56691023591E+03  0.15487679681E+04  0.16646304501E+04  0.00000000000E+00 0. -1.
         22    1    1    2    0    0 -0.41619915672E+03  0.86863569215E+03 -0.68392751679E+03  0.11813156022E+04  0.00000000000E+00 0. -1.
<mgrwt>
<rscale>  0 0.34178469E+04</rscale>
<asrwt>0</asrwt>
<pdfrwt beam="1">  1        2 0.43947282E+00 0.34178469E+04</pdfrwt>
<pdfrwt beam="2">  1       -2 0.15728470E+00 0.34178469E+04</pdfrwt>
<totfact> 0.46607889E-01</totfact>
</mgrwt>
</event>
<event>
 6    1  0.6091287E-004  0.1364271E+04  0.7818608E-02  0.8980095E-01
         -4   -1    0    0    0  501 -0.00000000000E+00  0.00000000000E+00  0.78352252013E+03  0.78352252013E+03  0.00000000000E+00 0. -1.
          4   -1    0    0  501    0  0.00000000000E+00 -0.00000000000E+00 -0.59386779251E+03  0.59386779251E+03  0.00000000000E+00 0.  1.
         23    2    1    2    0    0  0.60564469449E+02 -0.67616996932E+03  0.11465345424E+03  0.69438293832E+03  0.90268311651E+02 0.  0.
         11    1    3    3    0    0 -0.61898309562E+01 -0.29676106125E+03  0.81000229072E+02  0.30767918128E+03  0.00000000000E+00 0. -1.
        -11    1    3    3    0    0  0.66754300405E+02 -0.37940890807E+03  0.33653225166E+02  0.38670375704E+03  0.00000000000E+00 0.  1.
         22    1    1    2    0    0 -0.60564469449E+02  0.67616996932E+03  0.75001273377E+02  0.68300737432E+03  0.00000000000E+00 0.  1.
<mgrwt>
<rscale>  0 0.13642709E+04</rscale>
<asrwt>0</asrwt>
<pdfrwt beam="1">  1        4 0.91364276E-01 0.13642709E+04</pdfrwt>
<pdfrwt beam="2">  1       -4 0.12054193E+00 0.13642709E+04</pdfrwt>
<totfact> 0.10426541E+00</totfact>
</mgrwt>
</event>
<event>
 6    1  0.6091287E-004  0.3279816E+04  0.7818608E-02  0.8168050E-01
          2   -1    0    0  501    0  0.00000000000E+00  0.00000000000E+00  0.20392023726E+04  0.20392023726E+04  0.00000000000E+00 0.  1.
         -2   -1    0    0    0  501 -0.00000000000E+00 -0.00000000000E+00 -0.13187988137E+04  0.13187988137E+04  0.00000000000E+00 0. -1.
         23    2    1    2    0    0  0.79381612835E+03 -0.10512942042E+02  0.18281552995E+04  0.19951481179E+04  0.90607094817E+02 0.  0.
         11    1    3    3    0    0  0.14691032510E+03 -0.30529363467E+02  0.39862589713E+03  0.42593108775E+03  0.00000000000E+00 0. -1.
        -11    1    3    3    0    0  0.64690580325E+03  0.20016421425E+02  0.14295294024E+04  0.15692170301E+04  0.00000000000E+00 0.  1.
         22    1    1    2    0    0 -0.79381612835E+03  0.10512942042E+02 -0.11077517406E+04  0.13628530685E+04  0.00000000000E+00 0. -1.
<mgrwt>
<rscale>  0 0.32798156E+04</rscale>
<asrwt>0</asrwt>
<pdfrwt beam="1">  1        2 0.31372344E+00 0.32798156E+04</pdfrwt>
<pdfrwt beam="2">  1       -2 0.20289212E+00 0.32798156E+04</pdfrwt>
<totfact> 0.67679936E-01</totfact>
</mgrwt>
</event>
<event>
 6    1  0.6091287E-004  0.3816436E+04  0.7818608E-02  0.8042637E-01
          2   -1    0    0  501    0  0.00000000000E+00  0.00000000000E+00  0.23767778999E+04  0.23767778999E+04  0.00000000000E+00 0.  1.
         -2   -1    0    0    0  501 -0.00000000000E+00 -0.00000000000E+00 -0.15320306623E+04  0.15320306623E+04  0.00000000000E+00 0. -1.
         23    2    1    2    0    0  0.15220830703E+04  0.98193159358E+03 -0.18868410081E+03  0.18234052778E+04  0.90986756121E+02 0.  0.
         11    1    3    3    0    0  0.89588166505E+03  0.62957612882E+03 -0.10394066319E+03  0.10998971412E+04  0.00000000000E+00 0.  1.
        -11    1    3    3    0    0  0.62620140530E+03  0.35235546476E+03 -0.84743437628E+02  0.72350813663E+03  0.00000000000E+00 0. -1.
         22    1    1    2    0    0 -0.15220830703E+04 -0.98193159358E+03  0.10334313384E+04  0.20854032844E+04  0.00000000000E+00 0.  1.
<mgrwt>
<rscale>  0 0.38164364E+04</rscale>
<asrwt>0</asrwt>
<pdfrwt beam="1">  1        2 0.36565814E+00 0.38164364E+04</pdfrwt>
<pdfrwt beam="2">  1       -2 0.23569702E+00 0.38164364E+04</pdfrwt>
<totfact> 0.25857529E-01</totfact>
</mgrwt>
</event>
<event>
 6    1  0.6091287E-004  0.1057499E+04  0.7818608E-02  0.9247636E-01
          2   -1    0    0  501    0  0.00000000000E+00  0.00000000000E+00  0.43756860068E+03  0.43756860068E+03  0.00000000000E+00 0.  1.
         -2   -1    0    0    0  501 -0.00000000000E+00 -0.00000000000E+00 -0.63893034116E+03  0.63893034116E+03  0.00000000000E+00 0. -1.
         23    2    1    2    0    0  0.27489782010E+03 -0.30833817427E+03  0.22944219225E+03  0.47964613782E+03  0.82313162607E+02 0.  0.
         13    1    3    3    0    0  0.67295466736E+02 -0.32855059023E+02  0.26562133629E+02  0.79458679133E+02  0.00000000000E+00 0. -1.
        -13    1    3    3    0    0  0.20760235336E+03 -0.27548311525E+03  0.20288005862E+03  0.40018745869E+03  0.00000000000E+00 0.  1.
         22    1    1    2    0    0 -0.27489782010E+03  0.30833817427E+03 -0.43080393273E+03  0.59685280402E+03  0.00000000000E+00 0. -1.
<mgrwt>
<rscale>  0 0.10574987E+04</rscale>
<asrwt>0</asrwt>
<pdfrwt beam="1">  1        2 0.67318247E-01 0.10574987E+04</pdfrwt>
<pdfrwt beam="2">  1       -2 0.98296975E-01 0.10574987E+04</pdfrwt>
<totfact> 0.61503781E+01</totfact>
</mgrwt>
</event>
<event>
 6    1  0.6091287E-004  0.2637120E+04  0.7818608E-02  0.8355701E-01
         -2   -1    0    0    0  501 -0.00000000000E+00  0.00000000000E+00  0.74388816972E+03  0.74388816972E+03  0.00000000000E+00 0. -1.
          2   -1    0    0  501    0  0.00000000000E+00 -0.00000000000E+00 -0.23371794812E+04  0.23371794812E+04  0.00000000000E+00 0.  1.
         23    2    1    2    0    0 -0.59402891451E+03  0.11750141363E+04 -0.76450074738E+03  0.15252969831E+04  0.92417109017E+02 0.  0.
         11    1    3    3    0    0 -0.50021892249E+03  0.91083163504E+03 -0.58696027087E+03  0.11934636976E+04  0.00000000000E+00 0.  1.
        -11    1    3    3    0    0 -0.93809992018E+02  0.26418250126E+03 -0.17754047652E+03  0.33183328551E+03  0.00000000000E+00 0. -1.
         22    1    1    2    0    0  0.59402891451E+03 -0.11750141363E+04 -0.82879056405E+03  0.15557706678E+04  0.00000000000E+00 0.  1.
<mgrwt>
<rscale>  0 0.26371198E+04</rscale>
<asrwt>0</asrwt>
<pdfrwt beam="1">  1        2 0.35956607E+00 0.26371198E+04</pdfrwt>
<pdfrwt beam="2">  1       -2 0.11444434E+00 0.26371198E+04</pdfrwt>
<totfact> 0.22717193E+00</totfact>
</mgrwt>
</event>
<event>
 6    1  0.6091287E-004  0.3578691E+04  0.7818608E-02  0.8095390E-01
          2   -1    0    0  501    0  0.00000000000E+00  0.00000000000E+00  0.15822329866E+04  0.15822329866E+04  0.00000000000E+00 0.  1.
         -2   -1    0    0    0  501 -0.00000000000E+00 -0.00000000000E+00 -0.20235693239E+04  0.20235693239E+04  0.00000000000E+00 0. -1.
         23    2    1    2    0    0  0.66665328434E+03  0.13912851102E+04 -0.11318630756E+04  0.19155573474E+04  0.90250040242E+02 0.  0.
         13    1    3    3    0    0  0.38509322664E+03  0.90096117574E+03 -0.70396630475E+03  0.12064809951E+04  0.00000000000E+00 0. -1.
        -13    1    3    3    0    0  0.28156005770E+03  0.49032393447E+03 -0.42789677081E+03  0.70907635222E+03  0.00000000000E+00 0.  1.
         22    1    1    2    0    0 -0.66665328434E+03 -0.13912851102E+04  0.69052673824E+03  0.16902449632E+04  0.00000000000E+00 0.  1.
<mgrwt>
<rscale>  0 0.35786915E+04</rscale>
<asrwt>0</asrwt>
<pdfrwt beam="1">  1        2 0.24342046E+00 0.35786915E+04</pdfrwt>
<pdfrwt beam="2">  1       -2 0.31131836E+00 0.35786915E+04</pdfrwt>
<totfact> 0.25228894E-01</totfact>
</mgrwt>
</event>
<event>
 6    1  0.6091287E-004  0.2936824E+04  0.7818608E-02  0.8262005E-01
          2   -1    0    0  501    0  0.00000000000E+00  0.00000000000E+00  0.28888061309E+04  0.28888061309E+04  0.00000000000E+00 0.  1.
         -2   -1    0    0    0  501 -0.00000000000E+00 -0.00000000000E+00 -0.74641018081E+03  0.74641018081E+03  0.00000000000E+00 0. -1.
         23    2    1    2    0    0 -0.10196958760E+04  0.10369121182E+04  0.83378009484E+03  0.16788314117E+04  0.91209877374E+02 0.  0.
         11    1    3    3    0    0 -0.32122552304E+03  0.28620638043E+03  0.28189467872E+03  0.51435837579E+03  0.00000000000E+00 0. -1.
        -11    1    3    3    0    0 -0.69847035299E+03  0.75070573780E+03  0.55188541612E+03  0.11644730359E+04  0.00000000000E+00 0.  1.
         22    1    1    2    0    0  0.10196958760E+04 -0.10369121182E+04  0.13086158553E+04  0.19563849001E+04  0.00000000000E+00 0.  1.
<mgrwt>
<rscale>  0 0.29368243E+04</rscale>
<asrwt>0</asrwt>
<pdfrwt beam="1">  1        2 0.44443171E+00 0.29368243E+04</pdfrwt>
<pdfrwt beam="2">  1       -2 0.11483234E+00 0.29368243E+04</pdfrwt>
<totfact> 0.10388292E+00</totfact>
</mgrwt>
</event>
<event>
 6    1  0.6091287E-004  0.2283019E+04  0.7818608E-02  0.8484647E-01
          2   -1    0    0  501    0  0.00000000000E+00  0.00000000000E+00  0.16727453969E+04  0.16727453969E+04  0.00000000000E+00 0.  1.
         -2   -1    0    0    0  501 -0.00000000000E+00 -0.00000000000E+00 -0.77898549569E+03  0.77898549569E+03  0.00000000000E+00 0. -1.
         23    2    1    2    0    0 -0.58415699898E+03 -0.89509571046E+03  0.87226041021E+03  0.13826668354E+04  0.92160859573E+02 0.  0.
         11    1    3    3    0    0 -0.35724212663E+03 -0.47849422464E+03  0.45242885650E+03  0.74917990513E+03  0.00000000000E+00 0.  1.
        -11    1    3    3    0    0 -0.22691487234E+03 -0.41660148582E+03  0.41983155371E+03  0.63348693022E+03  0.00000000000E+00 0. -1.
         22    1    1    2    0    0  0.58415699898E+03  0.89509571046E+03  0.21499490995E+02  0.10690640572E+04  0.00000000000E+00 0. -1.
<mgrwt>
<rscale>  0 0.22830194E+04</rscale>
<asrwt>0</asrwt>
<pdfrwt beam="1">  1        2 0.25734545E+00 0.22830194E+04</pdfrwt>
<pdfrwt beam="2">  1       -2 0.11984392E+00 0.22830194E+04</pdfrwt>
<totfact> 0.49123980E+00</totfact>
</mgrwt>
</event>
<event>
 6    1  0.6091287E-004  0.2195177E+04  0.7818608E-02  0.8520438E-01
         -2   -1    0    0    0  501 -0.00000000000E+00  0.00000000000E+00  0.14468124594E+04  0.14468124594E+04  0.00000000000E+00 0. -1.
          2   -1    0    0  501    0  0.00000000000E+00 -0.00000000000E+00 -0.83265842562E+03  0.83265842562E+03  0.00000000000E+00 0.  1.
         23    2    1    2    0    0 -0.36032538944E+03 -0.86060273766E+03 -0.28902171156E+03  0.98093406022E+03  0.90700729908E+02 0.  0.
         11    1    3    3    0    0 -0.12291513858E+03 -0.31593376626E+03 -0.15011305057E+03  0.37075086501E+03  0.00000000000E+00 0.  1.
        -11    1    3    3    0    0 -0.23741025086E+03 -0.54466897141E+03 -0.13890866100E+03  0.61018319522E+03  0.00000000000E+00 0. -1.
         22    1    1    2    0    0  0.36032538944E+03  0.86060273766E+03  0.90317574530E+03  0.12985368248E+04  0.00000000000E+00 0. -1.
<mgrwt>
<rscale>  0 0.21951771E+04</rscale>
<asrwt>0</asrwt>
<pdfrwt beam="1">  1        2 0.12810130E+00 0.21951771E+04</pdfrwt>
<pdfrwt beam="2">  1       -2 0.22258653E+00 0.21951771E+04</pdfrwt>
<totfact> 0.28399322E+00</totfact>
</mgrwt>
</event>
<event>
 6    1  0.6091287E-004  0.1647823E+04  0.7818608E-02  0.8791696E-01
          2   -1    0    0  501    0  0.00000000000E+00  0.00000000000E+00  0.71445364215E+03  0.71445364215E+03  0.00000000000E+00 0.  1.
         -2   -1    0    0    0  501 -0.00000000000E+00 -0.00000000000E+00 -0.95013857097E+03  0.95013857097E+03  0.00000000000E+00 0. -1.
         23    2    1    2    0    0 -0.39234242587E+03  0.69544013040E+03  0.76326470213E+02  0.80731707221E+03  0.91463494984E+02 0.  0.
         11    1    3    3    0    0 -0.26120797816E+03  0.44162332877E+03  0.91671994108E+02  0.52121447301E+03  0.00000000000E+00 0.  1.
        -11    1    3    3    0    0 -0.13113444771E+03  0.25381680162E+03 -0.15345523895E+02  0.28610259920E+03  0.00000000000E+00 0. -1.
         22    1    1    2    0    0  0.39234242587E+03 -0.69544013040E+03 -0.31201139903E+03  0.85727514092E+03  0.00000000000E+00 0. -1.
<mgrwt>
<rscale>  0 0.16478228E+04</rscale>
<asrwt>0</asrwt>
<pdfrwt beam="1">  1        2 0.10991595E+00 0.16478228E+04</pdfrwt>
<pdfrwt beam="2">  1       -2 0.14617516E+00 0.16478228E+04</pdfrwt>
<totfact> 0.12229290E+01</totfact>
</mgrwt>
</event>
<event>
 6    1  0.6091287E-004  0.9232421E+03  0.7818608E-02  0.9396985E-01
          2   -1    0    0  501    0  0.00000000000E+00  0.00000000000E+00  0.11897756304E+03  0.11897756304E+03  0.00000000000E+00 0.  1.
         -2   -1    0    0    0  501 -0.00000000000E+00 -0.00000000000E+00 -0.17910434977E+04  0.17910434977E+04  0.00000000000E+00 0. -1.
         23    2    1    2    0    0  0.17153277517E+03 -0.33479258025E+03 -0.13817813365E+04  0.14348634946E+04  0.89465197058E+02 0.  0.
         11    1    3    3    0    0  0.91782267159E+02 -0.15719370165E+03 -0.83055661209E+03  0.85026944570E+03  0.00000000000E+00 0.  1.
        -11    1    3    3    0    0  0.79750508008E+02 -0.17759887860E+03 -0.55122472441E+03  0.58459404889E+03  0.00000000000E+00 0. -1.
         22    1    1    2    0    0 -0.17153277517E+03  0.33479258025E+03 -0.29028459821E+03  0.47515756618E+03  0.00000000000E+00 0.  1.
<mgrwt>
<rscale>  0 0.92324209E+03</rscale>
<asrwt>0</asrwt>
<pdfrwt beam="1">  1        2 0.18304240E-01 0.92324209E+03</pdfrwt>
<pdfrwt beam="2">  1       -2 0.27554517E+00 0.92324209E+03</pdfrwt>
<totfact> 0.14399004E+01</totfact>
</mgrwt>
</event>
<event>
 6    1  0.6091287E-004  0.3958078E+04  0.7818608E-02  0.8013057E-01
          2   -1    0    0  501    0  0.00000000000E+00  0.00000000000E+00  0.32006635765E+04  0.32006635765E+04  0.00000000000E+00 0.  1.
         -2   -1    0    0    0  501 -0.00000000000E+00 -0.00000000000E+00 -0.12236823590E+04  0.12236823590E+04  0.00000000000E+00 0. -1.
         23    2    1    2    0    0  0.72072244940E+03 -0.42662267036E+03  0.29920340064E+04  0.31083748431E+04  0.90988557270E+02 0.  0.
         13    1    3    3    0    0  0.46023774417E+03 -0.30978831630E+03  0.18671202407E+04  0.19478001887E+04  0.00000000000E+00 0. -1.
        -13    1    3    3    0    0  0.26048470523E+03 -0.11683435406E+03  0.11249137658E+04  0.11605746544E+04  0.00000000000E+00 0.  1.
         22    1    1    2    0    0 -0.72072244940E+03  0.42662267036E+03 -0.10150527889E+04  0.13159710925E+04  0.00000000000E+00 0. -1.
<mgrwt>
<rscale>  0 0.39580781E+04</rscale>
<asrwt>0</asrwt>
<pdfrwt beam="1">  1        2 0.49240978E+00 0.39580781E+04</pdfrwt>
<pdfrwt beam="2">  1       -2 0.18825883E+00 0.39580781E+04</pdfrwt>
<totfact> 0.16312463E-01</totfact>
</mgrwt>
</event>
<event>
 6    1  0.6091287E-004  0.2459091E+04  0.7818608E-02  0.8417706E-01
          2   -1    0    0  501    0  0.00000000000E+00  0.00000000000E+00  0.30742827995E+04  0.30742827995E+04  0.00000000000E+00 0.  1.
         -2   -1    0    0    0  501 -0.00000000000E+00 -0.00000000000E+00 -0.49175102634E+03  0.49175102634E+03  0.00000000000E+00 0. -1.
         23    2    1    2    0    0 -0.10079203076E+04 -0.56457103379E+03  0.18961695821E+04  0.22222567402E+04  0.91225744985E+02 0.  0.
         13    1    3    3    0    0 -0.75742702992E+03 -0.44907143640E+03  0.13797748048E+04  0.16368076774E+04  0.00000000000E+00 0.  1.
        -13    1    3    3    0    0 -0.25049327764E+03 -0.11549959739E+03  0.51639477729E+03  0.58544906282E+03  0.00000000000E+00 0. -1.
         22    1    1    2    0    0  0.10079203076E+04  0.56457103379E+03  0.68636219101E+03  0.13437770856E+04  0.00000000000E+00 0. -1.
<mgrwt>
<rscale>  0 0.24590907E+04</rscale>
<asrwt>0</asrwt>
<pdfrwt beam="1">  1        2 0.47296657E+00 0.24590907E+04</pdfrwt>
<pdfrwt beam="2">  1       -2 0.75654006E-01 0.24590907E+04</pdfrwt>
<totfact> 0.21914136E+00</totfact>
</mgrwt>
</event>
<event>
 6    1  0.6091287E-004  0.2981468E+04  0.7818608E-02  0.8249043E-01
          1   -1    0    0  501    0  0.00000000000E+00  0.00000000000E+00  0.30109586968E+04  0.30109586968E+04  0.00000000000E+00 0.  1.
         -1   -1    0    0    0  501 -0.00000000000E+00 -0.00000000000E+00 -0.73806646409E+03  0.73806646409E+03  0.00000000000E+00 0. -1.
         23    2    1    2    0    0  0.12987553670E+04 -0.71963209478E+03  0.99485075031E+03  0.17899371369E+04  0.97524783362E+02 0.  0.
         13    1    3    3    0    0  0.89262232993E+03 -0.52015993557E+03  0.73804301168E+03  0.12696647075E+04  0.00000000000E+00 0. -1.
        -13    1    3    3    0    0  0.40613303706E+03 -0.19947215921E+03  0.25680773863E+03  0.52027242933E+03  0.00000000000E+00 0.  1.
         22    1    1    2    0    0 -0.12987553670E+04  0.71963209478E+03  0.12780414823E+04  0.19590880240E+04  0.00000000000E+00 0. -1.
<mgrwt>
<rscale>  0 0.29814679E+04</rscale>
<asrwt>0</asrwt>
<pdfrwt beam="1">  1        1 0.46322441E+00 0.29814679E+04</pdfrwt>
<pdfrwt beam="2">  1       -1 0.11354869E+00 0.29814679E+04</pdfrwt>
<totfact> 0.35369536E-01</totfact>
</mgrwt>
</event>
<event>
 6    1  0.6091287E-004  0.5933913E+03  0.7818608E-02  0.9919213E-01
         -2   -1    0    0    0  501 -0.00000000000E+00  0.00000000000E+00  0.28977720227E+03  0.28977720227E+03  0.00000000000E+00 0. -1.
          2   -1    0    0  501    0  0.00000000000E+00 -0.00000000000E+00 -0.30377932530E+03  0.30377932530E+03  0.00000000000E+00 0.  1.
         23    2    1    2    0    0  0.19526309578E+03  0.17100921202E+03 -0.13581720912E+03  0.30683237029E+03  0.91257668135E+02 0.  0.
         13    1    3    3    0    0  0.13341763076E+03  0.12175744046E+03 -0.44460508461E+02  0.18601579319E+03  0.00000000000E+00 0. -1.
        -13    1    3    3    0    0  0.61845465022E+02  0.49251771557E+02 -0.91356700656E+02  0.12081657709E+03  0.00000000000E+00 0.  1.
         22    1    1    2    0    0 -0.19526309578E+03 -0.17100921202E+03  0.12181508609E+03  0.28672415728E+03  0.00000000000E+00 0. -1.
<mgrwt>
<rscale>  0 0.59339135E+03</rscale>
<asrwt>0</asrwt>
<pdfrwt beam="1">  1        2 0.46735281E-01 0.59339135E+03</pdfrwt>
<pdfrwt beam="2">  1       -2 0.44581108E-01 0.59339135E+03</pdfrwt>
<totfact> 0.52080101E+02</totfact>
</mgrwt>
</event>
<event>
 6    1  0.7536597E-004  0.4008097E+04  0.7818608E-02  0.8002915E-01
          2   -1    0    0  501    0  0.00000000000E+00  0.00000000000E+00  0.16107893379E+04  0.16107893379E+04  0.00000000000E+00 0.  1.
         -2   -1    0    0    0  501 -0.00000000000E+00 -0.00000000000E+00 -0.24933181166E+04  0.24933181166E+04  0.00000000000E+00 0. -1.
         23    2    1    2    0    0  0.16900523408E+04 -0.27671864468E+03 -0.15052314654E+04  0.22818536965E+04  0.91018705856E+02 0.  0.
         11    1    3    3    0    0  0.41340603341E+03 -0.32919503291E+02 -0.33978422298E+03  0.53613576671E+03  0.00000000000E+00 0. -1.
        -11    1    3    3    0    0  0.12766463074E+04 -0.24379914139E+03 -0.11654472424E+04  0.17457179298E+04  0.00000000000E+00 0.  1.
         22    1    1    2    0    0 -0.16900523408E+04  0.27671864468E+03  0.62270268667E+03  0.18222537581E+04  0.00000000000E+00 0.  1.
<mgrwt>
<rscale>  0 0.40080969E+04</rscale>
<asrwt>0</asrwt>
<pdfrwt beam="1">  1        2 0.24781375E+00 0.40080969E+04</pdfrwt>
<pdfrwt beam="2">  1       -2 0.38358740E+00 0.40080969E+04</pdfrwt>
<totfact> 0.82260878E-02</totfact>
</mgrwt>
</event>
<event>
 6    1  0.6091287E-004  0.1980353E+04  0.7818608E-02  0.8615862E-01
         -2   -1    0    0    0  501 -0.00000000000E+00  0.00000000000E+00  0.29931891843E+03  0.29931891843E+03  0.00000000000E+00 0. -1.
          2   -1    0    0  501    0  0.00000000000E+00 -0.00000000000E+00 -0.32756008921E+04  0.32756008921E+04  0.00000000000E+00 0.  1.
         23    2    1    2    0    0 -0.90786955187E+03 -0.36852752536E+03 -0.17200744067E+04  0.19817791665E+04  0.93557683891E+02 0.  0.
         13    1    3    3    0    0 -0.33933210028E+03 -0.10832387702E+03 -0.69768680774E+03  0.78335638014E+03  0.00000000000E+00 0.  1.
        -13    1    3    3    0    0 -0.56853745160E+03 -0.26020364833E+03 -0.10223875989E+04  0.11984227864E+04  0.00000000000E+00 0. -1.
         22    1    1    2    0    0  0.90786955187E+03  0.36852752536E+03 -0.12562075670E+04  0.15931406440E+04  0.00000000000E+00 0. -1.
<mgrwt>
<rscale>  0 0.19803528E+04</rscale>
<asrwt>0</asrwt>
<pdfrwt beam="1">  1        2 0.50393861E+00 0.19803528E+04</pdfrwt>
<pdfrwt beam="2">  1       -2 0.46049063E-01 0.19803528E+04</pdfrwt>
<totfact> 0.48314116E+00</totfact>
</mgrwt>
</event>
<event>
 6    1  0.6091287E-004  0.3482841E+04  0.7818608E-02  0.8117869E-01
         -2   -1    0    0    0  501 -0.00000000000E+00  0.00000000000E+00  0.18403134259E+04  0.18403134259E+04  0.00000000000E+00 0. -1.
          2   -1    0    0  501    0  0.00000000000E+00 -0.00000000000E+00 -0.16478413374E+04  0.16478413374E+04  0.00000000000E+00 0.  1.
         23    2    1    2    0    0  0.14948366669E+04 -0.83931627593E+03  0.39584677450E+03  0.17617858182E+04  0.90587683136E+02 0.  0.
         11    1    3    3    0    0  0.10208543423E+04 -0.54699553819E+03  0.23048876426E+03  0.11808779689E+04  0.00000000000E+00 0. -1.
        -11    1    3    3    0    0  0.47398232466E+03 -0.29232073774E+03  0.16535801024E+03  0.58090784928E+03  0.00000000000E+00 0.  1.
         22    1    1    2    0    0 -0.14948366669E+04  0.83931627593E+03 -0.20337468597E+03  0.17263689451E+04  0.00000000000E+00 0.  1.
<mgrwt>
<rscale>  0 0.34828405E+04</rscale>
<asrwt>0</asrwt>
<pdfrwt beam="1">  1        2 0.25351405E+00 0.34828405E+04</pdfrwt>
<pdfrwt beam="2">  1       -2 0.28312514E+00 0.34828405E+04</pdfrwt>
<totfact> 0.34775084E-01</totfact>
</mgrwt>
</event>
<event>
 6    1  0.6091287E-004  0.4417110E+04  0.7818608E-02  0.7925311E-01
          2   -1    0    0  501    0  0.00000000000E+00  0.00000000000E+00  0.13779461268E+04  0.13779461268E+04  0.00000000000E+00 0.  1.
         -2   -1    0    0    0  501 -0.00000000000E+00 -0.00000000000E+00 -0.35398439735E+04  0.35398439735E+04  0.00000000000E+00 0. -1.
         23    2    1    2    0    0  0.35930134992E+03 -0.11850767872E+04  0.95336306625E+03  0.15654245164E+04  0.90268095676E+02 0.  0.
         13    1    3    3    0    0  0.53224549090E+02 -0.30103487840E+03  0.21781858217E+03  0.37536620170E+03  0.00000000000E+00 0.  1.
        -13    1    3    3    0    0  0.30607680083E+03 -0.88404190875E+03  0.73554448409E+03  0.11900583148E+04  0.00000000000E+00 0. -1.
         22    1    1    2    0    0 -0.35930134992E+03  0.11850767872E+04 -0.31152609130E+04  0.33523655838E+04  0.00000000000E+00 0. -1.
<mgrwt>
<rscale>  0 0.44171096E+04</rscale>
<asrwt>0</asrwt>
<pdfrwt beam="1">  1        2 0.21199171E+00 0.44171096E+04</pdfrwt>
<pdfrwt beam="2">  1       -2 0.54459138E+00 0.44171096E+04</pdfrwt>
<totfact> 0.10402360E-02</totfact>
</mgrwt>
</event>
<event>
 6    1  0.6091287E-004  0.3255913E+04  0.7818608E-02  0.8174205E-01
          2   -1    0    0  501    0  0.00000000000E+00  0.00000000000E+00  0.16988064409E+04  0.16988064409E+04  0.00000000000E+00 0.  1.
         -2   -1    0    0    0  501 -0.00000000000E+00 -0.00000000000E+00 -0.15600610091E+04  0.15600610091E+04  0.00000000000E+00 0. -1.
         23    2    1    2    0    0  0.14054686412E+04  0.12624010342E+03 -0.74049169406E+03  0.15962380299E+04  0.91483517071E+02 0.  0.
         13    1    3    3    0    0  0.77510581481E+02  0.12201672589E+02 -0.19375387617E+02  0.80821882562E+02  0.00000000000E+00 0.  1.
        -13    1    3    3    0    0  0.13279580597E+04  0.11403843083E+03 -0.72111630644E+03  0.15154161473E+04  0.00000000000E+00 0. -1.
         22    1    1    2    0    0 -0.14054686412E+04 -0.12624010342E+03  0.87923712586E+03  0.16626294201E+04  0.00000000000E+00 0.  1.
<mgrwt>
<rscale>  0 0.32559126E+04</rscale>
<asrwt>0</asrwt>
<pdfrwt beam="1">  1        2 0.26135484E+00 0.32559126E+04</pdfrwt>
<pdfrwt beam="2">  1       -2 0.24000939E+00 0.32559126E+04</pdfrwt>
<totfact> 0.60980326E-01</totfact>
</mgrwt>
</event>
<event>
 6    1  0.6091287E-004  0.1617504E+04  0.7818608E-02  0.8809866E-01
         -2   -1    0    0    0  501 -0.00000000000E+00  0.00000000000E+00  0.81419003943E+03  0.81419003943E+03  0.00000000000E+00 0. -1.
          2   -1    0    0  501    0  0.00000000000E+00 -0.00000000000E+00 -0.80335052078E+03  0.80335052078E+03  0.00000000000E+00 0.  1.
         23    2    1    2    0    0  0.40945028102E+03  0.69358963481E+03  0.38716617439E+02  0.81162912165E+03  0.92340351431E+02 0.  0.
         11    1    3    3    0    0  0.34018493022E+03  0.52559297525E+03  0.11905935506E+01  0.62607921216E+03  0.00000000000E+00 0.  1.
        -11    1    3    3    0    0  0.69265350803E+02  0.16799665956E+03  0.37526023889E+02  0.18554990950E+03  0.00000000000E+00 0. -1.
         22    1    1    2    0    0 -0.40945028102E+03 -0.69358963481E+03 -0.27877098787E+02  0.80591143855E+03  0.00000000000E+00 0.  1.
<mgrwt>
<rscale>  0 0.16175042E+04</rscale>
<asrwt>0</asrwt>
<pdfrwt beam="1">  1        2 0.12359239E+00 0.16175042E+04</pdfrwt>
<pdfrwt beam="2">  1       -2 0.12526001E+00 0.16175042E+04</pdfrwt>
<totfact> 0.15644982E+01</totfact>
</mgrwt>
</event>
<event>
 6    1  0.6091287E-004  0.3420223E+04  0.7818608E-02  0.8132961E-01
         -2   -1    0    0    0  501 -0.00000000000E+00  0.00000000000E+00  0.76577258740E+03  0.76577258740E+03  0.00000000000E+00 0. -1.
          2   -1    0    0  501    0  0.00000000000E+00 -0.00000000000E+00 -0.38189954641E+04  0.38189954641E+04  0.00000000000E+00 0.  1.
         23    2    1    2    0    0  0.84384983760E+03 -0.12942748803E+04 -0.54873613009E+03  0.16420339694E+04  0.89074137886E+02 0.  0.
         11    1    3    3    0    0  0.31399467802E+03 -0.54914663744E+03 -0.24947694778E+03  0.67999517256E+03  0.00000000000E+00 0.  1.
        -11    1    3    3    0    0  0.52985515958E+03 -0.74512824282E+03 -0.29925918231E+03  0.96203879682E+03  0.00000000000E+00 0. -1.
         22    1    1    2    0    0 -0.84384983760E+03  0.12942748803E+04 -0.25044867466E+04  0.29427340821E+04  0.00000000000E+00 0.  1.
<mgrwt>
<rscale>  0 0.34202234E+04</rscale>
<asrwt>0</asrwt>
<pdfrwt beam="1">  1        2 0.58753777E+00 0.34202234E+04</pdfrwt>
<pdfrwt beam="2">  1       -2 0.11781117E+00 0.34202234E+04</pdfrwt>
<totfact> 0.21788243E-01</totfact>
</mgrwt>
</event>
<event>
 6    1  0.6091287E-004  0.1397318E+04  0.7818608E-02  0.8955762E-01
          2   -1    0    0  501    0  0.00000000000E+00  0.00000000000E+00  0.74555086658E+03  0.74555086658E+03  0.00000000000E+00 0.  1.
         -2   -1    0    0    0  501 -0.00000000000E+00 -0.00000000000E+00 -0.65471671719E+03  0.65471671719E+03  0.00000000000E+00 0. -1.
         23    2    1    2    0    0  0.88204165473E+02 -0.52680573481E+03  0.49226240275E+03  0.73209926693E+03  0.91338964526E+02 0.  0.
         13    1    3    3    0    0  0.77530527729E+02 -0.38847874098E+03  0.30987192053E+03  0.50293868618E+03  0.00000000000E+00 0.  1.
        -13    1    3    3    0    0  0.10673637744E+02 -0.13832699383E+03  0.18239048222E+03  0.22916058075E+03  0.00000000000E+00 0. -1.
         22    1    1    2    0    0 -0.88204165473E+02  0.52680573481E+03 -0.40142825337E+03  0.66816831685E+03  0.00000000000E+00 0. -1.
<mgrwt>
<rscale>  0 0.13973183E+04</rscale>
<asrwt>0</asrwt>
<pdfrwt beam="1">  1        2 0.11470013E+00 0.13973183E+04</pdfrwt>
<pdfrwt beam="2">  1       -2 0.10072565E+00 0.13973183E+04</pdfrwt>
<totfact> 0.29876607E+01</totfact>
</mgrwt>
</event>
<event>
 6    1  0.6091287E-004  0.2963862E+04  0.7818608E-02  0.8254126E-01
         -2   -1    0    0    0  501 -0.00000000000E+00  0.00000000000E+00  0.19174705025E+04  0.19174705025E+04  0.00000000000E+00 0. -1.
          2   -1    0    0  501    0  0.00000000000E+00 -0.00000000000E+00 -0.11453214877E+04  0.11453214877E+04  0.00000000000E+00 0.  1.
         23    2    1    2    0    0 -0.54380181185E+03  0.67977021856E+03  0.16239657549E+04  0.18448430096E+04  0.91504076988E+02 0.  0.
         13    1    3    3    0    0 -0.73171997960E+02  0.85562900950E+02  0.28115879643E+03  0.30286204799E+03  0.00000000000E+00 0. -1.
        -13    1    3    3    0    0 -0.47062981389E+03  0.59420731761E+03  0.13428069585E+04  0.15419809616E+04  0.00000000000E+00 0.  1.
         22    1    1    2    0    0  0.54380181185E+03 -0.67977021856E+03 -0.85181674012E+03  0.12179489806E+04  0.00000000000E+00 0.  1.
<mgrwt>
<rscale>  0 0.29638625E+04</rscale>
<asrwt>0</asrwt>
<pdfrwt beam="1">  1        2 0.17620331E+00 0.29638625E+04</pdfrwt>
<pdfrwt beam="2">  1       -2 0.29499546E+00 0.29638625E+04</pdfrwt>
<totfact> 0.59836062E-01</totfact>
</mgrwt>
</event>
<event>
 6    1  0.6091287E-004  0.7697702E+03  0.7818608E-02  0.9604835E-01
          2   -1    0    0  501    0  0.00000000000E+00  0.00000000000E+00  0.11033442526E+04  0.11033442526E+04  0.00000000000E+00 0.  1.
         -2   -1    0    0    0  501 -0.00000000000E+00 -0.00000000000E+00 -0.13426140198E+03  0.13426140198E+03  0.00000000000E+00 0. -1.
         23    2    1    2    0    0  0.29852376703E+03  0.23069484991E+03  0.42493012252E+03  0.57545858271E+03  0.90831812355E+02 0.  0.
         11    1    3    3    0    0  0.27743265751E+03  0.18992797317E+03  0.33570875771E+03  0.47512302033E+03  0.00000000000E+00 0. -1.
        -11    1    3    3    0    0  0.21091109519E+02  0.40766876743E+02  0.89221364803E+02  0.10033556238E+03  0.00000000000E+00 0.  1.
         22    1    1    2    0    0 -0.29852376703E+03 -0.23069484991E+03  0.54415272807E+03  0.66214707182E+03  0.00000000000E+00 0. -1.
<mgrwt>
<rscale>  0 0.76977022E+03</rscale>
<asrwt>0</asrwt>
<pdfrwt beam="1">  1        2 0.16974526E+00 0.76977022E+03</pdfrwt>
<pdfrwt beam="2">  1       -2 0.20655601E-01 0.76977022E+03</pdfrwt>
<totfact> 0.43988403E+02</totfact>
</mgrwt>
</event>
<event>
 6    1  0.6091287E-004  0.3916016E+04  0.7818608E-02  0.8021706E-01
          2   -1    0    0  501    0  0.00000000000E+00  0.00000000000E+00  0.34686478750E+04  0.34686478750E+04  0.00000000000E+00 0.  1.
         -2   -1    0    0    0  501 -0.00000000000E+00 -0.00000000000E+00 -0.11052708996E+04  0.11052708996E+04  0.00000000000E+00 0. -1.
         23    2    1    2    0    0 -0.59287270659E+03 -0.54608083123E+03  0.32651144500E+04  0.33644425269E+04  0.93802050719E+02 0.  0.
         13    1    3    3    0    0 -0.27906300178E+03 -0.19415459335E+03  0.13624047107E+04  0.14041790344E+04  0.00000000000E+00 0. -1.
        -13    1    3    3    0    0 -0.31380970481E+03 -0.35192623788E+03  0.19027097393E+04  0.19602634925E+04  0.00000000000E+00 0.  1.
         22    1    1    2    0    0  0.59287270659E+03  0.54608083123E+03 -0.90173747467E+03  0.12094762477E+04  0.00000000000E+00 0. -1.
<mgrwt>
<rscale>  0 0.39160161E+04</rscale>
<asrwt>0</asrwt>
<pdfrwt beam="1">  1        2 0.53363813E+00 0.39160161E+04</pdfrwt>
<pdfrwt beam="2">  1       -2 0.17004168E+00 0.39160161E+04</pdfrwt>
<totfact> 0.14438331E-01</totfact>
</mgrwt>
</event>
<event>
 6    1  0.6091287E-004  0.2160587E+04  0.7818608E-02  0.8535014E-01
          2   -1    0    0  501    0  0.00000000000E+00  0.00000000000E+00  0.31184674442E+04  0.31184674442E+04  0.00000000000E+00 0.  1.
         -2   -1    0    0    0  501 -0.00000000000E+00 -0.00000000000E+00 -0.37423315085E+03  0.37423315085E+03  0.00000000000E+00 0. -1.
         23    2    1    2    0    0  0.85719897691E+03  0.61101472161E+03  0.17519668524E+04  0.20460756435E+04  0.94385439229E+02 0.  0.
         13    1    3    3    0    0  0.62467445252E+03  0.45995572867E+03  0.13647606477E+04  0.15698245346E+04  0.00000000000E+00 0. -1.
        -13    1    3    3    0    0  0.23252452439E+03  0.15105899295E+03  0.38720620462E+03  0.47625110886E+03  0.00000000000E+00 0.  1.
         22    1    1    2    0    0 -0.85719897691E+03 -0.61101472161E+03  0.99226744104E+03  0.14466249516E+04  0.00000000000E+00 0. -1.
<mgrwt>
<rscale>  0 0.21605869E+04</rscale>
<asrwt>0</asrwt>
<pdfrwt beam="1">  1        2 0.47976421E+00 0.21605869E+04</pdfrwt>
<pdfrwt beam="2">  1       -2 0.57574333E-01 0.21605869E+04</pdfrwt>
<totfact> 0.38013237E+00</totfact>
</mgrwt>
</event>
<event>
 6    1  0.6091287E-004  0.2003397E+04  0.7818608E-02  0.8605034E-01
          1   -1    0    0  501    0  0.00000000000E+00  0.00000000000E+00  0.11032906972E+04  0.11032906972E+04  0.00000000000E+00 0.  1.
         -1   -1    0    0    0  501 -0.00000000000E+00 -0.00000000000E+00 -0.90946083017E+03  0.90946083017E+03  0.00000000000E+00 0. -1.
         23    2    1    2    0    0 -0.19619612364E+03  0.33918843227E+02  0.10813090972E+04  0.11032116486E+04  0.90571358603E+02 0.  0.
         11    1    3    3    0    0 -0.14906734442E+03  0.20227641339E+02  0.56875205630E+03  0.58831040462E+03  0.00000000000E+00 0. -1.
        -11    1    3    3    0    0 -0.47128779227E+02  0.13691201888E+02  0.51255704095E+03  0.51490124400E+03  0.00000000000E+00 0.  1.
         22    1    1    2    0    0  0.19619612364E+03 -0.33918843227E+02 -0.88747923025E+03  0.90953987872E+03  0.00000000000E+00 0. -1.
<mgrwt>
<rscale>  0 0.20033968E+04</rscale>
<asrwt>0</asrwt>
<pdfrwt beam="1">  1        1 0.16973703E+00 0.20033968E+04</pdfrwt>
<pdfrwt beam="2">  1       -1 0.13991705E+00 0.20033968E+04</pdfrwt>
<totfact> 0.49085097E+00</totfact>
</mgrwt>
</event>
<event>
 6    1  0.6091287E-004  0.4132093E+04  0.7818608E-02  0.7978417E-01
         -2   -1    0    0    0  501 -0.00000000000E+00  0.00000000000E+00  0.19686637978E+04  0.19686637978E+04  0.00000000000E+00 0. -1.
          2   -1    0    0  501    0  0.00000000000E+00 -0.00000000000E+00 -0.21682467766E+04  0.21682467766E+04  0.00000000000E+00 0.  1.
         23    2    1    2    0    0 -0.68724135141E+03  0.10643442106E+04 -0.17325131491E+04  0.21481913432E+04  0.89414549265E+02 0.  0.
         11    1    3    3    0    0 -0.43755594029E+03  0.59832439903E+03 -0.99508677444E+03  0.12408243131E+04  0.00000000000E+00 0.  1.
        -11    1    3    3    0    0 -0.24968541112E+03  0.46601981157E+03 -0.73742637461E+03  0.90736703008E+03  0.00000000000E+00 0. -1.
         22    1    1    2    0    0  0.68724135141E+03 -0.10643442106E+04  0.15329301702E+04  0.19887192312E+04  0.00000000000E+00 0. -1.
<mgrwt>
<rscale>  0 0.41320934E+04</rscale>
<asrwt>0</asrwt>
<pdfrwt beam="1">  1        2 0.33357643E+00 0.41320934E+04</pdfrwt>
<pdfrwt beam="2">  1       -2 0.30287135E+00 0.41320934E+04</pdfrwt>
<totfact> 0.12818537E-01</totfact>
</mgrwt>
</event>
<event>
 6    1  0.6091287E-004  0.2112072E+04  0.7818608E-02  0.8555944E-01
          2   -1    0    0  501    0  0.00000000000E+00  0.00000000000E+00  0.13056041161E+04  0.13056041161E+04  0.00000000000E+00 0.  1.
         -2   -1    0    0    0  501 -0.00000000000E+00 -0.00000000000E+00 -0.85417316854E+03  0.85417316854E+03  0.00000000000E+00 0. -1.
         23    2    1    2    0    0 -0.62832226778E+03  0.30345100285E+03 -0.58180530905E+03  0.91300202611E+03  0.90575375901E+02 0.  0.
         11    1    3    3    0    0 -0.45868521028E+03  0.19117891095E+03 -0.37180420579E+03  0.62062860518E+03  0.00000000000E+00 0. -1.
        -11    1    3    3    0    0 -0.16963705751E+03  0.11227209190E+03 -0.21000110326E+03  0.29237342093E+03  0.00000000000E+00 0.  1.
         22    1    1    2    0    0  0.62832226778E+03 -0.30345100285E+03  0.10332362566E+04  0.12467752585E+04  0.00000000000E+00 0.  1.
<mgrwt>
<rscale>  0 0.21120720E+04</rscale>
<asrwt>0</asrwt>
<pdfrwt beam="1">  1        2 0.20086217E+00 0.21120720E+04</pdfrwt>
<pdfrwt beam="2">  1       -2 0.13141126E+00 0.21120720E+04</pdfrwt>
<totfact> 0.63840379E+00</totfact>
</mgrwt>
</event>
<event>
 6    1  0.7463866E-004  0.3162500E+04  0.7818608E-02  0.8198792E-01
          2   -1    0    0  501    0  0.00000000000E+00  0.00000000000E+00  0.23885073761E+04  0.23885073761E+04  0.00000000000E+00 0.  1.
         -2   -1    0    0    0  501 -0.00000000000E+00 -0.00000000000E+00 -0.10468261470E+04  0.10468261470E+04  0.00000000000E+00 0. -1.
         23    2    1    2    0    0 -0.11816821068E+04 -0.36397305772E+03 -0.39709879014E+03  0.13017438381E+04  0.89445975681E+02 0.  0.
         11    1    3    3    0    0 -0.72617430828E+03 -0.19345174949E+03 -0.27536722491E+03  0.80036230167E+03  0.00000000000E+00 0. -1.
        -11    1    3    3    0    0 -0.45550779855E+03 -0.17052130823E+03 -0.12173156523E+03  0.50138153643E+03  0.00000000000E+00 0.  1.
         22    1    1    2    0    0  0.11816821068E+04  0.36397305772E+03  0.17387800193E+04  0.21335896850E+04  0.00000000000E+00 0.  1.
<mgrwt>
<rscale>  0 0.31625003E+04</rscale>
<asrwt>0</asrwt>
<pdfrwt beam="1">  1        2 0.36746267E+00 0.31625003E+04</pdfrwt>
<pdfrwt beam="2">  1       -2 0.16105018E+00 0.31625003E+04</pdfrwt>
<totfact> 0.84347677E-01</totfact>
</mgrwt>
</event>
<event>
 6    1  0.6091287E-004  0.8946579E+03  0.7818608E-02  0.9432284E-01
         -2   -1    0    0    0  501 -0.00000000000E+00  0.00000000000E+00  0.47301616747E+03  0.47301616747E+03  0.00000000000E+00 0. -1.
          2   -1    0    0  501    0  0.00000000000E+00 -0.00000000000E+00 -0.42303667228E+03  0.42303667228E+03  0.00000000000E+00 0.  1.
         23    2    1    2    0    0 -0.29618246063E+03 -0.21896764275E+03 -0.22031338044E+03  0.43918402142E+03  0.93132918514E+02 0.  0.
         11    1    3    3    0    0 -0.91498493550E+02 -0.83138259392E+02 -0.26883052177E+02  0.12651736241E+03  0.00000000000E+00 0.  1.
        -11    1    3    3    0    0 -0.20468396708E+03 -0.13582938335E+03 -0.19343032826E+03  0.31266665901E+03  0.00000000000E+00 0. -1.
         22    1    1    2    0    0  0.29618246063E+03  0.21896764275E+03  0.27029287562E+03  0.45686881834E+03  0.00000000000E+00 0. -1.
<mgrwt>
<rscale>  0 0.89465789E+03</rscale>
<asrwt>0</asrwt>
<pdfrwt beam="1">  1        2 0.65082565E-01 0.89465789E+03</pdfrwt>
<pdfrwt beam="2">  1       -2 0.72771718E-01 0.89465789E+03</pdfrwt>
<totfact> 0.12793455E+02</totfact>
</mgrwt>
</event>
<event>
 6    1  0.6091287E-004  0.9134143E+03  0.7818608E-02  0.9408967E-01
         -2   -1    0    0    0  501 -0.00000000000E+00  0.00000000000E+00  0.61465578419E+02  0.61465578419E+02  0.00000000000E+00 0. -1.
          2   -1    0    0  501    0  0.00000000000E+00 -0.00000000000E+00 -0.33934671535E+04  0.33934671535E+04  0.00000000000E+00 0.  1.
         23    2    1    2    0    0 -0.18459313917E+03  0.15624035522E+03 -0.31271224842E+04  0.31379767136E+04  0.97555874486E+02 0.  0.
         11    1    3    3    0    0 -0.12522282010E+03  0.14310005195E+03 -0.26801360081E+04  0.26868731644E+04  0.00000000000E+00 0. -1.
        -11    1    3    3    0    0 -0.59370319076E+02  0.13140303277E+02 -0.44698647605E+03  0.45110354923E+03  0.00000000000E+00 0.  1.
         22    1    1    2    0    0  0.18459313917E+03 -0.15624035522E+03 -0.20487909087E+03  0.31695601825E+03  0.00000000000E+00 0. -1.
<mgrwt>
<rscale>  0 0.91341430E+03</rscale>
<asrwt>0</asrwt>
<pdfrwt beam="1">  1        2 0.52207198E+00 0.91341430E+03</pdfrwt>
<pdfrwt beam="2">  1       -2 0.94562408E-02 0.91341430E+03</pdfrwt>
<totfact> 0.75943438E+01</totfact>
</mgrwt>
</event>
<event>
 6    1  0.6091287E-004  0.6570770E+04  0.7818608E-02  0.7623398E-01
          2   -1    0    0  501    0  0.00000000000E+00  0.00000000000E+00  0.29454650641E+04  0.29454650641E+04  0.00000000000E+00 0.  1.
         -2   -1    0    0    0  501 -0.00000000000E+00 -0.00000000000E+00 -0.36645326830E+04  0.36645326830E+04  0.00000000000E+00 0. -1.
         23    2    1    2    0    0 -0.17432866597E+04  0.14248388582E+04  0.20464103824E+04  0.30438958522E+04  0.91062375855E+02 0.  0.
         11    1    3    3    0    0 -0.53063375446E+03  0.43605015312E+03  0.68149525650E+03  0.96754726088E+03  0.00000000000E+00 0. -1.
        -11    1    3    3    0    0 -0.12126529052E+04  0.98878870506E+03  0.13649151259E+04  0.20763485913E+04  0.00000000000E+00 0.  1.
         22    1    1    2    0    0  0.17432866597E+04 -0.14248388582E+04 -0.27654780012E+04  0.35661018949E+04  0.00000000000E+00 0. -1.
<mgrwt>
<rscale>  0 0.65707695E+04</rscale>
<asrwt>0</asrwt>
<pdfrwt beam="1">  1        2 0.45314847E+00 0.65707695E+04</pdfrwt>
<pdfrwt beam="2">  1       -2 0.56377426E+00 0.65707695E+04</pdfrwt>
<totfact> 0.90545892E-04</totfact>
</mgrwt>
</event>
<event>
 6    1  0.6091287E-004  0.2843580E+04  0.7818608E-02  0.8289865E-01
         -2   -1    0    0    0  501 -0.00000000000E+00  0.00000000000E+00  0.85716405697E+03  0.85716405697E+03  0.00000000000E+00 0. -1.
          2   -1    0    0  501    0  0.00000000000E+00 -0.00000000000E+00 -0.23583422663E+04  0.23583422663E+04  0.00000000000E+00 0.  1.
         23    2    1    2    0    0  0.37252008808E+03  0.67612855403E+03  0.59679395844E+03  0.98001795283E+03  0.91384470423E+02 0.  0.
         13    1    3    3    0    0  0.27690432662E+03  0.41730131075E+03  0.40323533409E+03  0.64297365787E+03  0.00000000000E+00 0. -1.
        -13    1    3    3    0    0  0.95615761463E+02  0.25882724328E+03  0.19355862435E+03  0.33704429496E+03  0.00000000000E+00 0.  1.
         22    1    1    2    0    0 -0.37252008808E+03 -0.67612855403E+03 -0.20979721678E+04  0.22354883704E+04  0.00000000000E+00 0.  1.
<mgrwt>
<rscale>  0 0.28435796E+04</rscale>
<asrwt>0</asrwt>
<pdfrwt beam="1">  1        2 0.36282189E+00 0.28435796E+04</pdfrwt>
<pdfrwt beam="2">  1       -2 0.13187139E+00 0.28435796E+04</pdfrwt>
<totfact> 0.15249248E+00</totfact>
</mgrwt>
</event>
<event>
 6    1  0.6091287E-004  0.6431798E+04  0.7818608E-02  0.7639054E-01
          1   -1    0    0  501    0  0.00000000000E+00  0.00000000000E+00  0.35174457768E+04  0.35174457768E+04  0.00000000000E+00 0. -1.
         -1   -1    0    0    0  501 -0.00000000000E+00 -0.00000000000E+00 -0.29402039528E+04  0.29402039528E+04  0.00000000000E+00 0.  1.
         23    2    1    2    0    0  0.82352881152E+03  0.22378256263E+04  0.24541555041E+04  0.34230380247E+04  0.90812130191E+02 0.  0.
         13    1    3    3    0    0  0.46996966520E+03  0.11862816986E+04  0.13595984781E+04  0.18645760313E+04  0.00000000000E+00 0. -1.
        -13    1    3    3    0    0  0.35355914631E+03  0.10515439276E+04  0.10945570260E+04  0.15584619934E+04  0.00000000000E+00 0.  1.
         22    1    1    2    0    0 -0.82352881152E+03 -0.22378256263E+04 -0.18769136802E+04  0.30346117050E+04  0.00000000000E+00 0.  1.
<mgrwt>
<rscale>  0 0.64317985E+04</rscale>
<asrwt>0</asrwt>
<pdfrwt beam="1">  1        1 0.54114550E+00 0.64317985E+04</pdfrwt>
<pdfrwt beam="2">  1       -1 0.45233907E+00 0.64317985E+04</pdfrwt>
<totfact> 0.48986471E-04</totfact>
</mgrwt>
</event>
<event>
 6    1  0.6091287E-004  0.2249555E+04  0.7818608E-02  0.8498081E-01
         -2   -1    0    0    0  501 -0.00000000000E+00  0.00000000000E+00  0.54141047509E+03  0.54141047509E+03  0.00000000000E+00 0. -1.
          2   -1    0    0  501    0  0.00000000000E+00 -0.00000000000E+00 -0.23367192752E+04  0.23367192752E+04  0.00000000000E+00 0.  1.
         23    2    1    2    0    0 -0.10751852521E+03 -0.10222904079E+04 -0.32169591661E+03  0.10814180757E+04  0.96637882848E+02 0.  0.
         11    1    3    3    0    0 -0.14902679573E+02 -0.57147335107E+03 -0.19592758743E+03  0.60431076472E+03  0.00000000000E+00 0. -1.
        -11    1    3    3    0    0 -0.92615845639E+02 -0.45081705678E+03 -0.12576832918E+03  0.47710731096E+03  0.00000000000E+00 0.  1.
         22    1    1    2    0    0  0.10751852521E+03  0.10222904079E+04 -0.14736128835E+04  0.17967116746E+04  0.00000000000E+00 0.  1.
<mgrwt>
<rscale>  0 0.22495549E+04</rscale>
<asrwt>0</asrwt>
<pdfrwt beam="1">  1        2 0.35949527E+00 0.22495549E+04</pdfrwt>
<pdfrwt beam="2">  1       -2 0.83293920E-01 0.22495549E+04</pdfrwt>
<totfact> 0.49625822E+00</totfact>
</mgrwt>
</event>
<event>
 6    1  0.1306156E-003  0.2772265E+04  0.7818608E-02  0.8311931E-01
         -2   -1    0    0    0  501 -0.00000000000E+00  0.00000000000E+00  0.10854569094E+04  0.10854569094E+04  0.00000000000E+00 0. -1.
          2   -1    0    0  501    0  0.00000000000E+00 -0.00000000000E+00 -0.17700969454E+04  0.17700969454E+04  0.00000000000E+00 0.  1.
         23    2    1    2    0    0 -0.10480500211E+03 -0.13804601305E+04 -0.31893336689E+03  0.14236335958E+04  0.91432281667E+02 0.  0.
         13    1    3    3    0    0 -0.12931947947E+02 -0.65636719385E+03 -0.12330729173E+03  0.66797441316E+03  0.00000000000E+00 0.  1.
        -13    1    3    3    0    0 -0.91873054162E+02 -0.72409293665E+03 -0.19562607516E+03  0.75565918262E+03  0.00000000000E+00 0. -1.
         22    1    1    2    0    0  0.10480500211E+03  0.13804601305E+04 -0.36570666903E+03  0.14319202590E+04  0.00000000000E+00 0. -1.
<mgrwt>
<rscale>  0 0.27722655E+04</rscale>
<asrwt>0</asrwt>
<pdfrwt beam="1">  1        2 0.27232261E+00 0.27722655E+04</pdfrwt>
<pdfrwt beam="2">  1       -2 0.16699337E+00 0.27722655E+04</pdfrwt>
<totfact> 0.17513873E+00</totfact>
</mgrwt>
</event>
<event>
 6    1  0.6091287E-004  0.4940201E+04  0.7818608E-02  0.7837799E-01
          2   -1    0    0  501    0  0.00000000000E+00  0.00000000000E+00  0.53377928229E+04  0.53377928229E+04  0.00000000000E+00 0.  1.
         -2   -1    0    0    0  501 -0.00000000000E+00 -0.00000000000E+00 -0.11430558765E+04  0.11430558765E+04  0.00000000000E+00 0. -1.
         23    2    1    2    0    0  0.49480791804E+03 -0.10881054626E+04  0.49325445941E+04  0.50761535373E+04  0.92359014057E+02 0.  0.
         11    1    3    3    0    0  0.19945325832E+03 -0.33966086633E+03  0.16820057493E+04  0.17275110555E+04  0.00000000000E+00 0. -1.
        -11    1    3    3    0    0  0.29535465973E+03 -0.74844459631E+03  0.32505388449E+04  0.33486424818E+04  0.00000000000E+00 0.  1.
         22    1    1    2    0    0 -0.49480791804E+03  0.10881054626E+04 -0.73780764767E+03  0.14046951621E+04  0.00000000000E+00 0. -1.
<mgrwt>
<rscale>  0 0.49402006E+04</rscale>
<asrwt>0</asrwt>
<pdfrwt beam="1">  1        2 0.82119888E+00 0.49402006E+04</pdfrwt>
<pdfrwt beam="2">  1       -2 0.17585475E+00 0.49402006E+04</pdfrwt>
<totfact> 0.15728615E-03</totfact>
</mgrwt>
</event>
<event>
 6    1  0.6091287E-004  0.1231660E+04  0.7818608E-02  0.9085587E-01
         -4   -1    0    0    0  501 -0.00000000000E+00  0.00000000000E+00  0.51603850936E+03  0.51603850936E+03  0.00000000000E+00 0. -1.
          4   -1    0    0  501    0  0.00000000000E+00 -0.00000000000E+00 -0.73491938943E+03  0.73491938943E+03  0.00000000000E+00 0.  1.
         23    2    1    2    0    0 -0.79917940336E+02 -0.14022398064E+03 -0.71009728395E+03  0.73390548620E+03  0.91265919556E+02 0.  0.
         13    1    3    3    0    0 -0.58291720418E+02 -0.35809772655E+02 -0.16754143193E+03  0.18097070453E+03  0.00000000000E+00 0.  1.
        -13    1    3    3    0    0 -0.21626219918E+02 -0.10441420799E+03 -0.54255585202E+03  0.55293478167E+03  0.00000000000E+00 0. -1.
         22    1    1    2    0    0  0.79917940336E+02  0.14022398064E+03  0.49121640387E+03  0.51705241259E+03  0.00000000000E+00 0. -1.
<mgrwt>
<rscale>  0 0.12316602E+04</rscale>
<asrwt>0</asrwt>
<pdfrwt beam="1">  1        4 0.11306452E+00 0.12316602E+04</pdfrwt>
<pdfrwt beam="2">  1       -4 0.79390540E-01 0.12316602E+04</pdfrwt>
<totfact> 0.17008201E+00</totfact>
</mgrwt>
</event>
<event>
 6    1  0.6091287E-004  0.1657251E+04  0.7818608E-02  0.8786128E-01
          2   -1    0    0  501    0  0.00000000000E+00  0.00000000000E+00  0.10898209649E+04  0.10898209649E+04  0.00000000000E+00 0. -1.
         -2   -1    0    0    0  501 -0.00000000000E+00 -0.00000000000E+00 -0.63003027603E+03  0.63003027603E+03  0.00000000000E+00 0.  1.
         23    2    1    2    0    0 -0.66176332614E+03  0.31923272959E+03  0.62225330087E+03  0.96736580201E+03  0.93579853500E+02 0.  0.
         11    1    3    3    0    0 -0.42279832147E+03  0.15422613321E+03  0.36650628496E+03  0.58040587326E+03  0.00000000000E+00 0.  1.
        -11    1    3    3    0    0 -0.23896500467E+03  0.16500659638E+03  0.25574701591E+03  0.38695992875E+03  0.00000000000E+00 0. -1.
         22    1    1    2    0    0  0.66176332614E+03 -0.31923272959E+03 -0.16246261202E+03  0.75248543891E+03  0.00000000000E+00 0.  1.
<mgrwt>
<rscale>  0 0.16572510E+04</rscale>
<asrwt>0</asrwt>
<pdfrwt beam="1">  1        2 0.16766476E+00 0.16572510E+04</pdfrwt>
<pdfrwt beam="2">  1       -2 0.96927735E-01 0.16572510E+04</pdfrwt>
<totfact> 0.18767388E+01</totfact>
</mgrwt>
</event>
<event>
 6    1  0.6091287E-004  0.2022409E+04  0.7818608E-02  0.8596215E-01
         -2   -1    0    0    0  501 -0.00000000000E+00  0.00000000000E+00  0.70366525012E+03  0.70366525012E+03  0.00000000000E+00 0. -1.
          2   -1    0    0  501    0  0.00000000000E+00 -0.00000000000E+00 -0.14531545258E+04  0.14531545258E+04  0.00000000000E+00 0.  1.
         23    2    1    2    0    0  0.16483993413E+03  0.43039289144E+02 -0.14362750071E+04  0.14492187406E+04  0.91238577359E+02 0.  0.
         13    1    3    3    0    0  0.50647969478E+02  0.58938351334E+02 -0.61516217383E+03  0.62005116417E+03  0.00000000000E+00 0. -1.
        -13    1    3    3    0    0  0.11419196465E+03 -0.15899062190E+02 -0.82111283324E+03  0.82916757648E+03  0.00000000000E+00 0.  1.
         22    1    1    2    0    0 -0.16483993413E+03 -0.43039289144E+02  0.68678573139E+03  0.70760103528E+03  0.00000000000E+00 0. -1.
<mgrwt>
<rscale>  0 0.20224088E+04</rscale>
<asrwt>0</asrwt>
<pdfrwt beam="1">  1        2 0.22356223E+00 0.20224088E+04</pdfrwt>
<pdfrwt beam="2">  1       -2 0.10825619E+00 0.20224088E+04</pdfrwt>
<totfact> 0.85476127E+00</totfact>
</mgrwt>
</event>
<event>
 6    1  0.6091287E-004  0.4647999E+04  0.7818608E-02  0.7885227E-01
          2   -1    0    0  501    0  0.00000000000E+00  0.00000000000E+00  0.23975146151E+04  0.23975146151E+04  0.00000000000E+00 0.  1.
         -2   -1    0    0    0  501 -0.00000000000E+00 -0.00000000000E+00 -0.22527389273E+04  0.22527389273E+04  0.00000000000E+00 0. -1.
         23    2    1    2    0    0 -0.76429109394E+03  0.20777829566E+04  0.77636976306E+03  0.23480298420E+04  0.95766585133E+02 0.  0.
         13    1    3    3    0    0 -0.26987098019E+03  0.60994593401E+03  0.24455500104E+03  0.71040237676E+03  0.00000000000E+00 0. -1.
        -13    1    3    3    0    0 -0.49442011376E+03  0.14678370226E+04  0.53181476201E+03  0.16376274652E+04  0.00000000000E+00 0.  1.
         22    1    1    2    0    0  0.76429109394E+03 -0.20777829566E+04 -0.63159407527E+03  0.23022237004E+04  0.00000000000E+00 0. -1.
<mgrwt>
<rscale>  0 0.46479994E+04</rscale>
<asrwt>0</asrwt>
<pdfrwt beam="1">  1        2 0.36884840E+00 0.46479994E+04</pdfrwt>
<pdfrwt beam="2">  1       -2 0.34657522E+00 0.46479994E+04</pdfrwt>
<totfact> 0.48829016E-02</totfact>
</mgrwt>
</event>
<event>
 6    1  0.6091287E-004  0.2404677E+04  0.7818608E-02  0.8437755E-01
         -2   -1    0    0    0  501 -0.00000000000E+00  0.00000000000E+00  0.99558326205E+03  0.99558326205E+03  0.00000000000E+00 0. -1.
          2   -1    0    0  501    0  0.00000000000E+00 -0.00000000000E+00 -0.14520310889E+04  0.14520310889E+04  0.00000000000E+00 0.  1.
         23    2    1    2    0    0  0.22794522821E+03 -0.41406988477E+03 -0.13519104423E+04  0.14350600600E+04  0.91228478959E+02 0.  0.
         13    1    3    3    0    0  0.14498764394E+03 -0.24294673332E+03 -0.67379316774E+03  0.73078161240E+03  0.00000000000E+00 0.  1.
        -13    1    3    3    0    0  0.82957584272E+02 -0.17112315144E+03 -0.67811727456E+03  0.70427844764E+03  0.00000000000E+00 0. -1.
         22    1    1    2    0    0 -0.22794522821E+03  0.41406988477E+03  0.89546261541E+03  0.10125542910E+04  0.00000000000E+00 0. -1.
<mgrwt>
<rscale>  0 0.24046770E+04</rscale>
<asrwt>0</asrwt>
<pdfrwt beam="1">  1        2 0.22338940E+00 0.24046770E+04</pdfrwt>
<pdfrwt beam="2">  1       -2 0.15316666E+00 0.24046770E+04</pdfrwt>
<totfact> 0.34432954E+00</totfact>
</mgrwt>
</event>
<event>
 6    1  0.6091287E-004  0.3090031E+04  0.7818608E-02  0.8218479E-01
          1   -1    0    0  501    0  0.00000000000E+00  0.00000000000E+00  0.10881717593E+04  0.10881717593E+04  0.00000000000E+00 0.  1.
         -1   -1    0    0    0  501 -0.00000000000E+00 -0.00000000000E+00 -0.21936542404E+04  0.21936542404E+04  0.00000000000E+00 0. -1.
         23    2    1    2    0    0 -0.13060097281E+04  0.25939022955E+03  0.27622385862E+03  0.13629572938E+04  0.91696583380E+02 0.  0.
         11    1    3    3    0    0 -0.14468838662E+03  0.30515921784E+02  0.17078143408E+01  0.14788126093E+03  0.00000000000E+00 0. -1.
        -11    1    3    3    0    0 -0.11613213415E+04  0.22887430777E+03  0.27451604428E+03  0.12150760329E+04  0.00000000000E+00 0.  1.
         22    1    1    2    0    0  0.13060097281E+04 -0.25939022955E+03 -0.13817063397E+04  0.19188687059E+04  0.00000000000E+00 0. -1.
<mgrwt>
<rscale>  0 0.30900308E+04</rscale>
<asrwt>0</asrwt>
<pdfrwt beam="1">  1        1 0.16741104E+00 0.30900308E+04</pdfrwt>
<pdfrwt beam="2">  1       -1 0.33748526E+00 0.30900308E+04</pdfrwt>
<totfact> 0.20540712E-01</totfact>
</mgrwt>
</event>
<event>
 6    1  0.6091287E-004  0.4441429E+04  0.7818608E-02  0.7920972E-01
         -2   -1    0    0    0  501 -0.00000000000E+00  0.00000000000E+00  0.19386466861E+04  0.19386466861E+04  0.00000000000E+00 0. -1.
          2   -1    0    0  501    0  0.00000000000E+00 -0.00000000000E+00 -0.25438225925E+04  0.25438225925E+04  0.00000000000E+00 0.  1.
         23    2    1    2    0    0 -0.87156982832E+03  0.68300135011E+03  0.16388899398E+04  0.19800791546E+04  0.92889256156E+02 0.  0.
         11    1    3    3    0    0 -0.29628725617E+03  0.19931597277E+03  0.46705307501E+03  0.58792139785E+03  0.00000000000E+00 0. -1.
        -11    1    3    3    0    0 -0.57528257215E+03  0.48368537734E+03  0.11718368648E+04  0.13921577568E+04  0.00000000000E+00 0.  1.
         22    1    1    2    0    0  0.87156982832E+03 -0.68300135011E+03 -0.22440658463E+04  0.25023901239E+04  0.00000000000E+00 0.  1.
<mgrwt>
<rscale>  0 0.44414292E+04</rscale>
<asrwt>0</asrwt>
<pdfrwt beam="1">  1        2 0.39135732E+00 0.44414292E+04</pdfrwt>
<pdfrwt beam="2">  1       -2 0.29825333E+00 0.44414292E+04</pdfrwt>
<totfact> 0.81408906E-02</totfact>
</mgrwt>
</event>
<event>
 6    1  0.6091287E-004  0.5639538E+04  0.7818608E-02  0.7736775E-01
         -2   -1    0    0    0  501 -0.00000000000E+00  0.00000000000E+00  0.22372228810E+04  0.22372228810E+04  0.00000000000E+00 0. -1.
          2   -1    0    0  501    0  0.00000000000E+00 -0.00000000000E+00 -0.35540037794E+04  0.35540037794E+04  0.00000000000E+00 0.  1.
         23    2    1    2    0    0  0.25125562316E+04 -0.76719214440E+03 -0.17086349060E+04  0.31350880784E+04  0.88438759038E+02 0.  0.
         11    1    3    3    0    0  0.16829667914E+04 -0.47890528421E+03 -0.11077918560E+04  0.20709732709E+04  0.00000000000E+00 0. -1.
        -11    1    3    3    0    0  0.82958944019E+03 -0.28828686019E+03 -0.60084304993E+03  0.10641148076E+04  0.00000000000E+00 0.  1.
         22    1    1    2    0    0 -0.25125562316E+04  0.76719214440E+03  0.39185400754E+03  0.26561385820E+04  0.00000000000E+00 0. -1.
<mgrwt>
<rscale>  0 0.56395385E+04</rscale>
<asrwt>0</asrwt>
<pdfrwt beam="1">  1        2 0.54676981E+00 0.56395385E+04</pdfrwt>
<pdfrwt beam="2">  1       -2 0.34418813E+00 0.56395385E+04</pdfrwt>
<totfact> 0.87043926E-03</totfact>
</mgrwt>
</event>
<event>
 6    1  0.6091287E-004  0.1855020E+04  0.7818608E-02  0.8677576E-01
          2   -1    0    0  501    0  0.00000000000E+00  0.00000000000E+00  0.52484796498E+03  0.52484796498E+03  0.00000000000E+00 0.  1.
         -2   -1    0    0    0  501 -0.00000000000E+00 -0.00000000000E+00 -0.16390930072E+04  0.16390930072E+04  0.00000000000E+00 0. -1.
         23    2    1    2    0    0  0.23454593944E+03  0.89215969938E+03 -0.63662337833E+03  0.11251516862E+04  0.98571112496E+02 0.  0.
         11    1    3    3    0    0  0.16673383817E+03  0.68102617986E+03 -0.43284746381E+03  0.82398650315E+03  0.00000000000E+00 0.  1.
        -11    1    3    3    0    0  0.67812101274E+02  0.21113351952E+03 -0.20377591452E+03  0.30116518305E+03  0.00000000000E+00 0. -1.
         22    1    1    2    0    0 -0.23454593944E+03 -0.89215969938E+03 -0.47762166393E+03  0.10387892860E+04  0.00000000000E+00 0.  1.
<mgrwt>
<rscale>  0 0.18550198E+04</rscale>
<asrwt>0</asrwt>
<pdfrwt beam="1">  1        2 0.80745841E-01 0.18550198E+04</pdfrwt>
<pdfrwt beam="2">  1       -2 0.25216815E+00 0.18550198E+04</pdfrwt>
<totfact> 0.34077560E+00</totfact>
</mgrwt>
</event>
<event>
 6    1  0.6091287E-004  0.2564817E+04  0.7818608E-02  0.8380251E-01
          2   -1    0    0  501    0  0.00000000000E+00  0.00000000000E+00  0.17908268260E+04  0.17908268260E+04  0.00000000000E+00 0.  1.
         -2   -1    0    0    0  501 -0.00000000000E+00 -0.00000000000E+00 -0.91833072273E+03  0.91833072273E+03  0.00000000000E+00 0. -1.
         23    2    1    2    0    0 -0.93498247740E+03 -0.20596580139E+03  0.13355255243E+04  0.16456678265E+04  0.89330984803E+02 0.  0.
         11    1    3    3    0    0 -0.54708241939E+03 -0.14191251883E+03  0.85299546727E+03  0.10232495315E+04  0.00000000000E+00 0. -1.
        -11    1    3    3    0    0 -0.38790005801E+03 -0.64053282560E+02  0.48253005703E+03  0.62241829499E+03  0.00000000000E+00 0.  1.
         22    1    1    2    0    0  0.93498247740E+03  0.20596580139E+03 -0.46302942105E+03  0.10634897222E+04  0.00000000000E+00 0. -1.
<mgrwt>
<rscale>  0 0.25648168E+04</rscale>
<asrwt>0</asrwt>
<pdfrwt beam="1">  1        2 0.27551182E+00 0.25648168E+04</pdfrwt>
<pdfrwt beam="2">  1       -2 0.14128165E+00 0.25648168E+04</pdfrwt>
<totfact> 0.27168729E+00</totfact>
</mgrwt>
</event>
<event>
 6    1  0.6091287E-004  0.3476439E+04  0.7818608E-02  0.8119396E-01
         -2   -1    0    0    0  501 -0.00000000000E+00  0.00000000000E+00  0.16466853044E+04  0.16466853044E+04  0.00000000000E+00 0. -1.
          2   -1    0    0  501    0  0.00000000000E+00 -0.00000000000E+00 -0.18348417288E+04  0.18348417288E+04  0.00000000000E+00 0.  1.
         23    2    1    2    0    0  0.31375162759E+03 -0.10820380010E+04 -0.14182174983E+04  0.18135052812E+04  0.90632294826E+02 0.  0.
         11    1    3    3    0    0  0.70418100000E+02 -0.14392162551E+03 -0.17725545031E+03  0.23893856482E+03  0.00000000000E+00 0. -1.
        -11    1    3    3    0    0  0.24333352759E+03 -0.93811637547E+03 -0.12409620480E+04  0.15745667163E+04  0.00000000000E+00 0.  1.
         22    1    1    2    0    0 -0.31375162759E+03  0.10820380010E+04  0.12300610740E+04  0.16680217520E+04  0.00000000000E+00 0. -1.
<mgrwt>
<rscale>  0 0.34764389E+04</rscale>
<asrwt>0</asrwt>
<pdfrwt beam="1">  1        2 0.28228334E+00 0.34764389E+04</pdfrwt>
<pdfrwt beam="2">  1       -2 0.25333620E+00 0.34764389E+04</pdfrwt>
<totfact> 0.41650626E-01</totfact>
</mgrwt>
</event>
<event>
 6    1  0.6091287E-004  0.6870859E+04  0.7818608E-02  0.7590902E-01
         -2   -1    0    0    0  501 -0.00000000000E+00  0.00000000000E+00  0.29629082181E+04  0.29629082181E+04  0.00000000000E+00 0. -1.
          2   -1    0    0  501    0  0.00000000000E+00 -0.00000000000E+00 -0.39833078948E+04  0.39833078948E+04  0.00000000000E+00 0.  1.
         23    2    1    2    0    0 -0.26412852115E+04 -0.86486515942E+03 -0.25507826452E+04  0.37734489700E+04  0.89697905344E+02 0.  0.
         11    1    3    3    0    0 -0.10676159720E+04 -0.31709774071E+03 -0.10644795267E+04  0.15406075112E+04  0.00000000000E+00 0.  1.
        -11    1    3    3    0    0 -0.15736692395E+04 -0.54776741871E+03 -0.14863031184E+04  0.22328414588E+04  0.00000000000E+00 0. -1.
         22    1    1    2    0    0  0.26412852115E+04  0.86486515942E+03  0.15303829685E+04  0.31727671428E+04  0.00000000000E+00 0. -1.
<mgrwt>
<rscale>  0 0.68708590E+04</rscale>
<asrwt>0</asrwt>
<pdfrwt beam="1">  1        2 0.61281660E+00 0.68708590E+04</pdfrwt>
<pdfrwt beam="2">  1       -2 0.45583203E+00 0.68708590E+04</pdfrwt>
<totfact> 0.70660785E-04</totfact>
</mgrwt>
</event>
<event>
 6    1  0.6091287E-004  0.8135763E+03  0.7818608E-02  0.9540571E-01
         -1   -1    0    0    0  501 -0.00000000000E+00  0.00000000000E+00  0.12601809069E+03  0.12601809069E+03  0.00000000000E+00 0. -1.
          1   -1    0    0  501    0  0.00000000000E+00 -0.00000000000E+00 -0.13131178117E+04  0.13131178117E+04  0.00000000000E+00 0.  1.
         23    2    1    2    0    0  0.23273585202E+03  0.80186540974E+02 -0.11626315153E+04  0.11917605777E+04  0.89360932266E+02 0.  0.
         11    1    3    3    0    0  0.62555311427E+02 -0.18398184204E+02 -0.28737867227E+03  0.29468315433E+03  0.00000000000E+00 0. -1.
        -11    1    3    3    0    0  0.17018054059E+03  0.98584725179E+02 -0.87525284299E+03  0.89707742341E+03  0.00000000000E+00 0.  1.
         22    1    1    2    0    0 -0.23273585202E+03 -0.80186540974E+02 -0.24468205793E+02  0.24737532469E+03  0.00000000000E+00 0. -1.
<mgrwt>
<rscale>  0 0.81357630E+03</rscale>
<asrwt>0</asrwt>
<pdfrwt beam="1">  1        1 0.20201813E+00 0.81357630E+03</pdfrwt>
<pdfrwt beam="2">  1       -1 0.19387398E-01 0.81357630E+03</pdfrwt>
<totfact> 0.19296660E+02</totfact>
</mgrwt>
</event>
<event>
 6    1  0.6091287E-004  0.1046046E+04  0.7818608E-02  0.9259436E-01
          2   -1    0    0  501    0  0.00000000000E+00  0.00000000000E+00  0.17830419779E+04  0.17830419779E+04  0.00000000000E+00 0.  1.
         -2   -1    0    0    0  501 -0.00000000000E+00 -0.00000000000E+00 -0.15341926811E+03  0.15341926811E+03  0.00000000000E+00 0. -1.
         23    2    1    2    0    0  0.16421838734E+02 -0.30233479073E+03  0.16014134499E+04  0.16323695414E+04  0.91811108114E+02 0.  0.
         11    1    3    3    0    0  0.15027942202E+02 -0.35014409613E+02  0.38755917843E+03  0.38942774004E+03  0.00000000000E+00 0.  1.
        -11    1    3    3    0    0  0.13938965326E+01 -0.26732038112E+03  0.12138542715E+04  0.12429418014E+04  0.00000000000E+00 0. -1.
         22    1    1    2    0    0 -0.16421838734E+02  0.30233479073E+03  0.28209259858E+02  0.30409170461E+03  0.00000000000E+00 0. -1.
<mgrwt>
<rscale>  0 0.10460459E+04</rscale>
<asrwt>0</asrwt>
<pdfrwt beam="1">  1        2 0.27431414E+00 0.10460459E+04</pdfrwt>
<pdfrwt beam="2">  1       -2 0.23602966E-01 0.10460459E+04</pdfrwt>
<totfact> 0.13989764E+02</totfact>
</mgrwt>
</event>
<event>
 6    1  0.6091287E-004  0.6155660E+03  0.7818608E-02  0.9873628E-01
          2   -1    0    0  501    0  0.00000000000E+00  0.00000000000E+00  0.41428628462E+03  0.41428628462E+03  0.00000000000E+00 0.  1.
         -2   -1    0    0    0  501 -0.00000000000E+00 -0.00000000000E+00 -0.22865919219E+03  0.22865919219E+03  0.00000000000E+00 0. -1.
         23    2    1    2    0    0  0.22793421735E+03 -0.16166492403E+03 -0.23602675876E+02  0.29385143354E+03  0.87761173568E+02 0.  0.
         13    1    3    3    0    0  0.21714648708E+03 -0.17248383469E+03 -0.25364576215E+02  0.27847195874E+03  0.00000000000E+00 0.  1.
        -13    1    3    3    0    0  0.10787730274E+02  0.10818910661E+02  0.17619003389E+01  0.15379474801E+02  0.00000000000E+00 0. -1.
         22    1    1    2    0    0 -0.22793421735E+03  0.16166492403E+03  0.20922976831E+03  0.34909404327E+03  0.00000000000E+00 0.  1.
<mgrwt>
<rscale>  0 0.61556597E+03</rscale>
<asrwt>0</asrwt>
<pdfrwt beam="1">  1        2 0.63736351E-01 0.61556597E+03</pdfrwt>
<pdfrwt beam="2">  1       -2 0.35178337E-01 0.61556597E+03</pdfrwt>
<totfact> 0.58375981E+02</totfact>
</mgrwt>
</event>
<event>
 6    1  0.6091287E-004  0.3484099E+04  0.7818608E-02  0.8117569E-01
         -2   -1    0    0    0  501 -0.00000000000E+00  0.00000000000E+00  0.16785683256E+04  0.16785683256E+04  0.00000000000E+00 0. -1.
          2   -1    0    0  501    0  0.00000000000E+00 -0.00000000000E+00 -0.18079315287E+04  0.18079315287E+04  0.00000000000E+00 0.  1.
         23    2    1    2    0    0 -0.90881821990E+03  0.88889553407E+02 -0.15479153103E+04  0.17994485835E+04  0.90119294432E+02 0.  0.
         11    1    3    3    0    0 -0.72267864613E+03  0.10656417112E+03 -0.12205615077E+04  0.14224593991E+04  0.00000000000E+00 0. -1.
        -11    1    3    3    0    0 -0.18613957377E+03 -0.17674617710E+02 -0.32735380263E+03  0.37698918437E+03  0.00000000000E+00 0.  1.
         22    1    1    2    0    0  0.90881821990E+03 -0.88889553407E+02  0.14185521072E+04  0.16870512708E+04  0.00000000000E+00 0. -1.
<mgrwt>
<rscale>  0 0.34840991E+04</rscale>
<asrwt>0</asrwt>
<pdfrwt beam="1">  1        2 0.27814331E+00 0.34840991E+04</pdfrwt>
<pdfrwt beam="2">  1       -2 0.25824128E+00 0.34840991E+04</pdfrwt>
<totfact> 0.40197222E-01</totfact>
</mgrwt>
</event>
<event>
 6    1  0.6091287E-004  0.1050224E+04  0.7818608E-02  0.9255113E-01
          2   -1    0    0  501    0  0.00000000000E+00  0.00000000000E+00  0.19400356900E+03  0.19400356900E+03  0.00000000000E+00 0.  1.
         -2   -1    0    0    0  501 -0.00000000000E+00 -0.00000000000E+00 -0.14213280210E+04  0.14213280210E+04  0.00000000000E+00 0. -1.
         23    2    1    2    0    0 -0.25891591448E+02  0.15009625654E+03 -0.13848378074E+04  0.13962203903E+04  0.91958494192E+02 0.  0.
         11    1    3    3    0    0 -0.22873955873E+02  0.30427821146E+02 -0.69738358447E+03  0.69842174511E+03  0.00000000000E+00 0.  1.
        -11    1    3    3    0    0 -0.30176355753E+01  0.11966843540E+03 -0.68745422295E+03  0.69779864517E+03  0.00000000000E+00 0. -1.
         22    1    1    2    0    0  0.25891591448E+02 -0.15009625654E+03  0.15751335538E+03  0.21911119976E+03  0.00000000000E+00 0.  1.
<mgrwt>
<rscale>  0 0.10502242E+04</rscale>
<asrwt>0</asrwt>
<pdfrwt beam="1">  1        2 0.29846703E-01 0.10502242E+04</pdfrwt>
<pdfrwt beam="2">  1       -2 0.21866585E+00 0.10502242E+04</pdfrwt>
<totfact> 0.18008721E+01</totfact>
</mgrwt>
</event>
<event>
 6    1  0.6091287E-004  0.2156350E+04  0.7818608E-02  0.8536819E-01
         -2   -1    0    0    0  501 -0.00000000000E+00  0.00000000000E+00  0.42656522404E+03  0.42656522404E+03  0.00000000000E+00 0. -1.
          2   -1    0    0  501    0  0.00000000000E+00 -0.00000000000E+00 -0.27251668403E+04  0.27251668403E+04  0.00000000000E+00 0.  1.
         23    2    1    2    0    0 -0.97988767029E+03  0.14961976757E+03 -0.17640497099E+04  0.20255386254E+04  0.91484550678E+02 0.  0.
         13    1    3    3    0    0 -0.45558334925E+03  0.11405899384E+03 -0.85754156017E+03  0.97772346274E+03  0.00000000000E+00 0.  1.
        -13    1    3    3    0    0 -0.52430432104E+03  0.35560773734E+02 -0.90650814972E+03  0.10478151627E+04  0.00000000000E+00 0. -1.
         22    1    1    2    0    0  0.97988767029E+03 -0.14961976757E+03 -0.53455190639E+03  0.11261934389E+04  0.00000000000E+00 0. -1.
<mgrwt>
<rscale>  0 0.21563501E+04</rscale>
<asrwt>0</asrwt>
<pdfrwt beam="1">  1        2 0.41925644E+00 0.21563501E+04</pdfrwt>
<pdfrwt beam="2">  1       -2 0.65625419E-01 0.21563501E+04</pdfrwt>
<totfact> 0.50353606E+00</totfact>
</mgrwt>
</event>
<event>
 6    1  0.6091287E-004  0.2476536E+04  0.7818608E-02  0.8411393E-01
         -2   -1    0    0    0  501 -0.00000000000E+00  0.00000000000E+00  0.61294725437E+03  0.61294725437E+03  0.00000000000E+00 0. -1.
          2   -1    0    0  501    0  0.00000000000E+00 -0.00000000000E+00 -0.25015333756E+04  0.25015333756E+04  0.00000000000E+00 0.  1.
         23    2    1    2    0    0 -0.69881972834E+03 -0.10201141028E+04 -0.92313776877E+03  0.15457001110E+04  0.89575093873E+02 0.  0.
         13    1    3    3    0    0 -0.20394638656E+02 -0.20291287211E+02 -0.39175051879E+02  0.48604138839E+02  0.00000000000E+00 0. -1.
        -13    1    3    3    0    0 -0.67842508969E+03 -0.99982281562E+03 -0.88396271689E+03  0.14970959721E+04  0.00000000000E+00 0.  1.
         22    1    1    2    0    0  0.69881972834E+03  0.10201141028E+04 -0.96544835246E+03  0.15687805190E+04  0.00000000000E+00 0. -1.
<mgrwt>
<rscale>  0 0.24765363E+04</rscale>
<asrwt>0</asrwt>
<pdfrwt beam="1">  1        2 0.38485128E+00 0.24765363E+04</pdfrwt>
<pdfrwt beam="2">  1       -2 0.94299580E-01 0.24765363E+04</pdfrwt>
<totfact> 0.29432988E+00</totfact>
</mgrwt>
</event>
<event>
 6    1  0.6091287E-004  0.1026033E+04  0.7818608E-02  0.9280445E-01
         -1   -1    0    0    0  501 -0.00000000000E+00  0.00000000000E+00  0.11570007843E+04  0.11570007843E+04  0.00000000000E+00 0. -1.
          1   -1    0    0  501    0  0.00000000000E+00 -0.00000000000E+00 -0.22747241911E+03  0.22747241911E+03  0.00000000000E+00 0.  1.
         23    2    1    2    0    0  0.17085215458E+03 -0.30757240422E+03  0.96473599999E+03  0.10308762293E+04  0.90548373351E+02 0.  0.
         13    1    3    3    0    0  0.15168703398E+03 -0.29302584729E+03  0.81567168673E+03  0.87988260807E+03  0.00000000000E+00 0. -1.
        -13    1    3    3    0    0  0.19165120601E+02 -0.14546556927E+02  0.14906431326E+03  0.15099362123E+03  0.00000000000E+00 0.  1.
         22    1    1    2    0    0 -0.17085215458E+03  0.30757240422E+03 -0.35207634775E+02  0.35359697412E+03  0.00000000000E+00 0.  1.
<mgrwt>
<rscale>  0 0.10260327E+04</rscale>
<asrwt>0</asrwt>
<pdfrwt beam="1">  1        1 0.34995757E-01 0.10260327E+04</pdfrwt>
<pdfrwt beam="2">  1       -1 0.17800012E+00 0.10260327E+04</pdfrwt>
<totfact> 0.27106855E+01</totfact>
</mgrwt>
</event>
<event>
 6    1  0.6091287E-004  0.3885522E+04  0.7818608E-02  0.8028047E-01
         -2   -1    0    0    0  501 -0.00000000000E+00  0.00000000000E+00  0.16584170805E+04  0.16584170805E+04  0.00000000000E+00 0. -1.
          2   -1    0    0  501    0  0.00000000000E+00 -0.00000000000E+00 -0.22758575722E+04  0.22758575722E+04  0.00000000000E+00 0.  1.
         23    2    1    2    0    0  0.15002888478E+04 -0.58871891809E+03  0.78750353731E+03  0.17962090980E+04  0.93534545298E+02 0.  0.
         13    1    3    3    0    0  0.37029595837E+03 -0.10383548561E+03  0.17677686149E+03  0.42326228702E+03  0.00000000000E+00 0. -1.
        -13    1    3    3    0    0  0.11299928894E+04 -0.48488343248E+03  0.61072667582E+03  0.13729468110E+04  0.00000000000E+00 0.  1.
         22    1    1    2    0    0 -0.15002888478E+04  0.58871891809E+03 -0.14049440290E+04  0.21380655547E+04  0.00000000000E+00 0. -1.
<mgrwt>
<rscale>  0 0.38855224E+04</rscale>
<asrwt>0</asrwt>
<pdfrwt beam="1">  1        2 0.35013193E+00 0.38855224E+04</pdfrwt>
<pdfrwt beam="2">  1       -2 0.25514109E+00 0.38855224E+04</pdfrwt>
<totfact> 0.22261439E-01</totfact>
</mgrwt>
</event>
<event>
 6    1  0.6091287E-004  0.3425703E+04  0.7818608E-02  0.8131627E-01
         -2   -1    0    0    0  501 -0.00000000000E+00  0.00000000000E+00  0.14370350520E+04  0.14370350520E+04  0.00000000000E+00 0. -1.
          2   -1    0    0  501    0  0.00000000000E+00 -0.00000000000E+00 -0.20416064540E+04  0.20416064540E+04  0.00000000000E+00 0.  1.
         23    2    1    2    0    0  0.56878530904E+03  0.85560821009E+03 -0.16926142564E+04  0.19821725322E+04  0.92102059557E+02 0.  0.
         11    1    3    3    0    0  0.67714270604E+02  0.14416371315E+03 -0.21871092745E+03  0.27056028611E+03  0.00000000000E+00 0.  1.
        -11    1    3    3    0    0  0.50107103844E+03  0.71144449693E+03 -0.14739033289E+04  0.17116122460E+04  0.00000000000E+00 0. -1.
         22    1    1    2    0    0 -0.56878530904E+03 -0.85560821009E+03  0.10880428543E+04  0.14964689739E+04  0.00000000000E+00 0. -1.
<mgrwt>
<rscale>  0 0.34257029E+04</rscale>
<asrwt>0</asrwt>
<pdfrwt beam="1">  1        2 0.31409330E+00 0.34257029E+04</pdfrwt>
<pdfrwt beam="2">  1       -2 0.22108232E+00 0.34257029E+04</pdfrwt>
<totfact> 0.50946106E-01</totfact>
</mgrwt>
</event>
<event>
 6    1  0.6091287E-004  0.2847346E+04  0.7818608E-02  0.8288718E-01
          2   -1    0    0  501    0  0.00000000000E+00  0.00000000000E+00  0.33157771253E+04  0.33157771253E+04  0.00000000000E+00 0.  1.
         -2   -1    0    0    0  501 -0.00000000000E+00 -0.00000000000E+00 -0.61127300413E+03  0.61127300413E+03  0.00000000000E+00 0. -1.
         23    2    1    2    0    0 -0.89544182215E+03  0.92410890098E+03  0.21890559534E+04  0.25408754898E+04  0.91043782059E+02 0.  0.
         11    1    3    3    0    0 -0.75281279919E+03  0.81847690202E+03  0.18635964484E+04  0.21701666462E+04  0.00000000000E+00 0.  1.
        -11    1    3    3    0    0 -0.14262902296E+03  0.10563199895E+03  0.32545950497E+03  0.37070884366E+03  0.00000000000E+00 0. -1.
         22    1    1    2    0    0  0.89544182215E+03 -0.92410890098E+03  0.51544816780E+03  0.13861746396E+04  0.00000000000E+00 0. -1.
<mgrwt>
<rscale>  0 0.28473462E+04</rscale>
<asrwt>0</asrwt>
<pdfrwt beam="1">  1        2 0.51011955E+00 0.28473462E+04</pdfrwt>
<pdfrwt beam="2">  1       -2 0.94042002E-01 0.28473462E+04</pdfrwt>
<totfact> 0.89888311E-01</totfact>
</mgrwt>
</event>
<event>
 6    1  0.6091287E-004  0.3002784E+04  0.7818608E-02  0.8242936E-01
         -2   -1    0    0    0  501 -0.00000000000E+00  0.00000000000E+00  0.14339453553E+04  0.14339453553E+04  0.00000000000E+00 0. -1.
          2   -1    0    0  501    0  0.00000000000E+00 -0.00000000000E+00 -0.15720109252E+04  0.15720109252E+04  0.00000000000E+00 0.  1.
         23    2    1    2    0    0  0.12375170956E+04  0.61435503769E+03  0.51571604992E+03  0.14774566630E+04  0.89635221107E+02 0.  0.
         13    1    3    3    0    0  0.40231684012E+03  0.15889398315E+03  0.18230986928E+03  0.46940710068E+03  0.00000000000E+00 0.  1.
        -13    1    3    3    0    0  0.83520025544E+03  0.45546105454E+03  0.33340618064E+03  0.10080495624E+04  0.00000000000E+00 0. -1.
         22    1    1    2    0    0 -0.12375170956E+04 -0.61435503769E+03 -0.65378161989E+03  0.15284996175E+04  0.00000000000E+00 0.  1.
<mgrwt>
<rscale>  0 0.30027839E+04</rscale>
<asrwt>0</asrwt>
<pdfrwt beam="1">  1        2 0.24184783E+00 0.30027839E+04</pdfrwt>
<pdfrwt beam="2">  1       -2 0.22060698E+00 0.30027839E+04</pdfrwt>
<totfact> 0.96944270E-01</totfact>
</mgrwt>
</event>
<event>
 6    1  0.6091287E-004  0.3896798E+04  0.7818608E-02  0.8025696E-01
         -2   -1    0    0    0  501 -0.00000000000E+00  0.00000000000E+00  0.12983914655E+04  0.12983914655E+04  0.00000000000E+00 0. -1.
          2   -1    0    0  501    0  0.00000000000E+00 -0.00000000000E+00 -0.29238160800E+04  0.29238160800E+04  0.00000000000E+00 0.  1.
         23    2    1    2    0    0 -0.13228319352E+04  0.12816793249E+04 -0.14978939626E+04  0.23759003425E+04  0.92897221436E+02 0.  0.
         11    1    3    3    0    0 -0.90911609112E+03  0.87057167161E+03 -0.10777880784E+04  0.16571102089E+04  0.00000000000E+00 0. -1.
        -11    1    3    3    0    0 -0.41371584408E+03  0.41110765328E+03 -0.42010588419E+03  0.71879013360E+03  0.00000000000E+00 0.  1.
         22    1    1    2    0    0  0.13228319352E+04 -0.12816793249E+04 -0.12753065198E+03  0.18463072030E+04  0.00000000000E+00 0.  1.
<mgrwt>
<rscale>  0 0.38967976E+04</rscale>
<asrwt>0</asrwt>
<pdfrwt beam="1">  1        2 0.44981786E+00 0.38967976E+04</pdfrwt>
<pdfrwt beam="2">  1       -2 0.19975253E+00 0.38967976E+04</pdfrwt>
<totfact> 0.20615220E-01</totfact>
</mgrwt>
</event>
<event>
 6    1  0.6091287E-004  0.2247137E+04  0.7818608E-02  0.8499061E-01
          2   -1    0    0  501    0  0.00000000000E+00  0.00000000000E+00  0.63223274130E+03  0.63223274130E+03  0.00000000000E+00 0.  1.
         -2   -1    0    0    0  501 -0.00000000000E+00 -0.00000000000E+00 -0.19967430063E+04  0.19967430063E+04  0.00000000000E+00 0. -1.
         23    2    1    2    0    0 -0.63711602955E+03 -0.88956164218E+03 -0.39557620438E+03  0.11674457396E+04  0.95980577084E+02 0.  0.
         13    1    3    3    0    0 -0.43136019681E+03 -0.66435305280E+03 -0.31012540190E+03  0.85065525511E+03  0.00000000000E+00 0.  1.
        -13    1    3    3    0    0 -0.20575583275E+03 -0.22520858938E+03 -0.85450802486E+02  0.31679048453E+03  0.00000000000E+00 0. -1.
         22    1    1    2    0    0  0.63711602955E+03  0.88956164218E+03 -0.96893406063E+03  0.14615300080E+04  0.00000000000E+00 0.  1.
<mgrwt>
<rscale>  0 0.22471371E+04</rscale>
<asrwt>0</asrwt>
<pdfrwt beam="1">  1        2 0.97266575E-01 0.22471371E+04</pdfrwt>
<pdfrwt beam="2">  1       -2 0.30719123E+00 0.22471371E+04</pdfrwt>
<totfact> 0.12171802E+00</totfact>
</mgrwt>
</event>
<event>
 6    1  0.6091287E-004  0.2968062E+04  0.7818608E-02  0.8252910E-01
          2   -1    0    0  501    0  0.00000000000E+00  0.00000000000E+00  0.21988868632E+04  0.21988868632E+04  0.00000000000E+00 0.  1.
         -2   -1    0    0    0  501 -0.00000000000E+00 -0.00000000000E+00 -0.10015737085E+04  0.10015737085E+04  0.00000000000E+00 0. -1.
         23    2    1    2    0    0  0.49139057347E+03  0.13893272429E+04  0.42415398645E+03  0.15362881098E+04  0.92626501083E+02 0.  0.
         11    1    3    3    0    0  0.35831985007E+03  0.89893769699E+03  0.30102998123E+03  0.10134599882E+04  0.00000000000E+00 0. -1.
        -11    1    3    3    0    0  0.13307072340E+03  0.49038954587E+03  0.12312400521E+03  0.52282812165E+03  0.00000000000E+00 0.  1.
         22    1    1    2    0    0 -0.49139057347E+03 -0.13893272429E+04  0.77315916825E+03  0.16641724619E+04  0.00000000000E+00 0. -1.
<mgrwt>
<rscale>  0 0.29680615E+04</rscale>
<asrwt>0</asrwt>
<pdfrwt beam="1">  1        2 0.33829029E+00 0.29680615E+04</pdfrwt>
<pdfrwt beam="2">  1       -2 0.15408826E+00 0.29680615E+04</pdfrwt>
<totfact> 0.12378098E+00</totfact>
</mgrwt>
</event>
<event>
 6    1  0.6091287E-004  0.1987798E+04  0.7818608E-02  0.8612347E-01
          2   -1    0    0  501    0  0.00000000000E+00  0.00000000000E+00  0.14217668320E+04  0.14217668320E+04  0.00000000000E+00 0.  1.
         -2   -1    0    0    0  501 -0.00000000000E+00 -0.00000000000E+00 -0.69479404222E+03  0.69479404222E+03  0.00000000000E+00 0. -1.
         23    2    1    2    0    0 -0.17181757710E+03  0.74578027066E+03 -0.30768357685E+03  0.82961748429E+03  0.88805939392E+02 0.  0.
         11    1    3    3    0    0 -0.93828861725E+01  0.15091743462E+03 -0.88360742692E+02  0.17513346760E+03  0.00000000000E+00 0. -1.
        -11    1    3    3    0    0 -0.16243469092E+03  0.59486283604E+03 -0.21932283416E+03  0.65448401669E+03  0.00000000000E+00 0.  1.
         22    1    1    2    0    0  0.17181757710E+03 -0.74578027066E+03  0.10346563667E+04  0.12869433900E+04  0.00000000000E+00 0.  1.
<mgrwt>
<rscale>  0 0.19877979E+04</rscale>
<asrwt>0</asrwt>
<pdfrwt beam="1">  1        2 0.21873336E+00 0.19877979E+04</pdfrwt>
<pdfrwt beam="2">  1       -2 0.10689139E+00 0.19877979E+04</pdfrwt>
<totfact> 0.92097696E+00</totfact>
</mgrwt>
</event>
<event>
 6    1  0.6091287E-004  0.2579446E+04  0.7818608E-02  0.8375216E-01
          2   -1    0    0  501    0  0.00000000000E+00  0.00000000000E+00  0.72466853587E+03  0.72466853587E+03  0.00000000000E+00 0.  1.
         -2   -1    0    0    0  501 -0.00000000000E+00 -0.00000000000E+00 -0.22953746793E+04  0.22953746793E+04  0.00000000000E+00 0. -1.
         23    2    1    2    0    0 -0.10603563418E+04  0.25787837605E+02 -0.16420534266E+04  0.19569764162E+04  0.91633257971E+02 0.  0.
         11    1    3    3    0    0 -0.33141114110E+03 -0.72433587269E+01 -0.44206555883E+03  0.55254662155E+03  0.00000000000E+00 0.  1.
        -11    1    3    3    0    0 -0.72894520067E+03  0.33031196331E+02 -0.11999878677E+04  0.14044297947E+04  0.00000000000E+00 0. -1.
         22    1    1    2    0    0  0.10603563418E+04 -0.25787837605E+02  0.71347283149E+02  0.10630667989E+04  0.00000000000E+00 0.  1.
<mgrwt>
<rscale>  0 0.25794463E+04</rscale>
<asrwt>0</asrwt>
<pdfrwt beam="1">  1        2 0.11148747E+00 0.25794463E+04</pdfrwt>
<pdfrwt beam="2">  1       -2 0.35313456E+00 0.25794463E+04</pdfrwt>
<totfact> 0.51650239E-01</totfact>
</mgrwt>
</event>
<event>
 6    1  0.6091287E-004  0.4141201E+03  0.7818608E-02  0.1038997E+00
          2   -1    0    0  501    0  0.00000000000E+00  0.00000000000E+00  0.21540972905E+04  0.21540972905E+04  0.00000000000E+00 0.  1.
         -2   -1    0    0    0  501 -0.00000000000E+00 -0.00000000000E+00 -0.19903399170E+02  0.19903399170E+02  0.00000000000E+00 0. -1.
         23    2    1    2    0    0 -0.14463119781E+03 -0.12008223348E+03  0.14185739019E+04  0.14341021186E+04  0.94652233429E+02 0.  0.
         11    1    3    3    0    0 -0.78612844867E+02 -0.11507140655E+03  0.80584727577E+03  0.81780880397E+03  0.00000000000E+00 0. -1.
        -11    1    3    3    0    0 -0.66018352938E+02 -0.50108269332E+01  0.61272662611E+03  0.61629331463E+03  0.00000000000E+00 0.  1.
         22    1    1    2    0    0  0.14463119781E+03  0.12008223348E+03  0.71561998949E+03  0.73989857111E+03  0.00000000000E+00 0. -1.
<mgrwt>
<rscale>  0 0.41412007E+03</rscale>
<asrwt>0</asrwt>
<pdfrwt beam="1">  1        2 0.33139940E+00 0.41412007E+03</pdfrwt>
<pdfrwt beam="2">  1       -2 0.30620631E-02 0.41412007E+03</pdfrwt>
<totfact> 0.25096070E+03</totfact>
</mgrwt>
</event>
<event>
 6    1  0.6091287E-004  0.2549053E+04  0.7818608E-02  0.8385715E-01
         -2   -1    0    0    0  501 -0.00000000000E+00  0.00000000000E+00  0.94494892878E+03  0.94494892878E+03  0.00000000000E+00 0.  1.
          2   -1    0    0  501    0  0.00000000000E+00 -0.00000000000E+00 -0.17190540225E+04  0.17190540225E+04  0.00000000000E+00 0. -1.
         23    2    1    2    0    0  0.74158546505E+03  0.86130971275E+03  0.21158902135E+03  0.11595441410E+04  0.89270811439E+02 0.  0.
         13    1    3    3    0    0  0.56021295909E+03  0.58879899282E+03  0.15106791134E+03  0.82664643428E+03  0.00000000000E+00 0.  1.
        -13    1    3    3    0    0  0.18137250596E+03  0.27251071994E+03  0.60521110008E+02  0.33289770674E+03  0.00000000000E+00 0. -1.
         22    1    1    2    0    0 -0.74158546505E+03 -0.86130971275E+03 -0.98569411506E+03  0.15044588102E+04  0.00000000000E+00 0. -1.
<mgrwt>
<rscale>  0 0.25490534E+04</rscale>
<asrwt>0</asrwt>
<pdfrwt beam="1">  1        2 0.26446984E+00 0.25490534E+04</pdfrwt>
<pdfrwt beam="2">  1       -2 0.14537676E+00 0.25490534E+04</pdfrwt>
<totfact> 0.27671348E+00</totfact>
</mgrwt>
</event>
<event>
 6    1  0.6091287E-004  0.2953861E+04  0.7818608E-02  0.8257030E-01
         -2   -1    0    0    0  501 -0.00000000000E+00  0.00000000000E+00  0.12865373121E+04  0.12865373121E+04  0.00000000000E+00 0. -1.
          2   -1    0    0  501    0  0.00000000000E+00 -0.00000000000E+00 -0.16954992489E+04  0.16954992489E+04  0.00000000000E+00 0.  1.
         23    2    1    2    0    0  0.98593297450E+03  0.27702566101E+03 -0.12770252904E+04  0.16395236065E+04  0.91853234558E+02 0.  0.
         11    1    3    3    0    0  0.82958773392E+03  0.19772834475E+03 -0.10509342569E+04  0.13534308697E+04  0.00000000000E+00 0. -1.
        -11    1    3    3    0    0  0.15634524058E+03  0.79297316268E+02 -0.22609103349E+03  0.28609273679E+03  0.00000000000E+00 0.  1.
         22    1    1    2    0    0 -0.98593297450E+03 -0.27702566101E+03  0.86806335371E+03  0.13425129545E+04  0.00000000000E+00 0. -1.
<mgrwt>
<rscale>  0 0.29538606E+04</rscale>
<asrwt>0</asrwt>
<pdfrwt beam="1">  1        2 0.26084604E+00 0.29538606E+04</pdfrwt>
<pdfrwt beam="2">  1       -2 0.19792882E+00 0.29538606E+04</pdfrwt>
<totfact> 0.11633548E+00</totfact>
</mgrwt>
</event>
<event>
 6    1  0.6091287E-004  0.8856135E+03  0.7818608E-02  0.9443746E-01
          2   -1    0    0  501    0  0.00000000000E+00  0.00000000000E+00  0.21370020956E+04  0.21370020956E+04  0.00000000000E+00 0.  1.
         -2   -1    0    0    0  501 -0.00000000000E+00 -0.00000000000E+00 -0.91753684771E+02  0.91753684771E+02  0.00000000000E+00 0. -1.
         23    2    1    2    0    0 -0.31220055814E+03 -0.19015499616E+03  0.42983824355E+03  0.57250153672E+03  0.96793506281E+02 0.  0.
         13    1    3    3    0    0 -0.28902533291E+03 -0.15393584837E+03  0.41114237498E+03  0.52561387062E+03  0.00000000000E+00 0. -1.
        -13    1    3    3    0    0 -0.23175225237E+02 -0.36219147789E+02  0.18695868568E+02  0.46887666106E+02  0.00000000000E+00 0.  1.
         22    1    1    2    0    0  0.31220055814E+03  0.19015499616E+03  0.16154101673E+04  0.16562542437E+04  0.00000000000E+00 0.  1.
<mgrwt>
<rscale>  0 0.88561350E+03</rscale>
<asrwt>0</asrwt>
<pdfrwt beam="1">  1        2 0.32876951E+00 0.88561350E+03</pdfrwt>
<pdfrwt beam="2">  1       -2 0.14115953E-01 0.88561350E+03</pdfrwt>
<totfact> 0.22088698E+02</totfact>
</mgrwt>
</event>
<event>
 6    1  0.6091287E-004  0.2546544E+04  0.7818608E-02  0.8386589E-01
          2   -1    0    0  501    0  0.00000000000E+00  0.00000000000E+00  0.18378862930E+04  0.18378862930E+04  0.00000000000E+00 0.  1.
         -2   -1    0    0    0  501 -0.00000000000E+00 -0.00000000000E+00 -0.88211226543E+03  0.88211226543E+03  0.00000000000E+00 0. -1.
         23    2    1    2    0    0 -0.10385106662E+03  0.12235039313E+04  0.12502367375E+03  0.12374692790E+04  0.89176137116E+02 0.  0.
         13    1    3    3    0    0 -0.50138135392E+02  0.66258764182E+03  0.23380756847E+02  0.66489313089E+03  0.00000000000E+00 0. -1.
        -13    1    3    3    0    0 -0.53712931230E+02  0.56091628951E+03  0.10164291690E+03  0.57257614811E+03  0.00000000000E+00 0.  1.
         22    1    1    2    0    0  0.10385106662E+03 -0.12235039313E+04  0.83075035384E+03  0.14825292795E+04  0.00000000000E+00 0.  1.
<mgrwt>
<rscale>  0 0.25465444E+04</rscale>
<asrwt>0</asrwt>
<pdfrwt beam="1">  1        2 0.28275174E+00 0.25465444E+04</pdfrwt>
<pdfrwt beam="2">  1       -2 0.13570958E+00 0.25465444E+04</pdfrwt>
<totfact> 0.28434294E+00</totfact>
</mgrwt>
</event>
<event>
 6    1  0.6091287E-004  0.1193705E+04  0.7818608E-02  0.9118384E-01
          2   -1    0    0  501    0  0.00000000000E+00  0.00000000000E+00  0.78803353219E+03  0.78803353219E+03  0.00000000000E+00 0.  1.
         -2   -1    0    0    0  501 -0.00000000000E+00 -0.00000000000E+00 -0.45205322640E+03  0.45205322640E+03  0.00000000000E+00 0. -1.
         23    2    1    2    0    0  0.53105299926E+03 -0.60197373824E+02  0.43682615455E+03  0.69620175508E+03  0.90767740017E+02 0.  0.
         13    1    3    3    0    0  0.28439562975E+03  0.10138539731E+02  0.20817650561E+03  0.35259200459E+03  0.00000000000E+00 0.  1.
        -13    1    3    3    0    0  0.24665736951E+03 -0.70335913556E+02  0.22864964895E+03  0.34360975049E+03  0.00000000000E+00 0. -1.
         22    1    1    2    0    0 -0.53105299926E+03  0.60197373824E+02 -0.10084584876E+03  0.54388500352E+03  0.00000000000E+00 0. -1.
<mgrwt>
<rscale>  0 0.11937053E+04</rscale>
<asrwt>0</asrwt>
<pdfrwt beam="1">  1        2 0.12123593E+00 0.11937053E+04</pdfrwt>
<pdfrwt beam="2">  1       -2 0.69546651E-01 0.11937053E+04</pdfrwt>
<totfact> 0.65440092E+01</totfact>
</mgrwt>
</event>
<event>
 6    1  0.6998291E-004  0.2628387E+04  0.7818608E-02  0.8358622E-01
         -2   -1    0    0    0  501 -0.00000000000E+00  0.00000000000E+00  0.10354325154E+04  0.10354325154E+04  0.00000000000E+00 0.  1.
          2   -1    0    0  501    0  0.00000000000E+00 -0.00000000000E+00 -0.16680034751E+04  0.16680034751E+04  0.00000000000E+00 0. -1.
         23    2    1    2    0    0  0.55277633416E+01 -0.88119590263E+03 -0.13173585202E+04  0.15874293695E+04  0.89228680209E+02 0.  0.
         11    1    3    3    0    0 -0.24415153805E+02 -0.41921377016E+03 -0.69025917164E+03  0.80795668749E+03  0.00000000000E+00 0. -1.
        -11    1    3    3    0    0  0.29942917146E+02 -0.46198213246E+03 -0.62709934858E+03  0.77947268201E+03  0.00000000000E+00 0.  1.
         22    1    1    2    0    0 -0.55277633416E+01  0.88119590263E+03  0.68478756057E+03  0.11160066210E+04  0.00000000000E+00 0.  1.
<mgrwt>
<rscale>  0 0.26283874E+04</rscale>
<asrwt>0</asrwt>
<pdfrwt beam="1">  1        2 0.25661592E+00 0.26283874E+04</pdfrwt>
<pdfrwt beam="2">  1       -2 0.15929731E+00 0.26283874E+04</pdfrwt>
<totfact> 0.22991146E+00</totfact>
</mgrwt>
</event>
<event>
 6    1  0.6091287E-004  0.2038390E+04  0.7818608E-02  0.8588880E-01
          2   -1    0    0  501    0  0.00000000000E+00  0.00000000000E+00  0.14158423088E+04  0.14158423088E+04  0.00000000000E+00 0.  1.
         -2   -1    0    0    0  501 -0.00000000000E+00 -0.00000000000E+00 -0.73366808645E+03  0.73366808645E+03  0.00000000000E+00 0. -1.
         23    2    1    2    0    0 -0.30981423688E+03 -0.65183544304E+03 -0.41460985999E+03  0.83657108613E+03  0.84116228965E+02 0.  0.
         13    1    3    3    0    0 -0.24131116951E+03 -0.57545110453E+03 -0.35603106476E+03  0.71842409015E+03  0.00000000000E+00 0.  1.
        -13    1    3    3    0    0 -0.68503067375E+02 -0.76384338513E+02 -0.58578795228E+02  0.11814699599E+03  0.00000000000E+00 0. -1.
         22    1    1    2    0    0  0.30981423688E+03  0.65183544304E+03  0.10967840823E+04  0.13129393091E+04  0.00000000000E+00 0.  1.
<mgrwt>
<rscale>  0 0.20383899E+04</rscale>
<asrwt>0</asrwt>
<pdfrwt beam="1">  1        2 0.21782189E+00 0.20383899E+04</pdfrwt>
<pdfrwt beam="2">  1       -2 0.11287201E+00 0.20383899E+04</pdfrwt>
<totfact> 0.81015708E+00</totfact>
</mgrwt>
</event>
<event>
 6    1  0.6091287E-004  0.2192829E+04  0.7818608E-02  0.8521419E-01
         -4   -1    0    0    0  501 -0.00000000000E+00  0.00000000000E+00  0.64423557905E+03  0.64423557905E+03  0.00000000000E+00 0. -1.
          4   -1    0    0  501    0  0.00000000000E+00 -0.00000000000E+00 -0.18659711603E+04  0.18659711603E+04  0.00000000000E+00 0.  1.
         23    2    1    2    0    0  0.85073915812E+03  0.98395774305E+02  0.16818350935E+03  0.87762782182E+03  0.92228288738E+02 0.  0.
         11    1    3    3    0    0  0.13250757603E+03  0.15263274600E+02 -0.73925734441E+01  0.13358845534E+03  0.00000000000E+00 0. -1.
        -11    1    3    3    0    0  0.71823158209E+03  0.83132499705E+02  0.17557608280E+03  0.74403936648E+03  0.00000000000E+00 0.  1.
         22    1    1    2    0    0 -0.85073915812E+03 -0.98395774305E+02 -0.13899190906E+04  0.16325789175E+04  0.00000000000E+00 0.  1.
<mgrwt>
<rscale>  0 0.21928292E+04</rscale>
<asrwt>0</asrwt>
<pdfrwt beam="1">  1        4 0.28707248E+00 0.21928292E+04</pdfrwt>
<pdfrwt beam="2">  1       -4 0.99113168E-01 0.21928292E+04</pdfrwt>
<totfact> 0.57367119E-02</totfact>
</mgrwt>
</event>
<event>
 6    1  0.6091287E-004  0.1256145E+04  0.7818608E-02  0.9065084E-01
          2   -1    0    0  501    0  0.00000000000E+00  0.00000000000E+00  0.40526097035E+04  0.40526097035E+04  0.00000000000E+00 0.  1.
         -2   -1    0    0    0  501 -0.00000000000E+00 -0.00000000000E+00 -0.97338594578E+02  0.97338594578E+02  0.00000000000E+00 0. -1.
         23    2    1    2    0    0  0.56091163394E+03 -0.21408814606E+03  0.14168935174E+04  0.15415356788E+04  0.91046218557E+02 0.  0.
         11    1    3    3    0    0  0.28046292694E+03 -0.61612194308E+02  0.62979136102E+03  0.69216520737E+03  0.00000000000E+00 0. -1.
        -11    1    3    3    0    0  0.28044870700E+03 -0.15247595176E+03  0.78710215635E+03  0.84937047138E+03  0.00000000000E+00 0.  1.
         22    1    1    2    0    0 -0.56091163394E+03  0.21408814606E+03  0.25383775915E+04  0.26084126193E+04  0.00000000000E+00 0.  1.
<mgrwt>
<rscale>  0 0.12561454E+04</rscale>
<asrwt>0</asrwt>
<pdfrwt beam="1">  1        2 0.62347829E+00 0.12561454E+04</pdfrwt>
<pdfrwt beam="2">  1       -2 0.14975171E-01 0.12561454E+04</pdfrwt>
<totfact> 0.11140613E+01</totfact>
</mgrwt>
</event>
<event>
 6    1  0.6091287E-004  0.7168054E+03  0.7818608E-02  0.9688917E-01
         -2   -1    0    0    0  501 -0.00000000000E+00  0.00000000000E+00  0.60846402924E+02  0.60846402924E+02  0.00000000000E+00 0. -1.
          2   -1    0    0  501    0  0.00000000000E+00 -0.00000000000E+00 -0.21110944341E+04  0.21110944341E+04  0.00000000000E+00 0.  1.
         23    2    1    2    0    0 -0.44064994234E+02 -0.58948741487E+02 -0.20869755907E+04  0.20896876215E+04  0.76880175771E+02 0.  0.
         13    1    3    3    0    0 -0.59384147936E+01 -0.36641454289E+02 -0.31777031641E+03  0.31993098464E+03  0.00000000000E+00 0. -1.
        -13    1    3    3    0    0 -0.38126579441E+02 -0.22307287197E+02 -0.17692052743E+04  0.17697566369E+04  0.00000000000E+00 0.  1.
         22    1    1    2    0    0  0.44064994234E+02  0.58948741487E+02  0.36727559507E+02  0.82253215543E+02  0.00000000000E+00 0. -1.
<mgrwt>
<rscale>  0 0.71680542E+03</rscale>
<asrwt>0</asrwt>
<pdfrwt beam="1">  1        2 0.32478370E+00 0.71680542E+03</pdfrwt>
<pdfrwt beam="2">  1       -2 0.93609867E-02 0.71680542E+03</pdfrwt>
<totfact> 0.45545855E+02</totfact>
</mgrwt>
</event>
<event>
 6    1  0.6091287E-004  0.1047780E+04  0.7818608E-02  0.9257639E-01
          2   -1    0    0  501    0  0.00000000000E+00  0.00000000000E+00  0.32424010194E+03  0.32424010194E+03  0.00000000000E+00 0.  1.
         -2   -1    0    0    0  501 -0.00000000000E+00 -0.00000000000E+00 -0.84647449826E+03  0.84647449826E+03  0.00000000000E+00 0. -1.
         23    2    1    2    0    0 -0.29779629516E+03 -0.16013303222E+02  0.21266343722E+03  0.37761064419E+03  0.91787808502E+02 0.  0.
         13    1    3    3    0    0 -0.63357656684E+02  0.30879286547E+02  0.29391030993E+02  0.76364623360E+02  0.00000000000E+00 0. -1.
        -13    1    3    3    0    0 -0.23443863847E+03 -0.46892589769E+02  0.18327240623E+03  0.30124602083E+03  0.00000000000E+00 0.  1.
         22    1    1    2    0    0  0.29779629516E+03  0.16013303222E+02 -0.73489783354E+03  0.79310395600E+03  0.00000000000E+00 0. -1.
<mgrwt>
<rscale>  0 0.10477805E+04</rscale>
<asrwt>0</asrwt>
<pdfrwt beam="1">  1        2 0.49883093E-01 0.10477805E+04</pdfrwt>
<pdfrwt beam="2">  1       -2 0.13022685E+00 0.10477805E+04</pdfrwt>
<totfact> 0.43314650E+01</totfact>
</mgrwt>
</event>
<event>
 6    1  0.6091287E-004  0.5202901E+04  0.7818608E-02  0.7797948E-01
         -2   -1    0    0    0  501 -0.00000000000E+00  0.00000000000E+00  0.18521883937E+04  0.18521883937E+04  0.00000000000E+00 0. -1.
          2   -1    0    0  501    0  0.00000000000E+00 -0.00000000000E+00 -0.36538107422E+04  0.36538107422E+04  0.00000000000E+00 0.  1.
         23    2    1    2    0    0  0.11368506256E+04  0.21604484831E+04  0.47441478653E+02  0.24434831718E+04  0.91609629196E+02 0.  0.
         13    1    3    3    0    0  0.76196081215E+03  0.13708502337E+04  0.52124160548E+01  0.15683882848E+04  0.00000000000E+00 0. -1.
        -13    1    3    3    0    0  0.37488981341E+03  0.78959824936E+03  0.42229062598E+02  0.87509488704E+03  0.00000000000E+00 0.  1.
         22    1    1    2    0    0 -0.11368506256E+04 -0.21604484831E+04 -0.18490638272E+04  0.30625159640E+04  0.00000000000E+00 0.  1.
<mgrwt>
<rscale>  0 0.52029014E+04</rscale>
<asrwt>0</asrwt>
<pdfrwt beam="1">  1        2 0.56212473E+00 0.52029014E+04</pdfrwt>
<pdfrwt beam="2">  1       -2 0.28495206E+00 0.52029014E+04</pdfrwt>
<totfact> 0.17713043E-02</totfact>
</mgrwt>
</event>
<event>
 6    1  0.6091287E-004  0.2225775E+04  0.7818608E-02  0.8507776E-01
         -2   -1    0    0    0  501 -0.00000000000E+00  0.00000000000E+00  0.34491892242E+03  0.34491892242E+03  0.00000000000E+00 0. -1.
          2   -1    0    0  501    0  0.00000000000E+00 -0.00000000000E+00 -0.35907521503E+04  0.35907521503E+04  0.00000000000E+00 0.  1.
         23    2    1    2    0    0  0.56916361930E+03 -0.15101127773E+03  0.40350613379E+02  0.59714507012E+03  0.90567274581E+02 0.  0.
         13    1    3    3    0    0  0.33892779833E+02  0.11839534163E+02  0.75663053447E+01  0.36689836066E+02  0.00000000000E+00 0. -1.
        -13    1    3    3    0    0  0.53527083947E+03 -0.16285081190E+03  0.32784308035E+02  0.56045523405E+03  0.00000000000E+00 0.  1.
         22    1    1    2    0    0 -0.56916361930E+03  0.15101127773E+03 -0.32861838412E+04  0.33385260026E+04  0.00000000000E+00 0.  1.
<mgrwt>
<rscale>  0 0.22257748E+04</rscale>
<asrwt>0</asrwt>
<pdfrwt beam="1">  1        2 0.55242342E+00 0.22257748E+04</pdfrwt>
<pdfrwt beam="2">  1       -2 0.53064449E-01 0.22257748E+04</pdfrwt>
<totfact> 0.21494756E+00</totfact>
</mgrwt>
</event>
<event>
 6    1  0.6091287E-004  0.2177669E+04  0.7818608E-02  0.8527781E-01
          2   -1    0    0  501    0  0.00000000000E+00  0.00000000000E+00  0.24071210949E+04  0.24071210949E+04  0.00000000000E+00 0.  1.
         -2   -1    0    0    0  501 -0.00000000000E+00 -0.00000000000E+00 -0.49252231271E+03  0.49252231271E+03  0.00000000000E+00 0. -1.
         23    2    1    2    0    0  0.84905209080E+03  0.20454665413E+03  0.97231429183E+02  0.88332178585E+03  0.89859000308E+02 0.  0.
         11    1    3    3    0    0  0.48378164219E+03  0.83869246840E+02  0.22998309051E+02  0.49153601099E+03  0.00000000000E+00 0.  1.
        -11    1    3    3    0    0  0.36527044861E+03  0.12067740729E+03  0.74233120132E+02  0.39178577486E+03  0.00000000000E+00 0. -1.
         22    1    1    2    0    0 -0.84905209080E+03 -0.20454665413E+03  0.18173673531E+04  0.20163216218E+04  0.00000000000E+00 0.  1.
<mgrwt>
<rscale>  0 0.21776693E+04</rscale>
<asrwt>0</asrwt>
<pdfrwt beam="1">  1        2 0.37032632E+00 0.21776693E+04</pdfrwt>
<pdfrwt beam="2">  1       -2 0.75772665E-01 0.21776693E+04</pdfrwt>
<totfact> 0.56291364E+00</totfact>
</mgrwt>
</event>
<event>
 6    1  0.6091287E-004  0.3168544E+04  0.7818608E-02  0.8197174E-01
         -2   -1    0    0    0  501 -0.00000000000E+00  0.00000000000E+00  0.11252072423E+04  0.11252072423E+04  0.00000000000E+00 0. -1.
          2   -1    0    0  501    0  0.00000000000E+00 -0.00000000000E+00 -0.22306276278E+04  0.22306276278E+04  0.00000000000E+00 0.  1.
         23    2    1    2    0    0 -0.13589950871E+04  0.52151641525E+03 -0.12120355569E+04  0.18963096689E+04  0.90073031059E+02 0.  0.
         11    1    3    3    0    0 -0.11101139973E+04  0.40704078838E+03 -0.10225544019E+04  0.15632187291E+04  0.00000000000E+00 0.  1.
        -11    1    3    3    0    0 -0.24888108984E+03  0.11447562687E+03 -0.18948115505E+03  0.33309093975E+03  0.00000000000E+00 0. -1.
         22    1    1    2    0    0  0.13589950871E+04 -0.52151641525E+03  0.10661517142E+03  0.14595252012E+04  0.00000000000E+00 0.  1.
<mgrwt>
<rscale>  0 0.31685444E+04</rscale>
<asrwt>0</asrwt>
<pdfrwt beam="1">  1        2 0.34317348E+00 0.31685444E+04</pdfrwt>
<pdfrwt beam="2">  1       -2 0.17310881E+00 0.31685444E+04</pdfrwt>
<totfact> 0.84879887E-01</totfact>
</mgrwt>
</event>
<event>
 6    1  0.6091287E-004  0.1371244E+04  0.7818608E-02  0.8974901E-01
          2   -1    0    0  501    0  0.00000000000E+00  0.00000000000E+00  0.42749128883E+03  0.42749128883E+03  0.00000000000E+00 0.  1.
         -2   -1    0    0    0  501 -0.00000000000E+00 -0.00000000000E+00 -0.10996183213E+04  0.10996183213E+04  0.00000000000E+00 0. -1.
         23    2    1    2    0    0  0.50354476577E+03  0.44769752435E+02  0.17286799795E+03  0.54243795759E+03  0.93775963122E+02 0.  0.
         11    1    3    3    0    0  0.82804650027E+02  0.10430696909E+02 -0.66286573324E+01  0.83721852596E+02  0.00000000000E+00 0. -1.
        -11    1    3    3    0    0  0.42074011574E+03  0.34339055525E+02  0.17949665528E+03  0.45871610500E+03  0.00000000000E+00 0.  1.
         22    1    1    2    0    0 -0.50354476577E+03 -0.44769752435E+02 -0.84499503040E+03  0.98467165252E+03  0.00000000000E+00 0. -1.
<mgrwt>
<rscale>  0 0.13712436E+04</rscale>
<asrwt>0</asrwt>
<pdfrwt beam="1">  1        2 0.65767892E-01 0.13712436E+04</pdfrwt>
<pdfrwt beam="2">  1       -2 0.16917205E+00 0.13712436E+04</pdfrwt>
<totfact> 0.15521239E+01</totfact>
</mgrwt>
</event>
<event>
 6    1  0.6091287E-004  0.1660784E+04  0.7818608E-02  0.8784052E-01
         -2   -1    0    0    0  501 -0.00000000000E+00  0.00000000000E+00  0.60206050722E+03  0.60206050722E+03  0.00000000000E+00 0. -1.
          2   -1    0    0  501    0  0.00000000000E+00 -0.00000000000E+00 -0.11453181178E+04  0.11453181178E+04  0.00000000000E+00 0.  1.
         23    2    1    2    0    0 -0.55174378207E+03 -0.53204155157E+03 -0.60188427739E+03  0.97866118693E+03  0.89574671522E+02 0.  0.
         13    1    3    3    0    0 -0.30727219814E+02 -0.60208634210E+02 -0.68967891039E+02  0.96570242131E+02  0.00000000000E+00 0.  1.
        -13    1    3    3    0    0 -0.52101656225E+03 -0.47183291736E+03 -0.53291638635E+03  0.88209094480E+03  0.00000000000E+00 0. -1.
         22    1    1    2    0    0  0.55174378207E+03  0.53204155157E+03  0.58626666763E+02  0.76871743814E+03  0.00000000000E+00 0. -1.
<mgrwt>
<rscale>  0 0.16607839E+04</rscale>
<asrwt>0</asrwt>
<pdfrwt beam="1">  1        2 0.17620279E+00 0.16607839E+04</pdfrwt>
<pdfrwt beam="2">  1       -2 0.92624693E-01 0.16607839E+04</pdfrwt>
<totfact> 0.19288372E+01</totfact>
</mgrwt>
</event>
<event>
 6    1  0.6091287E-004  0.1040826E+04  0.7818608E-02  0.9264867E-01
         -4   -1    0    0    0  501 -0.00000000000E+00  0.00000000000E+00  0.34900093559E+03  0.34900093559E+03  0.00000000000E+00 0. -1.
          4   -1    0    0  501    0  0.00000000000E+00 -0.00000000000E+00 -0.77601475357E+03  0.77601475357E+03  0.00000000000E+00 0.  1.
         23    2    1    2    0    0  0.20335809975E+03  0.27508883019E+02 -0.72735655005E+03  0.76126163476E+03  0.91435607282E+02 0.  0.
         13    1    3    3    0    0  0.11224944638E+02  0.27889928268E+02 -0.65281455887E+02  0.71871524011E+02  0.00000000000E+00 0. -1.
        -13    1    3    3    0    0  0.19213315511E+03 -0.38104524860E+00 -0.66207509417E+03  0.68939011075E+03  0.00000000000E+00 0.  1.
         22    1    1    2    0    0 -0.20335809975E+03 -0.27508883019E+02  0.30034273208E+03  0.36375405440E+03  0.00000000000E+00 0. -1.
<mgrwt>
<rscale>  0 0.10408264E+04</rscale>
<asrwt>0</asrwt>
<pdfrwt beam="1">  1        4 0.11938688E+00 0.10408264E+04</pdfrwt>
<pdfrwt beam="2">  1       -4 0.53692452E-01 0.10408264E+04</pdfrwt>
<totfact> 0.35306184E+00</totfact>
</mgrwt>
</event>
<event>
 6    1  0.6091287E-004  0.2544416E+04  0.7818608E-02  0.8387331E-01
         -2   -1    0    0    0  501 -0.00000000000E+00  0.00000000000E+00  0.45250275937E+03  0.45250275937E+03  0.00000000000E+00 0. -1.
          2   -1    0    0  501    0  0.00000000000E+00 -0.00000000000E+00 -0.35768039120E+04  0.35768039120E+04  0.00000000000E+00 0.  1.
         23    2    1    2    0    0  0.10860728352E+04  0.25643207710E+03 -0.60225875101E+03  0.12714072009E+04  0.91918735686E+02 0.  0.
         11    1    3    3    0    0  0.25453505635E+03  0.70691724548E+02 -0.10068976526E+03  0.28270805376E+03  0.00000000000E+00 0. -1.
        -11    1    3    3    0    0  0.83153777881E+03  0.18574035256E+03 -0.50156898575E+03  0.98869914718E+03  0.00000000000E+00 0.  1.
         22    1    1    2    0    0 -0.10860728352E+04 -0.25643207710E+03 -0.25220424016E+04  0.27578994705E+04  0.00000000000E+00 0.  1.
<mgrwt>
<rscale>  0 0.25444163E+04</rscale>
<asrwt>0</asrwt>
<pdfrwt beam="1">  1        2 0.55027752E+00 0.25444163E+04</pdfrwt>
<pdfrwt beam="2">  1       -2 0.69615809E-01 0.25444163E+04</pdfrwt>
<totfact> 0.12008316E+00</totfact>
</mgrwt>
</event>
<event>
 6    1  0.6091287E-004  0.1275835E+04  0.7818608E-02  0.9048951E-01
         -2   -1    0    0    0  501 -0.00000000000E+00  0.00000000000E+00  0.17588799689E+03  0.17588799689E+03  0.00000000000E+00 0.  1.
          2   -1    0    0  501    0  0.00000000000E+00 -0.00000000000E+00 -0.23136249201E+04  0.23136249201E+04  0.00000000000E+00 0. -1.
         23    2    1    2    0    0  0.48722587334E+03  0.32943258859E+03 -0.15386410057E+04  0.16499708987E+04  0.95251982107E+02 0.  0.
         13    1    3    3    0    0  0.41901877720E+03  0.31317256087E+03 -0.14014477608E+04  0.14958975950E+04  0.00000000000E+00 0. -1.
        -13    1    3    3    0    0  0.68207096138E+02  0.16260027718E+02 -0.13719324493E+03  0.15407330372E+03  0.00000000000E+00 0.  1.
         22    1    1    2    0    0 -0.48722587334E+03 -0.32943258859E+03 -0.59909591748E+03  0.83954201825E+03  0.00000000000E+00 0.  1.
<mgrwt>
<rscale>  0 0.12758352E+04</rscale>
<asrwt>0</asrwt>
<pdfrwt beam="1">  1        2 0.35594228E+00 0.12758352E+04</pdfrwt>
<pdfrwt beam="2">  1       -2 0.27059693E-01 0.12758352E+04</pdfrwt>
<totfact> 0.54457032E+01</totfact>
</mgrwt>
</event>
<event>
 6    1  0.6091287E-004  0.1462409E+04  0.7818608E-02  0.8909843E-01
         -2   -1    0    0    0  501 -0.00000000000E+00  0.00000000000E+00  0.43116556510E+03  0.43116556510E+03  0.00000000000E+00 0. -1.
          2   -1    0    0  501    0  0.00000000000E+00 -0.00000000000E+00 -0.12400341255E+04  0.12400341255E+04  0.00000000000E+00 0.  1.
         23    2    1    2    0    0  0.59789103459E+03  0.16935665123E+03 -0.84001473946E+03  0.10490056300E+04  0.92912242487E+02 0.  0.
         11    1    3    3    0    0  0.40756700831E+03  0.75058342936E+02 -0.58898806770E+03  0.72017467673E+03  0.00000000000E+00 0. -1.
        -11    1    3    3    0    0  0.19032402627E+03  0.94298308298E+02 -0.25102667176E+03  0.32883095332E+03  0.00000000000E+00 0.  1.
         22    1    1    2    0    0 -0.59789103459E+03 -0.16935665123E+03  0.31146179031E+02  0.62219406058E+03  0.00000000000E+00 0. -1.
<mgrwt>
<rscale>  0 0.14624090E+04</rscale>
<asrwt>0</asrwt>
<pdfrwt beam="1">  1        2 0.19077448E+00 0.14624090E+04</pdfrwt>
<pdfrwt beam="2">  1       -2 0.66333165E-01 0.14624090E+04</pdfrwt>
<totfact> 0.36301090E+01</totfact>
</mgrwt>
</event>
<event>
 6    1  0.6091287E-004  0.1924681E+04  0.7818608E-02  0.8642668E-01
         -2   -1    0    0    0  501 -0.00000000000E+00  0.00000000000E+00  0.70595722206E+03  0.70595722206E+03  0.00000000000E+00 0. -1.
          2   -1    0    0  501    0  0.00000000000E+00 -0.00000000000E+00 -0.13118351106E+04  0.13118351106E+04  0.00000000000E+00 0.  1.
         23    2    1    2    0    0  0.72860527293E+02 -0.76199389031E+03  0.30427375205E+03  0.82854073853E+03  0.89184605761E+02 0.  0.
         11    1    3    3    0    0  0.44501092592E+02 -0.69457580951E+03  0.29010854442E+03  0.75404168979E+03  0.00000000000E+00 0. -1.
        -11    1    3    3    0    0  0.28359434701E+02 -0.67418080803E+02  0.14165207633E+02  0.74499048739E+02  0.00000000000E+00 0.  1.
         22    1    1    2    0    0 -0.72860527293E+02  0.76199389031E+03 -0.91015164063E+03  0.11892515942E+04  0.00000000000E+00 0.  1.
<mgrwt>
<rscale>  0 0.19246812E+04</rscale>
<asrwt>0</asrwt>
<pdfrwt beam="1">  1        2 0.20182079E+00 0.19246812E+04</pdfrwt>
<pdfrwt beam="2">  1       -2 0.10860880E+00 0.19246812E+04</pdfrwt>
<totfact> 0.10306770E+01</totfact>
</mgrwt>
</event>
<event>
 6    1  0.6091287E-004  0.2773885E+04  0.7818608E-02  0.8311422E-01
         -2   -1    0    0    0  501 -0.00000000000E+00  0.00000000000E+00  0.10010285365E+04  0.10010285365E+04  0.00000000000E+00 0. -1.
          2   -1    0    0  501    0  0.00000000000E+00 -0.00000000000E+00 -0.19216330175E+04  0.19216330175E+04  0.00000000000E+00 0.  1.
         23    2    1    2    0    0 -0.22188234583E+03  0.11036302410E+04 -0.13104306269E+04  0.17313614624E+04  0.11468479084E+03 0.  0.
         11    1    3    3    0    0 -0.15233419235E+03  0.68098215257E+03 -0.89252445582E+03  0.11329352596E+04  0.00000000000E+00 0.  1.
        -11    1    3    3    0    0 -0.69548153483E+02  0.42264808846E+03 -0.41790617107E+03  0.59842620276E+03  0.00000000000E+00 0. -1.
         22    1    1    2    0    0  0.22188234583E+03 -0.11036302410E+04  0.38982614582E+03  0.11913000916E+04  0.00000000000E+00 0. -1.
<mgrwt>
<rscale>  0 0.27738850E+04</rscale>
<asrwt>0</asrwt>
<pdfrwt beam="1">  1        2 0.29563585E+00 0.27738850E+04</pdfrwt>
<pdfrwt beam="2">  1       -2 0.15400439E+00 0.27738850E+04</pdfrwt>
<totfact> 0.17991794E+00</totfact>
</mgrwt>
</event>
<event>
 6    1  0.6091287E-004  0.3085656E+04  0.7818608E-02  0.8219686E-01
         -1   -1    0    0    0  501 -0.00000000000E+00  0.00000000000E+00  0.17913005431E+04  0.17913005431E+04  0.00000000000E+00 0. -1.
          1   -1    0    0  501    0  0.00000000000E+00 -0.00000000000E+00 -0.13288210841E+04  0.13288210841E+04  0.00000000000E+00 0.  1.
         23    2    1    2    0    0 -0.31421931907E+03 -0.13094914864E+04  0.98994260422E+03  0.16738439558E+04  0.90914768689E+02 0.  0.
         11    1    3    3    0    0 -0.20567641996E+03 -0.10130012231E+04  0.74265753292E+03  0.12727978940E+04  0.00000000000E+00 0. -1.
        -11    1    3    3    0    0 -0.10854289911E+03 -0.29649026327E+03  0.24728507130E+03  0.40104606175E+03  0.00000000000E+00 0.  1.
         22    1    1    2    0    0  0.31421931907E+03  0.13094914864E+04 -0.52746314519E+03  0.14462776715E+04  0.00000000000E+00 0.  1.
<mgrwt>
<rscale>  0 0.30856558E+04</rscale>
<asrwt>0</asrwt>
<pdfrwt beam="1">  1        1 0.20443401E+00 0.30856558E+04</pdfrwt>
<pdfrwt beam="2">  1       -1 0.27558470E+00 0.30856558E+04</pdfrwt>
<totfact> 0.34645327E-01</totfact>
</mgrwt>
</event>
<event>
 6    1  0.6091287E-004  0.2912780E+04  0.7818608E-02  0.8269085E-01
          2   -1    0    0  501    0  0.00000000000E+00  0.00000000000E+00  0.12592793529E+04  0.12592793529E+04  0.00000000000E+00 0.  1.
         -2   -1    0    0    0  501 -0.00000000000E+00 -0.00000000000E+00 -0.16843539384E+04  0.16843539384E+04  0.00000000000E+00 0. -1.
         23    2    1    2    0    0 -0.11287552523E+04  0.19620394750E+03 -0.11190674510E+04  0.16041518596E+04  0.91688713928E+02 0.  0.
         13    1    3    3    0    0 -0.79744584762E+03  0.12178986367E+03 -0.84001798388E+03  0.11646385122E+04  0.00000000000E+00 0. -1.
        -13    1    3    3    0    0 -0.33130940463E+03  0.74414083830E+02 -0.27904946712E+03  0.43951334743E+03  0.00000000000E+00 0.  1.
         22    1    1    2    0    0  0.11287552523E+04 -0.19620394750E+03  0.69399286545E+03  0.13394814317E+04  0.00000000000E+00 0.  1.
<mgrwt>
<rscale>  0 0.29127802E+04</rscale>
<asrwt>0</asrwt>
<pdfrwt beam="1">  1        2 0.19373529E+00 0.29127802E+04</pdfrwt>
<pdfrwt beam="2">  1       -2 0.25913137E+00 0.29127802E+04</pdfrwt>
<totfact> 0.85050405E-01</totfact>
</mgrwt>
</event>
<event>
 6    1  0.6091287E-004  0.1460773E+04  0.7818608E-02  0.8910965E-01
          2   -1    0    0  501    0  0.00000000000E+00  0.00000000000E+00  0.75255967694E+03  0.75255967694E+03  0.00000000000E+00 0.  1.
         -2   -1    0    0    0  501 -0.00000000000E+00 -0.00000000000E+00 -0.70886701355E+03  0.70886701355E+03  0.00000000000E+00 0. -1.
         23    2    1    2    0    0 -0.52460185722E+03  0.10544809663E+03  0.51523664559E+03  0.74820853534E+03  0.89558928718E+02 0.  0.
         13    1    3    3    0    0 -0.24216546249E+03  0.94276493714E+02  0.24442030281E+03  0.35675405101E+03  0.00000000000E+00 0.  1.
        -13    1    3    3    0    0 -0.28243639474E+03  0.11171602912E+02  0.27081634279E+03  0.39145448433E+03  0.00000000000E+00 0. -1.
         22    1    1    2    0    0  0.52460185722E+03 -0.10544809663E+03 -0.47154398220E+03  0.71321815515E+03  0.00000000000E+00 0. -1.
<mgrwt>
<rscale>  0 0.14607734E+04</rscale>
<asrwt>0</asrwt>
<pdfrwt beam="1">  1        2 0.11577841E+00 0.14607734E+04</pdfrwt>
<pdfrwt beam="2">  1       -2 0.10905646E+00 0.14607734E+04</pdfrwt>
<totfact> 0.24272484E+01</totfact>
</mgrwt>
</event>
<event>
 6    1  0.6091287E-004  0.6374882E+03  0.7818608E-02  0.9830544E-01
         -4   -1    0    0    0  501 -0.00000000000E+00  0.00000000000E+00  0.22985195366E+03  0.22985195366E+03  0.00000000000E+00 0.  1.
          4   -1    0    0  501    0  0.00000000000E+00 -0.00000000000E+00 -0.44201411342E+03  0.44201411342E+03  0.00000000000E+00 0. -1.
         23    2    1    2    0    0  0.15114228014E+02  0.26450014863E+03 -0.28383895573E+03  0.39740963776E+03  0.84741364633E+02 0.  0.
         11    1    3    3    0    0 -0.26911417146E+02  0.56419243997E+02 -0.92385121506E+02  0.11154535464E+03  0.00000000000E+00 0. -1.
        -11    1    3    3    0    0  0.42025645160E+02  0.20808090464E+03 -0.19145383422E+03  0.28586428312E+03  0.00000000000E+00 0.  1.
         22    1    1    2    0    0 -0.15114228014E+02 -0.26450014863E+03  0.71676795966E+02  0.27445642932E+03  0.00000000000E+00 0.  1.
<mgrwt>
<rscale>  0 0.63748822E+03</rscale>
<asrwt>0</asrwt>
<pdfrwt beam="1">  1        4 0.68002171E-01 0.63748822E+03</pdfrwt>
<pdfrwt beam="2">  1       -4 0.35361839E-01 0.63748822E+03</pdfrwt>
<totfact> 0.30772764E+01</totfact>
</mgrwt>
</event>
<event>
 6    1  0.6091287E-004  0.2613224E+04  0.7818608E-02  0.8363723E-01
          2   -1    0    0  501    0  0.00000000000E+00  0.00000000000E+00  0.23790186089E+04  0.23790186089E+04  0.00000000000E+00 0.  1.
         -2   -1    0    0    0  501 -0.00000000000E+00 -0.00000000000E+00 -0.71762154077E+03  0.71762154077E+03  0.00000000000E+00 0. -1.
         23    2    1    2    0    0 -0.92057484483E+03 -0.44166525991E+03 -0.13147827786E+03  0.10334076729E+04  0.90103463889E+02 0.  0.
         11    1    3    3    0    0 -0.26482432049E+03 -0.13801132678E+03 -0.78777196931E+02  0.30884444920E+03  0.00000000000E+00 0.  1.
        -11    1    3    3    0    0 -0.65575052434E+03 -0.30365393313E+03 -0.52701080930E+02  0.72456322375E+03  0.00000000000E+00 0. -1.
         22    1    1    2    0    0  0.92057484483E+03  0.44166525991E+03  0.17928753460E+04  0.20632324767E+04  0.00000000000E+00 0.  1.
<mgrwt>
<rscale>  0 0.26132241E+04</rscale>
<asrwt>0</asrwt>
<pdfrwt beam="1">  1        2 0.36600286E+00 0.26132241E+04</pdfrwt>
<pdfrwt beam="2">  1       -2 0.11040331E+00 0.26132241E+04</pdfrwt>
<totfact> 0.23512895E+00</totfact>
</mgrwt>
</event>
<event>
 6    1  0.6091287E-004  0.1765267E+04  0.7818608E-02  0.8724991E-01
         -2   -1    0    0    0  501 -0.00000000000E+00  0.00000000000E+00  0.63851018905E+03  0.63851018905E+03  0.00000000000E+00 0. -1.
          2   -1    0    0  501    0  0.00000000000E+00 -0.00000000000E+00 -0.12200925766E+04  0.12200925766E+04  0.00000000000E+00 0.  1.
         23    2    1    2    0    0 -0.31141343157E+03  0.67231369914E+03 -0.79197473647E+03  0.10883761913E+04  0.91404130884E+02 0.  0.
         13    1    3    3    0    0 -0.12066440801E+03  0.18689599766E+03 -0.19681560017E+03  0.29702928100E+03  0.00000000000E+00 0. -1.
        -13    1    3    3    0    0 -0.19074902355E+03  0.48541770148E+03 -0.59515913630E+03  0.79134691029E+03  0.00000000000E+00 0.  1.
         22    1    1    2    0    0  0.31141343157E+03 -0.67231369914E+03  0.21039234890E+03  0.77022657438E+03  0.00000000000E+00 0. -1.
<mgrwt>
<rscale>  0 0.17652666E+04</rscale>
<asrwt>0</asrwt>
<pdfrwt beam="1">  1        2 0.18770655E+00 0.17652666E+04</pdfrwt>
<pdfrwt beam="2">  1       -2 0.98232337E-01 0.17652666E+04</pdfrwt>
<totfact> 0.15030510E+01</totfact>
</mgrwt>
</event>
<event>
 6    1  0.6091287E-004  0.2912238E+04  0.7818608E-02  0.8269246E-01
         -2   -1    0    0    0  501 -0.00000000000E+00  0.00000000000E+00  0.87188793988E+03  0.87188793988E+03  0.00000000000E+00 0. -1.
          2   -1    0    0  501    0  0.00000000000E+00 -0.00000000000E+00 -0.24318288830E+04  0.24318288830E+04  0.00000000000E+00 0.  1.
         23    2    1    2    0    0 -0.42338777008E+02 -0.35670154328E+03 -0.23798529527E+04  0.24085719931E+04  0.92143402611E+02 0.  0.
         13    1    3    3    0    0  0.26111728232E+01 -0.22152324488E+03 -0.12140491752E+04  0.12340967410E+04  0.00000000000E+00 0.  1.
        -13    1    3    3    0    0 -0.44949949831E+02 -0.13517829840E+03 -0.11658037774E+04  0.11744752521E+04  0.00000000000E+00 0. -1.
         22    1    1    2    0    0  0.42338777008E+02  0.35670154328E+03  0.81991200951E+03  0.89514482982E+03  0.00000000000E+00 0. -1.
<mgrwt>
<rscale>  0 0.29122378E+04</rscale>
<asrwt>0</asrwt>
<pdfrwt beam="1">  1        2 0.37412752E+00 0.29122378E+04</pdfrwt>
<pdfrwt beam="2">  1       -2 0.13413661E+00 0.29122378E+04</pdfrwt>
<totfact> 0.13177132E+00</totfact>
</mgrwt>
</event>
<event>
 6    1  0.6091287E-004  0.3190504E+04  0.7818608E-02  0.8191329E-01
         -2   -1    0    0    0  501 -0.00000000000E+00  0.00000000000E+00  0.10987091228E+04  0.10987091228E+04  0.00000000000E+00 0. -1.
          2   -1    0    0  501    0  0.00000000000E+00 -0.00000000000E+00 -0.23161993725E+04  0.23161993725E+04  0.00000000000E+00 0.  1.
         23    2    1    2    0    0 -0.12679152775E+04 -0.92427608660E+03 -0.90974497193E+03  0.18159705381E+04  0.90651233575E+02 0.  0.
         13    1    3    3    0    0 -0.10271450168E+04 -0.70377938860E+03 -0.72696027294E+03  0.14418056568E+04  0.00000000000E+00 0. -1.
        -13    1    3    3    0    0 -0.24077026063E+03 -0.22049669800E+03 -0.18278469899E+03  0.37416488133E+03  0.00000000000E+00 0.  1.
         22    1    1    2    0    0  0.12679152775E+04  0.92427608660E+03 -0.30774527783E+03  0.15989379572E+04  0.00000000000E+00 0.  1.
<mgrwt>
<rscale>  0 0.31905043E+04</rscale>
<asrwt>0</asrwt>
<pdfrwt beam="1">  1        2 0.35633836E+00 0.31905043E+04</pdfrwt>
<pdfrwt beam="2">  1       -2 0.16903217E+00 0.31905043E+04</pdfrwt>
<totfact> 0.80993525E-01</totfact>
</mgrwt>
</event>
<event>
 6    1  0.6091287E-004  0.3191797E+04  0.7818608E-02  0.8190987E-01
          2   -1    0    0  501    0  0.00000000000E+00  0.00000000000E+00  0.93266188082E+03  0.93266188082E+03  0.00000000000E+00 0.  1.
         -2   -1    0    0    0  501 -0.00000000000E+00 -0.00000000000E+00 -0.27307773536E+04  0.27307773536E+04  0.00000000000E+00 0. -1.
         23    2    1    2    0    0 -0.14518222582E+04  0.43864688161E+03 -0.14651005401E+04  0.21106681947E+04  0.90563124342E+02 0.  0.
         11    1    3    3    0    0 -0.47968271330E+03  0.12101199547E+03 -0.52796363311E+03  0.72352263708E+03  0.00000000000E+00 0.  1.
        -11    1    3    3    0    0 -0.97213954492E+03  0.31763488614E+03 -0.93713690697E+03  0.13871455576E+04  0.00000000000E+00 0. -1.
         22    1    1    2    0    0  0.14518222582E+04 -0.43864688161E+03 -0.33301493266E+03  0.15527710397E+04  0.00000000000E+00 0.  1.
<mgrwt>
<rscale>  0 0.31917970E+04</rscale>
<asrwt>0</asrwt>
<pdfrwt beam="1">  1        2 0.14348645E+00 0.31917970E+04</pdfrwt>
<pdfrwt beam="2">  1       -2 0.42011958E+00 0.31917970E+04</pdfrwt>
<totfact> 0.12842148E-01</totfact>
</mgrwt>
</event>
<event>
 6    1  0.6157625E-004  0.3152410E+04  0.7818608E-02  0.8201500E-01
          2   -1    0    0  501    0  0.00000000000E+00  0.00000000000E+00  0.32502215520E+04  0.32502215520E+04  0.00000000000E+00 0.  1.
         -2   -1    0    0    0  501 -0.00000000000E+00 -0.00000000000E+00 -0.76438541486E+03  0.76438541486E+03  0.00000000000E+00 0. -1.
         23    2    1    2    0    0  0.37074650821E+03  0.18687561779E+02  0.31931309459E+04  0.32158152889E+04  0.87066276189E+02 0.  0.
         11    1    3    3    0    0  0.15693835002E+03 -0.25515932947E+02  0.15790918911E+04  0.15870765290E+04  0.00000000000E+00 0.  1.
        -11    1    3    3    0    0  0.21380815818E+03  0.44203494726E+02  0.16140390548E+04  0.16287387599E+04  0.00000000000E+00 0. -1.
         22    1    1    2    0    0 -0.37074650821E+03 -0.18687561779E+02 -0.70729480875E+03  0.79879167797E+03  0.00000000000E+00 0. -1.
<mgrwt>
<rscale>  0 0.31524098E+04</rscale>
<asrwt>0</asrwt>
<pdfrwt beam="1">  1        2 0.50003408E+00 0.31524098E+04</pdfrwt>
<pdfrwt beam="2">  1       -2 0.11759776E+00 0.31524098E+04</pdfrwt>
<totfact> 0.56669314E-01</totfact>
</mgrwt>
</event>
<event>
 6    1  0.6091287E-004  0.1894562E+04  0.7818608E-02  0.8657568E-01
         -2   -1    0    0    0  501 -0.00000000000E+00  0.00000000000E+00  0.29651202737E+03  0.29651202737E+03  0.00000000000E+00 0. -1.
          2   -1    0    0  501    0  0.00000000000E+00 -0.00000000000E+00 -0.30263233462E+04  0.30263233462E+04  0.00000000000E+00 0.  1.
         23    2    1    2    0    0  0.79288573230E+03 -0.26099929093E+03 -0.21456081260E+04  0.23039723872E+04  0.88691129950E+02 0.  0.
         11    1    3    3    0    0  0.43536506787E+03 -0.12012285861E+03 -0.12637102858E+04  0.13419895416E+04  0.00000000000E+00 0.  1.
        -11    1    3    3    0    0  0.35752066443E+03 -0.14087643232E+03 -0.88189784023E+03  0.96198284563E+03  0.00000000000E+00 0. -1.
         22    1    1    2    0    0 -0.79288573230E+03  0.26099929093E+03 -0.58420319283E+03  0.10188629863E+04  0.00000000000E+00 0. -1.
<mgrwt>
<rscale>  0 0.18945620E+04</rscale>
<asrwt>0</asrwt>
<pdfrwt beam="1">  1        2 0.46558820E+00 0.18945620E+04</pdfrwt>
<pdfrwt beam="2">  1       -2 0.45617235E-01 0.18945620E+04</pdfrwt>
<totfact> 0.71796020E+00</totfact>
</mgrwt>
</event>
<event>
 6    1  0.6091287E-004  0.2236085E+04  0.7818608E-02  0.8503557E-01
         -2   -1    0    0    0  501 -0.00000000000E+00  0.00000000000E+00  0.39731600358E+03  0.39731600358E+03  0.00000000000E+00 0. -1.
          2   -1    0    0  501    0  0.00000000000E+00 -0.00000000000E+00 -0.31461586951E+04  0.31461586951E+04  0.00000000000E+00 0.  1.
         23    2    1    2    0    0 -0.19029607710E+03 -0.56582867944E+03 -0.28712756585E+04  0.29340778470E+04  0.90632297985E+02 0.  0.
         13    1    3    3    0    0 -0.16266310548E+03 -0.38151470307E+03 -0.21043356194E+04  0.21448172774E+04  0.00000000000E+00 0.  1.
        -13    1    3    3    0    0 -0.27632971616E+02 -0.18431397637E+03 -0.76694003917E+03  0.78926056957E+03  0.00000000000E+00 0. -1.
         22    1    1    2    0    0  0.19029607710E+03  0.56582867944E+03  0.12243296703E+03  0.60939685169E+03  0.00000000000E+00 0. -1.
<mgrwt>
<rscale>  0 0.22360851E+04</rscale>
<asrwt>0</asrwt>
<pdfrwt beam="1">  1        2 0.48402440E+00 0.22360851E+04</pdfrwt>
<pdfrwt beam="2">  1       -2 0.61125540E-01 0.22360851E+04</pdfrwt>
<totfact> 0.31941569E+00</totfact>
</mgrwt>
</event>
<event>
 6    1  0.6091287E-004  0.4905847E+04  0.7818608E-02  0.7843198E-01
          2   -1    0    0  501    0  0.00000000000E+00  0.00000000000E+00  0.29901369299E+04  0.29901369299E+04  0.00000000000E+00 0.  1.
         -2   -1    0    0    0  501 -0.00000000000E+00 -0.00000000000E+00 -0.20122270148E+04  0.20122270148E+04  0.00000000000E+00 0. -1.
         23    2    1    2    0    0  0.21299903870E+04  0.82749823820E+03 -0.41772717078E+03  0.23247875671E+04  0.92351828119E+02 0.  0.
         13    1    3    3    0    0  0.15878940372E+04  0.60407997212E+03 -0.27122784594E+03  0.17204315245E+04  0.00000000000E+00 0. -1.
        -13    1    3    3    0    0  0.54209634977E+03  0.22341826607E+03 -0.14649932485E+03  0.60435604260E+03  0.00000000000E+00 0.  1.
         22    1    1    2    0    0 -0.21299903870E+04 -0.82749823820E+03  0.13956370858E+04  0.26775763776E+04  0.00000000000E+00 0.  1.
<mgrwt>
<rscale>  0 0.49058472E+04</rscale>
<asrwt>0</asrwt>
<pdfrwt beam="1">  1        2 0.46002106E+00 0.49058472E+04</pdfrwt>
<pdfrwt beam="2">  1       -2 0.30957339E+00 0.49058472E+04</pdfrwt>
<totfact> 0.35946336E-02</totfact>
</mgrwt>
</event>
<event>
 6    1  0.6091287E-004  0.1376873E+04  0.7818608E-02  0.8970731E-01
          2   -1    0    0  501    0  0.00000000000E+00  0.00000000000E+00  0.64057874831E+03  0.64057874831E+03  0.00000000000E+00 0.  1.
         -2   -1    0    0    0  501 -0.00000000000E+00 -0.00000000000E+00 -0.73987017786E+03  0.73987017786E+03  0.00000000000E+00 0. -1.
         23    2    1    2    0    0 -0.65183731517E+03 -0.17306962329E+03 -0.16967658422E+03  0.70236408638E+03  0.98387939534E+02 0.  0.
         13    1    3    3    0    0 -0.43749592736E+03 -0.10309396562E+03 -0.66379217182E+02  0.45435366476E+03  0.00000000000E+00 0.  1.
        -13    1    3    3    0    0 -0.21434138780E+03 -0.69975657671E+02 -0.10329736704E+03  0.24801042162E+03  0.00000000000E+00 0. -1.
         22    1    1    2    0    0  0.65183731517E+03  0.17306962329E+03  0.70385154677E+02  0.67808483979E+03  0.00000000000E+00 0.  1.
<mgrwt>
<rscale>  0 0.13768734E+04</rscale>
<asrwt>0</asrwt>
<pdfrwt beam="1">  1        2 0.98550576E-01 0.13768734E+04</pdfrwt>
<pdfrwt beam="2">  1       -2 0.11382618E+00 0.13768734E+04</pdfrwt>
<totfact> 0.26984537E+01</totfact>
</mgrwt>
</event>
<event>
 6    1  0.6091287E-004  0.1256604E+04  0.7818608E-02  0.9064704E-01
         -2   -1    0    0    0  501 -0.00000000000E+00  0.00000000000E+00  0.20178163431E+03  0.20178163431E+03  0.00000000000E+00 0. -1.
          2   -1    0    0  501    0  0.00000000000E+00 -0.00000000000E+00 -0.19563905360E+04  0.19563905360E+04  0.00000000000E+00 0.  1.
         23    2    1    2    0    0  0.46216580264E+03  0.28623671693E+03 -0.14115869576E+04  0.15153714692E+04  0.90797926340E+02 0.  0.
         11    1    3    3    0    0  0.22870104984E+03  0.14535715115E+03 -0.82817496994E+03  0.87138203586E+03  0.00000000000E+00 0.  1.
        -11    1    3    3    0    0  0.23346475280E+03  0.14087956579E+03 -0.58341198770E+03  0.64398943334E+03  0.00000000000E+00 0. -1.
         22    1    1    2    0    0 -0.46216580264E+03 -0.28623671693E+03 -0.34302194402E+03  0.64280070109E+03  0.00000000000E+00 0. -1.
<mgrwt>
<rscale>  0 0.12566044E+04</rscale>
<asrwt>0</asrwt>
<pdfrwt beam="1">  1        2 0.30098316E+00 0.12566044E+04</pdfrwt>
<pdfrwt beam="2">  1       -2 0.31043328E-01 0.12566044E+04</pdfrwt>
<totfact> 0.66857134E+01</totfact>
</mgrwt>
</event>
<event>
 6    1  0.6091287E-004  0.1698133E+04  0.7818608E-02  0.8762430E-01
         -2   -1    0    0    0  501 -0.00000000000E+00  0.00000000000E+00  0.10370703429E+04  0.10370703429E+04  0.00000000000E+00 0. -1.
          2   -1    0    0  501    0  0.00000000000E+00 -0.00000000000E+00 -0.69514427180E+03  0.69514427180E+03  0.00000000000E+00 0.  1.
         23    2    1    2    0    0 -0.44338123246E+03 -0.42697339253E+03  0.76438281493E+03  0.98564720609E+03  0.91247640480E+02 0.  0.
         11    1    3    3    0    0 -0.17737130044E+03 -0.11322604678E+03  0.24016397602E+03  0.31931090065E+03  0.00000000000E+00 0.  1.
        -11    1    3    3    0    0 -0.26600993202E+03 -0.31374734575E+03  0.52421883890E+03  0.66633630545E+03  0.00000000000E+00 0. -1.
         22    1    1    2    0    0  0.44338123246E+03  0.42697339253E+03 -0.42245674381E+03  0.74656740862E+03  0.00000000000E+00 0.  1.
<mgrwt>
<rscale>  0 0.16981325E+04</rscale>
<asrwt>0</asrwt>
<pdfrwt beam="1">  1        2 0.10694527E+00 0.16981325E+04</pdfrwt>
<pdfrwt beam="2">  1       -2 0.15954928E+00 0.16981325E+04</pdfrwt>
<totfact> 0.99791436E+00</totfact>
</mgrwt>
</event>
<event>
 6    1  0.6091287E-004  0.2716037E+04  0.7818608E-02  0.8329820E-01
          2   -1    0    0  501    0  0.00000000000E+00  0.00000000000E+00  0.23120016340E+04  0.23120016340E+04  0.00000000000E+00 0.  1.
         -2   -1    0    0    0  501 -0.00000000000E+00 -0.00000000000E+00 -0.79766996617E+03  0.79766996617E+03  0.00000000000E+00 0. -1.
         23    2    1    2    0    0 -0.58953918768E+03 -0.94057556250E+00 -0.64096967630E+03  0.87519599669E+03  0.86997518300E+02 0.  0.
         13    1    3    3    0    0 -0.16247089207E+03 -0.23306697206E+02 -0.22591528986E+03  0.27924489449E+03  0.00000000000E+00 0.  1.
        -13    1    3    3    0    0 -0.42706829561E+03  0.22366121643E+02 -0.41505438645E+03  0.59595110221E+03  0.00000000000E+00 0. -1.
         22    1    1    2    0    0  0.58953918768E+03  0.94057556250E+00  0.21553013442E+04  0.22344756035E+04  0.00000000000E+00 0.  1.
<mgrwt>
<rscale>  0 0.27160370E+04</rscale>
<asrwt>0</asrwt>
<pdfrwt beam="1">  1        2 0.35569256E+00 0.27160370E+04</pdfrwt>
<pdfrwt beam="2">  1       -2 0.12271846E+00 0.27160370E+04</pdfrwt>
<totfact> 0.19632236E+00</totfact>
</mgrwt>
</event>
<event>
 6    1  0.6091287E-004  0.3004590E+04  0.7818608E-02  0.8242421E-01
         -2   -1    0    0    0  501 -0.00000000000E+00  0.00000000000E+00  0.99996206089E+03  0.99996206089E+03  0.00000000000E+00 0. -1.
          2   -1    0    0  501    0  0.00000000000E+00 -0.00000000000E+00 -0.22569759979E+04  0.22569759979E+04  0.00000000000E+00 0.  1.
         23    2    1    2    0    0 -0.49756153521E+03 -0.20186762144E+03 -0.21483000751E+04  0.22164050234E+04  0.94551556924E+02 0.  0.
         13    1    3    3    0    0 -0.40605143140E+03 -0.14633864573E+03 -0.18436053806E+04  0.18934554559E+04  0.00000000000E+00 0.  1.
        -13    1    3    3    0    0 -0.91510103813E+02 -0.55528975705E+02 -0.30469469454E+03  0.32294956746E+03  0.00000000000E+00 0. -1.
         22    1    1    2    0    0  0.49756153521E+03  0.20186762144E+03  0.89128613809E+03  0.10405330355E+04  0.00000000000E+00 0. -1.
<mgrwt>
<rscale>  0 0.30045901E+04</rscale>
<asrwt>0</asrwt>
<pdfrwt beam="1">  1        2 0.34722707E+00 0.30045901E+04</pdfrwt>
<pdfrwt beam="2">  1       -2 0.15384032E+00 0.30045901E+04</pdfrwt>
<totfact> 0.11493090E+00</totfact>
</mgrwt>
</event>
<event>
 6    1  0.6091287E-004  0.1579638E+04  0.7818608E-02  0.8833156E-01
         -2   -1    0    0    0  501 -0.00000000000E+00  0.00000000000E+00  0.26118331679E+03  0.26118331679E+03  0.00000000000E+00 0. -1.
          2   -1    0    0  501    0  0.00000000000E+00 -0.00000000000E+00 -0.23884150693E+04  0.23884150693E+04  0.00000000000E+00 0.  1.
         23    2    1    2    0    0 -0.17316843970E+02  0.67218762864E+03 -0.17539571097E+04  0.18805274920E+04  0.88780764475E+02 0.  0.
         11    1    3    3    0    0 -0.47304800866E+02  0.28057413435E+03 -0.78641029927E+03  0.83630182819E+03  0.00000000000E+00 0. -1.
        -11    1    3    3    0    0  0.29987956895E+02  0.39161349429E+03 -0.96754681048E+03  0.10442256638E+04  0.00000000000E+00 0.  1.
         22    1    1    2    0    0  0.17316843970E+02 -0.67218762864E+03 -0.37327464272E+03  0.76907089405E+03  0.00000000000E+00 0. -1.
<mgrwt>
<rscale>  0 0.15796381E+04</rscale>
<asrwt>0</asrwt>
<pdfrwt beam="1">  1        2 0.36744848E+00 0.15796381E+04</pdfrwt>
<pdfrwt beam="2">  1       -2 0.40182048E-01 0.15796381E+04</pdfrwt>
<totfact> 0.22763616E+01</totfact>
</mgrwt>
</event>
<event>
 6    1  0.6091287E-004  0.2663231E+04  0.7818608E-02  0.8347035E-01
         -2   -1    0    0    0  501 -0.00000000000E+00  0.00000000000E+00  0.83956514868E+03  0.83956514868E+03  0.00000000000E+00 0. -1.
          2   -1    0    0  501    0  0.00000000000E+00 -0.00000000000E+00 -0.21120450692E+04  0.21120450692E+04  0.00000000000E+00 0.  1.
         23    2    1    2    0    0 -0.14794939929E+03 -0.62627644007E+03  0.65308752544E+03  0.92135870808E+03  0.90924963199E+02 0.  0.
         13    1    3    3    0    0 -0.13780000069E+03 -0.40913170124E+03  0.41239304696E+03  0.59703066448E+03  0.00000000000E+00 0.  1.
        -13    1    3    3    0    0 -0.10149398597E+02 -0.21714473882E+03  0.24069447848E+03  0.32432804359E+03  0.00000000000E+00 0. -1.
         22    1    1    2    0    0  0.14794939929E+03  0.62627644007E+03 -0.19255674459E+04  0.20302515098E+04  0.00000000000E+00 0.  1.
<mgrwt>
<rscale>  0 0.26632307E+04</rscale>
<asrwt>0</asrwt>
<pdfrwt beam="1">  1        2 0.32493001E+00 0.26632307E+04</pdfrwt>
<pdfrwt beam="2">  1       -2 0.12916387E+00 0.26632307E+04</pdfrwt>
<totfact> 0.22473481E+00</totfact>
</mgrwt>
</event>
<event>
 6    1  0.6387780E-004  0.2063103E+04  0.7818608E-02  0.8577673E-01
         -2   -1    0    0    0  501 -0.00000000000E+00  0.00000000000E+00  0.13670531674E+04  0.13670531674E+04  0.00000000000E+00 0.  1.
          2   -1    0    0  501    0  0.00000000000E+00 -0.00000000000E+00 -0.77838844955E+03  0.77838844955E+03  0.00000000000E+00 0. -1.
         23    2    1    2    0    0 -0.19288912021E+03 -0.90848498003E+03 -0.16709339899E+03  0.94806051519E+03  0.91363914396E+02 0.  0.
         13    1    3    3    0    0 -0.11659931563E+03 -0.39604388150E+03 -0.10704812437E+03  0.42650376014E+03  0.00000000000E+00 0. -1.
        -13    1    3    3    0    0 -0.76289804577E+02 -0.51244109852E+03 -0.60045274620E+02  0.52155675505E+03  0.00000000000E+00 0.  1.
         22    1    1    2    0    0  0.19288912021E+03  0.90848498003E+03  0.75575811679E+03  0.11973811017E+04  0.00000000000E+00 0.  1.
<mgrwt>
<rscale>  0 0.20631029E+04</rscale>
<asrwt>0</asrwt>
<pdfrwt beam="1">  1        2 0.11975207E+00 0.20631029E+04</pdfrwt>
<pdfrwt beam="2">  1       -2 0.21031587E+00 0.20631029E+04</pdfrwt>
<totfact> 0.37611838E+00</totfact>
</mgrwt>
</event>
<event>
 6    1  0.6091287E-004  0.1405475E+04  0.7818608E-02  0.8949865E-01
          2   -1    0    0  501    0  0.00000000000E+00  0.00000000000E+00  0.13639399739E+04  0.13639399739E+04  0.00000000000E+00 0.  1.
         -2   -1    0    0    0  501 -0.00000000000E+00 -0.00000000000E+00 -0.36206848016E+03  0.36206848016E+03  0.00000000000E+00 0. -1.
         23    2    1    2    0    0  0.12616707553E+03 -0.20864834000E+03 -0.30243262264E+03  0.39910925339E+03  0.91490131567E+02 0.  0.
         13    1    3    3    0    0  0.16908099383E+02 -0.59232067636E+02 -0.13957220610E+03  0.15256055315E+03  0.00000000000E+00 0. -1.
        -13    1    3    3    0    0  0.10925897615E+03 -0.14941627236E+03 -0.16286041653E+03  0.24654870024E+03  0.00000000000E+00 0.  1.
         22    1    1    2    0    0 -0.12616707553E+03  0.20864834000E+03  0.13043041163E+04  0.13268992006E+04  0.00000000000E+00 0.  1.
<mgrwt>
<rscale>  0 0.14054745E+04</rscale>
<asrwt>0</asrwt>
<pdfrwt beam="1">  1        2 0.20983692E+00 0.14054745E+04</pdfrwt>
<pdfrwt beam="2">  1       -2 0.55702844E-01 0.14054745E+04</pdfrwt>
<totfact> 0.44704632E+01</totfact>
</mgrwt>
</event>
<event>
 6    1  0.6091287E-004  0.2448102E+04  0.7818608E-02  0.8421711E-01
          2   -1    0    0  501    0  0.00000000000E+00  0.00000000000E+00  0.15394578182E+04  0.15394578182E+04  0.00000000000E+00 0. -1.
         -2   -1    0    0    0  501 -0.00000000000E+00 -0.00000000000E+00 -0.97326490996E+03  0.97326490996E+03  0.00000000000E+00 0.  1.
         23    2    1    2    0    0 -0.63735717568E+03 -0.97552153887E+03  0.66244507979E+03  0.13434789885E+04  0.90751675355E+02 0.  0.
         11    1    3    3    0    0 -0.36180054208E+03 -0.47582833482E+03  0.35674346183E+03  0.69611646584E+03  0.00000000000E+00 0. -1.
        -11    1    3    3    0    0 -0.27555663360E+03 -0.49969320405E+03  0.30570161796E+03  0.64736252264E+03  0.00000000000E+00 0.  1.
         22    1    1    2    0    0  0.63735717568E+03  0.97552153887E+03 -0.96252171560E+02  0.11692437397E+04  0.00000000000E+00 0. -1.
<mgrwt>
<rscale>  0 0.24481015E+04</rscale>
<asrwt>0</asrwt>
<pdfrwt beam="1">  1        2 0.23683967E+00 0.24481015E+04</pdfrwt>
<pdfrwt beam="2">  1       -2 0.14973306E+00 0.24481015E+04</pdfrwt>
<totfact> 0.32522831E+00</totfact>
</mgrwt>
</event>
<event>
 6    1  0.6091287E-004  0.1942302E+04  0.7818608E-02  0.8634082E-01
         -2   -1    0    0    0  501 -0.00000000000E+00  0.00000000000E+00  0.34662270028E+03  0.34662270028E+03  0.00000000000E+00 0. -1.
          2   -1    0    0  501    0  0.00000000000E+00 -0.00000000000E+00 -0.27209233133E+04  0.27209233133E+04  0.00000000000E+00 0.  1.
         23    2    1    2    0    0 -0.40033452586E+03 -0.92072522251E+02 -0.25758382072E+04  0.26099845600E+04  0.91278975966E+02 0.  0.
         13    1    3    3    0    0 -0.68967746122E+02 -0.17111670042E+01 -0.66059403740E+03  0.66418669088E+03  0.00000000000E+00 0.  1.
        -13    1    3    3    0    0 -0.33136677974E+03 -0.90361355246E+02 -0.19152441698E+04  0.19457978691E+04  0.00000000000E+00 0. -1.
         22    1    1    2    0    0  0.40033452586E+03  0.92072522251E+02  0.20153759422E+03  0.45756145362E+03  0.00000000000E+00 0. -1.
<mgrwt>
<rscale>  0 0.19423015E+04</rscale>
<asrwt>0</asrwt>
<pdfrwt beam="1">  1        2 0.41860359E+00 0.19423015E+04</pdfrwt>
<pdfrwt beam="2">  1       -2 0.53326569E-01 0.19423015E+04</pdfrwt>
<totfact> 0.79949620E+00</totfact>
</mgrwt>
</event>
<event>
 6    1  0.6091287E-004  0.5837351E+03  0.7818608E-02  0.9939737E-01
          2   -1    0    0  501    0  0.00000000000E+00  0.00000000000E+00  0.80835578043E+03  0.80835578043E+03  0.00000000000E+00 0.  1.
         -2   -1    0    0    0  501 -0.00000000000E+00 -0.00000000000E+00 -0.10538265488E+03  0.10538265488E+03  0.00000000000E+00 0. -1.
         23    2    1    2    0    0 -0.12634406092E+03 -0.61648011317E+02  0.74683628001E+03  0.76647243330E+03  0.99761028722E+02 0.  0.
         11    1    3    3    0    0 -0.11313539200E+02  0.15509828552E+02  0.24863033780E+03  0.24937039885E+03  0.00000000000E+00 0.  1.
        -11    1    3    3    0    0 -0.11503052172E+03 -0.77157839869E+02  0.49820594221E+03  0.51710203445E+03  0.00000000000E+00 0. -1.
         22    1    1    2    0    0  0.12634406092E+03  0.61648011317E+02 -0.43863154460E+02  0.14726600201E+03  0.00000000000E+00 0. -1.
<mgrwt>
<rscale>  0 0.58373514E+03</rscale>
<asrwt>0</asrwt>
<pdfrwt beam="1">  1        2 0.12436242E+00 0.58373514E+03</pdfrwt>
<pdfrwt beam="2">  1       -2 0.16212717E-01 0.58373514E+03</pdfrwt>
<totfact> 0.10482167E+03</totfact>
</mgrwt>
</event>
<event>
 6    1  0.6091287E-004  0.9227124E+03  0.7818608E-02  0.9397627E-01
          2   -1    0    0  501    0  0.00000000000E+00  0.00000000000E+00  0.22633415460E+04  0.22633415460E+04  0.00000000000E+00 0.  1.
         -2   -1    0    0    0  501 -0.00000000000E+00 -0.00000000000E+00 -0.94042157860E+02  0.94042157860E+02  0.00000000000E+00 0. -1.
         23    2    1    2    0    0  0.29902644479E+02  0.12695344556E+03  0.22134791999E+04  0.22196767641E+04  0.10229087561E+03 0.  0.
         11    1    3    3    0    0  0.50571807484E+02  0.66810223265E+02  0.72263731593E+03  0.72747907463E+03  0.00000000000E+00 0. -1.
        -11    1    3    3    0    0 -0.20669163006E+02  0.60143222295E+02  0.14908418840E+04  0.14921976895E+04  0.00000000000E+00 0.  1.
         22    1    1    2    0    0 -0.29902644479E+02 -0.12695344556E+03 -0.44179811769E+02  0.13770693975E+03  0.00000000000E+00 0. -1.
<mgrwt>
<rscale>  0 0.92271236E+03</rscale>
<asrwt>0</asrwt>
<pdfrwt beam="1">  1        2 0.34820635E+00 0.92271236E+03</pdfrwt>
<pdfrwt beam="2">  1       -2 0.14468026E-01 0.92271236E+03</pdfrwt>
<totfact> 0.17980237E+02</totfact>
</mgrwt>
</event>
<event>
 6    1  0.6091287E-004  0.3204347E+04  0.7818608E-02  0.8187670E-01
          2   -1    0    0  501    0  0.00000000000E+00  0.00000000000E+00  0.24777612608E+04  0.24777612608E+04  0.00000000000E+00 0.  1.
         -2   -1    0    0    0  501 -0.00000000000E+00 -0.00000000000E+00 -0.10359995160E+04  0.10359995160E+04  0.00000000000E+00 0. -1.
         23    2    1    2    0    0 -0.14665822630E+04 -0.63789864618E+03  0.80122679211E+03  0.17909539848E+04  0.88167943809E+02 0.  0.
         11    1    3    3    0    0 -0.86448556262E+03 -0.34506504215E+03  0.42905419800E+03  0.10249354497E+04  0.00000000000E+00 0.  1.
        -11    1    3    3    0    0 -0.60209670040E+03 -0.29283360403E+03  0.37217259411E+03  0.76601853508E+03  0.00000000000E+00 0. -1.
         22    1    1    2    0    0  0.14665822630E+04  0.63789864618E+03  0.64053495272E+03  0.17228067920E+04  0.00000000000E+00 0.  1.
<mgrwt>
<rscale>  0 0.32043467E+04</rscale>
<asrwt>0</asrwt>
<pdfrwt beam="1">  1        2 0.38119404E+00 0.32043467E+04</pdfrwt>
<pdfrwt beam="2">  1       -2 0.15938454E+00 0.32043467E+04</pdfrwt>
<totfact> 0.76822621E-01</totfact>
</mgrwt>
</event>
<event>
 6    1  0.6091287E-004  0.1056663E+04  0.7818608E-02  0.9248492E-01
         -2   -1    0    0    0  501 -0.00000000000E+00  0.00000000000E+00  0.38295324667E+03  0.38295324667E+03  0.00000000000E+00 0. -1.
          2   -1    0    0  501    0  0.00000000000E+00 -0.00000000000E+00 -0.72889924151E+03  0.72889924151E+03  0.00000000000E+00 0.  1.
         23    2    1    2    0    0 -0.41084376389E+03  0.53056093850E+02  0.16553634411E+03  0.45365667349E+03  0.82429052885E+02 0.  0.
         11    1    3    3    0    0 -0.22096514445E+03  0.20271558564E+02  0.13165991662E+03  0.25801330352E+03  0.00000000000E+00 0. -1.
        -11    1    3    3    0    0 -0.18987861944E+03  0.32784535286E+02  0.33876427488E+02  0.19564336997E+03  0.00000000000E+00 0.  1.
         22    1    1    2    0    0  0.41084376389E+03 -0.53056093850E+02 -0.51148233894E+03  0.65819581469E+03  0.00000000000E+00 0.  1.
<mgrwt>
<rscale>  0 0.10566633E+04</rscale>
<asrwt>0</asrwt>
<pdfrwt beam="1">  1        2 0.11213835E+00 0.10566633E+04</pdfrwt>
<pdfrwt beam="2">  1       -2 0.58915884E-01 0.10566633E+04</pdfrwt>
<totfact> 0.10428809E+02</totfact>
</mgrwt>
</event>
<event>
 6    1  0.6091287E-004  0.3412227E+04  0.7818608E-02  0.8134912E-01
         -2   -1    0    0    0  501 -0.00000000000E+00  0.00000000000E+00  0.20299971440E+04  0.20299971440E+04  0.00000000000E+00 0. -1.
          2   -1    0    0  501    0  0.00000000000E+00 -0.00000000000E+00 -0.14339054044E+04  0.14339054044E+04  0.00000000000E+00 0.  1.
         23    2    1    2    0    0 -0.87205641755E+02 -0.13037614303E+04 -0.81338953760E+03  0.15419149932E+04  0.92198781857E+02 0.  0.
         11    1    3    3    0    0 -0.90580437109E+02 -0.93750442737E+03 -0.62125700882E+03  0.11283083080E+04  0.00000000000E+00 0. -1.
        -11    1    3    3    0    0  0.33747953537E+01 -0.36625700294E+03 -0.19213252878E+03  0.41360668523E+03  0.00000000000E+00 0.  1.
         22    1    1    2    0    0  0.87205641755E+02  0.13037614303E+04  0.14094812772E+04  0.19219875551E+04  0.00000000000E+00 0. -1.
<mgrwt>
<rscale>  0 0.34122274E+04</rscale>
<asrwt>0</asrwt>
<pdfrwt beam="1">  1        2 0.22060083E+00 0.34122274E+04</pdfrwt>
<pdfrwt beam="2">  1       -2 0.31230725E+00 0.34122274E+04</pdfrwt>
<totfact> 0.30584326E-01</totfact>
</mgrwt>
</event>
<event>
 6    1  0.6091287E-004  0.3563366E+04  0.7818608E-02  0.8098935E-01
         -2   -1    0    0    0  501 -0.00000000000E+00  0.00000000000E+00  0.15685586504E+04  0.15685586504E+04  0.00000000000E+00 0. -1.
          2   -1    0    0  501    0  0.00000000000E+00 -0.00000000000E+00 -0.20237650277E+04  0.20237650277E+04  0.00000000000E+00 0.  1.
         23    2    1    2    0    0  0.42679733519E+03 -0.16850735284E+04  0.16094464584E+03  0.17480702127E+04  0.90650582864E+02 0.  0.
         11    1    3    3    0    0  0.14503587792E+03 -0.66782238300E+03  0.10104865819E+03  0.69082050668E+03  0.00000000000E+00 0.  1.
        -11    1    3    3    0    0  0.28176145727E+03 -0.10172511454E+04  0.59895987648E+02  0.10572497060E+04  0.00000000000E+00 0. -1.
         22    1    1    2    0    0 -0.42679733519E+03  0.16850735284E+04 -0.61615102318E+03  0.18442534654E+04  0.00000000000E+00 0.  1.
<mgrwt>
<rscale>  0 0.35633659E+04</rscale>
<asrwt>0</asrwt>
<pdfrwt beam="1">  1        2 0.31134847E+00 0.35633659E+04</pdfrwt>
<pdfrwt beam="2">  1       -2 0.24131672E+00 0.35633659E+04</pdfrwt>
<totfact> 0.38516395E-01</totfact>
</mgrwt>
</event>
<event>
 6    1  0.6091287E-004  0.2942961E+04  0.7818608E-02  0.8260209E-01
         -2   -1    0    0    0  501 -0.00000000000E+00  0.00000000000E+00  0.89706028596E+03  0.89706028596E+03  0.00000000000E+00 0. -1.
          2   -1    0    0  501    0  0.00000000000E+00 -0.00000000000E+00 -0.24137220243E+04  0.24137220243E+04  0.00000000000E+00 0.  1.
         23    2    1    2    0    0  0.86082611762E+03  0.10387257685E+04 -0.10187685233E+03  0.13558937966E+04  0.89979262752E+02 0.  0.
         11    1    3    3    0    0  0.24190461678E+03  0.23786141101E+03 -0.43876279403E+02  0.34208335587E+03  0.00000000000E+00 0.  1.
        -11    1    3    3    0    0  0.61892150084E+03  0.80086435751E+03 -0.58000572922E+02  0.10138104408E+04  0.00000000000E+00 0. -1.
         22    1    1    2    0    0 -0.86082611762E+03 -0.10387257685E+04 -0.14147848860E+04  0.19548885136E+04  0.00000000000E+00 0. -1.
<mgrwt>
<rscale>  0 0.29429605E+04</rscale>
<asrwt>0</asrwt>
<pdfrwt beam="1">  1        2 0.37134185E+00 0.29429605E+04</pdfrwt>
<pdfrwt beam="2">  1       -2 0.13800927E+00 0.29429605E+04</pdfrwt>
<totfact> 0.12513960E+00</totfact>
</mgrwt>
</event>
<event>
 6    1  0.7755368E-004  0.4782833E+04  0.7818608E-02  0.7862909E-01
          2   -1    0    0  501    0  0.00000000000E+00  0.00000000000E+00  0.22339621552E+04  0.22339621552E+04  0.00000000000E+00 0.  1.
         -2   -1    0    0    0  501 -0.00000000000E+00 -0.00000000000E+00 -0.25599680551E+04  0.25599680551E+04  0.00000000000E+00 0. -1.
         23    2    1    2    0    0  0.23541690676E+03 -0.13024770526E+04  0.18322913252E+04  0.22621098169E+04  0.89340532899E+02 0.  0.
         13    1    3    3    0    0  0.16032383173E+03 -0.83514995521E+03  0.11046768032E+04  0.13940911083E+04  0.00000000000E+00 0. -1.
        -13    1    3    3    0    0  0.75093075026E+02 -0.46732709737E+03  0.72761452200E+03  0.86801870860E+03  0.00000000000E+00 0.  1.
         22    1    1    2    0    0 -0.23541690676E+03  0.13024770526E+04 -0.21582972252E+04  0.25318203934E+04  0.00000000000E+00 0. -1.
<mgrwt>
<rscale>  0 0.47828325E+04</rscale>
<asrwt>0</asrwt>
<pdfrwt beam="1">  1        2 0.34368649E+00 0.47828325E+04</pdfrwt>
<pdfrwt beam="2">  1       -2 0.39384124E+00 0.47828325E+04</pdfrwt>
<totfact> 0.29811492E-02</totfact>
</mgrwt>
</event>
<event>
 6    1  0.6091287E-004  0.5155850E+03  0.7818608E-02  0.1009789E+00
         -2   -1    0    0    0  501 -0.00000000000E+00  0.00000000000E+00  0.62765607227E+02  0.62765607227E+02  0.00000000000E+00 0. -1.
          2   -1    0    0  501    0  0.00000000000E+00 -0.00000000000E+00 -0.10588120086E+04  0.10588120086E+04  0.00000000000E+00 0.  1.
         23    2    1    2    0    0  0.11865926558E+02 -0.18793209500E+02 -0.10547023597E+04  0.10588519720E+04  0.90974975139E+02 0.  0.
         11    1    3    3    0    0 -0.27795025734E+02 -0.39073809405E+02 -0.46349633297E+03  0.46597014573E+03  0.00000000000E+00 0.  1.
        -11    1    3    3    0    0  0.39660952291E+02  0.20280599905E+02 -0.59120602677E+03  0.59288182630E+03  0.00000000000E+00 0. -1.
         22    1    1    2    0    0 -0.11865926558E+02  0.18793209500E+02  0.58655958371E+02  0.62725643789E+02  0.00000000000E+00 0. -1.
<mgrwt>
<rscale>  0 0.51558502E+03</rscale>
<asrwt>0</asrwt>
<pdfrwt beam="1">  1        2 0.16289414E+00 0.51558502E+03</pdfrwt>
<pdfrwt beam="2">  1       -2 0.96562480E-02 0.51558502E+03</pdfrwt>
<totfact> 0.16928096E+03</totfact>
</mgrwt>
</event>
<event>
 6    1  0.6091287E-004  0.3543759E+04  0.7818608E-02  0.8103497E-01
         -2   -1    0    0    0  501 -0.00000000000E+00  0.00000000000E+00  0.20278837770E+04  0.20278837770E+04  0.00000000000E+00 0. -1.
          2   -1    0    0  501    0  0.00000000000E+00 -0.00000000000E+00 -0.15481939278E+04  0.15481939278E+04  0.00000000000E+00 0.  1.
         23    2    1    2    0    0 -0.54017038684E+02  0.13680972008E+04  0.13731482441E+04  0.19411845295E+04  0.89741217601E+02 0.  0.
         13    1    3    3    0    0 -0.77438292212E+02  0.11189265753E+04  0.11088019398E+04  0.15771604584E+04  0.00000000000E+00 0.  1.
        -13    1    3    3    0    0  0.23421253528E+02  0.24917062547E+03  0.26434630433E+03  0.36402407108E+03  0.00000000000E+00 0. -1.
         22    1    1    2    0    0  0.54017038684E+02 -0.13680972008E+04 -0.89345839494E+03  0.16348931753E+04  0.00000000000E+00 0.  1.
<mgrwt>
<rscale>  0 0.35437592E+04</rscale>
<asrwt>0</asrwt>
<pdfrwt beam="1">  1        2 0.23818368E+00 0.35437592E+04</pdfrwt>
<pdfrwt beam="2">  1       -2 0.31198212E+00 0.35437592E+04</pdfrwt>
<totfact> 0.26191637E-01</totfact>
</mgrwt>
</event>
<event>
 6    1  0.6091287E-004  0.4147020E+04  0.7818608E-02  0.7975527E-01
         -2   -1    0    0    0  501 -0.00000000000E+00  0.00000000000E+00  0.18239953226E+04  0.18239953226E+04  0.00000000000E+00 0. -1.
          2   -1    0    0  501    0  0.00000000000E+00 -0.00000000000E+00 -0.23571571889E+04  0.23571571889E+04  0.00000000000E+00 0.  1.
         23    2    1    2    0    0  0.30645738665E+03  0.15131613465E+04 -0.16607199677E+04  0.22693573702E+04  0.91753324844E+02 0.  0.
         13    1    3    3    0    0  0.17290134775E+03  0.94201572023E+03 -0.96928362645E+03  0.13626442095E+04  0.00000000000E+00 0. -1.
        -13    1    3    3    0    0  0.13355603890E+03  0.57114562623E+03 -0.69143634122E+03  0.90671316074E+03  0.00000000000E+00 0.  1.
         22    1    1    2    0    0 -0.30645738665E+03 -0.15131613465E+04  0.11275581014E+04  0.19117951413E+04  0.00000000000E+00 0. -1.
<mgrwt>
<rscale>  0 0.41470200E+04</rscale>
<asrwt>0</asrwt>
<pdfrwt beam="1">  1        2 0.36263957E+00 0.41470200E+04</pdfrwt>
<pdfrwt beam="2">  1       -2 0.28061467E+00 0.41470200E+04</pdfrwt>
<totfact> 0.13691560E-01</totfact>
</mgrwt>
</event>
<event>
 6    1  0.6091287E-004  0.3940936E+04  0.7818608E-02  0.8016569E-01
          1   -1    0    0  501    0  0.00000000000E+00  0.00000000000E+00  0.33363123480E+04  0.33363123480E+04  0.00000000000E+00 0.  1.
         -1   -1    0    0    0  501 -0.00000000000E+00 -0.00000000000E+00 -0.11637830410E+04  0.11637830410E+04  0.00000000000E+00 0. -1.
         23    2    1    2    0    0 -0.13979825252E+04  0.11892945792E+04  0.27155526528E+03  0.18576573019E+04  0.91496733051E+02 0.  0.
         13    1    3    3    0    0 -0.12409524877E+04  0.10864459762E+04  0.22879289927E+03  0.16651348674E+04  0.00000000000E+00 0. -1.
        -13    1    3    3    0    0 -0.15703003749E+03  0.10284860300E+03  0.42762366008E+02  0.19252243444E+03  0.00000000000E+00 0.  1.
         22    1    1    2    0    0  0.13979825252E+04 -0.11892945792E+04  0.19009740418E+04  0.26424380872E+04  0.00000000000E+00 0.  1.
<mgrwt>
<rscale>  0 0.39409358E+04</rscale>
<asrwt>0</asrwt>
<pdfrwt beam="1">  1        1 0.51327882E+00 0.39409358E+04</pdfrwt>
<pdfrwt beam="2">  1       -1 0.17904355E+00 0.39409358E+04</pdfrwt>
<totfact> 0.55638182E-02</totfact>
</mgrwt>
</event>
<event>
 6    1  0.6091287E-004  0.2234162E+04  0.7818608E-02  0.8504342E-01
         -2   -1    0    0    0  501 -0.00000000000E+00  0.00000000000E+00  0.14571983908E+04  0.14571983908E+04  0.00000000000E+00 0. -1.
          2   -1    0    0  501    0  0.00000000000E+00 -0.00000000000E+00 -0.85634893129E+03  0.85634893129E+03  0.00000000000E+00 0.  1.
         23    2    1    2    0    0 -0.30596033476E+03 -0.15810068613E+03  0.13991155299E+04  0.14441588747E+04  0.97278136834E+02 0.  0.
         11    1    3    3    0    0 -0.55522561190E+02 -0.74109882626E+02  0.41539960230E+03  0.42559588708E+03  0.00000000000E+00 0. -1.
        -11    1    3    3    0    0 -0.25043777357E+03 -0.83990803506E+02  0.98371592761E+03  0.10185629876E+04  0.00000000000E+00 0.  1.
         22    1    1    2    0    0  0.30596033476E+03  0.15810068613E+03 -0.79826607038E+03  0.86938844742E+03  0.00000000000E+00 0.  1.
<mgrwt>
<rscale>  0 0.22341623E+04</rscale>
<asrwt>0</asrwt>
<pdfrwt beam="1">  1        2 0.13174599E+00 0.22341623E+04</pdfrwt>
<pdfrwt beam="2">  1       -2 0.22418437E+00 0.22341623E+04</pdfrwt>
<totfact> 0.26621907E+00</totfact>
</mgrwt>
</event>
<event>
 6    1  0.6091287E-004  0.1516243E+04  0.7818608E-02  0.8873723E-01
          2   -1    0    0  501    0  0.00000000000E+00  0.00000000000E+00  0.40710606050E+03  0.40710606050E+03  0.00000000000E+00 0.  1.
         -2   -1    0    0    0  501 -0.00000000000E+00 -0.00000000000E+00 -0.14117907031E+04  0.14117907031E+04  0.00000000000E+00 0. -1.
         23    2    1    2    0    0 -0.70680955529E+03 -0.22754401825E+03 -0.33778254238E+03  0.82084143500E+03  0.91255617821E+02 0.  0.
         11    1    3    3    0    0 -0.20958490403E+03 -0.98550729332E+02 -0.13852239339E+03  0.26986391334E+03  0.00000000000E+00 0.  1.
        -11    1    3    3    0    0 -0.49722465125E+03 -0.12899328892E+03 -0.19926014899E+03  0.55097752166E+03  0.00000000000E+00 0. -1.
         22    1    1    2    0    0  0.70680955529E+03  0.22754401825E+03 -0.66690210021E+03  0.99805532861E+03  0.00000000000E+00 0.  1.
<mgrwt>
<rscale>  0 0.15162435E+04</rscale>
<asrwt>0</asrwt>
<pdfrwt beam="1">  1        2 0.62631703E-01 0.15162435E+04</pdfrwt>
<pdfrwt beam="2">  1       -2 0.21719856E+00 0.15162435E+04</pdfrwt>
<totfact> 0.77405160E+00</totfact>
</mgrwt>
</event>
<event>
 6    1  0.6091287E-004  0.3786208E+04  0.7818608E-02  0.8049121E-01
         -2   -1    0    0    0  501 -0.00000000000E+00  0.00000000000E+00  0.26988290361E+04  0.26988290361E+04  0.00000000000E+00 0. -1.
          2   -1    0    0  501    0  0.00000000000E+00 -0.00000000000E+00 -0.13279247965E+04  0.13279247965E+04  0.00000000000E+00 0.  1.
         23    2    1    2    0    0 -0.13567062331E+04  0.28909040409E+02  0.20884217911E+04  0.24917232231E+04  0.75442079797E+02 0.  0.
         13    1    3    3    0    0 -0.37976940232E+03  0.25577647346E+02  0.63981377931E+03  0.74447342946E+03  0.00000000000E+00 0.  1.
        -13    1    3    3    0    0 -0.97693683074E+03  0.33313930637E+01  0.14486080118E+04  0.17472497936E+04  0.00000000000E+00 0. -1.
         22    1    1    2    0    0  0.13567062331E+04 -0.28909040409E+02 -0.71751755149E+03  0.15350306095E+04  0.00000000000E+00 0.  1.
<mgrwt>
<rscale>  0 0.37862076E+04</rscale>
<asrwt>0</asrwt>
<pdfrwt beam="1">  1        2 0.20429612E+00 0.37862076E+04</pdfrwt>
<pdfrwt beam="2">  1       -2 0.41520447E+00 0.37862076E+04</pdfrwt>
<totfact> 0.75331491E-02</totfact>
</mgrwt>
</event>
<event>
 6    1  0.6091287E-004  0.3145035E+04  0.7818608E-02  0.8203486E-01
         -1   -1    0    0    0  501 -0.00000000000E+00  0.00000000000E+00  0.16174815558E+04  0.16174815558E+04  0.00000000000E+00 0. -1.
          1   -1    0    0  501    0  0.00000000000E+00 -0.00000000000E+00 -0.15288031263E+04  0.15288031263E+04  0.00000000000E+00 0.  1.
         23    2    1    2    0    0 -0.80600542699E+03 -0.11754481980E+04  0.70601896071E+03  0.15930839397E+04  0.90169016465E+02 0.  0.
         13    1    3    3    0    0 -0.68249279833E+03 -0.97191054077E+03  0.55279481285E+03  0.13099574894E+04  0.00000000000E+00 0. -1.
        -13    1    3    3    0    0 -0.12351262866E+03 -0.20353765726E+03  0.15322414785E+03  0.28312645028E+03  0.00000000000E+00 0.  1.
         22    1    1    2    0    0  0.80600542699E+03  0.11754481980E+04 -0.61734053127E+03  0.15532007424E+04  0.00000000000E+00 0.  1.
<mgrwt>
<rscale>  0 0.31450347E+04</rscale>
<asrwt>0</asrwt>
<pdfrwt beam="1">  1        1 0.23520048E+00 0.31450347E+04</pdfrwt>
<pdfrwt beam="2">  1       -1 0.24884332E+00 0.31450347E+04</pdfrwt>
<totfact> 0.37259024E-01</totfact>
</mgrwt>
</event>
<event>
 6    1  0.6091287E-004  0.3141138E+04  0.7818608E-02  0.8204538E-01
         -2   -1    0    0    0  501 -0.00000000000E+00  0.00000000000E+00  0.10236172412E+04  0.10236172412E+04  0.00000000000E+00 0. -1.
          2   -1    0    0  501    0  0.00000000000E+00 -0.00000000000E+00 -0.24097743905E+04  0.24097743905E+04  0.00000000000E+00 0.  1.
         23    2    1    2    0    0  0.11485805236E+04 -0.93953215630E+03 -0.12515581414E+04  0.19434000931E+04  0.91914356752E+02 0.  0.
         13    1    3    3    0    0  0.26856428684E+03 -0.23642265714E+03 -0.35137025241E+03  0.50148130898E+03  0.00000000000E+00 0. -1.
        -13    1    3    3    0    0  0.88001623672E+03 -0.70310949916E+03 -0.90018788896E+03  0.14419187842E+04  0.00000000000E+00 0.  1.
         22    1    1    2    0    0 -0.11485805236E+04  0.93953215630E+03 -0.13459900793E+03  0.14899915385E+04  0.00000000000E+00 0.  1.
<mgrwt>
<rscale>  0 0.31411378E+04</rscale>
<asrwt>0</asrwt>
<pdfrwt beam="1">  1        2 0.37073452E+00 0.31411378E+04</pdfrwt>
<pdfrwt beam="2">  1       -2 0.15747958E+00 0.31411378E+04</pdfrwt>
<totfact> 0.87323376E-01</totfact>
</mgrwt>
</event>
<event>
 6    1  0.6091287E-004  0.2248508E+04  0.7818608E-02  0.8498505E-01
          2   -1    0    0  501    0  0.00000000000E+00  0.00000000000E+00  0.19671574415E+04  0.19671574415E+04  0.00000000000E+00 0.  1.
         -2   -1    0    0    0  501 -0.00000000000E+00 -0.00000000000E+00 -0.64252472035E+03  0.64252472035E+03  0.00000000000E+00 0. -1.
         23    2    1    2    0    0 -0.35507768176E+03 -0.27499179798E+03  0.18572821917E+04  0.19129640643E+04  0.90739863502E+02 0.  0.
         13    1    3    3    0    0 -0.25191685972E+03 -0.21813920716E+03  0.15071266673E+04  0.15435276509E+04  0.00000000000E+00 0. -1.
        -13    1    3    3    0    0 -0.10316082203E+03 -0.56852590820E+02  0.35015552443E+03  0.36943641344E+03  0.00000000000E+00 0.  1.
         22    1    1    2    0    0  0.35507768176E+03  0.27499179798E+03 -0.53264947049E+03  0.69671809755E+03  0.00000000000E+00 0. -1.
<mgrwt>
<rscale>  0 0.22485082E+04</rscale>
<asrwt>0</asrwt>
<pdfrwt beam="1">  1        2 0.30263960E+00 0.22485082E+04</pdfrwt>
<pdfrwt beam="2">  1       -2 0.98849958E-01 0.22485082E+04</pdfrwt>
<totfact> 0.53853583E+00</totfact>
</mgrwt>
</event>
<event>
 6    1  0.6091287E-004  0.2659740E+04  0.7818608E-02  0.8348187E-01
         -2   -1    0    0    0  501 -0.00000000000E+00  0.00000000000E+00  0.74224661460E+03  0.74224661460E+03  0.00000000000E+00 0. -1.
          2   -1    0    0  501    0  0.00000000000E+00 -0.00000000000E+00 -0.23827044253E+04  0.23827044253E+04  0.00000000000E+00 0.  1.
         23    2    1    2    0    0 -0.17491473511E+03 -0.12089229168E+04 -0.14342705194E+04  0.18861601042E+04  0.91532685737E+02 0.  0.
         13    1    3    3    0    0 -0.10151704595E+03 -0.79957602417E+03 -0.10081704214E+04  0.12907498315E+04  0.00000000000E+00 0. -1.
        -13    1    3    3    0    0 -0.73397689164E+02 -0.40934689260E+03 -0.42610009802E+03  0.59541027266E+03  0.00000000000E+00 0.  1.
         22    1    1    2    0    0  0.17491473511E+03  0.12089229168E+04 -0.20618729127E+03  0.12387909357E+04  0.00000000000E+00 0. -1.
<mgrwt>
<rscale>  0 0.26597401E+04</rscale>
<asrwt>0</asrwt>
<pdfrwt beam="1">  1        2 0.36656991E+00 0.26597401E+04</pdfrwt>
<pdfrwt beam="2">  1       -2 0.11419179E+00 0.26597401E+04</pdfrwt>
<totfact> 0.21472281E+00</totfact>
</mgrwt>
</event>
<event>
 6    1  0.6091287E-004  0.3361679E+04  0.7818608E-02  0.8147376E-01
          2   -1    0    0  501    0  0.00000000000E+00  0.00000000000E+00  0.29928947458E+04  0.29928947458E+04  0.00000000000E+00 0. -1.
         -2   -1    0    0    0  501 -0.00000000000E+00 -0.00000000000E+00 -0.94397603916E+03  0.94397603916E+03  0.00000000000E+00 0.  1.
         23    2    1    2    0    0 -0.65217193781E+02  0.16664995766E+04  0.79198127794E+03  0.18484824541E+04  0.90437366569E+02 0.  0.
         11    1    3    3    0    0  0.95589788862E+01  0.85148805363E+03  0.38788007834E+03  0.93572123772E+03  0.00000000000E+00 0. -1.
        -11    1    3    3    0    0 -0.74776172667E+02  0.81501152293E+03  0.40410119960E+03  0.91276121633E+03  0.00000000000E+00 0.  1.
         22    1    1    2    0    0  0.65217193781E+02 -0.16664995766E+04  0.12569374287E+04  0.20883883309E+04  0.00000000000E+00 0.  1.
<mgrwt>
<rscale>  0 0.33616787E+04</rscale>
<asrwt>0</asrwt>
<pdfrwt beam="1">  1        2 0.46044534E+00 0.33616787E+04</pdfrwt>
<pdfrwt beam="2">  1       -2 0.14522708E+00 0.33616787E+04</pdfrwt>
<totfact> 0.47670982E-01</totfact>
</mgrwt>
</event>
<event>
 6    1  0.6091287E-004  0.5898911E+03  0.7818608E-02  0.9926604E-01
         -1   -1    0    0    0  501 -0.00000000000E+00  0.00000000000E+00  0.58865810222E+02  0.58865810222E+02  0.00000000000E+00 0. -1.
          1   -1    0    0  501    0  0.00000000000E+00 -0.00000000000E+00 -0.14778167141E+04  0.14778167141E+04  0.00000000000E+00 0.  1.
         23    2    1    2    0    0  0.19090626235E+03 -0.99033630902E+02 -0.12246483116E+04  0.12468440203E+04  0.92755931034E+02 0.  0.
         13    1    3    3    0    0  0.94973847301E+02 -0.12704021284E+02 -0.70140298810E+03  0.70791777456E+03  0.00000000000E+00 0.  1.
        -13    1    3    3    0    0  0.95932415052E+02 -0.86329609618E+02 -0.52324532351E+03  0.53892624573E+03  0.00000000000E+00 0. -1.
         22    1    1    2    0    0 -0.19090626235E+03  0.99033630902E+02 -0.19430259225E+03  0.28983850401E+03  0.00000000000E+00 0. -1.
<mgrwt>
<rscale>  0 0.58989110E+03</rscale>
<asrwt>0</asrwt>
<pdfrwt beam="1">  1        1 0.22735640E+00 0.58989110E+03</pdfrwt>
<pdfrwt beam="2">  1       -1 0.90562791E-02 0.58989110E+03</pdfrwt>
<totfact> 0.51341266E+02</totfact>
</mgrwt>
</event>
<event>
 6    1  0.6091287E-004  0.3361408E+04  0.7818608E-02  0.8147444E-01
          2   -1    0    0  501    0  0.00000000000E+00  0.00000000000E+00  0.24762431462E+04  0.24762431462E+04  0.00000000000E+00 0.  1.
         -2   -1    0    0    0  501 -0.00000000000E+00 -0.00000000000E+00 -0.11407466753E+04  0.11407466753E+04  0.00000000000E+00 0. -1.
         23    2    1    2    0    0  0.33278063851E+03  0.11253734050E+04  0.19610723235E+04  0.22871201281E+04  0.88913263354E+02 0.  0.
         13    1    3    3    0    0  0.95115688874E+02  0.47321566527E+03  0.82008520576E+03  0.95158804366E+03  0.00000000000E+00 0. -1.
        -13    1    3    3    0    0  0.23766494963E+03  0.65215773969E+03  0.11409871178E+04  0.13355320845E+04  0.00000000000E+00 0.  1.
         22    1    1    2    0    0 -0.33278063851E+03 -0.11253734050E+04 -0.62557585266E+03  0.13298696934E+04  0.00000000000E+00 0. -1.
<mgrwt>
<rscale>  0 0.33614081E+04</rscale>
<asrwt>0</asrwt>
<pdfrwt beam="1">  1        2 0.38096048E+00 0.33614081E+04</pdfrwt>
<pdfrwt beam="2">  1       -2 0.17549949E+00 0.33614081E+04</pdfrwt>
<totfact> 0.58191068E-01</totfact>
</mgrwt>
</event>
<event>
 6    1  0.6091287E-004  0.4013844E+04  0.7818608E-02  0.8001760E-01
          2   -1    0    0  501    0  0.00000000000E+00  0.00000000000E+00  0.40213330217E+04  0.40213330217E+04  0.00000000000E+00 0.  1.
         -2   -1    0    0    0  501 -0.00000000000E+00 -0.00000000000E+00 -0.10015922211E+04  0.10015922211E+04  0.00000000000E+00 0. -1.
         23    2    1    2    0    0 -0.11911122634E+04 -0.57215015564E+03 -0.37788334834E+03  0.13773863139E+04  0.91065954723E+02 0.  0.
         13    1    3    3    0    0 -0.31510300024E+03 -0.17975325948E+03 -0.71067245007E+02  0.36966429144E+03  0.00000000000E+00 0. -1.
        -13    1    3    3    0    0 -0.87600926315E+03 -0.39239689616E+03 -0.30681610333E+03  0.10077220224E+04  0.00000000000E+00 0.  1.
         22    1    1    2    0    0  0.11911122634E+04  0.57215015564E+03  0.33976241490E+04  0.36455389289E+04  0.00000000000E+00 0.  1.
<mgrwt>
<rscale>  0 0.40138440E+04</rscale>
<asrwt>0</asrwt>
<pdfrwt beam="1">  1        2 0.61866661E+00 0.40138440E+04</pdfrwt>
<pdfrwt beam="2">  1       -2 0.15409111E+00 0.40138440E+04</pdfrwt>
<totfact> 0.71967258E-02</totfact>
</mgrwt>
</event>
<event>
 6    1  0.6091287E-004  0.1247324E+04  0.7818608E-02  0.9072413E-01
         -2   -1    0    0    0  501 -0.00000000000E+00  0.00000000000E+00  0.97821935812E+03  0.97821935812E+03  0.00000000000E+00 0. -1.
          2   -1    0    0  501    0  0.00000000000E+00 -0.00000000000E+00 -0.39761465972E+03  0.39761465972E+03  0.00000000000E+00 0.  1.
         23    2    1    2    0    0  0.46236650067E+03  0.23198179070E+03 -0.85848877388E+02  0.53217608904E+03  0.90791122076E+02 0.  0.
         13    1    3    3    0    0  0.40689815144E+03  0.21871161612E+03 -0.10162760709E+03  0.47300004989E+03  0.00000000000E+00 0. -1.
        -13    1    3    3    0    0  0.55468349223E+02  0.13270174582E+02  0.15778729704E+02  0.59176039154E+02  0.00000000000E+00 0.  1.
         22    1    1    2    0    0 -0.46236650067E+03 -0.23198179070E+03  0.66645357578E+03  0.84365792880E+03  0.00000000000E+00 0. -1.
<mgrwt>
<rscale>  0 0.12473241E+04</rscale>
<asrwt>0</asrwt>
<pdfrwt beam="1">  1        2 0.61171486E-01 0.12473241E+04</pdfrwt>
<pdfrwt beam="2">  1       -2 0.15049529E+00 0.12473241E+04</pdfrwt>
<totfact> 0.23365244E+01</totfact>
</mgrwt>
</event>
<event>
 6    1  0.6091287E-004  0.1647199E+04  0.7818608E-02  0.8792065E-01
         -2   -1    0    0    0  501 -0.00000000000E+00  0.00000000000E+00  0.45255436545E+03  0.45255436545E+03  0.00000000000E+00 0. -1.
          2   -1    0    0  501    0  0.00000000000E+00 -0.00000000000E+00 -0.14988608452E+04  0.14988608452E+04  0.00000000000E+00 0.  1.
         23    2    1    2    0    0 -0.24010320419E+03  0.75452683062E+03 -0.77395452674E+03  0.11140766452E+04  0.12329182933E+03 0.  0.
         11    1    3    3    0    0 -0.73474595429E+02  0.42000177506E+03 -0.44330057202E+03  0.61507349510E+03  0.00000000000E+00 0.  1.
        -11    1    3    3    0    0 -0.16662860876E+03  0.33452505557E+03 -0.33065395472E+03  0.49900315012E+03  0.00000000000E+00 0. -1.
         22    1    1    2    0    0  0.24010320419E+03 -0.75452683062E+03 -0.27235195298E+03  0.83733856539E+03  0.00000000000E+00 0. -1.
<mgrwt>
<rscale>  0 0.16471989E+04</rscale>
<asrwt>0</asrwt>
<pdfrwt beam="1">  1        2 0.23059398E+00 0.16471989E+04</pdfrwt>
<pdfrwt beam="2">  1       -2 0.69623747E-01 0.16471989E+04</pdfrwt>
<totfact> 0.22845257E+01</totfact>
</mgrwt>
</event>
<event>
 6    1  0.8524591E-004  0.2801491E+04  0.7818608E-02  0.8302806E-01
          2   -1    0    0  501    0  0.00000000000E+00  0.00000000000E+00  0.12774829879E+04  0.12774829879E+04  0.00000000000E+00 0.  1.
         -2   -1    0    0    0  501 -0.00000000000E+00 -0.00000000000E+00 -0.15359017815E+04  0.15359017815E+04  0.00000000000E+00 0. -1.
         23    2    1    2    0    0 -0.60747174208E+03 -0.64671830232E+03  0.95721383761E+03  0.13083833827E+04  0.91336002260E+02 0.  0.
         11    1    3    3    0    0 -0.23282772314E+03 -0.28175535767E+03  0.33794047464E+03  0.49779372700E+03  0.00000000000E+00 0. -1.
        -11    1    3    3    0    0 -0.37464401894E+03 -0.36496294465E+03  0.61927336296E+03  0.81058965573E+03  0.00000000000E+00 0.  1.
         22    1    1    2    0    0  0.60747174208E+03  0.64671830232E+03 -0.12156326312E+04  0.15050013867E+04  0.00000000000E+00 0. -1.
<mgrwt>
<rscale>  0 0.28014913E+04</rscale>
<asrwt>0</asrwt>
<pdfrwt beam="1">  1        2 0.19653585E+00 0.28014913E+04</pdfrwt>
<pdfrwt beam="2">  1       -2 0.23629258E+00 0.28014913E+04</pdfrwt>
<totfact> 0.11580446E+00</totfact>
</mgrwt>
</event>
<event>
 6    1  0.6091287E-004  0.3793938E+04  0.7818608E-02  0.8047457E-01
         -2   -1    0    0    0  501 -0.00000000000E+00  0.00000000000E+00  0.10771255313E+04  0.10771255313E+04  0.00000000000E+00 0. -1.
          2   -1    0    0  501    0  0.00000000000E+00 -0.00000000000E+00 -0.33408280518E+04  0.33408280518E+04  0.00000000000E+00 0.  1.
         23    2    1    2    0    0 -0.27810313965E+03 -0.65678566074E+03 -0.31780134371E+04  0.32583531292E+04  0.91580283387E+02 0.  0.
         13    1    3    3    0    0 -0.54234842901E+02 -0.16101477782E+03 -0.93572708636E+03  0.95102700120E+03  0.00000000000E+00 0.  1.
        -13    1    3    3    0    0 -0.22386829675E+03 -0.49577088292E+03 -0.22422863507E+04  0.23073261280E+04  0.00000000000E+00 0. -1.
         22    1    1    2    0    0  0.27810313965E+03  0.65678566074E+03  0.91431091659E+03  0.11596004539E+04  0.00000000000E+00 0. -1.
<mgrwt>
<rscale>  0 0.37939379E+04</rscale>
<asrwt>0</asrwt>
<pdfrwt beam="1">  1        2 0.51397354E+00 0.37939379E+04</pdfrwt>
<pdfrwt beam="2">  1       -2 0.16571162E+00 0.37939379E+04</pdfrwt>
<totfact> 0.19167414E-01</totfact>
</mgrwt>
</event>
<event>
 6    1  0.6091287E-004  0.8394711E+03  0.7818608E-02  0.9504578E-01
         -2   -1    0    0    0  501 -0.00000000000E+00  0.00000000000E+00  0.65226926640E+02  0.65226926640E+02  0.00000000000E+00 0. -1.
          2   -1    0    0  501    0  0.00000000000E+00 -0.00000000000E+00 -0.27010002308E+04  0.27010002308E+04  0.00000000000E+00 0.  1.
         23    2    1    2    0    0  0.25628251609E+03  0.32385914017E+03 -0.14551175293E+04  0.15154220049E+04  0.92581630743E+02 0.  0.
         11    1    3    3    0    0  0.18455071387E+03  0.24784980251E+03 -0.92965588339E+03  0.97966757225E+03  0.00000000000E+00 0. -1.
        -11    1    3    3    0    0  0.71731802222E+02  0.76009337663E+02 -0.52546164586E+03  0.53575443268E+03  0.00000000000E+00 0.  1.
         22    1    1    2    0    0 -0.25628251609E+03 -0.32385914017E+03 -0.11806557749E+04  0.12508051525E+04  0.00000000000E+00 0. -1.
<mgrwt>
<rscale>  0 0.83947113E+03</rscale>
<asrwt>0</asrwt>
<pdfrwt beam="1">  1        2 0.41553852E+00 0.83947113E+03</pdfrwt>
<pdfrwt beam="2">  1       -2 0.10034911E-01 0.83947113E+03</pdfrwt>
<totfact> 0.18732735E+02</totfact>
</mgrwt>
</event>
<event>
 6    1  0.6091287E-004  0.1338790E+04  0.7818608E-02  0.8999357E-01
          2   -1    0    0  501    0  0.00000000000E+00  0.00000000000E+00  0.66284398257E+03  0.66284398257E+03  0.00000000000E+00 0.  1.
         -2   -1    0    0    0  501 -0.00000000000E+00 -0.00000000000E+00 -0.67601125151E+03  0.67601125151E+03  0.00000000000E+00 0. -1.
         23    2    1    2    0    0 -0.34105018969E+03 -0.16882910070E+03  0.54035693669E+03  0.66713539415E+03  0.90914894123E+02 0.  0.
         13    1    3    3    0    0 -0.30162908788E+03 -0.15701695834E+03  0.42278576171E+03  0.54257002513E+03  0.00000000000E+00 0. -1.
        -13    1    3    3    0    0 -0.39421101809E+02 -0.11812142364E+02  0.11757117497E+03  0.12456536902E+03  0.00000000000E+00 0.  1.
         22    1    1    2    0    0  0.34105018969E+03  0.16882910070E+03 -0.55352420563E+03  0.67171983992E+03  0.00000000000E+00 0. -1.
<mgrwt>
<rscale>  0 0.13387905E+04</rscale>
<asrwt>0</asrwt>
<pdfrwt beam="1">  1        2 0.10197600E+00 0.13387905E+04</pdfrwt>
<pdfrwt beam="2">  1       -2 0.10400173E+00 0.13387905E+04</pdfrwt>
<totfact> 0.32269352E+01</totfact>
</mgrwt>
</event>
<event>
 6    1  0.6091287E-004  0.2501799E+04  0.7818608E-02  0.8402345E-01
         -2   -1    0    0    0  501 -0.00000000000E+00  0.00000000000E+00  0.45968966188E+03  0.45968966188E+03  0.00000000000E+00 0. -1.
          2   -1    0    0  501    0  0.00000000000E+00 -0.00000000000E+00 -0.34039246860E+04  0.34039246860E+04  0.00000000000E+00 0.  1.
         23    2    1    2    0    0 -0.82116123025E+03 -0.41654297553E+03 -0.17025811291E+03  0.94081402619E+03  0.91265493689E+02 0.  0.
         11    1    3    3    0    0 -0.54407774701E+03 -0.24153512398E+03 -0.78127733774E+02  0.60038633703E+03  0.00000000000E+00 0. -1.
        -11    1    3    3    0    0 -0.27708348324E+03 -0.17500785155E+03 -0.92130379132E+02  0.34042768916E+03  0.00000000000E+00 0.  1.
         22    1    1    2    0    0  0.82116123025E+03  0.41654297553E+03 -0.27739769112E+04  0.29228003217E+04  0.00000000000E+00 0.  1.
<mgrwt>
<rscale>  0 0.25017985E+04</rscale>
<asrwt>0</asrwt>
<pdfrwt beam="1">  1        2 0.52368070E+00 0.25017985E+04</pdfrwt>
<pdfrwt beam="2">  1       -2 0.70721489E-01 0.25017985E+04</pdfrwt>
<totfact> 0.15373823E+00</totfact>
</mgrwt>
</event>
<event>
 6    1  0.6091287E-004  0.1043402E+04  0.7818608E-02  0.9262182E-01
         -2   -1    0    0    0  501 -0.00000000000E+00  0.00000000000E+00  0.25580382897E+03  0.25580382897E+03  0.00000000000E+00 0. -1.
          2   -1    0    0  501    0  0.00000000000E+00 -0.00000000000E+00 -0.10639878419E+04  0.10639878419E+04  0.00000000000E+00 0.  1.
         23    2    1    2    0    0 -0.23242426083E+03  0.32642575726E+02 -0.99054844150E+03  0.10225655624E+04  0.96786050605E+02 0.  0.
         13    1    3    3    0    0 -0.96874914516E+02  0.57025502170E+02 -0.35961706707E+03  0.37677724439E+03  0.00000000000E+00 0. -1.
        -13    1    3    3    0    0 -0.13554934632E+03 -0.24382926444E+02 -0.63093137443E+03  0.64578831798E+03  0.00000000000E+00 0.  1.
         22    1    1    2    0    0  0.23242426083E+03 -0.32642575726E+02  0.18236442857E+03  0.29722610851E+03  0.00000000000E+00 0. -1.
<mgrwt>
<rscale>  0 0.10434024E+04</rscale>
<asrwt>0</asrwt>
<pdfrwt beam="1">  1        2 0.16369044E+00 0.10434024E+04</pdfrwt>
<pdfrwt beam="2">  1       -2 0.39354435E-01 0.10434024E+04</pdfrwt>
<totfact> 0.13938706E+02</totfact>
</mgrwt>
</event>
<event>
 6    1  0.6091287E-004  0.1826987E+04  0.7818608E-02  0.8692078E-01
          2   -1    0    0  501    0  0.00000000000E+00  0.00000000000E+00  0.29799639686E+04  0.29799639686E+04  0.00000000000E+00 0.  1.
         -2   -1    0    0    0  501 -0.00000000000E+00 -0.00000000000E+00 -0.28002700334E+03  0.28002700334E+03  0.00000000000E+00 0. -1.
         23    2    1    2    0    0  0.73165839154E+03 -0.18740646168E+03  0.22628161872E+04  0.23873399773E+04  0.92789474144E+02 0.  0.
         11    1    3    3    0    0  0.59167944709E+03 -0.14272071040E+03  0.17005319727E+04  0.18061735131E+04  0.00000000000E+00 0. -1.
        -11    1    3    3    0    0  0.13997894445E+03 -0.44685751281E+02  0.56228421452E+03  0.58116646424E+03  0.00000000000E+00 0.  1.
         22    1    1    2    0    0 -0.73165839154E+03  0.18740646168E+03  0.43712077808E+03  0.87265099463E+03  0.00000000000E+00 0. -1.
<mgrwt>
<rscale>  0 0.18269870E+04</rscale>
<asrwt>0</asrwt>
<pdfrwt beam="1">  1        2 0.45845597E+00 0.18269870E+04</pdfrwt>
<pdfrwt beam="2">  1       -2 0.43081080E-01 0.18269870E+04</pdfrwt>
<totfact> 0.86548450E+00</totfact>
</mgrwt>
</event>
<event>
 6    1  0.6091287E-004  0.1647813E+04  0.7818608E-02  0.8791701E-01
          2   -1    0    0  501    0  0.00000000000E+00  0.00000000000E+00  0.98129085199E+03  0.98129085199E+03  0.00000000000E+00 0.  1.
         -2   -1    0    0    0  501 -0.00000000000E+00 -0.00000000000E+00 -0.69176435552E+03  0.69176435552E+03  0.00000000000E+00 0. -1.
         23    2    1    2    0    0  0.42816937483E+03  0.54881618835E+03 -0.29642533141E+03  0.76318281715E+03  0.10025873106E+03 0.  0.
         11    1    3    3    0    0  0.41629257744E+03  0.49117676123E+03 -0.26299555076E+03  0.69550038140E+03  0.00000000000E+00 0. -1.
        -11    1    3    3    0    0  0.11876797389E+02  0.57639427121E+02 -0.33429780654E+02  0.67682435754E+02  0.00000000000E+00 0.  1.
         22    1    1    2    0    0 -0.42816937483E+03 -0.54881618835E+03  0.58595182788E+03  0.90987239036E+03  0.00000000000E+00 0.  1.
<mgrwt>
<rscale>  0 0.16478131E+04</rscale>
<asrwt>0</asrwt>
<pdfrwt beam="1">  1        2 0.15096782E+00 0.16478131E+04</pdfrwt>
<pdfrwt beam="2">  1       -2 0.10642528E+00 0.16478131E+04</pdfrwt>
<totfact> 0.17611837E+01</totfact>
</mgrwt>
</event>
<event>
 6    1  0.6091287E-004  0.1721872E+04  0.7818608E-02  0.8748987E-01
         -2   -1    0    0    0  501 -0.00000000000E+00  0.00000000000E+00  0.12488914282E+04  0.12488914282E+04  0.00000000000E+00 0. -1.
          2   -1    0    0  501    0  0.00000000000E+00 -0.00000000000E+00 -0.59349489820E+03  0.59349489820E+03  0.00000000000E+00 0.  1.
         23    2    1    2    0    0 -0.25619065787E+03 -0.32433777877E+03  0.11338878888E+04  0.12101026651E+04  0.88419838991E+02 0.  0.
         11    1    3    3    0    0 -0.10254860258E+03 -0.65582194525E+02  0.32326786121E+03  0.34542633111E+03  0.00000000000E+00 0. -1.
        -11    1    3    3    0    0 -0.15364205529E+03 -0.25875558425E+03  0.81062002758E+03  0.86467633404E+03  0.00000000000E+00 0.  1.
         22    1    1    2    0    0  0.25619065787E+03  0.32433777877E+03 -0.47849135876E+03  0.63228366128E+03  0.00000000000E+00 0.  1.
<mgrwt>
<rscale>  0 0.17218719E+04</rscale>
<asrwt>0</asrwt>
<pdfrwt beam="1">  1        2 0.91306908E-01 0.17218719E+04</pdfrwt>
<pdfrwt beam="2">  1       -2 0.19213714E+00 0.17218719E+04</pdfrwt>
<totfact> 0.71529960E+00</totfact>
</mgrwt>
</event>
<event>
 6    1  0.6091287E-004  0.2379822E+04  0.7818608E-02  0.8447097E-01
          2   -1    0    0  501    0  0.00000000000E+00  0.00000000000E+00  0.30995361516E+04  0.30995361516E+04  0.00000000000E+00 0.  1.
         -2   -1    0    0    0  501 -0.00000000000E+00 -0.00000000000E+00 -0.45680658605E+03  0.45680658605E+03  0.00000000000E+00 0. -1.
         23    2    1    2    0    0  0.70794692072E+03 -0.92567942915E+03  0.16687079800E+04  0.20375309332E+04  0.94205803035E+02 0.  0.
         13    1    3    3    0    0  0.42581724440E+03 -0.63059902016E+03  0.10823339980E+04  0.13230352728E+04  0.00000000000E+00 0. -1.
        -13    1    3    3    0    0  0.28212967632E+03 -0.29508040899E+03  0.58637398191E+03  0.71449566037E+03  0.00000000000E+00 0.  1.
         22    1    1    2    0    0 -0.70794692072E+03  0.92567942915E+03  0.97402158562E+03  0.15188118045E+04  0.00000000000E+00 0. -1.
<mgrwt>
<rscale>  0 0.23798223E+04</rscale>
<asrwt>0</asrwt>
<pdfrwt beam="1">  1        2 0.47685170E+00 0.23798223E+04</pdfrwt>
<pdfrwt beam="2">  1       -2 0.70277938E-01 0.23798223E+04</pdfrwt>
<totfact> 0.25015299E+00</totfact>
</mgrwt>
</event>
<event>
 6    1  0.6091287E-004  0.3761557E+04  0.7818608E-02  0.8054455E-01
         -2   -1    0    0    0  501 -0.00000000000E+00  0.00000000000E+00  0.18014454712E+04  0.18014454712E+04  0.00000000000E+00 0. -1.
          2   -1    0    0  501    0  0.00000000000E+00 -0.00000000000E+00 -0.19636051883E+04  0.19636051883E+04  0.00000000000E+00 0.  1.
         23    2    1    2    0    0 -0.12903496884E+04 -0.44802503689E+03  0.12116813822E+04  0.18277411545E+04  0.82080471413E+02 0.  0.
         13    1    3    3    0    0 -0.65751824066E+03 -0.27135937587E+03  0.63679864982E+03  0.95471391950E+03  0.00000000000E+00 0.  1.
        -13    1    3    3    0    0 -0.63283144779E+03 -0.17666566101E+03  0.57488273236E+03  0.87302723500E+03  0.00000000000E+00 0. -1.
         22    1    1    2    0    0  0.12903496884E+04  0.44802503689E+03 -0.13738410993E+04  0.19373095050E+04  0.00000000000E+00 0.  1.
<mgrwt>
<rscale>  0 0.37615570E+04</rscale>
<asrwt>0</asrwt>
<pdfrwt beam="1">  1        2 0.30209310E+00 0.37615570E+04</pdfrwt>
<pdfrwt beam="2">  1       -2 0.27714546E+00 0.37615570E+04</pdfrwt>
<totfact> 0.24682391E-01</totfact>
</mgrwt>
</event>
<event>
 6    1  0.6091287E-004  0.2520007E+04  0.7818608E-02  0.8395892E-01
          2   -1    0    0  501    0  0.00000000000E+00  0.00000000000E+00  0.37702376640E+04  0.37702376640E+04  0.00000000000E+00 0.  1.
         -2   -1    0    0    0  501 -0.00000000000E+00 -0.00000000000E+00 -0.42108999441E+03  0.42108999441E+03  0.00000000000E+00 0. -1.
         23    2    1    2    0    0  0.10473527928E+04 -0.46034328346E+03  0.25482998813E+04  0.27948245287E+04  0.91367665012E+02 0.  0.
         11    1    3    3    0    0  0.12333740308E+03 -0.29546963132E+02  0.24145104425E+03  0.27273383508E+03  0.00000000000E+00 0. -1.
        -11    1    3    3    0    0  0.92401538973E+03 -0.43079632033E+03  0.23068488370E+04  0.25220906936E+04  0.00000000000E+00 0.  1.
         22    1    1    2    0    0 -0.10473527928E+04  0.46034328346E+03  0.80084778836E+03  0.13965031297E+04  0.00000000000E+00 0. -1.
<mgrwt>
<rscale>  0 0.25200074E+04</rscale>
<asrwt>0</asrwt>
<pdfrwt beam="1">  1        2 0.58003654E+00 0.25200074E+04</pdfrwt>
<pdfrwt beam="2">  1       -2 0.64783079E-01 0.25200074E+04</pdfrwt>
<totfact> 0.10150344E+00</totfact>
</mgrwt>
</event>
<event>
 6    1  0.6091287E-004  0.2635282E+04  0.7818608E-02  0.8356315E-01
         -2   -1    0    0    0  501 -0.00000000000E+00  0.00000000000E+00  0.16597817131E+04  0.16597817131E+04  0.00000000000E+00 0. -1.
          2   -1    0    0  501    0  0.00000000000E+00 -0.00000000000E+00 -0.10460276274E+04  0.10460276274E+04  0.00000000000E+00 0.  1.
         23    2    1    2    0    0  0.24711717285E+03 -0.32828442729E+03 -0.97655691461E+03  0.10632726926E+04  0.89709804408E+02 0.  0.
         11    1    3    3    0    0  0.58628642176E+02 -0.13240739635E+03 -0.41132514333E+03  0.43607041843E+03  0.00000000000E+00 0. -1.
        -11    1    3    3    0    0  0.18848853067E+03 -0.19587703094E+03 -0.56523177128E+03  0.62720227416E+03  0.00000000000E+00 0.  1.
         22    1    1    2    0    0 -0.24711717285E+03  0.32828442729E+03  0.15903110003E+04  0.16425366480E+04  0.00000000000E+00 0. -1.
<mgrwt>
<rscale>  0 0.26352818E+04</rscale>
<asrwt>0</asrwt>
<pdfrwt beam="1">  1        2 0.16092733E+00 0.26352818E+04</pdfrwt>
<pdfrwt beam="2">  1       -2 0.25535103E+00 0.26352818E+04</pdfrwt>
<totfact> 0.12370178E+00</totfact>
</mgrwt>
</event>
<event>
 6    1  0.6091287E-004  0.2844745E+04  0.7818608E-02  0.8289510E-01
         -2   -1    0    0    0  501 -0.00000000000E+00  0.00000000000E+00  0.49225805187E+03  0.49225805187E+03  0.00000000000E+00 0. -1.
          2   -1    0    0  501    0  0.00000000000E+00 -0.00000000000E+00 -0.41099259616E+04  0.41099259616E+04  0.00000000000E+00 0.  1.
         23    2    1    2    0    0  0.46962167802E+03  0.65586870525E+03  0.81844791550E+02  0.81574736328E+03  0.89648824810E+02 0.  0.
         13    1    3    3    0    0  0.21891095519E+03  0.35938635472E+03  0.74816400085E+02  0.42740853055E+03  0.00000000000E+00 0.  1.
        -13    1    3    3    0    0  0.25071072283E+03  0.29648235053E+03  0.70283914653E+01  0.38833883273E+03  0.00000000000E+00 0. -1.
         22    1    1    2    0    0 -0.46962167802E+03 -0.65586870525E+03 -0.36995127013E+04  0.37864366502E+04  0.00000000000E+00 0.  1.
<mgrwt>
<rscale>  0 0.28447454E+04</rscale>
<asrwt>0</asrwt>
<pdfrwt beam="1">  1        2 0.63229632E+00 0.28447454E+04</pdfrwt>
<pdfrwt beam="2">  1       -2 0.75732006E-01 0.28447454E+04</pdfrwt>
<totfact> 0.37634010E-01</totfact>
</mgrwt>
</event>
<event>
 6    1  0.6091287E-004  0.2914118E+04  0.7818608E-02  0.8268689E-01
         -1   -1    0    0    0  501 -0.00000000000E+00  0.00000000000E+00  0.68877521897E+03  0.68877521897E+03  0.00000000000E+00 0. -1.
          1   -1    0    0  501    0  0.00000000000E+00 -0.00000000000E+00 -0.30823139392E+04  0.30823139392E+04  0.00000000000E+00 0.  1.
         23    2    1    2    0    0 -0.12469436754E+04 -0.65835592795E+03 -0.16657264081E+04  0.21842647132E+04  0.89815439963E+02 0.  0.
         13    1    3    3    0    0 -0.65452310608E+03 -0.31437080015E+03 -0.91177263384E+03  0.11655723196E+04  0.00000000000E+00 0.  1.
        -13    1    3    3    0    0 -0.59242056929E+03 -0.34398512780E+03 -0.75395377429E+03  0.10186923936E+04  0.00000000000E+00 0. -1.
         22    1    1    2    0    0  0.12469436754E+04  0.65835592795E+03 -0.72781231211E+03  0.15868244449E+04  0.00000000000E+00 0. -1.
<mgrwt>
<rscale>  0 0.29141184E+04</rscale>
<asrwt>0</asrwt>
<pdfrwt beam="1">  1        1 0.47420214E+00 0.29141184E+04</pdfrwt>
<pdfrwt beam="2">  1       -1 0.10596542E+00 0.29141184E+04</pdfrwt>
<totfact> 0.37130592E-01</totfact>
</mgrwt>
</event>
<event>
 6    1  0.6091287E-004  0.1765590E+04  0.7818608E-02  0.8724815E-01
         -2   -1    0    0    0  501 -0.00000000000E+00  0.00000000000E+00  0.64113761976E+03  0.64113761976E+03  0.00000000000E+00 0. -1.
          2   -1    0    0  501    0  0.00000000000E+00 -0.00000000000E+00 -0.12155384691E+04  0.12155384691E+04  0.00000000000E+00 0.  1.
         23    2    1    2    0    0 -0.23279062831E+02 -0.34091937757E+03 -0.11412593599E+04  0.11947874971E+04  0.90974170978E+02 0.  0.
         13    1    3    3    0    0  0.30057066722E+02 -0.18535257600E+03 -0.66083815092E+03  0.68699786492E+03  0.00000000000E+00 0.  1.
        -13    1    3    3    0    0 -0.53336129553E+02 -0.15556680158E+03 -0.48042120901E+03  0.50778963217E+03  0.00000000000E+00 0. -1.
         22    1    1    2    0    0  0.23279062831E+02  0.34091937757E+03  0.56685851064E+03  0.66188859173E+03  0.00000000000E+00 0. -1.
<mgrwt>
<rscale>  0 0.17655905E+04</rscale>
<asrwt>0</asrwt>
<pdfrwt beam="1">  1        2 0.18700592E+00 0.17655905E+04</pdfrwt>
<pdfrwt beam="2">  1       -2 0.98636557E-01 0.17655905E+04</pdfrwt>
<totfact> 0.14978503E+01</totfact>
</mgrwt>
</event>
<event>
 6    1  0.6091287E-004  0.3249737E+04  0.7818608E-02  0.8175804E-01
          2   -1    0    0  501    0  0.00000000000E+00  0.00000000000E+00  0.28890885051E+04  0.28890885051E+04  0.00000000000E+00 0.  1.
         -2   -1    0    0    0  501 -0.00000000000E+00 -0.00000000000E+00 -0.91385141104E+03  0.91385141104E+03  0.00000000000E+00 0. -1.
         23    2    1    2    0    0 -0.45314169647E+03 -0.13556705796E+04  0.18895142991E+04  0.23709732562E+04  0.89831941641E+02 0.  0.
         13    1    3    3    0    0 -0.22166939785E+03 -0.79710434135E+03  0.10703402526E+04  0.13528270064E+04  0.00000000000E+00 0.  1.
        -13    1    3    3    0    0 -0.23147229862E+03 -0.55856623826E+03  0.81917404650E+03  0.10181462498E+04  0.00000000000E+00 0. -1.
         22    1    1    2    0    0  0.45314169647E+03  0.13556705796E+04  0.85722794954E+02  0.14319666599E+04  0.00000000000E+00 0. -1.
<mgrwt>
<rscale>  0 0.32497370E+04</rscale>
<asrwt>0</asrwt>
<pdfrwt beam="1">  1        2 0.44447515E+00 0.32497370E+04</pdfrwt>
<pdfrwt beam="2">  1       -2 0.14059253E+00 0.32497370E+04</pdfrwt>
<totfact> 0.60748805E-01</totfact>
</mgrwt>
</event>
<event>
 6    1  0.6091287E-004  0.3248323E+04  0.7818608E-02  0.8176170E-01
         -2   -1    0    0    0  501 -0.00000000000E+00  0.00000000000E+00  0.10800220724E+04  0.10800220724E+04  0.00000000000E+00 0. -1.
          2   -1    0    0  501    0  0.00000000000E+00 -0.00000000000E+00 -0.24424508386E+04  0.24424508386E+04  0.00000000000E+00 0.  1.
         23    2    1    2    0    0 -0.74318330913E+03 -0.98248360762E+02  0.87917670587E+03  0.11588381541E+04  0.89330934884E+02 0.  0.
         13    1    3    3    0    0 -0.24482770557E+03 -0.74496618698E+02  0.30793352527E+03  0.40039156784E+03  0.00000000000E+00 0. -1.
        -13    1    3    3    0    0 -0.49835560357E+03 -0.23751742064E+02  0.57124318060E+03  0.75844658628E+03  0.00000000000E+00 0.  1.
         22    1    1    2    0    0  0.74318330913E+03  0.98248360762E+02 -0.22416054720E+04  0.23636347568E+04  0.00000000000E+00 0.  1.
<mgrwt>
<rscale>  0 0.32483231E+04</rscale>
<asrwt>0</asrwt>
<pdfrwt beam="1">  1        2 0.37576166E+00 0.32483231E+04</pdfrwt>
<pdfrwt beam="2">  1       -2 0.16615724E+00 0.32483231E+04</pdfrwt>
<totfact> 0.71574271E-01</totfact>
</mgrwt>
</event>
<event>
 6    1  0.9584042E-004  0.4563623E+04  0.7818608E-02  0.7899592E-01
         -2   -1    0    0    0  501 -0.00000000000E+00  0.00000000000E+00  0.23647017632E+04  0.23647017632E+04  0.00000000000E+00 0. -1.
          2   -1    0    0  501    0  0.00000000000E+00 -0.00000000000E+00 -0.22018267469E+04  0.22018267469E+04  0.00000000000E+00 0.  1.
         23    2    1    2    0    0 -0.57109730268E+03 -0.22004290277E+04  0.26617030988E+03  0.22908505994E+04  0.95445271275E+02 0.  0.
         13    1    3    3    0    0 -0.24518803900E+03 -0.78180863404E+03  0.75135119929E+02  0.82279231947E+03  0.00000000000E+00 0. -1.
        -13    1    3    3    0    0 -0.32590926368E+03 -0.14186203937E+04  0.19103518995E+03  0.14680582800E+04  0.00000000000E+00 0.  1.
         22    1    1    2    0    0  0.57109730268E+03  0.22004290277E+04 -0.10329529354E+03  0.22756779106E+04  0.00000000000E+00 0.  1.
<mgrwt>
<rscale>  0 0.45636229E+04</rscale>
<asrwt>0</asrwt>
<pdfrwt beam="1">  1        2 0.33874257E+00 0.45636229E+04</pdfrwt>
<pdfrwt beam="2">  1       -2 0.36380027E+00 0.45636229E+04</pdfrwt>
<totfact> 0.49393147E-02</totfact>
</mgrwt>
</event>
<event>
 6    1  0.6091287E-004  0.3110291E+04  0.7818608E-02  0.8212919E-01
         -2   -1    0    0    0  501 -0.00000000000E+00  0.00000000000E+00  0.13439192087E+04  0.13439192087E+04  0.00000000000E+00 0. -1.
          2   -1    0    0  501    0  0.00000000000E+00 -0.00000000000E+00 -0.17995708935E+04  0.17995708935E+04  0.00000000000E+00 0.  1.
         23    2    1    2    0    0 -0.45794819589E+03  0.51484776171E+03 -0.16347208783E+04  0.17778441265E+04  0.11675881294E+03 0.  0.
         13    1    3    3    0    0 -0.34519749107E+03  0.39878149975E+03 -0.13643395179E+04  0.14627406853E+04  0.00000000000E+00 0. -1.
        -13    1    3    3    0    0 -0.11275070483E+03  0.11606626196E+03 -0.27038136033E+03  0.31510344114E+03  0.00000000000E+00 0.  1.
         22    1    1    2    0    0  0.45794819589E+03 -0.51484776171E+03  0.11790691935E+04  0.13656459757E+04  0.00000000000E+00 0. -1.
<mgrwt>
<rscale>  0 0.31102912E+04</rscale>
<asrwt>0</asrwt>
<pdfrwt beam="1">  1        2 0.27685706E+00 0.31102912E+04</pdfrwt>
<pdfrwt beam="2">  1       -2 0.20675680E+00 0.31102912E+04</pdfrwt>
<totfact> 0.88015178E-01</totfact>
</mgrwt>
</event>
<event>
 6    1  0.6091287E-004  0.3186305E+04  0.7818608E-02  0.8192443E-01
          2   -1    0    0  501    0  0.00000000000E+00  0.00000000000E+00  0.36601782065E+04  0.36601782065E+04  0.00000000000E+00 0.  1.
         -2   -1    0    0    0  501 -0.00000000000E+00 -0.00000000000E+00 -0.69344588174E+03  0.69344588174E+03  0.00000000000E+00 0. -1.
         23    2    1    2    0    0  0.11970829963E+04 -0.47815122925E+03  0.20864139231E+03  0.13091698038E+04  0.93584435196E+02 0.  0.
         13    1    3    3    0    0  0.37308512249E+03 -0.13936333724E+03  0.21788485601E+02  0.39886010893E+03  0.00000000000E+00 0.  1.
        -13    1    3    3    0    0  0.82399787385E+03 -0.33878789201E+03  0.18685290671E+03  0.91030969490E+03  0.00000000000E+00 0. -1.
         22    1    1    2    0    0 -0.11970829963E+04  0.47815122925E+03  0.27580909324E+04  0.30444542844E+04  0.00000000000E+00 0.  1.
<mgrwt>
<rscale>  0 0.31863054E+04</rscale>
<asrwt>0</asrwt>
<pdfrwt beam="1">  1        2 0.56310433E+00 0.31863054E+04</pdfrwt>
<pdfrwt beam="2">  1       -2 0.10668398E+00 0.31863054E+04</pdfrwt>
<totfact> 0.37187932E-01</totfact>
</mgrwt>
</event>
<event>
 6    1  0.6091287E-004  0.2188847E+04  0.7818608E-02  0.8523085E-01
          2   -1    0    0  501    0  0.00000000000E+00  0.00000000000E+00  0.90965943875E+03  0.90965943875E+03  0.00000000000E+00 0.  1.
         -2   -1    0    0    0  501 -0.00000000000E+00 -0.00000000000E+00 -0.13167153070E+04  0.13167153070E+04  0.00000000000E+00 0. -1.
         23    2    1    2    0    0  0.10857068917E+04  0.91237325310E+02 -0.12162720332E+03  0.11000740634E+04  0.91027820922E+02 0.  0.
         11    1    3    3    0    0  0.68128154314E+03  0.14437551425E+02 -0.87037871028E+02  0.68697057791E+03  0.00000000000E+00 0. -1.
        -11    1    3    3    0    0  0.40442534857E+03  0.76799773885E+02 -0.34589332296E+02  0.41310348552E+03  0.00000000000E+00 0.  1.
         22    1    1    2    0    0 -0.10857068917E+04 -0.91237325310E+02 -0.28542866492E+03  0.11263006823E+04  0.00000000000E+00 0.  1.
<mgrwt>
<rscale>  0 0.21888467E+04</rscale>
<asrwt>0</asrwt>
<pdfrwt beam="1">  1        2 0.13994761E+00 0.21888467E+04</pdfrwt>
<pdfrwt beam="2">  1       -2 0.20257159E+00 0.21888467E+04</pdfrwt>
<totfact> 0.33796715E+00</totfact>
</mgrwt>
</event>
<event>
 6    1  0.6091287E-004  0.2116060E+04  0.7818608E-02  0.8554202E-01
          2   -1    0    0  501    0  0.00000000000E+00  0.00000000000E+00  0.13598387581E+04  0.13598387581E+04  0.00000000000E+00 0. -1.
         -2   -1    0    0    0  501 -0.00000000000E+00 -0.00000000000E+00 -0.82320621266E+03  0.82320621266E+03  0.00000000000E+00 0.  1.
         23    2    1    2    0    0  0.43765478302E+03 -0.31141391522E+03 -0.66917649964E+03  0.86300868759E+03  0.92013431042E+02 0.  0.
         11    1    3    3    0    0  0.55554258290E+02 -0.22864716519E+02 -0.12149263381E+03  0.13553424270E+03  0.00000000000E+00 0. -1.
        -11    1    3    3    0    0  0.38210052473E+03 -0.28854919870E+03 -0.54768386583E+03  0.72747444489E+03  0.00000000000E+00 0.  1.
         22    1    1    2    0    0 -0.43765478302E+03  0.31141391522E+03  0.12058090450E+04  0.13200362831E+04  0.00000000000E+00 0. -1.
<mgrwt>
<rscale>  0 0.21160602E+04</rscale>
<asrwt>0</asrwt>
<pdfrwt beam="1">  1        2 0.20920596E+00 0.21160602E+04</pdfrwt>
<pdfrwt beam="2">  1       -2 0.12664711E+00 0.21160602E+04</pdfrwt>
<totfact> 0.65174378E+00</totfact>
</mgrwt>
</event>
<event>
 6    1  0.6091287E-004  0.2129099E+04  0.7818608E-02  0.8548532E-01
          1   -1    0    0  501    0  0.00000000000E+00  0.00000000000E+00  0.21160865917E+04  0.21160865917E+04  0.00000000000E+00 0.  1.
         -1   -1    0    0    0  501 -0.00000000000E+00 -0.00000000000E+00 -0.53554763119E+03  0.53554763119E+03  0.00000000000E+00 0. -1.
         23    2    1    2    0    0  0.66378537567E+01  0.10053973720E+04  0.12199447973E+04  0.15835068487E+04  0.91436834668E+02 0.  0.
         11    1    3    3    0    0  0.38932412294E+02  0.83840244785E+03  0.10032413353E+04  0.13080243018E+04  0.00000000000E+00 0. -1.
        -11    1    3    3    0    0 -0.32294558538E+02  0.16699492420E+03  0.21670346196E+03  0.27548254690E+03  0.00000000000E+00 0.  1.
         22    1    1    2    0    0 -0.66378537567E+01 -0.10053973720E+04  0.36059416320E+03  0.10681273741E+04  0.00000000000E+00 0. -1.
<mgrwt>
<rscale>  0 0.21290986E+04</rscale>
<asrwt>0</asrwt>
<pdfrwt beam="1">  1        1 0.32555178E+00 0.21290986E+04</pdfrwt>
<pdfrwt beam="2">  1       -1 0.82391944E-01 0.21290986E+04</pdfrwt>
<totfact> 0.33381896E+00</totfact>
</mgrwt>
</event>
<event>
 6    1  0.6091287E-004  0.6767779E+03  0.7818608E-02  0.9757790E-01
          4   -1    0    0  501    0  0.00000000000E+00  0.00000000000E+00  0.21707247959E+03  0.21707247959E+03  0.00000000000E+00 0.  1.
         -4   -1    0    0    0  501 -0.00000000000E+00 -0.00000000000E+00 -0.52750616526E+03  0.52750616526E+03  0.00000000000E+00 0. -1.
         23    2    1    2    0    0 -0.27913388594E+03 -0.17900832868E+03 -0.15681041952E+03  0.37912028071E+03  0.95827822476E+02 0.  0.
         11    1    3    3    0    0 -0.20868486253E+03 -0.15688101342E+03 -0.81149267637E+02  0.27339756374E+03  0.00000000000E+00 0.  1.
        -11    1    3    3    0    0 -0.70449023410E+02 -0.22127315262E+02 -0.75661151879E+02  0.10572271697E+03  0.00000000000E+00 0. -1.
         22    1    1    2    0    0  0.27913388594E+03  0.17900832868E+03 -0.15362326616E+03  0.36545836414E+03  0.00000000000E+00 0.  1.
<mgrwt>
<rscale>  0 0.67677787E+03</rscale>
<asrwt>0</asrwt>
<pdfrwt beam="1">  1        4 0.33395766E-01 0.67677787E+03</pdfrwt>
<pdfrwt beam="2">  1       -4 0.81154795E-01 0.67677787E+03</pdfrwt>
<totfact> 0.23237698E+01</totfact>
</mgrwt>
</event>
<event>
 6    1  0.6091287E-004  0.2096689E+04  0.7818608E-02  0.8562703E-01
          1   -1    0    0  501    0  0.00000000000E+00  0.00000000000E+00  0.23087780144E+04  0.23087780144E+04  0.00000000000E+00 0.  1.
         -1   -1    0    0    0  501 -0.00000000000E+00 -0.00000000000E+00 -0.47602085578E+03  0.47602085578E+03  0.00000000000E+00 0. -1.
         23    2    1    2    0    0  0.20961344238E+03 -0.81715922527E+03  0.17402426742E+04  0.19361258328E+04  0.91933022001E+02 0.  0.
         13    1    3    3    0    0  0.16985460170E+03 -0.58960592235E+03  0.11764828199E+04  0.13268751090E+04  0.00000000000E+00 0.  1.
        -13    1    3    3    0    0  0.39758840677E+02 -0.22755330292E+03  0.56375985426E+03  0.60925072372E+03  0.00000000000E+00 0. -1.
         22    1    1    2    0    0 -0.20961344238E+03  0.81715922527E+03  0.92514484458E+02  0.84867303745E+03  0.00000000000E+00 0. -1.
<mgrwt>
<rscale>  0 0.20966893E+04</rscale>
<asrwt>0</asrwt>
<pdfrwt beam="1">  1        1 0.35519661E+00 0.20966893E+04</pdfrwt>
<pdfrwt beam="2">  1       -1 0.73233979E-01 0.20966893E+04</pdfrwt>
<totfact> 0.31731730E+00</totfact>
</mgrwt>
</event>
<event>
 6    1  0.6091287E-004  0.3029915E+04  0.7818608E-02  0.8235240E-01
          2   -1    0    0  501    0  0.00000000000E+00  0.00000000000E+00  0.29344107151E+04  0.29344107151E+04  0.00000000000E+00 0.  1.
         -2   -1    0    0    0  501 -0.00000000000E+00 -0.00000000000E+00 -0.78213172588E+03  0.78213172588E+03  0.00000000000E+00 0. -1.
         23    2    1    2    0    0 -0.11485506356E+04 -0.74015890560E+03  0.18758368667E+04  0.23224750053E+04  0.90124533623E+02 0.  0.
         11    1    3    3    0    0 -0.95411437131E+03 -0.60973997996E+03  0.16090272548E+04  0.19675075053E+04  0.00000000000E+00 0. -1.
        -11    1    3    3    0    0 -0.19443626431E+03 -0.13041892564E+03  0.26680961189E+03  0.35496749998E+03  0.00000000000E+00 0.  1.
         22    1    1    2    0    0  0.11485506356E+04  0.74015890560E+03  0.27644212252E+03  0.13940674357E+04  0.00000000000E+00 0. -1.
<mgrwt>
<rscale>  0 0.30299147E+04</rscale>
<asrwt>0</asrwt>
<pdfrwt beam="1">  1        2 0.45144780E+00 0.30299147E+04</pdfrwt>
<pdfrwt beam="2">  1       -2 0.12032796E+00 0.30299147E+04</pdfrwt>
<totfact> 0.86109262E-01</totfact>
</mgrwt>
</event>
<event>
 6    1  0.6091287E-004  0.2230576E+04  0.7818608E-02  0.8505809E-01
          2   -1    0    0  501    0  0.00000000000E+00  0.00000000000E+00  0.20622711574E+04  0.20622711574E+04  0.00000000000E+00 0.  1.
         -2   -1    0    0    0  501 -0.00000000000E+00 -0.00000000000E+00 -0.60315395843E+03  0.60315395843E+03  0.00000000000E+00 0. -1.
         23    2    1    2    0    0  0.91324624491E+03 -0.28095829034E+03  0.47858802141E+02  0.96113449290E+03  0.92373068216E+02 0.  0.
         11    1    3    3    0    0  0.57414531576E+03 -0.20478180026E+03  0.65840496981E+02  0.61311777039E+03  0.00000000000E+00 0. -1.
        -11    1    3    3    0    0  0.33910092915E+03 -0.76176490087E+02 -0.17981694840E+02  0.34801672251E+03  0.00000000000E+00 0.  1.
         22    1    1    2    0    0 -0.91324624491E+03  0.28095829034E+03  0.14112583968E+04  0.17042906229E+04  0.00000000000E+00 0.  1.
<mgrwt>
<rscale>  0 0.22305757E+04</rscale>
<asrwt>0</asrwt>
<pdfrwt beam="1">  1        2 0.31727248E+00 0.22305757E+04</pdfrwt>
<pdfrwt beam="2">  1       -2 0.92792918E-01 0.22305757E+04</pdfrwt>
<totfact> 0.55362344E+00</totfact>
</mgrwt>
</event>
<event>
 6    1  0.6091287E-004  0.3030025E+04  0.7818608E-02  0.8235209E-01
         -2   -1    0    0    0  501 -0.00000000000E+00  0.00000000000E+00  0.15098555356E+04  0.15098555356E+04  0.00000000000E+00 0. -1.
          2   -1    0    0  501    0  0.00000000000E+00 -0.00000000000E+00 -0.15201868383E+04  0.15201868383E+04  0.00000000000E+00 0.  1.
         23    2    1    2    0    0  0.12187215944E+04 -0.87849415141E+03  0.17951777797E+03  0.15157514599E+04  0.90783020976E+02 0.  0.
         13    1    3    3    0    0  0.73299296434E+03 -0.47354058739E+03  0.98596663049E+02  0.87820309475E+03  0.00000000000E+00 0.  1.
        -13    1    3    3    0    0  0.48572863010E+03 -0.40495356402E+03  0.80921114919E+02  0.63754836519E+03  0.00000000000E+00 0. -1.
         22    1    1    2    0    0 -0.12187215944E+04  0.87849415141E+03 -0.18984908066E+03  0.15142909140E+04  0.00000000000E+00 0.  1.
<mgrwt>
<rscale>  0 0.30300248E+04</rscale>
<asrwt>0</asrwt>
<pdfrwt beam="1">  1        2 0.23387490E+00 0.30300248E+04</pdfrwt>
<pdfrwt beam="2">  1       -2 0.23228547E+00 0.30300248E+04</pdfrwt>
<totfact> 0.87356340E-01</totfact>
</mgrwt>
</event>
<event>
 6    1  0.6091287E-004  0.1250556E+04  0.7818608E-02  0.9069720E-01
         -2   -1    0    0    0  501 -0.00000000000E+00  0.00000000000E+00  0.26545961686E+03  0.26545961686E+03  0.00000000000E+00 0. -1.
          2   -1    0    0  501    0  0.00000000000E+00 -0.00000000000E+00 -0.14728144069E+04  0.14728144069E+04  0.00000000000E+00 0.  1.
         23    2    1    2    0    0  0.19445350983E+03 -0.17733750297E+03 -0.13902179033E+04  0.14178061226E+04  0.90595944547E+02 0.  0.
         11    1    3    3    0    0  0.22580324909E+02  0.58123627765E+01 -0.66466565824E+02  0.70437624935E+02  0.00000000000E+00 0. -1.
        -11    1    3    3    0    0  0.17187318492E+03 -0.18314986575E+03 -0.13237513375E+04  0.13473684977E+04  0.00000000000E+00 0.  1.
         22    1    1    2    0    0 -0.19445350983E+03  0.17733750297E+03  0.18286311331E+03  0.32046790113E+03  0.00000000000E+00 0. -1.
<mgrwt>
<rscale>  0 0.12505563E+04</rscale>
<asrwt>0</asrwt>
<pdfrwt beam="1">  1        2 0.22658683E+00 0.12505563E+04</pdfrwt>
<pdfrwt beam="2">  1       -2 0.40839941E-01 0.12505563E+04</pdfrwt>
<totfact> 0.73401924E+01</totfact>
</mgrwt>
</event>
<event>
 6    1  0.6091287E-004  0.2382261E+04  0.7818608E-02  0.8446175E-01
          2   -1    0    0  501    0  0.00000000000E+00  0.00000000000E+00  0.17954206692E+04  0.17954206692E+04  0.00000000000E+00 0.  1.
         -2   -1    0    0    0  501 -0.00000000000E+00 -0.00000000000E+00 -0.79022791946E+03  0.79022791946E+03  0.00000000000E+00 0. -1.
         23    2    1    2    0    0  0.69781011698E+03  0.95559966007E+03  0.37228591390E+03  0.12437541321E+04  0.90652466701E+02 0.  0.
         11    1    3    3    0    0  0.38795728013E+03  0.50128689201E+03  0.15567102882E+03  0.65271193379E+03  0.00000000000E+00 0.  1.
        -11    1    3    3    0    0  0.30985283685E+03  0.45431276806E+03  0.21661488508E+03  0.59104219830E+03  0.00000000000E+00 0. -1.
         22    1    1    2    0    0 -0.69781011698E+03 -0.95559966007E+03  0.63290683582E+03  0.13418944565E+04  0.00000000000E+00 0. -1.
<mgrwt>
<rscale>  0 0.23822607E+04</rscale>
<asrwt>0</asrwt>
<pdfrwt beam="1">  1        2 0.27621856E+00 0.23822607E+04</pdfrwt>
<pdfrwt beam="2">  1       -2 0.12157353E+00 0.23822607E+04</pdfrwt>
<totfact> 0.40181886E+00</totfact>
</mgrwt>
</event>
<event>
 6    1  0.6091287E-004  0.2957900E+04  0.7818608E-02  0.8255856E-01
         -2   -1    0    0    0  501 -0.00000000000E+00  0.00000000000E+00  0.15884111261E+04  0.15884111261E+04  0.00000000000E+00 0. -1.
          2   -1    0    0  501    0  0.00000000000E+00 -0.00000000000E+00 -0.13770323307E+04  0.13770323307E+04  0.00000000000E+00 0.  1.
         23    2    1    2    0    0  0.14293632153E+04  0.24697045610E+03 -0.17604538433E+03  0.14640537331E+04  0.91584653131E+02 0.  0.
         13    1    3    3    0    0  0.10383410040E+04  0.13895307420E+03 -0.13682470610E+03  0.10564946747E+04  0.00000000000E+00 0.  1.
        -13    1    3    3    0    0  0.39102221127E+03  0.10801738190E+03 -0.39220678234E+02  0.40755905842E+03  0.00000000000E+00 0. -1.
         22    1    1    2    0    0 -0.14293632153E+04 -0.24697045610E+03  0.38742417982E+03  0.15013897237E+04  0.00000000000E+00 0. -1.
<mgrwt>
<rscale>  0 0.29579003E+04</rscale>
<asrwt>0</asrwt>
<pdfrwt beam="1">  1        2 0.21185113E+00 0.29579003E+04</pdfrwt>
<pdfrwt beam="2">  1       -2 0.24437094E+00 0.29579003E+04</pdfrwt>
<totfact> 0.89189228E-01</totfact>
</mgrwt>
</event>
<event>
 6    1  0.6091287E-004  0.2690573E+04  0.7818608E-02  0.8338070E-01
         -2   -1    0    0    0  501 -0.00000000000E+00  0.00000000000E+00  0.13208032121E+04  0.13208032121E+04  0.00000000000E+00 0. -1.
          2   -1    0    0  501    0  0.00000000000E+00 -0.00000000000E+00 -0.13702233258E+04  0.13702233258E+04  0.00000000000E+00 0.  1.
         23    2    1    2    0    0 -0.12440431959E+02 -0.23538090562E+03 -0.13478833935E+04  0.13713425514E+04  0.90729354341E+02 0.  0.
         13    1    3    3    0    0 -0.27948157402E+02 -0.18792003096E+03 -0.85061972294E+03  0.87157842481E+03  0.00000000000E+00 0. -1.
        -13    1    3    3    0    0  0.15507725443E+02 -0.47460874662E+02 -0.49726367057E+03  0.49976412661E+03  0.00000000000E+00 0.  1.
         22    1    1    2    0    0  0.12440431959E+02  0.23538090562E+03  0.12984632798E+04  0.13196839865E+04  0.00000000000E+00 0. -1.
<mgrwt>
<rscale>  0 0.26905727E+04</rscale>
<asrwt>0</asrwt>
<pdfrwt beam="1">  1        2 0.21080359E+00 0.26905727E+04</pdfrwt>
<pdfrwt beam="2">  1       -2 0.20320050E+00 0.26905727E+04</pdfrwt>
<totfact> 0.16749363E+00</totfact>
</mgrwt>
</event>
<event>
 6    1  0.6091287E-004  0.1916284E+04  0.7818608E-02  0.8646793E-01
          2   -1    0    0  501    0  0.00000000000E+00  0.00000000000E+00  0.20316031032E+04  0.20316031032E+04  0.00000000000E+00 0.  1.
         -2   -1    0    0    0  501 -0.00000000000E+00 -0.00000000000E+00 -0.45187756158E+03  0.45187756158E+03  0.00000000000E+00 0. -1.
         23    2    1    2    0    0  0.28094921602E+03 -0.21945746365E+03 -0.35948728489E+03  0.51177063872E+03  0.74726423173E+02 0.  0.
         13    1    3    3    0    0  0.22279399272E+03 -0.13488237515E+03 -0.27581215535E+03  0.37934517706E+03  0.00000000000E+00 0. -1.
        -13    1    3    3    0    0  0.58155223301E+02 -0.84575088503E+02 -0.83675129548E+02  0.13242546167E+03  0.00000000000E+00 0.  1.
         22    1    1    2    0    0 -0.28094921602E+03  0.21945746365E+03  0.19392128265E+04  0.19717100261E+04  0.00000000000E+00 0.  1.
<mgrwt>
<rscale>  0 0.19162838E+04</rscale>
<asrwt>0</asrwt>
<pdfrwt beam="1">  1        2 0.31255432E+00 0.19162838E+04</pdfrwt>
<pdfrwt beam="2">  1       -2 0.69519626E-01 0.19162838E+04</pdfrwt>
<totfact> 0.11323971E+01</totfact>
</mgrwt>
</event>
<event>
 6    1  0.6091287E-004  0.2369054E+04  0.7818608E-02  0.8451181E-01
          2   -1    0    0  501    0  0.00000000000E+00  0.00000000000E+00  0.19334032054E+04  0.19334032054E+04  0.00000000000E+00 0.  1.
         -2   -1    0    0    0  501 -0.00000000000E+00 -0.00000000000E+00 -0.72571721147E+03  0.72571721147E+03  0.00000000000E+00 0. -1.
         23    2    1    2    0    0  0.94204703039E+03 -0.62245853798E+03  0.99897876787E+03  0.15108756933E+04  0.99395890929E+02 0.  0.
         13    1    3    3    0    0  0.89351435842E+03 -0.56062705181E+03  0.92610942091E+03  0.14036912978E+04  0.00000000000E+00 0. -1.
        -13    1    3    3    0    0  0.48532671964E+02 -0.61831486169E+02  0.72869346955E+02  0.10718439558E+03  0.00000000000E+00 0.  1.
         22    1    1    2    0    0 -0.94204703039E+03  0.62245853798E+03  0.20870722610E+03  0.11482447236E+04  0.00000000000E+00 0. -1.
<mgrwt>
<rscale>  0 0.23690538E+04</rscale>
<asrwt>0</asrwt>
<pdfrwt beam="1">  1        2 0.29744665E+00 0.23690538E+04</pdfrwt>
<pdfrwt beam="2">  1       -2 0.11164880E+00 0.23690538E+04</pdfrwt>
<totfact> 0.41567376E+00</totfact>
</mgrwt>
</event>
<event>
 6    1  0.6091287E-004  0.6646000E+04  0.7818608E-02  0.7615088E-01
          2   -1    0    0  501    0  0.00000000000E+00  0.00000000000E+00  0.22077241302E+04  0.22077241302E+04  0.00000000000E+00 0.  1.
         -2   -1    0    0    0  501 -0.00000000000E+00 -0.00000000000E+00 -0.50016792390E+04  0.50016792390E+04  0.00000000000E+00 0. -1.
         23    2    1    2    0    0  0.13001705539E+04 -0.28949336709E+04 -0.33040821492E+03  0.31919230984E+04  0.90105767974E+02 0.  0.
         13    1    3    3    0    0  0.79536364889E+03 -0.17857445443E+04 -0.24713587884E+03  0.19704220497E+04  0.00000000000E+00 0.  1.
        -13    1    3    3    0    0  0.50480690498E+03 -0.11091891266E+04 -0.83272336079E+02  0.12215010486E+04  0.00000000000E+00 0. -1.
         22    1    1    2    0    0 -0.13001705539E+04  0.28949336709E+04 -0.24635468940E+04  0.40174802708E+04  0.00000000000E+00 0. -1.
<mgrwt>
<rscale>  0 0.66459997E+04</rscale>
<asrwt>0</asrwt>
<pdfrwt beam="1">  1        2 0.33964987E+00 0.66459997E+04</pdfrwt>
<pdfrwt beam="2">  1       -2 0.76948910E+00 0.66459997E+04</pdfrwt>
<totfact> 0.38391559E-04</totfact>
</mgrwt>
</event>
<event>
 6    1  0.6091287E-004  0.4031179E+04  0.7818608E-02  0.7998286E-01
         -2   -1    0    0    0  501 -0.00000000000E+00  0.00000000000E+00  0.10289993223E+04  0.10289993223E+04  0.00000000000E+00 0. -1.
          2   -1    0    0  501    0  0.00000000000E+00 -0.00000000000E+00 -0.39481080161E+04  0.39481080161E+04  0.00000000000E+00 0.  1.
         23    2    1    2    0    0  0.52405701013E+03  0.84395194691E+03  0.70334140048E+03  0.12209077532E+04  0.95057759136E+02 0.  0.
         11    1    3    3    0    0  0.13621692951E+03  0.19649169968E+03  0.21825279164E+03  0.32372568787E+03  0.00000000000E+00 0.  1.
        -11    1    3    3    0    0  0.38784008062E+03  0.64746024723E+03  0.48508860884E+03  0.89718206530E+03  0.00000000000E+00 0. -1.
         22    1    1    2    0    0 -0.52405701013E+03 -0.84395194691E+03 -0.36224500943E+04  0.37561995852E+04  0.00000000000E+00 0.  1.
<mgrwt>
<rscale>  0 0.40311787E+04</rscale>
<asrwt>0</asrwt>
<pdfrwt beam="1">  1        2 0.60740122E+00 0.40311787E+04</pdfrwt>
<pdfrwt beam="2">  1       -2 0.15830759E+00 0.40311787E+04</pdfrwt>
<totfact> 0.76571455E-02</totfact>
</mgrwt>
</event>
<event>
 6    1  0.6091287E-004  0.5347794E+04  0.7818608E-02  0.7776987E-01
         -2   -1    0    0    0  501 -0.00000000000E+00  0.00000000000E+00  0.21089705496E+04  0.21089705496E+04  0.00000000000E+00 0. -1.
          2   -1    0    0  501    0  0.00000000000E+00 -0.00000000000E+00 -0.33901495697E+04  0.33901495697E+04  0.00000000000E+00 0.  1.
         23    2    1    2    0    0 -0.17912352720E+04  0.10863701367E+04  0.10665825709E+04  0.23525810107E+04  0.91187485863E+02 0.  0.
         11    1    3    3    0    0 -0.13815796959E+04  0.82075315356E+03  0.77757869914E+03  0.17852245877E+04  0.00000000000E+00 0. -1.
        -11    1    3    3    0    0 -0.40965557604E+03  0.26561698315E+03  0.28900387178E+03  0.56735642292E+03  0.00000000000E+00 0.  1.
         22    1    1    2    0    0  0.17912352720E+04 -0.10863701367E+04 -0.23477615910E+04  0.31465391086E+04  0.00000000000E+00 0.  1.
<mgrwt>
<rscale>  0 0.53477942E+04</rscale>
<asrwt>0</asrwt>
<pdfrwt beam="1">  1        2 0.52156147E+00 0.53477942E+04</pdfrwt>
<pdfrwt beam="2">  1       -2 0.32445701E+00 0.53477942E+04</pdfrwt>
<totfact> 0.15385884E-02</totfact>
</mgrwt>
</event>
<event>
 6    1  0.6091287E-004  0.1756204E+04  0.7818608E-02  0.8729943E-01
          2   -1    0    0  501    0  0.00000000000E+00  0.00000000000E+00  0.12002698029E+04  0.12002698029E+04  0.00000000000E+00 0.  1.
         -2   -1    0    0    0  501 -0.00000000000E+00 -0.00000000000E+00 -0.64240842059E+03  0.64240842059E+03  0.00000000000E+00 0. -1.
         23    2    1    2    0    0  0.42957243629E+03  0.70399668992E+03 -0.30103226865E+02  0.82983756520E+03  0.87065279637E+02 0.  0.
         13    1    3    3    0    0  0.30385557503E+03  0.48657408217E+03 -0.60563016745E+02  0.57684523653E+03  0.00000000000E+00 0. -1.
        -13    1    3    3    0    0  0.12571686126E+03  0.21742260775E+03  0.30459789880E+02  0.25299232867E+03  0.00000000000E+00 0.  1.
         22    1    1    2    0    0 -0.42957243629E+03 -0.70399668992E+03  0.58796460915E+03  0.10128406583E+04  0.00000000000E+00 0. -1.
<mgrwt>
<rscale>  0 0.17562043E+04</rscale>
<asrwt>0</asrwt>
<pdfrwt beam="1">  1        2 0.18465689E+00 0.17562043E+04</pdfrwt>
<pdfrwt beam="2">  1       -2 0.98832065E-01 0.17562043E+04</pdfrwt>
<totfact> 0.15236354E+01</totfact>
</mgrwt>
</event>
<event>
 6    1  0.6091287E-004  0.3333768E+04  0.7818608E-02  0.8154356E-01
         -2   -1    0    0    0  501 -0.00000000000E+00  0.00000000000E+00  0.97343769989E+03  0.97343769989E+03  0.00000000000E+00 0. -1.
          2   -1    0    0  501    0  0.00000000000E+00 -0.00000000000E+00 -0.28543193206E+04  0.28543193206E+04  0.00000000000E+00 0.  1.
         23    2    1    2    0    0  0.33857977450E+02 -0.46596184816E+03  0.89445550148E+03  0.10133720169E+04  0.92765262569E+02 0.  0.
         13    1    3    3    0    0  0.59614596871E+02 -0.28768143260E+03  0.60260754961E+03  0.67041059484E+03  0.00000000000E+00 0. -1.
        -13    1    3    3    0    0 -0.25756619421E+02 -0.17828041555E+03  0.29184795187E+03  0.34296142207E+03  0.00000000000E+00 0.  1.
         22    1    1    2    0    0 -0.33857977450E+02  0.46596184816E+03 -0.27753371222E+04  0.28143850036E+04  0.00000000000E+00 0.  1.
<mgrwt>
<rscale>  0 0.33337679E+04</rscale>
<asrwt>0</asrwt>
<pdfrwt beam="1">  1        2 0.43912605E+00 0.33337679E+04</pdfrwt>
<pdfrwt beam="2">  1       -2 0.14975965E+00 0.33337679E+04</pdfrwt>
<totfact> 0.53679086E-01</totfact>
</mgrwt>
</event>
<event>
 6    1  0.6091287E-004  0.1447899E+04  0.7818608E-02  0.8919858E-01
         -2   -1    0    0    0  501 -0.00000000000E+00  0.00000000000E+00  0.43397297526E+03  0.43397297526E+03  0.00000000000E+00 0. -1.
          2   -1    0    0  501    0  0.00000000000E+00 -0.00000000000E+00 -0.12076860861E+04  0.12076860861E+04  0.00000000000E+00 0.  1.
         23    2    1    2    0    0  0.30567789763E+03 -0.58797493679E+03 -0.71083572995E+03  0.97599618240E+03  0.90153256617E+02 0.  0.
         11    1    3    3    0    0  0.12962706618E+03 -0.18898030919E+03 -0.29354747332E+03  0.37240683753E+03  0.00000000000E+00 0. -1.
        -11    1    3    3    0    0  0.17605083145E+03 -0.39899462760E+03 -0.41728825663E+03  0.60358934486E+03  0.00000000000E+00 0.  1.
         22    1    1    2    0    0 -0.30567789763E+03  0.58797493679E+03 -0.62877380882E+02  0.66566287896E+03  0.00000000000E+00 0. -1.
<mgrwt>
<rscale>  0 0.14478993E+04</rscale>
<asrwt>0</asrwt>
<pdfrwt beam="1">  1        2 0.18579786E+00 0.14478993E+04</pdfrwt>
<pdfrwt beam="2">  1       -2 0.66765074E-01 0.14478993E+04</pdfrwt>
<totfact> 0.37457111E+01</totfact>
</mgrwt>
</event>
<event>
 6    1  0.6091287E-004  0.2587487E+04  0.7818608E-02  0.8372464E-01
          2   -1    0    0  501    0  0.00000000000E+00  0.00000000000E+00  0.11166585666E+04  0.11166585666E+04  0.00000000000E+00 0.  1.
         -2   -1    0    0    0  501 -0.00000000000E+00 -0.00000000000E+00 -0.14989116319E+04  0.14989116319E+04  0.00000000000E+00 0. -1.
         23    2    1    2    0    0 -0.11661607998E+04  0.53307681432E+03 -0.35291441384E+03  0.13330092224E+04  0.90901609348E+02 0.  0.
         11    1    3    3    0    0 -0.27071192007E+03  0.14082313166E+03 -0.12113518786E+03  0.32831361808E+03  0.00000000000E+00 0. -1.
        -11    1    3    3    0    0 -0.89544887970E+03  0.39225368267E+03 -0.23177922599E+03  0.10046956043E+04  0.00000000000E+00 0.  1.
         22    1    1    2    0    0  0.11661607998E+04 -0.53307681432E+03 -0.29338651405E+02  0.12825609761E+04  0.00000000000E+00 0. -1.
<mgrwt>
<rscale>  0 0.25874872E+04</rscale>
<asrwt>0</asrwt>
<pdfrwt beam="1">  1        2 0.17179363E+00 0.25874872E+04</pdfrwt>
<pdfrwt beam="2">  1       -2 0.23060179E+00 0.25874872E+04</pdfrwt>
<totfact> 0.15967966E+00</totfact>
</mgrwt>
</event>
<event>
 6    1  0.6091287E-004  0.8880841E+03  0.7818608E-02  0.9440601E-01
         -2   -1    0    0    0  501 -0.00000000000E+00  0.00000000000E+00  0.26527386545E+03  0.26527386545E+03  0.00000000000E+00 0. -1.
          2   -1    0    0  501    0  0.00000000000E+00 -0.00000000000E+00 -0.74328219192E+03  0.74328219192E+03  0.00000000000E+00 0.  1.
         23    2    1    2    0    0 -0.27719128284E+03  0.31545210198E+03 -0.95135254389E+02  0.44028074975E+03  0.91931420375E+02 0.  0.
         11    1    3    3    0    0 -0.86740493516E+02  0.10140688655E+03 -0.74976223610E+02  0.15306437849E+03  0.00000000000E+00 0. -1.
        -11    1    3    3    0    0 -0.19045078932E+03  0.21404521543E+03 -0.20159030779E+02  0.28721637126E+03  0.00000000000E+00 0.  1.
         22    1    1    2    0    0  0.27719128284E+03 -0.31545210198E+03 -0.38287307208E+03  0.56827530762E+03  0.00000000000E+00 0. -1.
<mgrwt>
<rscale>  0 0.88808410E+03</rscale>
<asrwt>0</asrwt>
<pdfrwt beam="1">  1        2 0.11435111E+00 0.88808410E+03</pdfrwt>
<pdfrwt beam="2">  1       -2 0.40811364E-01 0.88808410E+03</pdfrwt>
<totfact> 0.21633185E+02</totfact>
</mgrwt>
</event>
<event>
 6    1  0.6091287E-004  0.3516683E+04  0.7818608E-02  0.8109848E-01
          2   -1    0    0  501    0  0.00000000000E+00  0.00000000000E+00  0.19321822947E+04  0.19321822947E+04  0.00000000000E+00 0.  1.
         -2   -1    0    0    0  501 -0.00000000000E+00 -0.00000000000E+00 -0.16001412251E+04  0.16001412251E+04  0.00000000000E+00 0. -1.
         23    2    1    2    0    0  0.53869394129E+03 -0.13832582718E+04  0.11105518344E+04  0.18561154121E+04  0.90798884061E+02 0.  0.
         11    1    3    3    0    0  0.23153462775E+03 -0.49253869927E+03  0.37768879722E+03  0.66245866413E+03  0.00000000000E+00 0.  1.
        -11    1    3    3    0    0  0.30715931354E+03 -0.89071957256E+03  0.73286303717E+03  0.11936567480E+04  0.00000000000E+00 0. -1.
         22    1    1    2    0    0 -0.53869394129E+03  0.13832582718E+04 -0.77851076482E+03  0.16762081076E+04  0.00000000000E+00 0. -1.
<mgrwt>
<rscale>  0 0.35166828E+04</rscale>
<asrwt>0</asrwt>
<pdfrwt beam="1">  1        2 0.29725881E+00 0.35166828E+04</pdfrwt>
<pdfrwt beam="2">  1       -2 0.24617557E+00 0.35166828E+04</pdfrwt>
<totfact> 0.40573216E-01</totfact>
</mgrwt>
</event>
<event>
 6    1  0.6091287E-004  0.1678682E+04  0.7818608E-02  0.8773617E-01
         -2   -1    0    0    0  501 -0.00000000000E+00  0.00000000000E+00  0.47131903039E+03  0.47131903039E+03  0.00000000000E+00 0. -1.
          2   -1    0    0  501    0  0.00000000000E+00 -0.00000000000E+00 -0.14947271893E+04  0.14947271893E+04  0.00000000000E+00 0.  1.
         23    2    1    2    0    0  0.77874756047E+03 -0.19369680582E+03 -0.79097695585E+03  0.11305879744E+04  0.92835378861E+02 0.  0.
         13    1    3    3    0    0  0.55512918845E+03 -0.11959778442E+03 -0.50366978560E+03  0.75904894364E+03  0.00000000000E+00 0. -1.
        -13    1    3    3    0    0  0.22361837201E+03 -0.74099021404E+02 -0.28730717025E+03  0.37153903073E+03  0.00000000000E+00 0.  1.
         22    1    1    2    0    0 -0.77874756047E+03  0.19369680582E+03 -0.23243120305E+03  0.83545824532E+03  0.00000000000E+00 0.  1.
<mgrwt>
<rscale>  0 0.16786821E+04</rscale>
<asrwt>0</asrwt>
<pdfrwt beam="1">  1        2 0.22995802E+00 0.16786821E+04</pdfrwt>
<pdfrwt beam="2">  1       -2 0.72510622E-01 0.16786821E+04</pdfrwt>
<totfact> 0.20959259E+01</totfact>
</mgrwt>
</event>
<event>
 6    1  0.6091287E-004  0.1153639E+04  0.7818608E-02  0.9154433E-01
          2   -1    0    0  501    0  0.00000000000E+00  0.00000000000E+00  0.22806074361E+04  0.22806074361E+04  0.00000000000E+00 0.  1.
         -2   -1    0    0    0  501 -0.00000000000E+00 -0.00000000000E+00 -0.14589118391E+03  0.14589118391E+03  0.00000000000E+00 0. -1.
         23    2    1    2    0    0  0.33112866546E+03 -0.43432894123E+03  0.70897841593E+03  0.89973203665E+03  0.92625705154E+02 0.  0.
         13    1    3    3    0    0  0.26740525221E+03 -0.29337502656E+03  0.47196278064E+03  0.61670360906E+03  0.00000000000E+00 0. -1.
        -13    1    3    3    0    0  0.63723413251E+02 -0.14095391467E+03  0.23701563528E+03  0.28302842759E+03  0.00000000000E+00 0.  1.
         22    1    1    2    0    0 -0.33112866546E+03  0.43432894123E+03  0.14257378363E+04  0.15267665834E+04  0.00000000000E+00 0.  1.
<mgrwt>
<rscale>  0 0.11536386E+04</rscale>
<asrwt>0</asrwt>
<pdfrwt beam="1">  1        2 0.35086266E+00 0.11536386E+04</pdfrwt>
<pdfrwt beam="2">  1       -2 0.22444799E-01 0.11536386E+04</pdfrwt>
<totfact> 0.80530600E+01</totfact>
</mgrwt>
</event>
<event>
 6    1  0.6091287E-004  0.9904341E+03  0.7818608E-02  0.9319099E-01
         -2   -1    0    0    0  501 -0.00000000000E+00  0.00000000000E+00  0.32115552980E+03  0.32115552980E+03  0.00000000000E+00 0. -1.
          2   -1    0    0  501    0  0.00000000000E+00 -0.00000000000E+00 -0.76361737773E+03  0.76361737773E+03  0.00000000000E+00 0.  1.
         23    2    1    2    0    0  0.31717901825E+03  0.37474325180E+03 -0.21413520989E+03  0.54332292091E+03  0.91163994417E+02 0.  0.
         11    1    3    3    0    0  0.11616575754E+03  0.78958794800E+02 -0.78001518074E+02  0.16066490383E+03  0.00000000000E+00 0.  1.
        -11    1    3    3    0    0  0.20101326071E+03  0.29578445700E+03 -0.13613369182E+03  0.38265801707E+03  0.00000000000E+00 0. -1.
         22    1    1    2    0    0 -0.31717901825E+03 -0.37474325180E+03 -0.22832663804E+03  0.54144998663E+03  0.00000000000E+00 0. -1.
<mgrwt>
<rscale>  0 0.99043413E+03</rscale>
<asrwt>0</asrwt>
<pdfrwt beam="1">  1        2 0.11747960E+00 0.99043413E+03</pdfrwt>
<pdfrwt beam="2">  1       -2 0.49408543E-01 0.99043413E+03</pdfrwt>
<totfact> 0.14186594E+02</totfact>
</mgrwt>
</event>
<event>
 6    1  0.6091287E-004  0.1959422E+04  0.7818608E-02  0.8625831E-01
          2   -1    0    0  501    0  0.00000000000E+00  0.00000000000E+00  0.15083719697E+04  0.15083719697E+04  0.00000000000E+00 0.  1.
         -2   -1    0    0    0  501 -0.00000000000E+00 -0.00000000000E+00 -0.63633759599E+03  0.63633759599E+03  0.00000000000E+00 0. -1.
         23    2    1    2    0    0  0.73207983326E+03  0.41018314594E+03 -0.11195747910E+03  0.85148450334E+03  0.91105909979E+02 0.  0.
         11    1    3    3    0    0  0.47517085558E+02  0.32932925145E+02 -0.31197940137E+02  0.65694462836E+02  0.00000000000E+00 0.  1.
        -11    1    3    3    0    0  0.68456274770E+03  0.37725022079E+03 -0.80759538958E+02  0.78579004051E+03  0.00000000000E+00 0. -1.
         22    1    1    2    0    0 -0.73207983326E+03 -0.41018314594E+03  0.98399185281E+03  0.12932250623E+04  0.00000000000E+00 0.  1.
<mgrwt>
<rscale>  0 0.19594222E+04</rscale>
<asrwt>0</asrwt>
<pdfrwt beam="1">  1        2 0.23205722E+00 0.19594222E+04</pdfrwt>
<pdfrwt beam="2">  1       -2 0.97898092E-01 0.19594222E+04</pdfrwt>
<totfact> 0.10166032E+01</totfact>
</mgrwt>
</event>
<event>
 6    1  0.6091287E-004  0.5461501E+04  0.7818608E-02  0.7761009E-01
         -2   -1    0    0    0  501 -0.00000000000E+00  0.00000000000E+00  0.19623129854E+04  0.19623129854E+04  0.00000000000E+00 0. -1.
          2   -1    0    0  501    0  0.00000000000E+00 -0.00000000000E+00 -0.38001059584E+04  0.38001059584E+04  0.00000000000E+00 0.  1.
         23    2    1    2    0    0  0.10855433799E+04 -0.23075754723E+04 -0.19473273328E+04  0.32099090484E+04  0.90129727426E+02 0.  0.
         13    1    3    3    0    0  0.36805113999E+03 -0.77800571562E+03 -0.60404699796E+03  0.10514881411E+04  0.00000000000E+00 0. -1.
        -13    1    3    3    0    0  0.71749223989E+03 -0.15295697567E+04 -0.13432803348E+04  0.21584209073E+04  0.00000000000E+00 0.  1.
         22    1    1    2    0    0 -0.10855433799E+04  0.23075754723E+04  0.10953435985E+03  0.25525098954E+04  0.00000000000E+00 0. -1.
<mgrwt>
<rscale>  0 0.54615006E+04</rscale>
<asrwt>0</asrwt>
<pdfrwt beam="1">  1        2 0.58463169E+00 0.54615006E+04</pdfrwt>
<pdfrwt beam="2">  1       -2 0.30189431E+00 0.54615006E+04</pdfrwt>
<totfact> 0.10627170E-02</totfact>
</mgrwt>
</event>
<event>
 6    1  0.6091287E-004  0.2235095E+04  0.7818608E-02  0.8503961E-01
         -2   -1    0    0    0  501 -0.00000000000E+00  0.00000000000E+00  0.10855078791E+04  0.10855078791E+04  0.00000000000E+00 0. -1.
          2   -1    0    0  501    0  0.00000000000E+00 -0.00000000000E+00 -0.11505330569E+04  0.11505330569E+04  0.00000000000E+00 0.  1.
         23    2    1    2    0    0 -0.85463377012E+03  0.57415929444E+03 -0.46264724444E+03  0.11323375863E+04  0.89934199020E+02 0.  0.
         11    1    3    3    0    0 -0.48667604998E+03  0.37478913601E+03 -0.25395681092E+03  0.66469130874E+03  0.00000000000E+00 0. -1.
        -11    1    3    3    0    0 -0.36795772014E+03  0.19937015842E+03 -0.20869043352E+03  0.46764627757E+03  0.00000000000E+00 0.  1.
         22    1    1    2    0    0  0.85463377012E+03 -0.57415929444E+03  0.39762206663E+03  0.11037033498E+04  0.00000000000E+00 0. -1.
<mgrwt>
<rscale>  0 0.22350953E+04</rscale>
<asrwt>0</asrwt>
<pdfrwt beam="1">  1        2 0.17700509E+00 0.22350953E+04</pdfrwt>
<pdfrwt beam="2">  1       -2 0.16700121E+00 0.22350953E+04</pdfrwt>
<totfact> 0.41405879E+00</totfact>
</mgrwt>
</event>
<event>
 6    1  0.6091287E-004  0.1390599E+04  0.7818608E-02  0.8960652E-01
         -1   -1    0    0    0  501 -0.00000000000E+00  0.00000000000E+00  0.37549152926E+03  0.37549152926E+03  0.00000000000E+00 0. -1.
          1   -1    0    0  501    0  0.00000000000E+00 -0.00000000000E+00 -0.12874892041E+04  0.12874892041E+04  0.00000000000E+00 0.  1.
         23    2    1    2    0    0  0.47442561181E+03  0.17374491564E+03  0.10789572402E+03  0.52480258303E+03  0.92245905289E+02 0.  0.
         11    1    3    3    0    0  0.32901367364E+03  0.12611594075E+03  0.31455395239E+02  0.35375792548E+03  0.00000000000E+00 0. -1.
        -11    1    3    3    0    0  0.14541193817E+03  0.47628974895E+02  0.76440328780E+02  0.17104465755E+03  0.00000000000E+00 0.  1.
         22    1    1    2    0    0 -0.47442561181E+03 -0.17374491564E+03 -0.10198933989E+04  0.11381781503E+04  0.00000000000E+00 0.  1.
<mgrwt>
<rscale>  0 0.13905988E+04</rscale>
<asrwt>0</asrwt>
<pdfrwt beam="1">  1        1 0.19807526E+00 0.13905988E+04</pdfrwt>
<pdfrwt beam="2">  1       -1 0.57767928E-01 0.13905988E+04</pdfrwt>
<totfact> 0.27348742E+01</totfact>
</mgrwt>
</event>
<event>
 6    1  0.6091287E-004  0.1331339E+04  0.7818608E-02  0.9005076E-01
          2   -1    0    0  501    0  0.00000000000E+00  0.00000000000E+00  0.89975700849E+03  0.89975700849E+03  0.00000000000E+00 0.  1.
         -2   -1    0    0    0  501 -0.00000000000E+00 -0.00000000000E+00 -0.49248397495E+03  0.49248397495E+03  0.00000000000E+00 0. -1.
         23    2    1    2    0    0 -0.36735471653E+02 -0.46046767583E+03 -0.29200195220E+03  0.55416850385E+03  0.91965293494E+02 0.  0.
         13    1    3    3    0    0 -0.43368532109E+02 -0.43747923556E+03 -0.24975014463E+03  0.50561254521E+03  0.00000000000E+00 0.  1.
        -13    1    3    3    0    0  0.66330604558E+01 -0.22988440266E+02 -0.42251807568E+02  0.48555958642E+02  0.00000000000E+00 0. -1.
         22    1    1    2    0    0  0.36735471653E+02  0.46046767583E+03  0.69927498575E+03  0.83807247959E+03  0.00000000000E+00 0.  1.
<mgrwt>
<rscale>  0 0.13313390E+04</rscale>
<asrwt>0</asrwt>
<pdfrwt beam="1">  1        2 0.13842415E+00 0.13313390E+04</pdfrwt>
<pdfrwt beam="2">  1       -2 0.75766766E-01 0.13313390E+04</pdfrwt>
<totfact> 0.44802323E+01</totfact>
</mgrwt>
</event>
<event>
 6    1  0.6091287E-004  0.3853804E+04  0.7818608E-02  0.8034706E-01
         -2   -1    0    0    0  501 -0.00000000000E+00  0.00000000000E+00  0.10274506781E+04  0.10274506781E+04  0.00000000000E+00 0. -1.
          2   -1    0    0  501    0  0.00000000000E+00 -0.00000000000E+00 -0.36137513173E+04  0.36137513173E+04  0.00000000000E+00 0.  1.
         23    2    1    2    0    0 -0.10806442536E+04  0.80751039668E+03  0.36129483379E+03  0.13995690557E+04  0.91621729110E+02 0.  0.
         13    1    3    3    0    0 -0.62024792037E+03  0.45735741139E+03  0.25293070982E+03  0.81108398360E+03  0.00000000000E+00 0.  1.
        -13    1    3    3    0    0 -0.46039633325E+03  0.35015298528E+03  0.10836412397E+03  0.58848507214E+03  0.00000000000E+00 0. -1.
         22    1    1    2    0    0  0.10806442536E+04 -0.80751039668E+03 -0.29475954729E+04  0.32416329397E+04  0.00000000000E+00 0.  1.
<mgrwt>
<rscale>  0 0.38538040E+04</rscale>
<asrwt>0</asrwt>
<pdfrwt beam="1">  1        2 0.55596174E+00 0.38538040E+04</pdfrwt>
<pdfrwt beam="2">  1       -2 0.15806934E+00 0.38538040E+04</pdfrwt>
<totfact> 0.13995258E-01</totfact>
</mgrwt>
</event>
<event>
 6    1  0.6091287E-004  0.3052616E+04  0.7818608E-02  0.8228864E-01
          2   -1    0    0  501    0  0.00000000000E+00  0.00000000000E+00  0.20831165189E+04  0.20831165189E+04  0.00000000000E+00 0.  1.
         -2   -1    0    0    0  501 -0.00000000000E+00 -0.00000000000E+00 -0.11183321596E+04  0.11183321596E+04  0.00000000000E+00 0. -1.
         23    2    1    2    0    0  0.22071345582E+01 -0.14935334021E+04  0.16155023622E+03  0.15056208715E+04  0.10074142618E+03 0.  0.
         13    1    3    3    0    0 -0.22314451825E+02 -0.61819942294E+03  0.11103169255E+03  0.62848746847E+03  0.00000000000E+00 0. -1.
        -13    1    3    3    0    0  0.24521586384E+02 -0.87533397921E+03  0.50518543671E+02  0.87713340298E+03  0.00000000000E+00 0.  1.
         22    1    1    2    0    0 -0.22071345582E+01  0.14935334021E+04  0.80323412305E+03  0.16958278071E+04  0.00000000000E+00 0. -1.
<mgrwt>
<rscale>  0 0.30526161E+04</rscale>
<asrwt>0</asrwt>
<pdfrwt beam="1">  1        2 0.32047946E+00 0.30526161E+04</pdfrwt>
<pdfrwt beam="2">  1       -2 0.17205110E+00 0.30526161E+04</pdfrwt>
<totfact> 0.10549613E+00</totfact>
</mgrwt>
</event>
<event>
 6    1  0.6091287E-004  0.7728847E+03  0.7818608E-02  0.9600116E-01
         -2   -1    0    0    0  501 -0.00000000000E+00  0.00000000000E+00  0.26655770031E+03  0.26655770031E+03  0.00000000000E+00 0. -1.
          2   -1    0    0  501    0  0.00000000000E+00 -0.00000000000E+00 -0.56024526198E+03  0.56024526198E+03  0.00000000000E+00 0.  1.
         23    2    1    2    0    0 -0.64741827303E+02  0.34579051289E+03  0.81830800015E+01  0.36324232191E+03  0.90085729299E+02 0.  0.
         13    1    3    3    0    0 -0.36838194389E+02  0.30554999706E+03  0.30806012598E+02  0.30930060407E+03  0.00000000000E+00 0. -1.
        -13    1    3    3    0    0 -0.27903632914E+02  0.40240515830E+02 -0.22622932597E+02  0.53941717838E+02  0.00000000000E+00 0.  1.
         22    1    1    2    0    0  0.64741827303E+02 -0.34579051289E+03 -0.30187064167E+03  0.46356064038E+03  0.00000000000E+00 0. -1.
<mgrwt>
<rscale>  0 0.77288470E+03</rscale>
<asrwt>0</asrwt>
<pdfrwt beam="1">  1        2 0.86191578E-01 0.77288470E+03</pdfrwt>
<pdfrwt beam="2">  1       -2 0.41008877E-01 0.77288470E+03</pdfrwt>
<totfact> 0.30536993E+02</totfact>
</mgrwt>
</event>
<event>
 6    1  0.6091287E-004  0.3045498E+04  0.7818608E-02  0.8230857E-01
          2   -1    0    0  501    0  0.00000000000E+00  0.00000000000E+00  0.14454372538E+04  0.14454372538E+04  0.00000000000E+00 0.  1.
         -2   -1    0    0    0  501 -0.00000000000E+00 -0.00000000000E+00 -0.16041963196E+04  0.16041963196E+04  0.00000000000E+00 0. -1.
         23    2    1    2    0    0  0.72625067448E+03 -0.13365631343E+04 -0.11699112570E+03  0.15279287351E+04  0.83894231028E+02 0.  0.
         13    1    3    3    0    0  0.47263034158E+03 -0.79232245472E+03 -0.88576834118E+02  0.92682261927E+03  0.00000000000E+00 0.  1.
        -13    1    3    3    0    0  0.25362033291E+03 -0.54424067959E+03 -0.28414291578E+02  0.60110611588E+03  0.00000000000E+00 0. -1.
         22    1    1    2    0    0 -0.72625067448E+03  0.13365631343E+04 -0.41767940111E+02  0.15217048383E+04  0.00000000000E+00 0.  1.
<mgrwt>
<rscale>  0 0.30454984E+04</rscale>
<asrwt>0</asrwt>
<pdfrwt beam="1">  1        2 0.22237496E+00 0.30454984E+04</pdfrwt>
<pdfrwt beam="2">  1       -2 0.24679943E+00 0.30454984E+04</pdfrwt>
<totfact> 0.78178076E-01</totfact>
</mgrwt>
</event>
<event>
 6    1  0.6091287E-004  0.7299980E+03  0.7818608E-02  0.9667264E-01
          1   -1    0    0  501    0  0.00000000000E+00  0.00000000000E+00  0.91110890084E+03  0.91110890084E+03  0.00000000000E+00 0.  1.
         -1   -1    0    0    0  501 -0.00000000000E+00 -0.00000000000E+00 -0.14622213052E+03  0.14622213052E+03  0.00000000000E+00 0. -1.
         23    2    1    2    0    0  0.28043585143E+03  0.27628466842E+02  0.63732983613E+02  0.30166957836E+03  0.86804621762E+02 0.  0.
         13    1    3    3    0    0  0.63411575887E+02  0.24512232736E+02 -0.17028319554E+02  0.70084528799E+02  0.00000000000E+00 0.  1.
        -13    1    3    3    0    0  0.21702427554E+03  0.31162341066E+01  0.80761303167E+02  0.23158504956E+03  0.00000000000E+00 0. -1.
         22    1    1    2    0    0 -0.28043585143E+03 -0.27628466842E+02  0.70115378670E+03  0.75566145300E+03  0.00000000000E+00 0.  1.
<mgrwt>
<rscale>  0 0.72999804E+03</rscale>
<asrwt>0</asrwt>
<pdfrwt beam="1">  1        1 0.14017060E+00 0.72999804E+03</pdfrwt>
<pdfrwt beam="2">  1       -1 0.22495713E-01 0.72999804E+03</pdfrwt>
<totfact> 0.30223215E+02</totfact>
</mgrwt>
</event>
<event>
 6    1  0.6091287E-004  0.2814802E+04  0.7818608E-02  0.8298688E-01
         -2   -1    0    0    0  501 -0.00000000000E+00  0.00000000000E+00  0.21044861456E+04  0.21044861456E+04  0.00000000000E+00 0. -1.
          2   -1    0    0  501    0  0.00000000000E+00 -0.00000000000E+00 -0.94121661654E+03  0.94121661654E+03  0.00000000000E+00 0.  1.
         23    2    1    2    0    0  0.11616359565E+04 -0.66692335017E+03  0.10445983420E+04  0.17009843154E+04  0.89314581540E+02 0.  0.
         11    1    3    3    0    0  0.92078811639E+03 -0.49158160899E+03  0.78885704652E+03  0.13083572423E+04  0.00000000000E+00 0. -1.
        -11    1    3    3    0    0  0.24084784015E+03 -0.17534174118E+03  0.25574129547E+03  0.39262707308E+03  0.00000000000E+00 0.  1.
         22    1    1    2    0    0 -0.11616359565E+04  0.66692335017E+03  0.11867118710E+03  0.13447184468E+04  0.00000000000E+00 0.  1.
<mgrwt>
<rscale>  0 0.28148018E+04</rscale>
<asrwt>0</asrwt>
<pdfrwt beam="1">  1        2 0.14480256E+00 0.28148018E+04</pdfrwt>
<pdfrwt beam="2">  1       -2 0.32376710E+00 0.28148018E+04</pdfrwt>
<totfact> 0.54265625E-01</totfact>
</mgrwt>
</event>
<event>
 6    1  0.6091287E-004  0.1001631E+04  0.7818608E-02  0.9306757E-01
         -2   -1    0    0    0  501 -0.00000000000E+00  0.00000000000E+00  0.20856011257E+03  0.20856011257E+03  0.00000000000E+00 0. -1.
          2   -1    0    0  501    0  0.00000000000E+00 -0.00000000000E+00 -0.12026092490E+04  0.12026092490E+04  0.00000000000E+00 0.  1.
         23    2    1    2    0    0 -0.43043609611E+03  0.24219666110E+03 -0.57615493215E+03  0.76419948481E+03  0.90066038299E+02 0.  0.
         13    1    3    3    0    0 -0.42538652542E+03  0.22519460091E+03 -0.56848278962E+03  0.74487514818E+03  0.00000000000E+00 0.  1.
        -13    1    3    3    0    0 -0.50495706902E+01  0.17002060193E+02 -0.76721425315E+01  0.19324336624E+02  0.00000000000E+00 0. -1.
         22    1    1    2    0    0  0.43043609611E+03 -0.24219666110E+03 -0.41789420429E+03  0.64696987678E+03  0.00000000000E+00 0. -1.
<mgrwt>
<rscale>  0 0.10016313E+04</rscale>
<asrwt>0</asrwt>
<pdfrwt beam="1">  1        2 0.18501681E+00 0.10016313E+04</pdfrwt>
<pdfrwt beam="2">  1       -2 0.32086171E-01 0.10016313E+04</pdfrwt>
<totfact> 0.17004459E+02</totfact>
</mgrwt>
</event>
<event>
 6    1  0.6091287E-004  0.1398943E+04  0.7818608E-02  0.8954584E-01
          2   -1    0    0  501    0  0.00000000000E+00  0.00000000000E+00  0.24289902254E+04  0.24289902254E+04  0.00000000000E+00 0.  1.
         -2   -1    0    0    0  501 -0.00000000000E+00 -0.00000000000E+00 -0.20142547724E+03  0.20142547724E+03  0.00000000000E+00 0. -1.
         23    2    1    2    0    0 -0.10884228405E+03 -0.30354851782E+03  0.22792233694E+04  0.23038319330E+04  0.93776662106E+02 0.  0.
         13    1    3    3    0    0 -0.41007545932E+02 -0.23580511028E+03  0.16887645966E+04  0.17056410911E+04  0.00000000000E+00 0. -1.
        -13    1    3    3    0    0 -0.67834738117E+02 -0.67743407544E+02  0.59045877279E+03  0.59819084189E+03  0.00000000000E+00 0.  1.
         22    1    1    2    0    0  0.10884228405E+03  0.30354851782E+03 -0.51658621211E+02  0.32658376968E+03  0.00000000000E+00 0. -1.
<mgrwt>
<rscale>  0 0.13989432E+04</rscale>
<asrwt>0</asrwt>
<pdfrwt beam="1">  1        2 0.37369078E+00 0.13989432E+04</pdfrwt>
<pdfrwt beam="2">  1       -2 0.30988537E-01 0.13989432E+04</pdfrwt>
<totfact> 0.36050457E+01</totfact>
</mgrwt>
</event>
<event>
 6    1  0.6091287E-004  0.1360006E+04  0.7818608E-02  0.8983288E-01
         -2   -1    0    0    0  501 -0.00000000000E+00  0.00000000000E+00  0.36033262320E+03  0.36033262320E+03  0.00000000000E+00 0. -1.
          2   -1    0    0  501    0  0.00000000000E+00 -0.00000000000E+00 -0.12832694122E+04  0.12832694122E+04  0.00000000000E+00 0.  1.
         23    2    1    2    0    0  0.24018765307E+03  0.46683259808E+03  0.53011909533E+02  0.53540591310E+03  0.90699756963E+02 0.  0.
         11    1    3    3    0    0  0.75476747819E+02  0.69487876424E+02  0.72819240132E+01  0.10285101287E+03  0.00000000000E+00 0. -1.
        -11    1    3    3    0    0  0.16471090525E+03  0.39734472166E+03  0.45729985520E+02  0.43255490023E+03  0.00000000000E+00 0.  1.
         22    1    1    2    0    0 -0.24018765307E+03 -0.46683259808E+03 -0.97594869857E+03  0.11081961223E+04  0.00000000000E+00 0.  1.
<mgrwt>
<rscale>  0 0.13600056E+04</rscale>
<asrwt>0</asrwt>
<pdfrwt beam="1">  1        2 0.19742606E+00 0.13600056E+04</pdfrwt>
<pdfrwt beam="2">  1       -2 0.55435789E-01 0.13600056E+04</pdfrwt>
<totfact> 0.50466798E+01</totfact>
</mgrwt>
</event>
<event>
 6    1  0.6091287E-004  0.1335844E+04  0.7818608E-02  0.9001614E-01
         -2   -1    0    0    0  501 -0.00000000000E+00  0.00000000000E+00  0.37223571651E+03  0.37223571651E+03  0.00000000000E+00 0. -1.
          2   -1    0    0  501    0  0.00000000000E+00 -0.00000000000E+00 -0.11984874030E+04  0.11984874030E+04  0.00000000000E+00 0.  1.
         23    2    1    2    0    0  0.52828269620E+03  0.15112568054E+03 -0.85510335505E+03  0.10204922614E+04  0.91000710578E+02 0.  0.
         11    1    3    3    0    0  0.37291044989E+03  0.94033478584E+02 -0.66696717633E+03  0.76990240487E+03  0.00000000000E+00 0. -1.
        -11    1    3    3    0    0  0.15537224630E+03  0.57092201955E+02 -0.18813617873E+03  0.25058985652E+03  0.00000000000E+00 0.  1.
         22    1    1    2    0    0 -0.52828269620E+03 -0.15112568054E+03  0.28851668577E+02  0.55023085810E+03  0.00000000000E+00 0. -1.
<mgrwt>
<rscale>  0 0.13358440E+04</rscale>
<asrwt>0</asrwt>
<pdfrwt beam="1">  1        2 0.18438268E+00 0.13358440E+04</pdfrwt>
<pdfrwt beam="2">  1       -2 0.57267033E-01 0.13358440E+04</pdfrwt>
<totfact> 0.53022210E+01</totfact>
</mgrwt>
</event>
<event>
 6    1  0.6091287E-004  0.1339124E+04  0.7818608E-02  0.8999102E-01
          2   -1    0    0  501    0  0.00000000000E+00  0.00000000000E+00  0.11284851142E+04  0.11284851142E+04  0.00000000000E+00 0.  1.
         -2   -1    0    0    0  501 -0.00000000000E+00 -0.00000000000E+00 -0.39727006948E+03  0.39727006948E+03  0.00000000000E+00 0. -1.
         23    2    1    2    0    0 -0.11270707156E+03  0.23113601411E+03  0.10678062934E+04  0.11021747195E+04  0.91935254744E+02 0.  0.
         13    1    3    3    0    0 -0.60916521560E+02  0.20694271353E+03  0.82622456300E+03  0.85392220827E+03  0.00000000000E+00 0.  1.
        -13    1    3    3    0    0 -0.51790550005E+02  0.24193300585E+02  0.24158173040E+03  0.24825251122E+03  0.00000000000E+00 0. -1.
         22    1    1    2    0    0  0.11270707156E+03 -0.23113601411E+03 -0.33659124865E+03  0.42358046422E+03  0.00000000000E+00 0. -1.
<mgrwt>
<rscale>  0 0.13391241E+04</rscale>
<asrwt>0</asrwt>
<pdfrwt beam="1">  1        2 0.17361309E+00 0.13391241E+04</pdfrwt>
<pdfrwt beam="2">  1       -2 0.61118473E-01 0.13391241E+04</pdfrwt>
<totfact> 0.50943316E+01</totfact>
</mgrwt>
</event>
<event>
 6    1  0.6091287E-004  0.1400230E+04  0.7818608E-02  0.8953652E-01
         -2   -1    0    0    0  501 -0.00000000000E+00  0.00000000000E+00  0.13385213125E+04  0.13385213125E+04  0.00000000000E+00 0. -1.
          2   -1    0    0  501    0  0.00000000000E+00 -0.00000000000E+00 -0.36619567685E+03  0.36619567685E+03  0.00000000000E+00 0.  1.
         23    2    1    2    0    0 -0.34306899641E+02 -0.36158538955E+03  0.12125991497E+04  0.12692260953E+04  0.92829013221E+02 0.  0.
         13    1    3    3    0    0 -0.12048459593E+02 -0.63608889861E+02  0.36018268646E+03  0.36595467462E+03  0.00000000000E+00 0. -1.
        -13    1    3    3    0    0 -0.22258440048E+02 -0.29797649969E+03  0.85241646325E+03  0.90327142064E+03  0.00000000000E+00 0.  1.
         22    1    1    2    0    0  0.34306899641E+02  0.36158538955E+03 -0.24027351405E+03  0.43549089411E+03  0.00000000000E+00 0.  1.
<mgrwt>
<rscale>  0 0.14002296E+04</rscale>
<asrwt>0</asrwt>
<pdfrwt beam="1">  1        2 0.56337797E-01 0.14002296E+04</pdfrwt>
<pdfrwt beam="2">  1       -2 0.20592635E+00 0.14002296E+04</pdfrwt>
<totfact> 0.10392141E+01</totfact>
</mgrwt>
</event>
<event>
 6    1  0.6091287E-004  0.1580735E+04  0.7818608E-02  0.8832472E-01
         -2   -1    0    0    0  501 -0.00000000000E+00  0.00000000000E+00  0.36859677242E+03  0.36859677242E+03  0.00000000000E+00 0. -1.
          2   -1    0    0  501    0  0.00000000000E+00 -0.00000000000E+00 -0.16947529136E+04  0.16947529136E+04  0.00000000000E+00 0.  1.
         23    2    1    2    0    0  0.70761415027E+03  0.32679816021E+03 -0.81354734011E+03  0.11304603003E+04  0.92554809011E+02 0.  0.
         11    1    3    3    0    0  0.35692950492E+03  0.18155503381E+03 -0.48046748477E+03  0.62546774953E+03  0.00000000000E+00 0.  1.
        -11    1    3    3    0    0  0.35068464535E+03  0.14524312640E+03 -0.33307985534E+03  0.50499255072E+03  0.00000000000E+00 0. -1.
         22    1    1    2    0    0 -0.70761415027E+03 -0.32679816021E+03 -0.51260880108E+03  0.93288938579E+03  0.00000000000E+00 0.  1.
<mgrwt>
<rscale>  0 0.15807346E+04</rscale>
<asrwt>0</asrwt>
<pdfrwt beam="1">  1        2 0.26073122E+00 0.15807346E+04</pdfrwt>
<pdfrwt beam="2">  1       -2 0.56707196E-01 0.15807346E+04</pdfrwt>
<totfact> 0.27651839E+01</totfact>
</mgrwt>
</event>
<event>
 6    1  0.6091287E-004  0.1509103E+04  0.7818608E-02  0.8878422E-01
         -2   -1    0    0    0  501 -0.00000000000E+00  0.00000000000E+00  0.89686566599E+03  0.89686566599E+03  0.00000000000E+00 0. -1.
          2   -1    0    0  501    0  0.00000000000E+00 -0.00000000000E+00 -0.63481994942E+03  0.63481994942E+03  0.00000000000E+00 0.  1.
         23    2    1    2    0    0 -0.11903951219E+03  0.11073223989E+02  0.88530502593E+03  0.89706353223E+03  0.81639268495E+02 0.  0.
         11    1    3    3    0    0 -0.10207084969E+03 -0.21880865265E+02  0.55933474759E+03  0.56899261021E+03  0.00000000000E+00 0. -1.
        -11    1    3    3    0    0 -0.16968662497E+02  0.32954089254E+02  0.32597027835E+03  0.32807092201E+03  0.00000000000E+00 0.  1.
         22    1    1    2    0    0  0.11903951219E+03 -0.11073223989E+02 -0.62325930937E+03  0.63462208318E+03  0.00000000000E+00 0.  1.
<mgrwt>
<rscale>  0 0.15091033E+04</rscale>
<asrwt>0</asrwt>
<pdfrwt beam="1">  1        2 0.97664607E-01 0.15091033E+04</pdfrwt>
<pdfrwt beam="2">  1       -2 0.13797933E+00 0.15091033E+04</pdfrwt>
<totfact> 0.16662928E+01</totfact>
</mgrwt>
</event>
<event>
 6    1  0.6091287E-004  0.4977566E+04  0.7818608E-02  0.7831977E-01
         -2   -1    0    0    0  501 -0.00000000000E+00  0.00000000000E+00  0.14308063793E+04  0.14308063793E+04  0.00000000000E+00 0. -1.
          2   -1    0    0  501    0  0.00000000000E+00 -0.00000000000E+00 -0.43290553157E+04  0.43290553157E+04  0.00000000000E+00 0.  1.
         23    2    1    2    0    0  0.13857468602E+04 -0.20642977534E+04 -0.15559315639E+04  0.29343643044E+04  0.89169861500E+02 0.  0.
         13    1    3    3    0    0  0.12243846974E+04 -0.18686744625E+04 -0.14092719751E+04  0.26414218963E+04  0.00000000000E+00 0. -1.
        -13    1    3    3    0    0  0.16136216282E+03 -0.19562329088E+03 -0.14665958875E+03  0.29294240815E+03  0.00000000000E+00 0.  1.
         22    1    1    2    0    0 -0.13857468602E+04  0.20642977534E+04 -0.13423173726E+04  0.28254973906E+04  0.00000000000E+00 0. -1.
<mgrwt>
<rscale>  0 0.49775657E+04</rscale>
<asrwt>0</asrwt>
<pdfrwt beam="1">  1        2 0.66600851E+00 0.49775657E+04</pdfrwt>
<pdfrwt beam="2">  1       -2 0.22012406E+00 0.49775657E+04</pdfrwt>
<totfact> 0.12746548E-02</totfact>
</mgrwt>
</event>
<event>
 6    1  0.6091287E-004  0.5250756E+03  0.7818608E-02  0.1007433E+00
         -2   -1    0    0    0  501 -0.00000000000E+00  0.00000000000E+00  0.59499712841E+02  0.59499712841E+02  0.00000000000E+00 0. -1.
          2   -1    0    0  501    0  0.00000000000E+00 -0.00000000000E+00 -0.11584275929E+04  0.11584275929E+04  0.00000000000E+00 0.  1.
         23    2    1    2    0    0  0.24751918984E+03  0.65705694083E+02 -0.52293496375E+03  0.58756960791E+03  0.78702479326E+02 0.  0.
         11    1    3    3    0    0  0.11932206104E+03  0.43243991484E+01 -0.17631783177E+03  0.21294232195E+03  0.00000000000E+00 0.  1.
        -11    1    3    3    0    0  0.12819712880E+03  0.61381294935E+02 -0.34661713198E+03  0.37462728596E+03  0.00000000000E+00 0. -1.
         22    1    1    2    0    0 -0.24751918984E+03 -0.65705694083E+02 -0.57599291629E+03  0.63035769782E+03  0.00000000000E+00 0. -1.
<mgrwt>
<rscale>  0 0.52507565E+03</rscale>
<asrwt>0</asrwt>
<pdfrwt beam="1">  1        2 0.17821963E+00 0.52507565E+03</pdfrwt>
<pdfrwt beam="2">  1       -2 0.91538018E-02 0.52507565E+03</pdfrwt>
<totfact> 0.16065288E+03</totfact>
</mgrwt>
</event>
<event>
 6    1  0.6091287E-004  0.2041034E+04  0.7818608E-02  0.8587673E-01
         -2   -1    0    0    0  501 -0.00000000000E+00  0.00000000000E+00  0.95112241742E+03  0.95112241742E+03  0.00000000000E+00 0. -1.
          2   -1    0    0  501    0  0.00000000000E+00 -0.00000000000E+00 -0.10949750201E+04  0.10949750201E+04  0.00000000000E+00 0.  1.
         23    2    1    2    0    0 -0.17791303138E+03 -0.92406620957E+02  0.92891425154E+03  0.95475846458E+03  0.92141242925E+02 0.  0.
         13    1    3    3    0    0 -0.16248498816E+03 -0.68025319967E+02  0.62112769764E+03  0.64562251534E+03  0.00000000000E+00 0.  1.
        -13    1    3    3    0    0 -0.15428043224E+02 -0.24381300990E+02  0.30778655389E+03  0.30913594924E+03  0.00000000000E+00 0. -1.
         22    1    1    2    0    0  0.17791303138E+03  0.92406620957E+02 -0.10727668542E+04  0.10913389729E+04  0.00000000000E+00 0.  1.
<mgrwt>
<rscale>  0 0.20410343E+04</rscale>
<asrwt>0</asrwt>
<pdfrwt beam="1">  1        2 0.16845770E+00 0.20410343E+04</pdfrwt>
<pdfrwt beam="2">  1       -2 0.14632653E+00 0.20410343E+04</pdfrwt>
<totfact> 0.65003184E+00</totfact>
</mgrwt>
</event>
<event>
 6    1  0.6091287E-004  0.4096826E+04  0.7818608E-02  0.7985294E-01
          2   -1    0    0  501    0  0.00000000000E+00  0.00000000000E+00  0.22463202859E+04  0.22463202859E+04  0.00000000000E+00 0.  1.
         -2   -1    0    0    0  501 -0.00000000000E+00 -0.00000000000E+00 -0.18679418398E+04  0.18679418398E+04  0.00000000000E+00 0. -1.
         23    2    1    2    0    0  0.64912102253E+03  0.53890507317E+03  0.20626379055E+04  0.22305140782E+04  0.94557624104E+02 0.  0.
         11    1    3    3    0    0  0.35650879376E+03  0.35222803496E+03  0.12628982718E+04  0.13587034825E+04  0.00000000000E+00 0.  1.
        -11    1    3    3    0    0  0.29261222877E+03  0.18667703821E+03  0.79973963373E+03  0.87181059571E+03  0.00000000000E+00 0. -1.
         22    1    1    2    0    0 -0.64912102253E+03 -0.53890507317E+03 -0.16842594594E+04  0.18837480475E+04  0.00000000000E+00 0. -1.
<mgrwt>
<rscale>  0 0.40968259E+04</rscale>
<asrwt>0</asrwt>
<pdfrwt beam="1">  1        2 0.34558774E+00 0.40968259E+04</pdfrwt>
<pdfrwt beam="2">  1       -2 0.28737567E+00 0.40968259E+04</pdfrwt>
<totfact> 0.14450585E-01</totfact>
</mgrwt>
</event>
<event>
 6    1  0.6091287E-004  0.2033778E+04  0.7818608E-02  0.8590989E-01
          2   -1    0    0  501    0  0.00000000000E+00  0.00000000000E+00  0.40495848208E+04  0.40495848208E+04  0.00000000000E+00 0.  1.
         -2   -1    0    0    0  501 -0.00000000000E+00 -0.00000000000E+00 -0.25535051298E+03  0.25535051298E+03  0.00000000000E+00 0. -1.
         23    2    1    2    0    0  0.72653716319E+03 -0.75587262254E+02  0.40967762106E+03  0.84245159381E+03  0.91209928206E+02 0.  0.
         13    1    3    3    0    0  0.38588742158E+03  0.50540456165E+01  0.22318976755E+03  0.44581197589E+03  0.00000000000E+00 0.  1.
        -13    1    3    3    0    0  0.34064974161E+03 -0.80641307870E+02  0.18648785351E+03  0.39663961792E+03  0.00000000000E+00 0. -1.
         22    1    1    2    0    0 -0.72653716319E+03  0.75587262254E+02  0.33845566867E+04  0.34624837400E+04  0.00000000000E+00 0.  1.
<mgrwt>
<rscale>  0 0.20337783E+04</rscale>
<asrwt>0</asrwt>
<pdfrwt beam="1">  1        2 0.62301300E+00 0.20337783E+04</pdfrwt>
<pdfrwt beam="2">  1       -2 0.39284697E-01 0.20337783E+04</pdfrwt>
<totfact> 0.17878061E+00</totfact>
</mgrwt>
</event>
<event>
 6    1  0.6091287E-004  0.2567326E+04  0.7818608E-02  0.8379385E-01
          2   -1    0    0  501    0  0.00000000000E+00  0.00000000000E+00  0.95767931059E+03  0.95767931059E+03  0.00000000000E+00 0.  1.
         -2   -1    0    0    0  501 -0.00000000000E+00 -0.00000000000E+00 -0.17206084168E+04  0.17206084168E+04  0.00000000000E+00 0. -1.
         23    2    1    2    0    0  0.65234247057E+02 -0.11733238535E+04  0.15287035130E+03  0.11884444408E+04  0.89924814042E+02 0.  0.
         13    1    3    3    0    0  0.22799224777E+02 -0.44591793544E+03  0.14215376399E+02  0.44672663535E+03  0.00000000000E+00 0. -1.
        -13    1    3    3    0    0  0.42435022280E+02 -0.72740591810E+03  0.13865497490E+03  0.74171780542E+03  0.00000000000E+00 0.  1.
         22    1    1    2    0    0 -0.65234247057E+02  0.11733238535E+04 -0.91579945748E+03  0.14898432866E+04  0.00000000000E+00 0.  1.
<mgrwt>
<rscale>  0 0.25673263E+04</rscale>
<asrwt>0</asrwt>
<pdfrwt beam="1">  1        2 0.14733528E+00 0.25673263E+04</pdfrwt>
<pdfrwt beam="2">  1       -2 0.26470899E+00 0.25673263E+04</pdfrwt>
<totfact> 0.12427061E+00</totfact>
</mgrwt>
</event>
<event>
 6    1  0.6091287E-004  0.1621869E+04  0.7818608E-02  0.8807225E-01
         -2   -1    0    0    0  501 -0.00000000000E+00  0.00000000000E+00  0.28938688228E+03  0.28938688228E+03  0.00000000000E+00 0. -1.
          2   -1    0    0  501    0  0.00000000000E+00 -0.00000000000E+00 -0.22724409854E+04  0.22724409854E+04  0.00000000000E+00 0.  1.
         23    2    1    2    0    0 -0.64845819762E+03  0.47120487992E+03 -0.82541025920E+03  0.11537542395E+04  0.85525881043E+02 0.  0.
         13    1    3    3    0    0 -0.42289734144E+03  0.35584536595E+03 -0.57396243511E+03  0.79680672862E+03  0.00000000000E+00 0. -1.
        -13    1    3    3    0    0 -0.22556085618E+03  0.11535951397E+03 -0.25144782409E+03  0.35694751091E+03  0.00000000000E+00 0.  1.
         22    1    1    2    0    0  0.64845819762E+03 -0.47120487992E+03 -0.11576438439E+04  0.14080736281E+04  0.00000000000E+00 0. -1.
<mgrwt>
<rscale>  0 0.16218688E+04</rscale>
<asrwt>0</asrwt>
<pdfrwt beam="1">  1        2 0.34960630E+00 0.16218688E+04</pdfrwt>
<pdfrwt beam="2">  1       -2 0.44521060E-01 0.16218688E+04</pdfrwt>
<totfact> 0.21547253E+01</totfact>
</mgrwt>
</event>
<event>
 6    1  0.6091287E-004  0.2040177E+04  0.7818608E-02  0.8588063E-01
          2   -1    0    0  501    0  0.00000000000E+00  0.00000000000E+00  0.33824827587E+04  0.33824827587E+04  0.00000000000E+00 0.  1.
         -2   -1    0    0    0  501 -0.00000000000E+00 -0.00000000000E+00 -0.30763823139E+03  0.30763823139E+03  0.00000000000E+00 0. -1.
         23    2    1    2    0    0 -0.55301394123E+03 -0.13299738845E+03  0.13547564886E+02  0.57643317390E+03  0.92622583227E+02 0.  0.
         13    1    3    3    0    0 -0.32658056794E+03 -0.35882444113E+02 -0.11759539968E+02  0.32875629870E+03  0.00000000000E+00 0.  1.
        -13    1    3    3    0    0 -0.22643337329E+03 -0.97114944334E+02  0.25307104854E+02  0.24767687520E+03  0.00000000000E+00 0. -1.
         22    1    1    2    0    0  0.55301394123E+03  0.13299738845E+03  0.30612969624E+04  0.31136878162E+04  0.00000000000E+00 0.  1.
<mgrwt>
<rscale>  0 0.20401775E+04</rscale>
<asrwt>0</asrwt>
<pdfrwt beam="1">  1        2 0.52038194E+00 0.20401775E+04</pdfrwt>
<pdfrwt beam="2">  1       -2 0.47328961E-01 0.20401775E+04</pdfrwt>
<totfact> 0.38563944E+00</totfact>
</mgrwt>
</event>
<event>
 6    1  0.6091287E-004  0.2619590E+04  0.7818608E-02  0.8361577E-01
         -2   -1    0    0    0  501 -0.00000000000E+00  0.00000000000E+00  0.97586637837E+03  0.97586637837E+03  0.00000000000E+00 0. -1.
          2   -1    0    0  501    0  0.00000000000E+00 -0.00000000000E+00 -0.17579896996E+04  0.17579896996E+04  0.00000000000E+00 0.  1.
         23    2    1    2    0    0 -0.10715731687E+04  0.46920995949E+03 -0.10026612599E+04  0.15434510946E+04  0.92112090749E+02 0.  0.
         13    1    3    3    0    0 -0.32379604555E+03  0.96537095365E+02 -0.29457498538E+03  0.44826076329E+03  0.00000000000E+00 0. -1.
        -13    1    3    3    0    0 -0.74777712319E+03  0.37267286413E+03 -0.70808627450E+03  0.10951903313E+04  0.00000000000E+00 0.  1.
         22    1    1    2    0    0  0.10715731687E+04 -0.46920995949E+03  0.22053793866E+03  0.11904049834E+04  0.00000000000E+00 0. -1.
<mgrwt>
<rscale>  0 0.26195901E+04</rscale>
<asrwt>0</asrwt>
<pdfrwt beam="1">  1        2 0.27045995E+00 0.26195901E+04</pdfrwt>
<pdfrwt beam="2">  1       -2 0.15013329E+00 0.26195901E+04</pdfrwt>
<totfact> 0.24039036E+00</totfact>
</mgrwt>
</event>
<event>
 6    1  0.6091287E-004  0.1951898E+04  0.7818608E-02  0.8629446E-01
         -2   -1    0    0    0  501 -0.00000000000E+00  0.00000000000E+00  0.27925337851E+04  0.27925337851E+04  0.00000000000E+00 0. -1.
          2   -1    0    0  501    0  0.00000000000E+00 -0.00000000000E+00 -0.34107953377E+03  0.34107953377E+03  0.00000000000E+00 0.  1.
         23    2    1    2    0    0 -0.21572324336E+03 -0.92807307701E+03  0.90814581621E+03  0.13198721356E+04  0.97352333440E+02 0.  0.
         13    1    3    3    0    0 -0.17196288880E+03 -0.80331099079E+03  0.73738480285E+03  0.11039094757E+04  0.00000000000E+00 0. -1.
        -13    1    3    3    0    0 -0.43760354561E+02 -0.12476208622E+03  0.17076101336E+03  0.21596265991E+03  0.00000000000E+00 0.  1.
         22    1    1    2    0    0  0.21572324336E+03  0.92807307701E+03  0.15433084351E+04  0.18137411832E+04  0.00000000000E+00 0. -1.
<mgrwt>
<rscale>  0 0.19518977E+04</rscale>
<asrwt>0</asrwt>
<pdfrwt beam="1">  1        2 0.52473776E-01 0.19518977E+04</pdfrwt>
<pdfrwt beam="2">  1       -2 0.42962057E+00 0.19518977E+04</pdfrwt>
<totfact> 0.42135470E-01</totfact>
</mgrwt>
</event>
<event>
 6    1  0.6091287E-004  0.1649858E+04  0.7818608E-02  0.8790491E-01
          1   -1    0    0  501    0  0.00000000000E+00  0.00000000000E+00  0.21593748743E+04  0.21593748743E+04  0.00000000000E+00 0. -1.
         -1   -1    0    0    0  501 -0.00000000000E+00 -0.00000000000E+00 -0.31514097670E+03  0.31514097670E+03  0.00000000000E+00 0.  1.
         23    2    1    2    0    0  0.78598756147E+03  0.17400714559E+03  0.67291320957E+03  0.10532322453E+04  0.91820702981E+02 0.  0.
         11    1    3    3    0    0  0.32102202400E+03  0.10966637109E+03  0.31521405611E+03  0.46307856138E+03  0.00000000000E+00 0.  1.
        -11    1    3    3    0    0  0.46496553747E+03  0.64340774496E+02  0.35769915347E+03  0.59015368395E+03  0.00000000000E+00 0. -1.
         22    1    1    2    0    0 -0.78598756147E+03 -0.17400714559E+03  0.11713206880E+04  0.14212836057E+04  0.00000000000E+00 0. -1.
<mgrwt>
<rscale>  0 0.16498576E+04</rscale>
<asrwt>0</asrwt>
<pdfrwt beam="1">  1        1 0.33221151E+00 0.16498576E+04</pdfrwt>
<pdfrwt beam="2">  1       -1 0.48483228E-01 0.16498576E+04</pdfrwt>
<totfact> 0.94500376E+00</totfact>
</mgrwt>
</event>
<event>
 6    1  0.6091287E-004  0.3251779E+04  0.7818608E-02  0.8175275E-01
          2   -1    0    0  501    0  0.00000000000E+00  0.00000000000E+00  0.17428907480E+04  0.17428907480E+04  0.00000000000E+00 0.  1.
         -2   -1    0    0    0  501 -0.00000000000E+00 -0.00000000000E+00 -0.15167423340E+04  0.15167423340E+04  0.00000000000E+00 0. -1.
         23    2    1    2    0    0 -0.81619362217E+03  0.28118552718E+02  0.15210347863E+04  0.17287204786E+04  0.89246793165E+02 0.  0.
         11    1    3    3    0    0 -0.69810122255E+03  0.51389232659E+02  0.13292226963E+04  0.15022713292E+04  0.00000000000E+00 0. -1.
        -11    1    3    3    0    0 -0.11809239962E+03 -0.23270679941E+02  0.19181209000E+03  0.22644914940E+03  0.00000000000E+00 0.  1.
         22    1    1    2    0    0  0.81619362217E+03 -0.28118552718E+02 -0.12948863724E+04  0.15309126034E+04  0.00000000000E+00 0. -1.
<mgrwt>
<rscale>  0 0.32517787E+04</rscale>
<asrwt>0</asrwt>
<pdfrwt beam="1">  1        2 0.26813704E+00 0.32517787E+04</pdfrwt>
<pdfrwt beam="2">  1       -2 0.23334498E+00 0.32517787E+04</pdfrwt>
<totfact> 0.63423585E-01</totfact>
</mgrwt>
</event>
<event>
 6    1  0.6091287E-004  0.1464492E+04  0.7818608E-02  0.8908415E-01
          2   -1    0    0  501    0  0.00000000000E+00  0.00000000000E+00  0.62881142221E+03  0.62881142221E+03  0.00000000000E+00 0. -1.
         -2   -1    0    0    0  501 -0.00000000000E+00 -0.00000000000E+00 -0.85269446903E+03  0.85269446903E+03  0.00000000000E+00 0.  1.
         23    2    1    2    0    0  0.43724702956E+03 -0.56099477806E+03 -0.27617649446E+03  0.76831958280E+03  0.90229814085E+02 0.  0.
         13    1    3    3    0    0  0.30854582286E+03 -0.45549596675E+03 -0.20124529518E+03  0.58581291328E+03  0.00000000000E+00 0. -1.
        -13    1    3    3    0    0  0.12870120671E+03 -0.10549881131E+03 -0.74931199284E+02  0.18250666953E+03  0.00000000000E+00 0.  1.
         22    1    1    2    0    0 -0.43724702956E+03  0.56099477806E+03  0.52293447644E+02  0.71318630844E+03  0.00000000000E+00 0. -1.
<mgrwt>
<rscale>  0 0.14644918E+04</rscale>
<asrwt>0</asrwt>
<pdfrwt beam="1">  1        2 0.96740219E-01 0.14644918E+04</pdfrwt>
<pdfrwt beam="2">  1       -2 0.13118376E+00 0.14644918E+04</pdfrwt>
<totfact> 0.19250534E+01</totfact>
</mgrwt>
</event>
<event>
 6    1  0.6091287E-004  0.6054241E+03  0.7818608E-02  0.9894216E-01
         -2   -1    0    0    0  501 -0.00000000000E+00  0.00000000000E+00  0.50089695943E+02  0.50089695943E+02  0.00000000000E+00 0. -1.
          2   -1    0    0  501    0  0.00000000000E+00 -0.00000000000E+00 -0.18294095899E+04  0.18294095899E+04  0.00000000000E+00 0.  1.
         23    2    1    2    0    0 -0.13981988551E+02 -0.15783142528E+03 -0.16856801475E+04  0.16954485947E+04  0.89006307123E+02 0.  0.
         11    1    3    3    0    0 -0.17548434444E+02 -0.12341271979E+03 -0.85407379528E+03  0.86312264177E+03  0.00000000000E+00 0. -1.
        -11    1    3    3    0    0  0.35664458932E+01 -0.34418705481E+02 -0.83160635223E+03  0.83232595292E+03  0.00000000000E+00 0.  1.
         22    1    1    2    0    0  0.13981988551E+02  0.15783142528E+03 -0.93639746490E+02  0.18405069120E+03  0.00000000000E+00 0. -1.
<mgrwt>
<rscale>  0 0.60542405E+03</rscale>
<asrwt>0</asrwt>
<pdfrwt beam="1">  1        2 0.28144761E+00 0.60542405E+03</pdfrwt>
<pdfrwt beam="2">  1       -2 0.77061077E-02 0.60542405E+03</pdfrwt>
<totfact> 0.89211764E+02</totfact>
</mgrwt>
</event>
<event>
 6    1  0.6091287E-004  0.3032747E+04  0.7818608E-02  0.8234441E-01
         -2   -1    0    0    0  501 -0.00000000000E+00  0.00000000000E+00  0.11129267603E+04  0.11129267603E+04  0.00000000000E+00 0. -1.
          2   -1    0    0  501    0  0.00000000000E+00 -0.00000000000E+00 -0.20660737778E+04  0.20660737778E+04  0.00000000000E+00 0.  1.
         23    2    1    2    0    0 -0.57127556227E+03 -0.10132212440E+04  0.54051480908E+03  0.12858553483E+04  0.91075026763E+02 0.  0.
         11    1    3    3    0    0 -0.22227798099E+03 -0.35402714041E+03  0.15153404035E+03  0.44464062158E+03  0.00000000000E+00 0.  1.
        -11    1    3    3    0    0 -0.34899758128E+03 -0.65919410361E+03  0.38898076873E+03  0.84121472670E+03  0.00000000000E+00 0. -1.
         22    1    1    2    0    0  0.57127556227E+03  0.10132212440E+04 -0.14936618266E+04  0.18931451898E+04  0.00000000000E+00 0.  1.
<mgrwt>
<rscale>  0 0.30327471E+04</rscale>
<asrwt>0</asrwt>
<pdfrwt beam="1">  1        2 0.31785750E+00 0.30327471E+04</pdfrwt>
<pdfrwt beam="2">  1       -2 0.17121950E+00 0.30327471E+04</pdfrwt>
<totfact> 0.10948471E+00</totfact>
</mgrwt>
</event>
<event>
 6    1  0.6091287E-004  0.2375731E+04  0.7818608E-02  0.8448646E-01
         -1   -1    0    0    0  501 -0.00000000000E+00  0.00000000000E+00  0.12989865254E+04  0.12989865254E+04  0.00000000000E+00 0. -1.
          1   -1    0    0  501    0  0.00000000000E+00 -0.00000000000E+00 -0.10862506937E+04  0.10862506937E+04  0.00000000000E+00 0.  1.
         23    2    1    2    0    0  0.23369287404E+03  0.75567952059E+03  0.99388585936E+03  0.12735451471E+04  0.91892562935E+02 0.  0.
         13    1    3    3    0    0  0.17426201064E+03  0.42674505004E+03  0.60885297535E+03  0.76366257711E+03  0.00000000000E+00 0. -1.
        -13    1    3    3    0    0  0.59430863408E+02  0.32893447055E+03  0.38503288401E+03  0.50988257002E+03  0.00000000000E+00 0.  1.
         22    1    1    2    0    0 -0.23369287404E+03 -0.75567952059E+03 -0.78115002766E+03  0.11116920720E+04  0.00000000000E+00 0.  1.
<mgrwt>
<rscale>  0 0.23757315E+04</rscale>
<asrwt>0</asrwt>
<pdfrwt beam="1">  1        1 0.16711549E+00 0.23757315E+04</pdfrwt>
<pdfrwt beam="2">  1       -1 0.19984408E+00 0.23757315E+04</pdfrwt>
<totfact> 0.17594226E+00</totfact>
</mgrwt>
</event>
<event>
 6    1  0.6091287E-004  0.3279443E+04  0.7818608E-02  0.8168146E-01
         -2   -1    0    0    0  501 -0.00000000000E+00  0.00000000000E+00  0.10118223822E+04  0.10118223822E+04  0.00000000000E+00 0. -1.
          2   -1    0    0  501    0  0.00000000000E+00 -0.00000000000E+00 -0.26572706882E+04  0.26572706882E+04  0.00000000000E+00 0.  1.
         23    2    1    2    0    0  0.11765579346E+03 -0.15409287261E+04 -0.21448973274E+03  0.15629243537E+04  0.91773990031E+02 0.  0.
         13    1    3    3    0    0  0.71590093492E+02 -0.67976887266E+03 -0.53343417373E+02  0.68560657953E+03  0.00000000000E+00 0.  1.
        -13    1    3    3    0    0  0.46065699966E+02 -0.86115985344E+03 -0.16114631537E+03  0.87731777416E+03  0.00000000000E+00 0. -1.
         22    1    1    2    0    0 -0.11765579346E+03  0.15409287261E+04 -0.14309585733E+04  0.21061687167E+04  0.00000000000E+00 0.  1.
<mgrwt>
<rscale>  0 0.32794426E+04</rscale>
<asrwt>0</asrwt>
<pdfrwt beam="1">  1        2 0.40881087E+00 0.32794426E+04</pdfrwt>
<pdfrwt beam="2">  1       -2 0.15566498E+00 0.32794426E+04</pdfrwt>
<totfact> 0.63899121E-01</totfact>
</mgrwt>
</event>
<event>
 6    1  0.6091287E-004  0.3232151E+04  0.7818608E-02  0.8180377E-01
         -2   -1    0    0    0  501 -0.00000000000E+00  0.00000000000E+00  0.14547781575E+04  0.14547781575E+04  0.00000000000E+00 0. -1.
          2   -1    0    0  501    0  0.00000000000E+00 -0.00000000000E+00 -0.17952565152E+04  0.17952565152E+04  0.00000000000E+00 0.  1.
         23    2    1    2    0    0  0.64703685242E+02 -0.35508377517E+03 -0.17530734395E+04  0.17920580201E+04  0.89075298068E+02 0.  0.
         11    1    3    3    0    0  0.47255017667E+02 -0.71553328990E+02 -0.48879184400E+03  0.49625636756E+03  0.00000000000E+00 0.  1.
        -11    1    3    3    0    0  0.17448667575E+02 -0.28353044618E+03 -0.12642815955E+04  0.12958016525E+04  0.00000000000E+00 0. -1.
         22    1    1    2    0    0 -0.64703685242E+02  0.35508377517E+03  0.14125950819E+04  0.14579766526E+04  0.00000000000E+00 0. -1.
<mgrwt>
<rscale>  0 0.32321510E+04</rscale>
<asrwt>0</asrwt>
<pdfrwt beam="1">  1        2 0.27619331E+00 0.32321510E+04</pdfrwt>
<pdfrwt beam="2">  1       -2 0.22381202E+00 0.32321510E+04</pdfrwt>
<totfact> 0.68175467E-01</totfact>
</mgrwt>
</event>
<event>
 6    1  0.6091287E-004  0.2247913E+04  0.7818608E-02  0.8498746E-01
         -2   -1    0    0    0  501 -0.00000000000E+00  0.00000000000E+00  0.10046835152E+04  0.10046835152E+04  0.00000000000E+00 0. -1.
          2   -1    0    0  501    0  0.00000000000E+00 -0.00000000000E+00 -0.12573889061E+04  0.12573889061E+04  0.00000000000E+00 0.  1.
         23    2    1    2    0    0  0.11148149620E+04 -0.11253971830E+03 -0.62207188551E+02  0.11255130727E+04  0.86211106010E+02 0.  0.
         11    1    3    3    0    0  0.40590361006E+03 -0.82747442221E+02 -0.24261580012E+02  0.41496205142E+03  0.00000000000E+00 0. -1.
        -11    1    3    3    0    0  0.70891135195E+03 -0.29792276075E+02 -0.37945608540E+02  0.71055102128E+03  0.00000000000E+00 0.  1.
         22    1    1    2    0    0 -0.11148149620E+04  0.11253971830E+03 -0.19049820233E+03  0.11365593486E+04  0.00000000000E+00 0.  1.
<mgrwt>
<rscale>  0 0.22479127E+04</rscale>
<asrwt>0</asrwt>
<pdfrwt beam="1">  1        2 0.19344445E+00 0.22479127E+04</pdfrwt>
<pdfrwt beam="2">  1       -2 0.15456669E+00 0.22479127E+04</pdfrwt>
<totfact> 0.44102273E+00</totfact>
</mgrwt>
</event>
<event>
 6    1  0.6091287E-004  0.5974228E+03  0.7818608E-02  0.9910767E-01
         -2   -1    0    0    0  501 -0.00000000000E+00  0.00000000000E+00  0.12284055549E+03  0.12284055549E+03  0.00000000000E+00 0. -1.
          2   -1    0    0  501    0  0.00000000000E+00 -0.00000000000E+00 -0.72637652506E+03  0.72637652506E+03  0.00000000000E+00 0.  1.
         23    2    1    2    0    0  0.25735680114E+03 -0.55917197334E+02 -0.12911551693E+03  0.30659933118E+03  0.89292088797E+02 0.  0.
         13    1    3    3    0    0  0.86516988329E+02 -0.40367714310E+02 -0.64112933415E+01  0.95686186623E+02  0.00000000000E+00 0.  1.
        -13    1    3    3    0    0  0.17083981281E+03 -0.15549483024E+02 -0.12270422359E+03  0.21091314456E+03  0.00000000000E+00 0. -1.
         22    1    1    2    0    0 -0.25735680114E+03  0.55917197334E+02 -0.47442045264E+03  0.54261774937E+03  0.00000000000E+00 0.  1.
<mgrwt>
<rscale>  0 0.59742278E+03</rscale>
<asrwt>0</asrwt>
<pdfrwt beam="1">  1        2 0.11175023E+00 0.59742278E+03</pdfrwt>
<pdfrwt beam="2">  1       -2 0.18898547E-01 0.59742278E+03</pdfrwt>
<totfact> 0.92538738E+02</totfact>
</mgrwt>
</event>
<event>
 6    1  0.6091287E-004  0.1055252E+04  0.7818608E-02  0.9249938E-01
          2   -1    0    0  501    0  0.00000000000E+00  0.00000000000E+00  0.61451947918E+03  0.61451947918E+03  0.00000000000E+00 0.  1.
         -2   -1    0    0    0  501 -0.00000000000E+00 -0.00000000000E+00 -0.45301974100E+03  0.45301974100E+03  0.00000000000E+00 0. -1.
         23    2    1    2    0    0  0.49919701514E+03 -0.25158445513E+02 -0.76609068693E+02  0.51389094626E+03  0.91566085091E+02 0.  0.
         13    1    3    3    0    0  0.29864016636E+03  0.26764855055E+02 -0.62203803656E+02  0.30622152051E+03  0.00000000000E+00 0. -1.
        -13    1    3    3    0    0  0.20055684878E+03 -0.51923300568E+02 -0.14405265036E+02  0.20766942576E+03  0.00000000000E+00 0.  1.
         22    1    1    2    0    0 -0.49919701514E+03  0.25158445513E+02  0.23810880687E+03  0.55364827392E+03  0.00000000000E+00 0.  1.
<mgrwt>
<rscale>  0 0.10552525E+04</rscale>
<asrwt>0</asrwt>
<pdfrwt beam="1">  1        2 0.94541458E-01 0.10552525E+04</pdfrwt>
<pdfrwt beam="2">  1       -2 0.69695345E-01 0.10552525E+04</pdfrwt>
<totfact> 0.90059515E+01</totfact>
</mgrwt>
</event>
<event>
 6    1  0.6091287E-004  0.3777706E+04  0.7818608E-02  0.8050956E-01
         -2   -1    0    0    0  501 -0.00000000000E+00  0.00000000000E+00  0.15824077272E+04  0.15824077272E+04  0.00000000000E+00 0.  1.
          2   -1    0    0  501    0  0.00000000000E+00 -0.00000000000E+00 -0.22546432204E+04  0.22546432204E+04  0.00000000000E+00 0. -1.
         23    2    1    2    0    0  0.69801524871E+03 -0.65057022854E+03  0.13181222592E+04  0.16297922649E+04  0.91157155228E+02 0.  0.
         11    1    3    3    0    0  0.17272924968E+03 -0.20756739371E+03  0.41145599959E+03  0.49215409805E+03  0.00000000000E+00 0.  1.
        -11    1    3    3    0    0  0.52528599903E+03 -0.44300283482E+03  0.90666625962E+03  0.11376381669E+04  0.00000000000E+00 0. -1.
         22    1    1    2    0    0 -0.69801524871E+03  0.65057022854E+03 -0.19903577524E+04  0.22072586826E+04  0.00000000000E+00 0. -1.
<mgrwt>
<rscale>  0 0.37777056E+04</rscale>
<asrwt>0</asrwt>
<pdfrwt beam="1">  1        2 0.34686819E+00 0.37777056E+04</pdfrwt>
<pdfrwt beam="2">  1       -2 0.24344734E+00 0.37777056E+04</pdfrwt>
<totfact> 0.27250996E-01</totfact>
</mgrwt>
</event>
<event>
 6    1  0.6091287E-004  0.4991590E+04  0.7818608E-02  0.7829806E-01
          2   -1    0    0  501    0  0.00000000000E+00  0.00000000000E+00  0.26795468417E+04  0.26795468417E+04  0.00000000000E+00 0.  1.
         -2   -1    0    0    0  501 -0.00000000000E+00 -0.00000000000E+00 -0.23246440415E+04  0.23246440415E+04  0.00000000000E+00 0. -1.
         23    2    1    2    0    0  0.17421695683E+04 -0.16070768768E+04 -0.60438576505E+03  0.24472228654E+04  0.75938838638E+02 0.  0.
         11    1    3    3    0    0  0.61478995772E+02 -0.45907319291E+02 -0.30956307269E+02  0.82737185384E+02  0.00000000000E+00 0.  1.
        -11    1    3    3    0    0  0.16806905725E+04 -0.15611695575E+04 -0.57342945778E+03  0.23644856800E+04  0.00000000000E+00 0. -1.
         22    1    1    2    0    0 -0.17421695683E+04  0.16070768768E+04  0.95928856526E+03  0.25569680178E+04  0.00000000000E+00 0.  1.
<mgrwt>
<rscale>  0 0.49915900E+04</rscale>
<asrwt>0</asrwt>
<pdfrwt beam="1">  1        2 0.41223797E+00 0.49915900E+04</pdfrwt>
<pdfrwt beam="2">  1       -2 0.35763755E+00 0.49915900E+04</pdfrwt>
<totfact> 0.27696997E-02</totfact>
</mgrwt>
</event>
<event>
 6    1  0.6091287E-004  0.3942986E+04  0.7818608E-02  0.8016148E-01
          2   -1    0    0  501    0  0.00000000000E+00  0.00000000000E+00  0.17417881992E+04  0.17417881992E+04  0.00000000000E+00 0.  1.
         -2   -1    0    0    0  501 -0.00000000000E+00 -0.00000000000E+00 -0.22314914380E+04  0.22314914380E+04  0.00000000000E+00 0. -1.
         23    2    1    2    0    0  0.14054914689E+04 -0.82988815495E+03  0.86866539660E+03  0.18497716977E+04  0.54361231782E+02 0.  0.
         13    1    3    3    0    0  0.26751696908E+03 -0.16941157641E+03  0.14709497388E+03  0.34914544578E+03  0.00000000000E+00 0. -1.
        -13    1    3    3    0    0  0.11379744999E+04 -0.66047657854E+03  0.72157042272E+03  0.15006262520E+04  0.00000000000E+00 0.  1.
         22    1    1    2    0    0 -0.14054914689E+04  0.82988815495E+03 -0.13583686354E+04  0.21235079394E+04  0.00000000000E+00 0. -1.
<mgrwt>
<rscale>  0 0.39429864E+04</rscale>
<asrwt>0</asrwt>
<pdfrwt beam="1">  1        2 0.26796741E+00 0.39429864E+04</pdfrwt>
<pdfrwt beam="2">  1       -2 0.34330638E+00 0.39429864E+04</pdfrwt>
<totfact> 0.12626169E-01</totfact>
</mgrwt>
</event>
<event>
 6    1  0.6091287E-004  0.1690704E+04  0.7818608E-02  0.8766684E-01
         -2   -1    0    0    0  501 -0.00000000000E+00  0.00000000000E+00  0.15297519879E+04  0.15297519879E+04  0.00000000000E+00 0.  1.
          2   -1    0    0  501    0  0.00000000000E+00 -0.00000000000E+00 -0.46714784707E+03  0.46714784707E+03  0.00000000000E+00 0. -1.
         23    2    1    2    0    0  0.68137274035E+02  0.39719990155E+03  0.14070733170E+04  0.14667399881E+04  0.95186256989E+02 0.  0.
         13    1    3    3    0    0  0.29925368289E+02  0.13396929035E+03  0.33219229758E+03  0.35943708906E+03  0.00000000000E+00 0. -1.
        -13    1    3    3    0    0  0.38211905747E+02  0.26323061120E+03  0.10748810194E+04  0.11073028990E+04  0.00000000000E+00 0.  1.
         22    1    1    2    0    0 -0.68137274035E+02 -0.39719990155E+03 -0.34446917613E+03  0.53015984685E+03  0.00000000000E+00 0. -1.
<mgrwt>
<rscale>  0 0.16907044E+04</rscale>
<asrwt>0</asrwt>
<pdfrwt beam="1">  1        2 0.71868900E-01 0.16907044E+04</pdfrwt>
<pdfrwt beam="2">  1       -2 0.23534646E+00 0.16907044E+04</pdfrwt>
<totfact> 0.50210183E+00</totfact>
</mgrwt>
</event>
<event>
 6    1  0.6091287E-004  0.2593258E+04  0.7818608E-02  0.8370495E-01
         -2   -1    0    0    0  501 -0.00000000000E+00  0.00000000000E+00  0.63726706638E+03  0.63726706638E+03  0.00000000000E+00 0. -1.
          2   -1    0    0  501    0  0.00000000000E+00 -0.00000000000E+00 -0.26382141591E+04  0.26382141591E+04  0.00000000000E+00 0.  1.
         23    2    1    2    0    0 -0.13551271587E+03 -0.47193215234E+03 -0.25152591177E+04  0.25644253124E+04  0.93086526185E+02 0.  0.
         13    1    3    3    0    0 -0.95080628135E+02 -0.16999192885E+03 -0.10273280800E+04  0.10456292678E+04  0.00000000000E+00 0.  1.
        -13    1    3    3    0    0 -0.40432087737E+02 -0.30194022349E+03 -0.14879310376E+04  0.15187960446E+04  0.00000000000E+00 0. -1.
         22    1    1    2    0    0  0.13551271587E+03  0.47193215234E+03  0.51431202492E+03  0.71105591310E+03  0.00000000000E+00 0. -1.
<mgrwt>
<rscale>  0 0.25932582E+04</rscale>
<asrwt>0</asrwt>
<pdfrwt beam="1">  1        2 0.40587911E+00 0.25932582E+04</pdfrwt>
<pdfrwt beam="2">  1       -2 0.98041086E-01 0.25932582E+04</pdfrwt>
<totfact> 0.22129865E+00</totfact>
</mgrwt>
</event>
<event>
 6    1  0.6091287E-004  0.1836554E+04  0.7818608E-02  0.8687098E-01
          2   -1    0    0  501    0  0.00000000000E+00  0.00000000000E+00  0.16728666859E+04  0.16728666859E+04  0.00000000000E+00 0.  1.
         -2   -1    0    0    0  501 -0.00000000000E+00 -0.00000000000E+00 -0.50406462060E+03  0.50406462060E+03  0.00000000000E+00 0. -1.
         23    2    1    2    0    0  0.90707824292E+03 -0.90956345819E+02  0.69627364116E+03  0.11501172497E+04  0.83118644434E+02 0.  0.
         11    1    3    3    0    0  0.33544730163E+03 -0.33259168240E+02  0.30863402941E+03  0.45704051084E+03  0.00000000000E+00 0. -1.
        -11    1    3    3    0    0  0.57163094129E+03 -0.57697177579E+02  0.38763961175E+03  0.69307673885E+03  0.00000000000E+00 0.  1.
         22    1    1    2    0    0 -0.90707824292E+03  0.90956345819E+02  0.47252842413E+03  0.10268140568E+04  0.00000000000E+00 0. -1.
<mgrwt>
<rscale>  0 0.18365543E+04</rscale>
<asrwt>0</asrwt>
<pdfrwt beam="1">  1        2 0.25736410E+00 0.18365543E+04</pdfrwt>
<pdfrwt beam="2">  1       -2 0.77548404E-01 0.18365543E+04</pdfrwt>
<totfact> 0.14166906E+01</totfact>
</mgrwt>
</event>
<event>
 6    1  0.6091287E-004  0.2708984E+04  0.7818608E-02  0.8332096E-01
         -2   -1    0    0    0  501 -0.00000000000E+00  0.00000000000E+00  0.21935431981E+04  0.21935431981E+04  0.00000000000E+00 0. -1.
          2   -1    0    0  501    0  0.00000000000E+00 -0.00000000000E+00 -0.83638590094E+03  0.83638590094E+03  0.00000000000E+00 0.  1.
         23    2    1    2    0    0 -0.95395045473E+03 -0.42519482461E+03  0.16413143019E+04  0.19475440879E+04  0.90571672439E+02 0.  0.
         11    1    3    3    0    0 -0.11614947832E+03 -0.85504429981E+02  0.23335890797E+03  0.27433207758E+03  0.00000000000E+00 0. -1.
        -11    1    3    3    0    0 -0.83780097642E+03 -0.33969039463E+03  0.14079553939E+04  0.16732120104E+04  0.00000000000E+00 0.  1.
         22    1    1    2    0    0  0.95395045473E+03  0.42519482461E+03 -0.28415700473E+03  0.10823850111E+04  0.00000000000E+00 0.  1.
<mgrwt>
<rscale>  0 0.27089840E+04</rscale>
<asrwt>0</asrwt>
<pdfrwt beam="1">  1        2 0.12867476E+00 0.27089840E+04</pdfrwt>
<pdfrwt beam="2">  1       -2 0.33746818E+00 0.27089840E+04</pdfrwt>
<totfact> 0.53047109E-01</totfact>
</mgrwt>
</event>
<event>
 6    1  0.6091287E-004  0.9504315E+03  0.7818608E-02  0.9364646E-01
          2   -1    0    0  501    0  0.00000000000E+00  0.00000000000E+00  0.13427684997E+04  0.13427684997E+04  0.00000000000E+00 0.  1.
         -2   -1    0    0    0  501 -0.00000000000E+00 -0.00000000000E+00 -0.16818239247E+03  0.16818239247E+03  0.00000000000E+00 0. -1.
         23    2    1    2    0    0  0.12957255627E+03  0.18058920939E+03  0.12527419035E+04  0.12753456325E+04  0.87992588752E+02 0.  0.
         13    1    3    3    0    0  0.93795396994E+02  0.16087926496E+03  0.82999930204E+03  0.85063420797E+03  0.00000000000E+00 0. -1.
        -13    1    3    3    0    0  0.35777159279E+02  0.19709944424E+02  0.42274260144E+03  0.42471142451E+03  0.00000000000E+00 0.  1.
         22    1    1    2    0    0 -0.12957255627E+03 -0.18058920939E+03 -0.78155796282E+02  0.23560525966E+03  0.00000000000E+00 0. -1.
<mgrwt>
<rscale>  0 0.95043152E+03</rscale>
<asrwt>0</asrwt>
<pdfrwt beam="1">  1        2 0.20657976E+00 0.95043152E+03</pdfrwt>
<pdfrwt beam="2">  1       -2 0.25874215E-01 0.95043152E+03</pdfrwt>
<totfact> 0.21024605E+02</totfact>
</mgrwt>
</event>
<event>
 6    1  0.6091287E-004  0.1433543E+04  0.7818608E-02  0.8929890E-01
          2   -1    0    0  501    0  0.00000000000E+00  0.00000000000E+00  0.24970948968E+03  0.24970948968E+03  0.00000000000E+00 0.  1.
         -2   -1    0    0    0  501 -0.00000000000E+00 -0.00000000000E+00 -0.20574356183E+04  0.20574356183E+04  0.00000000000E+00 0. -1.
         23    2    1    2    0    0  0.53549666991E+03 -0.42204389595E+03 -0.56692660158E+03  0.89135515183E+03  0.90722111526E+02 0.  0.
         11    1    3    3    0    0  0.32198556194E+03 -0.19831958180E+03 -0.29650277356E+03  0.48054058450E+03  0.00000000000E+00 0.  1.
        -11    1    3    3    0    0  0.21351110797E+03 -0.22372431415E+03 -0.27042382802E+03  0.41081456733E+03  0.00000000000E+00 0. -1.
         22    1    1    2    0    0 -0.53549666991E+03  0.42204389595E+03 -0.12407995270E+04  0.14157899561E+04  0.00000000000E+00 0. -1.
<mgrwt>
<rscale>  0 0.14335427E+04</rscale>
<asrwt>0</asrwt>
<pdfrwt beam="1">  1        2 0.38416844E-01 0.14335427E+04</pdfrwt>
<pdfrwt beam="2">  1       -2 0.31652856E+00 0.14335427E+04</pdfrwt>
<totfact> 0.33106395E+00</totfact>
</mgrwt>
</event>
<event>
 6    1  0.6091287E-004  0.5166123E+04  0.7818608E-02  0.7803380E-01
         -2   -1    0    0    0  501 -0.00000000000E+00  0.00000000000E+00  0.25447619587E+04  0.25447619587E+04  0.00000000000E+00 0. -1.
          2   -1    0    0  501    0  0.00000000000E+00 -0.00000000000E+00 -0.26219376925E+04  0.26219376925E+04  0.00000000000E+00 0.  1.
         23    2    1    2    0    0  0.61420856944E+02  0.23405182853E+04 -0.11278601755E+04  0.26004307328E+04  0.91504400052E+02 0.  0.
         11    1    3    3    0    0  0.24356950471E+02  0.15227825043E+04 -0.77857692761E+03  0.17104507735E+04  0.00000000000E+00 0.  1.
        -11    1    3    3    0    0  0.37063906473E+02  0.81773578106E+03 -0.34928324786E+03  0.88997995934E+03  0.00000000000E+00 0. -1.
         22    1    1    2    0    0 -0.61420856944E+02 -0.23405182853E+04  0.10506844416E+04  0.25662689184E+04  0.00000000000E+00 0. -1.
<mgrwt>
<rscale>  0 0.51661232E+04</rscale>
<asrwt>0</asrwt>
<pdfrwt beam="1">  1        2 0.40337503E+00 0.51661232E+04</pdfrwt>
<pdfrwt beam="2">  1       -2 0.39150184E+00 0.51661232E+04</pdfrwt>
<totfact> 0.17910576E-02</totfact>
</mgrwt>
</event>
<event>
 6    1  0.6091287E-004  0.3164167E+04  0.7818608E-02  0.8198345E-01
         -2   -1    0    0    0  501 -0.00000000000E+00  0.00000000000E+00  0.79636878249E+03  0.79636878249E+03  0.00000000000E+00 0. -1.
          2   -1    0    0  501    0  0.00000000000E+00 -0.00000000000E+00 -0.31430014180E+04  0.31430014180E+04  0.00000000000E+00 0.  1.
         23    2    1    2    0    0 -0.14081932899E+04  0.54961606693E+03 -0.59863316477E+03  0.16283989085E+04  0.90747873581E+02 0.  0.
         11    1    3    3    0    0 -0.24068523353E+03  0.11460198448E+03 -0.13689865464E+03  0.29967355260E+03  0.00000000000E+00 0.  1.
        -11    1    3    3    0    0 -0.11675080563E+04  0.43501408245E+03 -0.46173451013E+03  0.13287253559E+04  0.00000000000E+00 0. -1.
         22    1    1    2    0    0  0.14081932899E+04 -0.54961606693E+03 -0.17479994707E+04  0.23109712920E+04  0.00000000000E+00 0.  1.
<mgrwt>
<rscale>  0 0.31641670E+04</rscale>
<asrwt>0</asrwt>
<pdfrwt beam="1">  1        2 0.48353869E+00 0.31641670E+04</pdfrwt>
<pdfrwt beam="2">  1       -2 0.12251827E+00 0.31641670E+04</pdfrwt>
<totfact> 0.60078585E-01</totfact>
</mgrwt>
</event>
<event>
 6    1  0.6091287E-004  0.2298316E+04  0.7818608E-02  0.8478585E-01
         -2   -1    0    0    0  501 -0.00000000000E+00  0.00000000000E+00  0.10402135070E+04  0.10402135070E+04  0.00000000000E+00 0. -1.
          2   -1    0    0  501    0  0.00000000000E+00 -0.00000000000E+00 -0.12695125948E+04  0.12695125948E+04  0.00000000000E+00 0.  1.
         23    2    1    2    0    0 -0.91863997670E+02 -0.47051093005E+03 -0.11624634993E+04  0.12606239388E+04  0.89620303043E+02 0.  0.
         11    1    3    3    0    0 -0.88822642122E+01 -0.26985018470E+03 -0.67421143217E+03  0.72626377582E+03  0.00000000000E+00 0. -1.
        -11    1    3    3    0    0 -0.82981733458E+02 -0.20066074535E+03 -0.48825206710E+03  0.53436016303E+03  0.00000000000E+00 0.  1.
         22    1    1    2    0    0  0.91863997670E+02  0.47051093005E+03  0.93316441147E+03  0.10491021629E+04  0.00000000000E+00 0. -1.
<mgrwt>
<rscale>  0 0.22983160E+04</rscale>
<asrwt>0</asrwt>
<pdfrwt beam="1">  1        2 0.19530963E+00 0.22983160E+04</pdfrwt>
<pdfrwt beam="2">  1       -2 0.16003285E+00 0.22983160E+04</pdfrwt>
<totfact> 0.39324820E+00</totfact>
</mgrwt>
</event>
<event>
 6    1  0.6091287E-004  0.1679086E+04  0.7818608E-02  0.8773383E-01
         -2   -1    0    0    0  501 -0.00000000000E+00  0.00000000000E+00  0.15947235526E+04  0.15947235526E+04  0.00000000000E+00 0. -1.
          2   -1    0    0  501    0  0.00000000000E+00 -0.00000000000E+00 -0.44197761322E+03  0.44197761322E+03  0.00000000000E+00 0.  1.
         23    2    1    2    0    0 -0.13491947917E+03 -0.72986133302E+03  0.10472676558E+04  0.12870168992E+04  0.93499330247E+02 0.  0.
         13    1    3    3    0    0 -0.10862889689E+03 -0.40196331344E+03  0.63945142165E+03  0.76306805938E+03  0.00000000000E+00 0. -1.
        -13    1    3    3    0    0 -0.26290582284E+02 -0.32789801958E+03  0.40781623414E+03  0.52394883985E+03  0.00000000000E+00 0.  1.
         22    1    1    2    0    0  0.13491947917E+03  0.72986133302E+03  0.10547828362E+03  0.74968426661E+03  0.00000000000E+00 0.  1.
<mgrwt>
<rscale>  0 0.16790856E+04</rscale>
<asrwt>0</asrwt>
<pdfrwt beam="1">  1        2 0.67996557E-01 0.16790856E+04</pdfrwt>
<pdfrwt beam="2">  1       -2 0.24534208E+00 0.16790856E+04</pdfrwt>
<totfact> 0.46451611E+00</totfact>
</mgrwt>
</event>
<event>
 6    1  0.6091287E-004  0.5617641E+04  0.7818608E-02  0.7739706E-01
          1   -1    0    0  501    0  0.00000000000E+00  0.00000000000E+00  0.40163373808E+04  0.40163373808E+04  0.00000000000E+00 0.  1.
         -1   -1    0    0    0  501 -0.00000000000E+00 -0.00000000000E+00 -0.19643453869E+04  0.19643453869E+04  0.00000000000E+00 0. -1.
         23    2    1    2    0    0  0.21462187671E+04  0.70931550717E+03  0.28000422599E+04  0.35997244133E+04  0.91628106485E+02 0.  0.
         11    1    3    3    0    0  0.19838603992E+04  0.63361954552E+03  0.25567668576E+04  0.32976101311E+04  0.00000000000E+00 0. -1.
        -11    1    3    3    0    0  0.16235836792E+03  0.75695961644E+02  0.24327540221E+03  0.30211428229E+03  0.00000000000E+00 0.  1.
         22    1    1    2    0    0 -0.21462187671E+04 -0.70931550717E+03 -0.74805026592E+03  0.23809583544E+04  0.00000000000E+00 0. -1.
<mgrwt>
<rscale>  0 0.56176414E+04</rscale>
<asrwt>0</asrwt>
<pdfrwt beam="1">  1        1 0.61789806E+00 0.56176414E+04</pdfrwt>
<pdfrwt beam="2">  1       -1 0.30220698E+00 0.56176414E+04</pdfrwt>
<totfact> 0.20324110E-03</totfact>
</mgrwt>
</event>
<event>
 6    1  0.6091287E-004  0.3929921E+04  0.7818608E-02  0.8018835E-01
          2   -1    0    0  501    0  0.00000000000E+00  0.00000000000E+00  0.25740964233E+04  0.25740964233E+04  0.00000000000E+00 0.  1.
         -2   -1    0    0    0  501 -0.00000000000E+00 -0.00000000000E+00 -0.14999712564E+04  0.14999712564E+04  0.00000000000E+00 0. -1.
         23    2    1    2    0    0  0.51924634576E+03  0.73788050119E+03  0.23457278313E+04  0.25148827203E+04  0.90064626137E+02 0.  0.
         11    1    3    3    0    0  0.15304237039E+03  0.15489407248E+03  0.52723574707E+03  0.57043112977E+03  0.00000000000E+00 0. -1.
        -11    1    3    3    0    0  0.36620397537E+03  0.58298642871E+03  0.18184920842E+04  0.19444515905E+04  0.00000000000E+00 0.  1.
         22    1    1    2    0    0 -0.51924634576E+03 -0.73788050119E+03 -0.12716026644E+04  0.15591849594E+04  0.00000000000E+00 0. -1.
<mgrwt>
<rscale>  0 0.39299214E+04</rscale>
<asrwt>0</asrwt>
<pdfrwt beam="1">  1        2 0.39601484E+00 0.39299214E+04</pdfrwt>
<pdfrwt beam="2">  1       -2 0.23076481E+00 0.39299214E+04</pdfrwt>
<totfact> 0.21141917E-01</totfact>
</mgrwt>
</event>
<event>
 6    1  0.6091287E-004  0.8796720E+03  0.7818608E-02  0.9451355E-01
         -2   -1    0    0    0  501 -0.00000000000E+00  0.00000000000E+00  0.57871286925E+03  0.57871286925E+03  0.00000000000E+00 0. -1.
          2   -1    0    0  501    0  0.00000000000E+00 -0.00000000000E+00 -0.33428613033E+03  0.33428613033E+03  0.00000000000E+00 0.  1.
         23    2    1    2    0    0 -0.10576706383E+03  0.12526207667E+03  0.54153200053E+03  0.57366318343E+03  0.94632345344E+02 0.  0.
         11    1    3    3    0    0 -0.44224539864E+02  0.23622370604E+02  0.30360381623E+03  0.30771594621E+03  0.00000000000E+00 0.  1.
        -11    1    3    3    0    0 -0.61542523965E+02  0.10163970606E+03  0.23792818430E+03  0.26594723722E+03  0.00000000000E+00 0. -1.
         22    1    1    2    0    0  0.10576706383E+03 -0.12526207667E+03 -0.29710526161E+03  0.33933581614E+03  0.00000000000E+00 0.  1.
<mgrwt>
<rscale>  0 0.87967195E+03</rscale>
<asrwt>0</asrwt>
<pdfrwt beam="1">  1        2 0.51428635E-01 0.87967195E+03</pdfrwt>
<pdfrwt beam="2">  1       -2 0.89032749E-01 0.87967195E+03</pdfrwt>
<totfact> 0.10589188E+02</totfact>
</mgrwt>
</event>
<event>
 6    1  0.6091287E-004  0.1372732E+04  0.7818608E-02  0.8973796E-01
          2   -1    0    0  501    0  0.00000000000E+00  0.00000000000E+00  0.82031199560E+03  0.82031199560E+03  0.00000000000E+00 0.  1.
         -2   -1    0    0    0  501 -0.00000000000E+00 -0.00000000000E+00 -0.57429200201E+03  0.57429200201E+03  0.00000000000E+00 0. -1.
         23    2    1    2    0    0 -0.38052454190E+03 -0.34917854508E+03 -0.33094070928E+03  0.62026025224E+03  0.92067606243E+02 0.  0.
         11    1    3    3    0    0 -0.67087806149E+02 -0.10327387829E+03 -0.10762762800E+03  0.16355419279E+03  0.00000000000E+00 0. -1.
        -11    1    3    3    0    0 -0.31343673575E+03 -0.24590466678E+03 -0.22331308129E+03  0.45670605945E+03  0.00000000000E+00 0.  1.
         22    1    1    2    0    0  0.38052454190E+03  0.34917854508E+03  0.57696070287E+03  0.77434374537E+03  0.00000000000E+00 0.  1.
<mgrwt>
<rscale>  0 0.13727325E+04</rscale>
<asrwt>0</asrwt>
<pdfrwt beam="1">  1        2 0.12620185E+00 0.13727325E+04</pdfrwt>
<pdfrwt beam="2">  1       -2 0.88352615E-01 0.13727325E+04</pdfrwt>
<totfact> 0.35832830E+01</totfact>
</mgrwt>
</event>
<event>
 6    1  0.6091287E-004  0.3984951E+04  0.7818608E-02  0.8007589E-01
         -2   -1    0    0    0  501 -0.00000000000E+00  0.00000000000E+00  0.19203944759E+04  0.19203944759E+04  0.00000000000E+00 0. -1.
          2   -1    0    0  501    0  0.00000000000E+00 -0.00000000000E+00 -0.20672623398E+04  0.20672623398E+04  0.00000000000E+00 0.  1.
         23    2    1    2    0    0 -0.11516097240E+04  0.97730689687E+03 -0.13722567906E+04  0.20426859294E+04  0.90240674850E+02 0.  0.
         13    1    3    3    0    0 -0.75390974965E+03  0.68657962835E+03 -0.89433504990E+03  0.13563210085E+04  0.00000000000E+00 0. -1.
        -13    1    3    3    0    0 -0.39769997438E+03  0.29072726852E+03 -0.47792174073E+03  0.68636492083E+03  0.00000000000E+00 0.  1.
         22    1    1    2    0    0  0.11516097240E+04 -0.97730689687E+03  0.12253889267E+04  0.19449708864E+04  0.00000000000E+00 0. -1.
<mgrwt>
<rscale>  0 0.39849513E+04</rscale>
<asrwt>0</asrwt>
<pdfrwt beam="1">  1        2 0.31804036E+00 0.39849513E+04</pdfrwt>
<pdfrwt beam="2">  1       -2 0.29544531E+00 0.39849513E+04</pdfrwt>
<totfact> 0.16405620E-01</totfact>
</mgrwt>
</event>
<event>
 6    1  0.6091287E-004  0.2861950E+03  0.7818608E-02  0.1092353E+00
         -2   -1    0    0    0  501 -0.00000000000E+00  0.00000000000E+00  0.47626925880E+03  0.47626925880E+03  0.00000000000E+00 0. -1.
          2   -1    0    0  501    0  0.00000000000E+00 -0.00000000000E+00 -0.42994376820E+02  0.42994376820E+02  0.00000000000E+00 0.  1.
         23    2    1    2    0    0 -0.15770837145E+02 -0.12730778337E+03  0.23440989447E+03  0.28261352624E+03  0.92013127208E+02 0.  0.
         11    1    3    3    0    0 -0.28186728100E+02 -0.95459690323E+02  0.22667686976E+03  0.24756705637E+03  0.00000000000E+00 0. -1.
        -11    1    3    3    0    0  0.12415890955E+02 -0.31848093049E+02  0.77330247090E+01  0.35046469868E+02  0.00000000000E+00 0.  1.
         22    1    1    2    0    0  0.15770837145E+02  0.12730778337E+03  0.19886498752E+03  0.23665010939E+03  0.00000000000E+00 0.  1.
<mgrwt>
<rscale>  0 0.28619504E+03</rscale>
<asrwt>0</asrwt>
<pdfrwt beam="1">  1        2 0.66145199E-02 0.28619504E+03</pdfrwt>
<pdfrwt beam="2">  1       -2 0.73272190E-01 0.28619504E+03</pdfrwt>
<totfact> 0.18779710E+03</totfact>
</mgrwt>
</event>
<event>
 6    1  0.6091287E-004  0.9519702E+03  0.7818608E-02  0.9362851E-01
         -2   -1    0    0    0  501 -0.00000000000E+00  0.00000000000E+00  0.19856070400E+03  0.19856070400E+03  0.00000000000E+00 0. -1.
          2   -1    0    0  501    0  0.00000000000E+00 -0.00000000000E+00 -0.11410204936E+04  0.11410204936E+04  0.00000000000E+00 0.  1.
         23    2    1    2    0    0 -0.38556647192E+03  0.17639022892E+03 -0.18641997598E+03  0.47276448290E+03  0.94756697450E+02 0.  0.
         11    1    3    3    0    0 -0.29433230320E+03  0.16604140460E+03 -0.17402292442E+03  0.38011212947E+03  0.00000000000E+00 0. -1.
        -11    1    3    3    0    0 -0.91234168723E+02  0.10348824325E+02 -0.12397051562E+02  0.92652353423E+02  0.00000000000E+00 0.  1.
         22    1    1    2    0    0  0.38556647192E+03 -0.17639022892E+03 -0.75603981366E+03  0.86681671475E+03  0.00000000000E+00 0. -1.
<mgrwt>
<rscale>  0 0.95197024E+03</rscale>
<asrwt>0</asrwt>
<pdfrwt beam="1">  1        2 0.17554162E+00 0.95197024E+03</pdfrwt>
<pdfrwt beam="2">  1       -2 0.30547800E-01 0.95197024E+03</pdfrwt>
<totfact> 0.20361947E+02</totfact>
</mgrwt>
</event>
<event>
 6    1  0.6091287E-004  0.1600851E+04  0.7818608E-02  0.8820025E-01
          1   -1    0    0  501    0  0.00000000000E+00  0.00000000000E+00  0.10085134563E+04  0.10085134563E+04  0.00000000000E+00 0.  1.
         -1   -1    0    0    0  501 -0.00000000000E+00 -0.00000000000E+00 -0.63527268213E+03  0.63527268213E+03  0.00000000000E+00 0. -1.
         23    2    1    2    0    0  0.60330574802E+03  0.41144895058E+02 -0.34751632617E+03  0.70295590630E+03  0.87799096038E+02 0.  0.
         13    1    3    3    0    0  0.30144689016E+02  0.16868755408E+02 -0.37061421643E+02  0.50663657182E+02  0.00000000000E+00 0. -1.
        -13    1    3    3    0    0  0.57316105900E+03  0.24276139650E+02 -0.31045490453E+03  0.65229224912E+03  0.00000000000E+00 0.  1.
         22    1    1    2    0    0 -0.60330574802E+03 -0.41144895058E+02  0.72075710032E+03  0.94083023211E+03  0.00000000000E+00 0.  1.
<mgrwt>
<rscale>  0 0.16008511E+04</rscale>
<asrwt>0</asrwt>
<pdfrwt beam="1">  1        1 0.15515592E+00 0.16008511E+04</pdfrwt>
<pdfrwt beam="2">  1       -1 0.97734259E-01 0.16008511E+04</pdfrwt>
<totfact> 0.14361033E+01</totfact>
</mgrwt>
</event>
<event>
 6    1  0.6091287E-004  0.2608722E+04  0.7818608E-02  0.8365244E-01
          2   -1    0    0  501    0  0.00000000000E+00  0.00000000000E+00  0.13577732411E+04  0.13577732411E+04  0.00000000000E+00 0.  1.
         -2   -1    0    0    0  501 -0.00000000000E+00 -0.00000000000E+00 -0.12530502708E+04  0.12530502708E+04  0.00000000000E+00 0. -1.
         23    2    1    2    0    0  0.12526203878E+04 -0.33412510634E+03 -0.80571786795E+02  0.13012313733E+04  0.77549025068E+02 0.  0.
         11    1    3    3    0    0  0.32436720556E+03 -0.11394040782E+03  0.32731920904E+00  0.34379733523E+03  0.00000000000E+00 0. -1.
        -11    1    3    3    0    0  0.92825318228E+03 -0.22018469853E+03 -0.80899106004E+02  0.95743403805E+03  0.00000000000E+00 0.  1.
         22    1    1    2    0    0 -0.12526203878E+04  0.33412510634E+03  0.18529475708E+03  0.13095921387E+04  0.00000000000E+00 0. -1.
<mgrwt>
<rscale>  0 0.26087224E+04</rscale>
<asrwt>0</asrwt>
<pdfrwt beam="1">  1        2 0.20888819E+00 0.26087224E+04</pdfrwt>
<pdfrwt beam="2">  1       -2 0.19277696E+00 0.26087224E+04</pdfrwt>
<totfact> 0.20088776E+00</totfact>
</mgrwt>
</event>
<event>
 6    1  0.6091287E-004  0.3011865E+04  0.7818608E-02  0.8240351E-01
         -2   -1    0    0    0  501 -0.00000000000E+00  0.00000000000E+00  0.23258199393E+04  0.23258199393E+04  0.00000000000E+00 0. -1.
          2   -1    0    0  501    0  0.00000000000E+00 -0.00000000000E+00 -0.97506795436E+03  0.97506795436E+03  0.00000000000E+00 0.  1.
         23    2    1    2    0    0  0.56551684943E+03  0.95402885815E+03  0.17902436234E+04  0.21079363986E+04  0.91887213821E+02 0.  0.
         11    1    3    3    0    0  0.25571272126E+03  0.48513640071E+03  0.81437540176E+03  0.98181139640E+03  0.00000000000E+00 0. -1.
        -11    1    3    3    0    0  0.30980412818E+03  0.46889245744E+03  0.97586822168E+03  0.11261250022E+04  0.00000000000E+00 0.  1.
         22    1    1    2    0    0 -0.56551684943E+03 -0.95402885815E+03 -0.43949163853E+03  0.11929514950E+04  0.00000000000E+00 0.  1.
<mgrwt>
<rscale>  0 0.30118649E+04</rscale>
<asrwt>0</asrwt>
<pdfrwt beam="1">  1        2 0.15001046E+00 0.30118649E+04</pdfrwt>
<pdfrwt beam="2">  1       -2 0.35781845E+00 0.30118649E+04</pdfrwt>
<totfact> 0.31028670E-01</totfact>
</mgrwt>
</event>
<event>
 6    1  0.6091287E-004  0.4604750E+04  0.7818608E-02  0.7892550E-01
          2   -1    0    0  501    0  0.00000000000E+00  0.00000000000E+00  0.42889233883E+04  0.42889233883E+04  0.00000000000E+00 0.  1.
         -2   -1    0    0    0  501 -0.00000000000E+00 -0.00000000000E+00 -0.12359583373E+04  0.12359583373E+04  0.00000000000E+00 0. -1.
         23    2    1    2    0    0 -0.37478583684E+03  0.11298193478E+04  0.38904230796E+04  0.40694463502E+04  0.89697693134E+02 0.  0.
         13    1    3    3    0    0 -0.11337470290E+03  0.40604589266E+03  0.15084040250E+04  0.15662087322E+04  0.00000000000E+00 0.  1.
        -13    1    3    3    0    0 -0.26141113394E+03  0.72377345519E+03  0.23820190546E+04  0.25032376180E+04  0.00000000000E+00 0. -1.
         22    1    1    2    0    0  0.37478583684E+03 -0.11298193478E+04 -0.83745802863E+03  0.14554353754E+04  0.00000000000E+00 0. -1.
<mgrwt>
<rscale>  0 0.46047500E+04</rscale>
<asrwt>0</asrwt>
<pdfrwt beam="1">  1        2 0.65983436E+00 0.46047500E+04</pdfrwt>
<pdfrwt beam="2">  1       -2 0.19014744E+00 0.46047500E+04</pdfrwt>
<totfact> 0.22400862E-02</totfact>
</mgrwt>
</event>
<event>
 6    1  0.6091287E-004  0.1349221E+04  0.7818608E-02  0.8991418E-01
          2   -1    0    0  501    0  0.00000000000E+00  0.00000000000E+00  0.33058030963E+04  0.33058030963E+04  0.00000000000E+00 0.  1.
         -2   -1    0    0    0  501 -0.00000000000E+00 -0.00000000000E+00 -0.13766673732E+03  0.13766673732E+03  0.00000000000E+00 0. -1.
         23    2    1    2    0    0 -0.46049918125E+03 -0.44522470026E+03  0.21056186683E+04  0.22028134055E+04  0.92045605397E+02 0.  0.
         11    1    3    3    0    0 -0.13093990604E+03 -0.12675344891E+03  0.74995053816E+03  0.77177555383E+03  0.00000000000E+00 0.  1.
        -11    1    3    3    0    0 -0.32955927521E+03 -0.31847125135E+03  0.13556681301E+04  0.14310378516E+04  0.00000000000E+00 0. -1.
         22    1    1    2    0    0  0.46049918125E+03  0.44522470026E+03  0.10625176907E+04  0.12406564282E+04  0.00000000000E+00 0. -1.
<mgrwt>
<rscale>  0 0.13492207E+04</rscale>
<asrwt>0</asrwt>
<pdfrwt beam="1">  1        2 0.50858503E+00 0.13492207E+04</pdfrwt>
<pdfrwt beam="2">  1       -2 0.21179501E-01 0.13492207E+04</pdfrwt>
<totfact> 0.21152076E+01</totfact>
</mgrwt>
</event>
<event>
 6    1  0.6091287E-004  0.1242744E+04  0.7818608E-02  0.9076244E-01
         -1   -1    0    0    0  501 -0.00000000000E+00  0.00000000000E+00  0.31513696492E+03  0.31513696492E+03  0.00000000000E+00 0. -1.
          1   -1    0    0  501    0  0.00000000000E+00 -0.00000000000E+00 -0.12251923651E+04  0.12251923651E+04  0.00000000000E+00 0.  1.
         23    2    1    2    0    0  0.42936000129E+03  0.94211238760E+02  0.81145925284E+02  0.45602963169E+03  0.90291724837E+02 0.  0.
         13    1    3    3    0    0  0.35648393503E+03  0.10844375734E+03  0.83032364860E+02  0.38175282325E+03  0.00000000000E+00 0.  1.
        -13    1    3    3    0    0  0.72876066259E+02 -0.14232518583E+02 -0.18864395760E+01  0.74276808445E+02  0.00000000000E+00 0. -1.
         22    1    1    2    0    0 -0.42936000129E+03 -0.94211238760E+02 -0.99120132548E+03  0.10842996984E+04  0.00000000000E+00 0.  1.
<mgrwt>
<rscale>  0 0.12427444E+04</rscale>
<asrwt>0</asrwt>
<pdfrwt beam="1">  1        1 0.18849114E+00 0.12427444E+04</pdfrwt>
<pdfrwt beam="2">  1       -1 0.48482609E-01 0.12427444E+04</pdfrwt>
<totfact> 0.43000591E+01</totfact>
</mgrwt>
</event>
<event>
 6    1  0.6091287E-004  0.3330862E+04  0.7818608E-02  0.8155087E-01
          2   -1    0    0  501    0  0.00000000000E+00  0.00000000000E+00  0.43407112557E+04  0.43407112557E+04  0.00000000000E+00 0.  1.
         -2   -1    0    0    0  501 -0.00000000000E+00 -0.00000000000E+00 -0.63898756190E+03  0.63898756190E+03  0.00000000000E+00 0. -1.
         23    2    1    2    0    0 -0.82591483513E+03 -0.14378795619E+04  0.20627656552E+04  0.26482150836E+04  0.91695317715E+02 0.  0.
         11    1    3    3    0    0 -0.11387156898E+03 -0.21227638701E+03  0.25139062730E+03  0.34817416073E+03  0.00000000000E+00 0. -1.
        -11    1    3    3    0    0 -0.71204326615E+03 -0.12256031749E+04  0.18113750279E+04  0.23000409229E+04  0.00000000000E+00 0.  1.
         22    1    1    2    0    0  0.82591483513E+03  0.14378795619E+04  0.16389580386E+04  0.23314837340E+04  0.00000000000E+00 0. -1.
<mgrwt>
<rscale>  0 0.33308621E+04</rscale>
<asrwt>0</asrwt>
<pdfrwt beam="1">  1        2 0.66780171E+00 0.33308621E+04</pdfrwt>
<pdfrwt beam="2">  1       -2 0.98305782E-01 0.33308621E+04</pdfrwt>
<totfact> 0.12442107E-01</totfact>
</mgrwt>
</event>
<event>
 6    1  0.6091287E-004  0.6044956E+04  0.7818608E-02  0.7684853E-01
         -2   -1    0    0    0  501 -0.00000000000E+00  0.00000000000E+00  0.30021273436E+04  0.30021273436E+04  0.00000000000E+00 0. -1.
          2   -1    0    0  501    0  0.00000000000E+00 -0.00000000000E+00 -0.30429667334E+04  0.30429667334E+04  0.00000000000E+00 0.  1.
         23    2    1    2    0    0  0.12358773657E+04  0.11597273245E+03 -0.27754210093E+04  0.30419658461E+04  0.98751670067E+02 0.  0.
         11    1    3    3    0    0  0.98126438317E+03  0.98067961863E+02 -0.22963052558E+04  0.24991028275E+04  0.00000000000E+00 0.  1.
        -11    1    3    3    0    0  0.25461298250E+03  0.17904770589E+02 -0.47911575352E+03  0.54286301858E+03  0.00000000000E+00 0. -1.
         22    1    1    2    0    0 -0.12358773657E+04 -0.11597273245E+03  0.27345816195E+04  0.30031282309E+04  0.00000000000E+00 0. -1.
<mgrwt>
<rscale>  0 0.60449561E+04</rscale>
<asrwt>0</asrwt>
<pdfrwt beam="1">  1        2 0.46814873E+00 0.60449561E+04</pdfrwt>
<pdfrwt beam="2">  1       -2 0.46186575E+00 0.60449561E+04</pdfrwt>
<totfact> 0.31988982E-03</totfact>
</mgrwt>
</event>
<event>
 6    1  0.6091287E-004  0.1601066E+04  0.7818608E-02  0.8819894E-01
          2   -1    0    0  501    0  0.00000000000E+00  0.00000000000E+00  0.96384554095E+03  0.96384554095E+03  0.00000000000E+00 0.  1.
         -2   -1    0    0    0  501 -0.00000000000E+00 -0.00000000000E+00 -0.66489170011E+03  0.66489170011E+03  0.00000000000E+00 0. -1.
         23    2    1    2    0    0  0.71258136794E+03 -0.27123760000E+03  0.38888162448E+03  0.86099441442E+03  0.93490225206E+02 0.  0.
         11    1    3    3    0    0  0.29059670349E+03 -0.15856618683E+03  0.15468699895E+03  0.36540080368E+03  0.00000000000E+00 0.  1.
        -11    1    3    3    0    0  0.42198466445E+03 -0.11267141317E+03  0.23419462553E+03  0.49559361074E+03  0.00000000000E+00 0. -1.
         22    1    1    2    0    0 -0.71258136794E+03  0.27123760000E+03 -0.89927783650E+02  0.76774282664E+03  0.00000000000E+00 0. -1.
<mgrwt>
<rscale>  0 0.16010658E+04</rscale>
<asrwt>0</asrwt>
<pdfrwt beam="1">  1        2 0.14828393E+00 0.16010658E+04</pdfrwt>
<pdfrwt beam="2">  1       -2 0.10229103E+00 0.16010658E+04</pdfrwt>
<totfact> 0.19954478E+01</totfact>
</mgrwt>
</event>
<event>
 6    1  0.6091287E-004  0.4155582E+04  0.7818608E-02  0.7973876E-01
         -2   -1    0    0    0  501 -0.00000000000E+00  0.00000000000E+00  0.25169553965E+04  0.25169553965E+04  0.00000000000E+00 0. -1.
          2   -1    0    0  501    0  0.00000000000E+00 -0.00000000000E+00 -0.17152532770E+04  0.17152532770E+04  0.00000000000E+00 0.  1.
         23    2    1    2    0    0  0.15972638996E+03  0.12702653509E+04 -0.12641952297E+04  0.18017728199E+04  0.95441785615E+02 0.  0.
         11    1    3    3    0    0  0.80915885553E+01  0.15195965712E+03 -0.11187162608E+03  0.18887157520E+03  0.00000000000E+00 0. -1.
        -11    1    3    3    0    0  0.15163480140E+03  0.11183056938E+04 -0.11523236036E+04  0.16129012447E+04  0.00000000000E+00 0.  1.
         22    1    1    2    0    0 -0.15972638996E+03 -0.12702653509E+04  0.20658973492E+04  0.24304358536E+04  0.00000000000E+00 0. -1.
<mgrwt>
<rscale>  0 0.41555823E+04</rscale>
<asrwt>0</asrwt>
<pdfrwt beam="1">  1        2 0.26388512E+00 0.41555823E+04</pdfrwt>
<pdfrwt beam="2">  1       -2 0.38722391E+00 0.41555823E+04</pdfrwt>
<totfact> 0.67337228E-02</totfact>
</mgrwt>
</event>
<event>
 6    1  0.6091287E-004  0.2414452E+04  0.7818608E-02  0.8434113E-01
         -1   -1    0    0    0  501 -0.00000000000E+00  0.00000000000E+00  0.66936953376E+03  0.66936953376E+03  0.00000000000E+00 0. -1.
          1   -1    0    0  501    0  0.00000000000E+00 -0.00000000000E+00 -0.21772644101E+04  0.21772644101E+04  0.00000000000E+00 0.  1.
         23    2    1    2    0    0  0.10190153593E+04  0.12416226300E+02  0.40962004547E+01  0.10232679681E+04  0.92271830266E+02 0.  0.
         13    1    3    3    0    0  0.26258012611E+03 -0.34725607776E+02  0.14943449066E+02  0.26528757440E+03  0.00000000000E+00 0. -1.
        -13    1    3    3    0    0  0.75643523317E+03  0.47141834077E+02 -0.10847248611E+02  0.75798039375E+03  0.00000000000E+00 0.  1.
         22    1    1    2    0    0 -0.10190153593E+04 -0.12416226300E+02 -0.15119910768E+04  0.18233659757E+04  0.00000000000E+00 0.  1.
<mgrwt>
<rscale>  0 0.24144519E+04</rscale>
<asrwt>0</asrwt>
<pdfrwt beam="1">  1        1 0.33496375E+00 0.24144519E+04</pdfrwt>
<pdfrwt beam="2">  1       -1 0.10297993E+00 0.24144519E+04</pdfrwt>
<totfact> 0.17993739E+00</totfact>
</mgrwt>
</event>
<event>
 6    1  0.6091287E-004  0.1581299E+04  0.7818608E-02  0.8832120E-01
          2   -1    0    0  501    0  0.00000000000E+00  0.00000000000E+00  0.12596537953E+04  0.12596537953E+04  0.00000000000E+00 0.  1.
         -2   -1    0    0    0  501 -0.00000000000E+00 -0.00000000000E+00 -0.49626844911E+03  0.49626844911E+03  0.00000000000E+00 0. -1.
         23    2    1    2    0    0  0.51044981657E+03  0.54640479901E+03  0.10701976635E+03  0.76096847964E+03  0.92209419240E+02 0.  0.
         13    1    3    3    0    0  0.40078480645E+03  0.47208134603E+03  0.10728851802E+03  0.62849032169E+03  0.00000000000E+00 0.  1.
        -13    1    3    3    0    0  0.10966501012E+03  0.74323452977E+02 -0.26875167046E+00  0.13247815796E+03  0.00000000000E+00 0. -1.
         22    1    1    2    0    0 -0.51044981657E+03 -0.54640479901E+03  0.65636557982E+03  0.99495376475E+03  0.00000000000E+00 0.  1.
<mgrwt>
<rscale>  0 0.15812988E+04</rscale>
<asrwt>0</asrwt>
<pdfrwt beam="1">  1        2 0.19379289E+00 0.15812988E+04</pdfrwt>
<pdfrwt beam="2">  1       -2 0.76348992E-01 0.15812988E+04</pdfrwt>
<totfact> 0.25730827E+01</totfact>
</mgrwt>
</event>
<event>
 6    1  0.6091287E-004  0.1378831E+04  0.7818608E-02  0.8969286E-01
          2   -1    0    0  501    0  0.00000000000E+00  0.00000000000E+00  0.37692724508E+03  0.37692724508E+03  0.00000000000E+00 0.  1.
         -2   -1    0    0    0  501 -0.00000000000E+00 -0.00000000000E+00 -0.12609697334E+04  0.12609697334E+04  0.00000000000E+00 0. -1.
         23    2    1    2    0    0 -0.29514444875E+02 -0.54950437317E+03  0.43600753598E+02  0.55931080072E+03  0.90007707997E+02 0.  0.
         11    1    3    3    0    0 -0.21521531304E+02 -0.10996003498E+03  0.42090352681E+02  0.11969120014E+03  0.00000000000E+00 0.  1.
        -11    1    3    3    0    0 -0.79929135714E+01 -0.43954433819E+03  0.15104009174E+01  0.43961960058E+03  0.00000000000E+00 0. -1.
         22    1    1    2    0    0  0.29514444875E+02  0.54950437317E+03 -0.92764324196E+03  0.10785861778E+04  0.00000000000E+00 0. -1.
<mgrwt>
<rscale>  0 0.13788312E+04</rscale>
<asrwt>0</asrwt>
<pdfrwt beam="1">  1        2 0.57988808E-01 0.13788312E+04</pdfrwt>
<pdfrwt beam="2">  1       -2 0.19399534E+00 0.13788312E+04</pdfrwt>
<totfact> 0.12067217E+01</totfact>
</mgrwt>
</event>
<event>
 6    1  0.6091287E-004  0.1504960E+04  0.7818608E-02  0.8881161E-01
         -2   -1    0    0    0  501 -0.00000000000E+00  0.00000000000E+00  0.71758436753E+03  0.71758436753E+03  0.00000000000E+00 0. -1.
          2   -1    0    0  501    0  0.00000000000E+00 -0.00000000000E+00 -0.78907225332E+03  0.78907225332E+03  0.00000000000E+00 0.  1.
         23    2    1    2    0    0  0.59203707854E+03  0.45549187942E+03  0.29922965854E+02  0.75282314095E+03  0.88693534554E+02 0.  0.
         11    1    3    3    0    0  0.22868474868E+03  0.18069278534E+03  0.54868430133E+02  0.29657569283E+03  0.00000000000E+00 0. -1.
        -11    1    3    3    0    0  0.36335232986E+03  0.27479909408E+03 -0.24945464279E+02  0.45624744811E+03  0.00000000000E+00 0.  1.
         22    1    1    2    0    0 -0.59203707854E+03 -0.45549187942E+03 -0.10141085165E+03  0.75383347990E+03  0.00000000000E+00 0.  1.
<mgrwt>
<rscale>  0 0.15049597E+04</rscale>
<asrwt>0</asrwt>
<pdfrwt beam="1">  1        2 0.12139573E+00 0.15049597E+04</pdfrwt>
<pdfrwt beam="2">  1       -2 0.11039760E+00 0.15049597E+04</pdfrwt>
<totfact> 0.22069871E+01</totfact>
</mgrwt>
</event>
<event>
 6    1  0.6091287E-004  0.9456549E+03  0.7818608E-02  0.9370244E-01
          2   -1    0    0  501    0  0.00000000000E+00  0.00000000000E+00  0.43619348293E+03  0.43619348293E+03  0.00000000000E+00 0.  1.
         -2   -1    0    0    0  501 -0.00000000000E+00 -0.00000000000E+00 -0.51253816468E+03  0.51253816468E+03  0.00000000000E+00 0. -1.
         23    2    1    2    0    0 -0.14838662887E+03  0.42115365288E+03  0.10812221617E+03  0.46559913225E+03  0.75519185395E+02 0.  0.
         11    1    3    3    0    0 -0.86692131996E+02  0.30739253095E+03  0.48250950460E+02  0.32300750464E+03  0.00000000000E+00 0. -1.
        -11    1    3    3    0    0 -0.61694496874E+02  0.11376112193E+03  0.59871265709E+02  0.14259162761E+03  0.00000000000E+00 0.  1.
         22    1    1    2    0    0  0.14838662887E+03 -0.42115365288E+03 -0.18446689792E+03  0.48313251535E+03  0.00000000000E+00 0. -1.
<mgrwt>
<rscale>  0 0.94565492E+03</rscale>
<asrwt>0</asrwt>
<pdfrwt beam="1">  1        2 0.67106690E-01 0.94565492E+03</pdfrwt>
<pdfrwt beam="2">  1       -2 0.78852025E-01 0.94565492E+03</pdfrwt>
<totfact> 0.10310621E+02</totfact>
</mgrwt>
</event>
<event>
 6    1  0.6091287E-004  0.2497405E+04  0.7818608E-02  0.8403911E-01
         -1   -1    0    0    0  501 -0.00000000000E+00  0.00000000000E+00  0.41870471124E+03  0.41870471124E+03  0.00000000000E+00 0. -1.
          1   -1    0    0  501    0  0.00000000000E+00 -0.00000000000E+00 -0.37240031740E+04  0.37240031740E+04  0.00000000000E+00 0.  1.
         23    2    1    2    0    0  0.44775291295E+03  0.81415071785E+02 -0.35807868634E+04  0.36107257955E+04  0.90526924059E+02 0.  0.
         11    1    3    3    0    0  0.27827196951E+03  0.27258169677E+02 -0.18838067647E+04  0.19044438095E+04  0.00000000000E+00 0.  1.
        -11    1    3    3    0    0  0.16948094345E+03  0.54156902108E+02 -0.16969800987E+04  0.17062819860E+04  0.00000000000E+00 0. -1.
         22    1    1    2    0    0 -0.44775291295E+03 -0.81415071785E+02  0.27548840063E+03  0.53198208979E+03  0.00000000000E+00 0. -1.
<mgrwt>
<rscale>  0 0.24974048E+04</rscale>
<asrwt>0</asrwt>
<pdfrwt beam="1">  1        1 0.57292358E+00 0.24974048E+04</pdfrwt>
<pdfrwt beam="2">  1       -1 0.64416107E-01 0.24974048E+04</pdfrwt>
<totfact> 0.35857361E-01</totfact>
</mgrwt>
</event>
<event>
 6    1  0.6091287E-004  0.2432841E+04  0.7818608E-02  0.8427310E-01
         -2   -1    0    0    0  501 -0.00000000000E+00  0.00000000000E+00  0.90402724200E+03  0.90402724200E+03  0.00000000000E+00 0. -1.
          2   -1    0    0  501    0  0.00000000000E+00 -0.00000000000E+00 -0.16367630682E+04  0.16367630682E+04  0.00000000000E+00 0.  1.
         23    2    1    2    0    0  0.14798596405E+03  0.59601905734E+02 -0.16244887046E+04  0.16348789299E+04  0.91724214493E+02 0.  0.
         13    1    3    3    0    0  0.13959785587E+03  0.67913264347E+02 -0.11720715781E+04  0.11823077252E+04  0.00000000000E+00 0. -1.
        -13    1    3    3    0    0  0.83881081801E+01 -0.83113586131E+01 -0.45241712648E+03  0.45257120475E+03  0.00000000000E+00 0.  1.
         22    1    1    2    0    0 -0.14798596405E+03 -0.59601905734E+02  0.89175287839E+03  0.90591138024E+03  0.00000000000E+00 0. -1.
<mgrwt>
<rscale>  0 0.24328406E+04</rscale>
<asrwt>0</asrwt>
<pdfrwt beam="1">  1        2 0.25180970E+00 0.24328406E+04</pdfrwt>
<pdfrwt beam="2">  1       -2 0.13908112E+00 0.24328406E+04</pdfrwt>
<totfact> 0.34856469E+00</totfact>
</mgrwt>
</event>
<event>
 6    1  0.6091287E-004  0.2385919E+04  0.7818608E-02  0.8444794E-01
         -2   -1    0    0    0  501 -0.00000000000E+00  0.00000000000E+00  0.80645659793E+03  0.80645659793E+03  0.00000000000E+00 0. -1.
          2   -1    0    0  501    0  0.00000000000E+00 -0.00000000000E+00 -0.17646975768E+04  0.17646975768E+04  0.00000000000E+00 0.  1.
         23    2    1    2    0    0  0.10351761232E+04 -0.58618615656E+03 -0.41293790749E+03  0.12625063016E+04  0.90557328979E+02 0.  0.
         13    1    3    3    0    0  0.56749691462E+03 -0.30627622214E+03 -0.17801645625E+03  0.66899008292E+03  0.00000000000E+00 0.  1.
        -13    1    3    3    0    0  0.46767920859E+03 -0.27990993443E+03 -0.23492145124E+03  0.59351621864E+03  0.00000000000E+00 0. -1.
         22    1    1    2    0    0 -0.10351761232E+04  0.58618615656E+03 -0.54530307134E+03  0.13086478731E+04  0.00000000000E+00 0.  1.
<mgrwt>
<rscale>  0 0.23859187E+04</rscale>
<asrwt>0</asrwt>
<pdfrwt beam="1">  1        2 0.27149193E+00 0.23859187E+04</pdfrwt>
<pdfrwt beam="2">  1       -2 0.12407025E+00 0.23859187E+04</pdfrwt>
<totfact> 0.39708435E+00</totfact>
</mgrwt>
</event>
<event>
 6    1  0.6091287E-004  0.7898819E+03  0.7818608E-02  0.9574779E-01
         -2   -1    0    0    0  501 -0.00000000000E+00  0.00000000000E+00  0.21369607323E+03  0.21369607323E+03  0.00000000000E+00 0. -1.
          2   -1    0    0  501    0  0.00000000000E+00 -0.00000000000E+00 -0.72990742197E+03  0.72990742197E+03  0.00000000000E+00 0.  1.
         23    2    1    2    0    0 -0.34160476129E+03  0.74407716719E+02 -0.46780349737E+03  0.59065358188E+03  0.88324517544E+02 0.  0.
         13    1    3    3    0    0 -0.27095515306E+03  0.73478902590E+02 -0.31281858391E+03  0.42032286464E+03  0.00000000000E+00 0. -1.
        -13    1    3    3    0    0 -0.70649608221E+02  0.92881412907E+00 -0.15498491345E+03  0.17033071724E+03  0.00000000000E+00 0.  1.
         22    1    1    2    0    0  0.34160476129E+03 -0.74407716719E+02 -0.48407851372E+02  0.35294991332E+03  0.00000000000E+00 0. -1.
<mgrwt>
<rscale>  0 0.78988189E+03</rscale>
<asrwt>0</asrwt>
<pdfrwt beam="1">  1        2 0.11229345E+00 0.78988189E+03</pdfrwt>
<pdfrwt beam="2">  1       -2 0.32876319E-01 0.78988189E+03</pdfrwt>
<totfact> 0.33693518E+02</totfact>
</mgrwt>
</event>
<event>
 6    1  0.6507211E-004  0.4073449E+04  0.7818608E-02  0.7989891E-01
          2   -1    0    0  501    0  0.00000000000E+00  0.00000000000E+00  0.25572187997E+04  0.25572187997E+04  0.00000000000E+00 0.  1.
         -2   -1    0    0    0  501 -0.00000000000E+00 -0.00000000000E+00 -0.16221714135E+04  0.16221714135E+04  0.00000000000E+00 0. -1.
         23    2    1    2    0    0  0.10034584795E+04 -0.14069746684E+04 -0.63597684646E+03  0.18438766129E+04  0.94381019365E+02 0.  0.
         11    1    3    3    0    0  0.63197576292E+03 -0.82030202385E+03 -0.35284814381E+03  0.10939792447E+04  0.00000000000E+00 0. -1.
        -11    1    3    3    0    0  0.37148271653E+03 -0.58667264457E+03 -0.28312870265E+03  0.74989736820E+03  0.00000000000E+00 0.  1.
         22    1    1    2    0    0 -0.10034584795E+04  0.14069746684E+04  0.15710242326E+04  0.23355136003E+04  0.00000000000E+00 0.  1.
<mgrwt>
<rscale>  0 0.40734493E+04</rscale>
<asrwt>0</asrwt>
<pdfrwt beam="1">  1        2 0.39341828E+00 0.40734493E+04</pdfrwt>
<pdfrwt beam="2">  1       -2 0.24956483E+00 0.40734493E+04</pdfrwt>
<totfact> 0.16348036E-01</totfact>
</mgrwt>
</event>
<event>
 6    1  0.6091287E-004  0.2230910E+04  0.7818608E-02  0.8505672E-01
         -2   -1    0    0    0  501 -0.00000000000E+00  0.00000000000E+00  0.79562876429E+03  0.79562876429E+03  0.00000000000E+00 0. -1.
          2   -1    0    0  501    0  0.00000000000E+00 -0.00000000000E+00 -0.15638448807E+04  0.15638448807E+04  0.00000000000E+00 0.  1.
         23    2    1    2    0    0 -0.41876815993E+03 -0.66981412065E+03 -0.12149825577E+04  0.14519396341E+04  0.89041324707E+02 0.  0.
         13    1    3    3    0    0 -0.34119851203E+03 -0.59663612406E+03 -0.10257669568E+04  0.12347424585E+04  0.00000000000E+00 0.  1.
        -13    1    3    3    0    0 -0.77569647899E+02 -0.73177996600E+02 -0.18921560085E+03  0.21719717555E+03  0.00000000000E+00 0. -1.
         22    1    1    2    0    0  0.41876815993E+03  0.66981412065E+03  0.44676644125E+03  0.90753401094E+03  0.00000000000E+00 0. -1.
<mgrwt>
<rscale>  0 0.22309101E+04</rscale>
<asrwt>0</asrwt>
<pdfrwt beam="1">  1        2 0.24059152E+00 0.22309101E+04</pdfrwt>
<pdfrwt beam="2">  1       -2 0.12240443E+00 0.22309101E+04</pdfrwt>
<totfact> 0.53847700E+00</totfact>
</mgrwt>
</event>
<event>
 6    1  0.6091287E-004  0.2700638E+03  0.7818608E-02  0.1101243E+00
          2   -1    0    0  501    0  0.00000000000E+00  0.00000000000E+00  0.13779919061E+04  0.13779919061E+04  0.00000000000E+00 0.  1.
         -2   -1    0    0    0  501 -0.00000000000E+00 -0.00000000000E+00 -0.13232018185E+02  0.13232018185E+02  0.00000000000E+00 0. -1.
         23    2    1    2    0    0  0.37505144377E+02  0.19476199072E+02  0.13376265239E+04  0.13410026377E+04  0.85190367468E+02 0.  0.
         13    1    3    3    0    0  0.44971567634E+02  0.46994243045E+02  0.81069650693E+03  0.81330174421E+03  0.00000000000E+00 0. -1.
        -13    1    3    3    0    0 -0.74664232575E+01 -0.27518043973E+02  0.52693001693E+03  0.52770089347E+03  0.00000000000E+00 0.  1.
         22    1    1    2    0    0 -0.37505144377E+02 -0.19476199072E+02  0.27133364062E+02  0.50221286626E+02  0.00000000000E+00 0. -1.
<mgrwt>
<rscale>  0 0.27006380E+03</rscale>
<asrwt>0</asrwt>
<pdfrwt beam="1">  1        2 0.21199864E+00 0.27006380E+03</pdfrwt>
<pdfrwt beam="2">  1       -2 0.20356962E-02 0.27006380E+03</pdfrwt>
<totfact> 0.11955055E+04</totfact>
</mgrwt>
</event>
<event>
 6    1  0.6091287E-004  0.3555250E+04  0.7818608E-02  0.8100820E-01
         -2   -1    0    0    0  501 -0.00000000000E+00  0.00000000000E+00  0.19510370088E+04  0.19510370088E+04  0.00000000000E+00 0. -1.
          2   -1    0    0  501    0  0.00000000000E+00 -0.00000000000E+00 -0.16196258133E+04  0.16196258133E+04  0.00000000000E+00 0.  1.
         23    2    1    2    0    0  0.12808860644E+04 -0.61750721707E+03 -0.90376431464E+03  0.16871440900E+04  0.87641147852E+02 0.  0.
         13    1    3    3    0    0  0.10404475152E+04 -0.46635095727E+03 -0.70592264687E+03  0.13410223826E+04  0.00000000000E+00 0.  1.
        -13    1    3    3    0    0  0.24043854924E+03 -0.15115625980E+03 -0.19784166777E+03  0.34612170742E+03  0.00000000000E+00 0. -1.
         22    1    1    2    0    0 -0.12808860644E+04  0.61750721707E+03  0.12351755102E+04  0.18835187321E+04  0.00000000000E+00 0. -1.
<mgrwt>
<rscale>  0 0.35552496E+04</rscale>
<asrwt>0</asrwt>
<pdfrwt beam="1">  1        2 0.24917320E+00 0.35552496E+04</pdfrwt>
<pdfrwt beam="2">  1       -2 0.30015954E+00 0.35552496E+04</pdfrwt>
<totfact> 0.28204552E-01</totfact>
</mgrwt>
</event>
<event>
 6    1  0.6091287E-004  0.4174232E+04  0.7818608E-02  0.7970292E-01
          2   -1    0    0  501    0  0.00000000000E+00  0.00000000000E+00  0.22395161299E+04  0.22395161299E+04  0.00000000000E+00 0.  1.
         -2   -1    0    0    0  501 -0.00000000000E+00 -0.00000000000E+00 -0.19450872056E+04  0.19450872056E+04  0.00000000000E+00 0. -1.
         23    2    1    2    0    0  0.18017977788E+04  0.10332662747E+04  0.34231278738E+03  0.21070068168E+04  0.90472380125E+02 0.  0.
         13    1    3    3    0    0  0.89472254337E+03  0.55997702640E+03  0.19387620235E+03  0.10731685243E+04  0.00000000000E+00 0. -1.
        -13    1    3    3    0    0  0.90707523541E+03  0.47328924826E+03  0.14843658503E+03  0.10338382925E+04  0.00000000000E+00 0.  1.
         22    1    1    2    0    0 -0.18017977788E+04 -0.10332662747E+04 -0.47883863095E+02  0.20775965187E+04  0.00000000000E+00 0. -1.
<mgrwt>
<rscale>  0 0.41742325E+04</rscale>
<asrwt>0</asrwt>
<pdfrwt beam="1">  1        2 0.34454094E+00 0.41742325E+04</pdfrwt>
<pdfrwt beam="2">  1       -2 0.29924418E+00 0.41742325E+04</pdfrwt>
<totfact> 0.12258864E-01</totfact>
</mgrwt>
</event>
<event>
 6    1  0.6091287E-004  0.2362812E+04  0.7818608E-02  0.8453559E-01
         -2   -1    0    0    0  501 -0.00000000000E+00  0.00000000000E+00  0.62402748154E+03  0.62402748154E+03  0.00000000000E+00 0. -1.
          2   -1    0    0  501    0  0.00000000000E+00 -0.00000000000E+00 -0.22366318442E+04  0.22366318442E+04  0.00000000000E+00 0.  1.
         23    2    1    2    0    0 -0.11263815363E+04  0.32768429673E+03 -0.95814078338E+03  0.15173667515E+04  0.90861070138E+02 0.  0.
         13    1    3    3    0    0 -0.63045324368E+03  0.14711904713E+03 -0.49059956172E+03  0.81228273185E+03  0.00000000000E+00 0. -1.
        -13    1    3    3    0    0 -0.49592829259E+03  0.18056524959E+03 -0.46754122167E+03  0.70508401961E+03  0.00000000000E+00 0.  1.
         22    1    1    2    0    0  0.11263815363E+04 -0.32768429673E+03 -0.65446357930E+03  0.13432925743E+04  0.00000000000E+00 0.  1.
<mgrwt>
<rscale>  0 0.23628117E+04</rscale>
<asrwt>0</asrwt>
<pdfrwt beam="1">  1        2 0.34409720E+00 0.23628117E+04</pdfrwt>
<pdfrwt beam="2">  1       -2 0.96004229E-01 0.23628117E+04</pdfrwt>
<totfact> 0.40381040E+00</totfact>
</mgrwt>
</event>
<event>
 6    1  0.6091287E-004  0.4317302E+04  0.7818608E-02  0.7943426E-01
          2   -1    0    0  501    0  0.00000000000E+00  0.00000000000E+00  0.19768349542E+04  0.19768349542E+04  0.00000000000E+00 0.  1.
         -2   -1    0    0    0  501 -0.00000000000E+00 -0.00000000000E+00 -0.23571895604E+04  0.23571895604E+04  0.00000000000E+00 0. -1.
         23    2    1    2    0    0  0.11758752574E+04 -0.18055179339E+04 -0.75233691448E+02  0.21578635823E+04  0.90208098370E+02 0.  0.
         11    1    3    3    0    0  0.30217514097E+03 -0.49121206765E+03 -0.57259825860E+02  0.57954965178E+03  0.00000000000E+00 0. -1.
        -11    1    3    3    0    0  0.87370011641E+03 -0.13143058663E+04 -0.17973865589E+02  0.15783139305E+04  0.00000000000E+00 0.  1.
         22    1    1    2    0    0 -0.11758752574E+04  0.18055179339E+04 -0.30512091472E+03  0.21761609323E+04  0.00000000000E+00 0. -1.
<mgrwt>
<rscale>  0 0.43173023E+04</rscale>
<asrwt>0</asrwt>
<pdfrwt beam="1">  1        2 0.30412845E+00 0.43173023E+04</pdfrwt>
<pdfrwt beam="2">  1       -2 0.36264455E+00 0.43173023E+04</pdfrwt>
<totfact> 0.68454355E-02</totfact>
</mgrwt>
</event>
<event>
 6    1  0.6091287E-004  0.1297432E+04  0.7818608E-02  0.9031604E-01
         -2   -1    0    0    0  501 -0.00000000000E+00  0.00000000000E+00  0.97343092157E+03  0.97343092157E+03  0.00000000000E+00 0. -1.
          2   -1    0    0  501    0  0.00000000000E+00 -0.00000000000E+00 -0.43231907892E+03  0.43231907892E+03  0.00000000000E+00 0.  1.
         23    2    1    2    0    0 -0.13133699443E+03  0.10981049792E+03  0.94620638295E+03  0.96596671506E+03  0.92072927088E+02 0.  0.
         13    1    3    3    0    0 -0.10313445666E+03  0.31802640799E+02  0.62338537261E+03  0.63265902894E+03  0.00000000000E+00 0. -1.
        -13    1    3    3    0    0 -0.28202537773E+02  0.78007857118E+02  0.32282101034E+03  0.33330768612E+03  0.00000000000E+00 0.  1.
         22    1    1    2    0    0  0.13133699443E+03 -0.10981049792E+03 -0.40509454030E+03  0.43978328543E+03  0.00000000000E+00 0.  1.
<mgrwt>
<rscale>  0 0.12974325E+04</rscale>
<asrwt>0</asrwt>
<pdfrwt beam="1">  1        2 0.66510628E-01 0.12974325E+04</pdfrwt>
<pdfrwt beam="2">  1       -2 0.14975860E+00 0.12974325E+04</pdfrwt>
<totfact> 0.21456129E+01</totfact>
</mgrwt>
</event>
<event>
 6    1  0.6091287E-004  0.3317421E+04  0.7818608E-02  0.8158477E-01
         -2   -1    0    0    0  501 -0.00000000000E+00  0.00000000000E+00  0.10164612498E+04  0.10164612498E+04  0.00000000000E+00 0. -1.
          2   -1    0    0  501    0  0.00000000000E+00 -0.00000000000E+00 -0.27067633917E+04  0.27067633917E+04  0.00000000000E+00 0.  1.
         23    2    1    2    0    0 -0.16283374363E+04  0.17108955448E+03 -0.55600195242E+03  0.17313934834E+04  0.88491701947E+02 0.  0.
         11    1    3    3    0    0 -0.76150272075E+03  0.11595626628E+03 -0.28872919477E+03  0.82261582607E+03  0.00000000000E+00 0. -1.
        -11    1    3    3    0    0 -0.86683471554E+03  0.55133288199E+02 -0.26727275765E+03  0.90877765736E+03  0.00000000000E+00 0.  1.
         22    1    1    2    0    0  0.16283374363E+04 -0.17108955448E+03 -0.11343001895E+04  0.19918311580E+04  0.00000000000E+00 0.  1.
<mgrwt>
<rscale>  0 0.33174207E+04</rscale>
<asrwt>0</asrwt>
<pdfrwt beam="1">  1        2 0.41642514E+00 0.33174207E+04</pdfrwt>
<pdfrwt beam="2">  1       -2 0.15637865E+00 0.33174207E+04</pdfrwt>
<totfact> 0.58794889E-01</totfact>
</mgrwt>
</event>
<event>
 6    1  0.6091287E-004  0.2064472E+04  0.7818608E-02  0.8577057E-01
          2   -1    0    0  501    0  0.00000000000E+00  0.00000000000E+00  0.65186859381E+03  0.65186859381E+03  0.00000000000E+00 0.  1.
         -2   -1    0    0    0  501 -0.00000000000E+00 -0.00000000000E+00 -0.16345492774E+04  0.16345492774E+04  0.00000000000E+00 0. -1.
         23    2    1    2    0    0  0.43374883033E+03 -0.12723864740E+03  0.53306536308E+03  0.70470557146E+03  0.90130682439E+02 0.  0.
         13    1    3    3    0    0  0.36582768777E+03 -0.70802725814E+02  0.43077368894E+03  0.56956904252E+03  0.00000000000E+00 0. -1.
        -13    1    3    3    0    0  0.67921142563E+02 -0.56435921588E+02  0.10229167415E+03  0.13513652893E+03  0.00000000000E+00 0.  1.
         22    1    1    2    0    0 -0.43374883033E+03  0.12723864740E+03 -0.15157460467E+04  0.15817122998E+04  0.00000000000E+00 0. -1.
<mgrwt>
<rscale>  0 0.20644722E+04</rscale>
<asrwt>0</asrwt>
<pdfrwt beam="1">  1        2 0.10028748E+00 0.20644722E+04</pdfrwt>
<pdfrwt beam="2">  1       -2 0.25146912E+00 0.20644722E+04</pdfrwt>
<totfact> 0.26056452E+00</totfact>
</mgrwt>
</event>
<event>
 6    1  0.6091287E-004  0.1893835E+04  0.7818608E-02  0.8657931E-01
          2   -1    0    0  501    0  0.00000000000E+00  0.00000000000E+00  0.18053478263E+04  0.18053478263E+04  0.00000000000E+00 0.  1.
         -2   -1    0    0    0  501 -0.00000000000E+00 -0.00000000000E+00 -0.49666479329E+03  0.49666479329E+03  0.00000000000E+00 0. -1.
         23    2    1    2    0    0 -0.29264114303E+03  0.35921896119E+03 -0.34485680547E+03  0.58478488335E+03  0.91487938216E+02 0.  0.
         11    1    3    3    0    0 -0.26784884279E+02  0.88704481514E+02 -0.76577651069E+02  0.12020836789E+03  0.00000000000E+00 0.  1.
        -11    1    3    3    0    0 -0.26585625875E+03  0.27051447968E+03 -0.26827915440E+03  0.46457651546E+03  0.00000000000E+00 0. -1.
         22    1    1    2    0    0  0.29264114303E+03 -0.35921896119E+03  0.16535398385E+04  0.17172277363E+04  0.00000000000E+00 0.  1.
<mgrwt>
<rscale>  0 0.18938350E+04</rscale>
<asrwt>0</asrwt>
<pdfrwt beam="1">  1        2 0.27774582E+00 0.18938350E+04</pdfrwt>
<pdfrwt beam="2">  1       -2 0.76409969E-01 0.18938350E+04</pdfrwt>
<totfact> 0.12301419E+01</totfact>
</mgrwt>
</event>
<event>
 6    1  0.6091287E-004  0.2775089E+04  0.7818608E-02  0.8311044E-01
         -2   -1    0    0    0  501 -0.00000000000E+00  0.00000000000E+00  0.55886654271E+03  0.55886654271E+03  0.00000000000E+00 0. -1.
          2   -1    0    0  501    0  0.00000000000E+00 -0.00000000000E+00 -0.34449727653E+04  0.34449727653E+04  0.00000000000E+00 0.  1.
         23    2    1    2    0    0  0.68937437667E+02  0.99399675564E+03 -0.28348341852E+04  0.30061365756E+04  0.88262864003E+02 0.  0.
         13    1    3    3    0    0  0.73805671624E+02  0.57758242520E+03 -0.17349082787E+04  0.18300151558E+04  0.00000000000E+00 0. -1.
        -13    1    3    3    0    0 -0.48682339567E+01  0.41641433044E+03 -0.10999259065E+04  0.11761214197E+04  0.00000000000E+00 0.  1.
         22    1    1    2    0    0 -0.68937437667E+02 -0.99399675564E+03 -0.51272037464E+02  0.99770273246E+03  0.00000000000E+00 0. -1.
<mgrwt>
<rscale>  0 0.27750892E+04</rscale>
<asrwt>0</asrwt>
<pdfrwt beam="1">  1        2 0.52999582E+00 0.27750892E+04</pdfrwt>
<pdfrwt beam="2">  1       -2 0.85979467E-01 0.27750892E+04</pdfrwt>
<totfact> 0.90862720E-01</totfact>
</mgrwt>
</event>
<event>
 6    1  0.6091287E-004  0.1957783E+04  0.7818608E-02  0.8626617E-01
         -2   -1    0    0    0  501 -0.00000000000E+00  0.00000000000E+00  0.96908390030E+03  0.96908390030E+03  0.00000000000E+00 0. -1.
          2   -1    0    0  501    0  0.00000000000E+00 -0.00000000000E+00 -0.98879884659E+03  0.98879884659E+03  0.00000000000E+00 0.  1.
         23    2    1    2    0    0 -0.41018084552E+03  0.44903494749E+03 -0.77418275852E+03  0.98880979310E+03  0.92223387723E+02 0.  0.
         13    1    3    3    0    0 -0.48916176574E+02  0.70688286506E+02 -0.16333591218E+03  0.18457585537E+03  0.00000000000E+00 0.  1.
        -13    1    3    3    0    0 -0.36126466894E+03  0.37834666098E+03 -0.61084684634E+03  0.80423393772E+03  0.00000000000E+00 0. -1.
         22    1    1    2    0    0  0.41018084552E+03 -0.44903494749E+03  0.75446781223E+03  0.96907295380E+03  0.00000000000E+00 0. -1.
<mgrwt>
<rscale>  0 0.19577835E+04</rscale>
<asrwt>0</asrwt>
<pdfrwt beam="1">  1        2 0.15212290E+00 0.19577835E+04</pdfrwt>
<pdfrwt beam="2">  1       -2 0.14908983E+00 0.19577835E+04</pdfrwt>
<totfact> 0.72690691E+00</totfact>
</mgrwt>
</event>
<event>
 6    1  0.6091287E-004  0.3710723E+04  0.7818608E-02  0.8065590E-01
         -2   -1    0    0    0  501 -0.00000000000E+00  0.00000000000E+00  0.24129208450E+04  0.24129208450E+04  0.00000000000E+00 0. -1.
          2   -1    0    0  501    0  0.00000000000E+00 -0.00000000000E+00 -0.14266385469E+04  0.14266385469E+04  0.00000000000E+00 0.  1.
         23    2    1    2    0    0  0.49577916020E+03  0.46963375921E+03  0.22767755390E+04  0.23795163622E+04  0.10971973245E+03 0.  0.
         11    1    3    3    0    0  0.91412079934E+01  0.43492345425E+02  0.12837832885E+03  0.13585338093E+03  0.00000000000E+00 0. -1.
        -11    1    3    3    0    0  0.48663795221E+03  0.42614141379E+03  0.21483972101E+04  0.22436629813E+04  0.00000000000E+00 0.  1.
         22    1    1    2    0    0 -0.49577916020E+03 -0.46963375921E+03 -0.12904932410E+04  0.14600430297E+04  0.00000000000E+00 0.  1.
<mgrwt>
<rscale>  0 0.37107228E+04</rscale>
<asrwt>0</asrwt>
<pdfrwt beam="1">  1        2 0.21948285E+00 0.37107228E+04</pdfrwt>
<pdfrwt beam="2">  1       -2 0.37121859E+00 0.37107228E+04</pdfrwt>
<totfact> 0.12861159E-01</totfact>
</mgrwt>
</event>
<event>
 6    1  0.6091287E-004  0.1186377E+04  0.7818608E-02  0.9124865E-01
         -2   -1    0    0    0  501 -0.00000000000E+00  0.00000000000E+00  0.85699974084E+03  0.85699974084E+03  0.00000000000E+00 0. -1.
          2   -1    0    0  501    0  0.00000000000E+00 -0.00000000000E+00 -0.41058671525E+03  0.41058671525E+03  0.00000000000E+00 0.  1.
         23    2    1    2    0    0  0.28080123878E+03 -0.44370966875E+03 -0.62216875473E+02  0.53653790633E+03  0.90963616357E+02 0.  0.
         11    1    3    3    0    0  0.23972217135E+03 -0.30656903592E+03 -0.56648110677E+02  0.39326873975E+03  0.00000000000E+00 0.  1.
        -11    1    3    3    0    0  0.41079067434E+02 -0.13714063282E+03 -0.55687647963E+01  0.14326916658E+03  0.00000000000E+00 0. -1.
         22    1    1    2    0    0 -0.28080123878E+03  0.44370966875E+03  0.50862990107E+03  0.73104854975E+03  0.00000000000E+00 0. -1.
<mgrwt>
<rscale>  0 0.11863772E+04</rscale>
<asrwt>0</asrwt>
<pdfrwt beam="1">  1        2 0.63167187E-01 0.11863772E+04</pdfrwt>
<pdfrwt beam="2">  1       -2 0.13184611E+00 0.11863772E+04</pdfrwt>
<totfact> 0.31927264E+01</totfact>
</mgrwt>
</event>
<event>
 6    1  0.6091287E-004  0.1590827E+04  0.7818608E-02  0.8826203E-01
          2   -1    0    0  501    0  0.00000000000E+00  0.00000000000E+00  0.29114158688E+04  0.29114158688E+04  0.00000000000E+00 0.  1.
         -2   -1    0    0    0  501 -0.00000000000E+00 -0.00000000000E+00 -0.21731107868E+03  0.21731107868E+03  0.00000000000E+00 0. -1.
         23    2    1    2    0    0 -0.17190732357E+03  0.31261140514E+03  0.27439224642E+04  0.27685050448E+04  0.90728579558E+02 0.  0.
         13    1    3    3    0    0 -0.57939639503E+02  0.17833472044E+03  0.11985957067E+04  0.12131743248E+04  0.00000000000E+00 0.  1.
        -13    1    3    3    0    0 -0.11396768407E+03  0.13427668470E+03  0.15453267575E+04  0.15553307200E+04  0.00000000000E+00 0. -1.
         22    1    1    2    0    0  0.17190732357E+03 -0.31261140514E+03 -0.49817674053E+02  0.36022190268E+03  0.00000000000E+00 0. -1.
<mgrwt>
<rscale>  0 0.15908274E+04</rscale>
<asrwt>0</asrwt>
<pdfrwt beam="1">  1        2 0.44791010E+00 0.15908274E+04</pdfrwt>
<pdfrwt beam="2">  1       -2 0.33432476E-01 0.15908274E+04</pdfrwt>
<totfact> 0.15943304E+01</totfact>
</mgrwt>
</event>
<event>
 6    1  0.6091287E-004  0.2747825E+04  0.7818608E-02  0.8319652E-01
         -2   -1    0    0    0  501 -0.00000000000E+00  0.00000000000E+00  0.16466063229E+04  0.16466063229E+04  0.00000000000E+00 0. -1.
          2   -1    0    0  501    0  0.00000000000E+00 -0.00000000000E+00 -0.11463797979E+04  0.11463797979E+04  0.00000000000E+00 0.  1.
         23    2    1    2    0    0 -0.11053828591E+04  0.42902300129E+03  0.95341371525E+03  0.15236120111E+04  0.80398053083E+02 0.  0.
         11    1    3    3    0    0 -0.37825214177E+03  0.17527128196E+03  0.37072779907E+03  0.55788332654E+03  0.00000000000E+00 0.  1.
        -11    1    3    3    0    0 -0.72713071735E+03  0.25375171933E+03  0.58268591619E+03  0.96572868452E+03  0.00000000000E+00 0. -1.
         22    1    1    2    0    0  0.11053828591E+04 -0.42902300129E+03 -0.45318719024E+03  0.12693741097E+04  0.00000000000E+00 0.  1.
<mgrwt>
<rscale>  0 0.27478255E+04</rscale>
<asrwt>0</asrwt>
<pdfrwt beam="1">  1        2 0.17636612E+00 0.27478255E+04</pdfrwt>
<pdfrwt beam="2">  1       -2 0.25332405E+00 0.27478255E+04</pdfrwt>
<totfact> 0.10931879E+00</totfact>
</mgrwt>
</event>
<event>
 6    1  0.6091287E-004  0.2562163E+04  0.7818608E-02  0.8381168E-01
         -2   -1    0    0    0  501 -0.00000000000E+00  0.00000000000E+00  0.50250054399E+03  0.50250054399E+03  0.00000000000E+00 0. -1.
          2   -1    0    0  501    0  0.00000000000E+00 -0.00000000000E+00 -0.32660056634E+04  0.32660056634E+04  0.00000000000E+00 0.  1.
         23    2    1    2    0    0  0.82551436032E+03  0.17638256310E+03 -0.27977681467E+04  0.29236637826E+04  0.87855241638E+02 0.  0.
         11    1    3    3    0    0  0.57180402932E+03  0.15441093865E+03 -0.18678691943E+04  0.19595249202E+04  0.00000000000E+00 0.  1.
        -11    1    3    3    0    0  0.25371033100E+03  0.21971624448E+02 -0.92989895244E+03  0.96413886245E+03  0.00000000000E+00 0. -1.
         22    1    1    2    0    0 -0.82551436032E+03 -0.17638256310E+03  0.34263027285E+02  0.84484242477E+03  0.00000000000E+00 0. -1.
<mgrwt>
<rscale>  0 0.25621629E+04</rscale>
<asrwt>0</asrwt>
<pdfrwt beam="1">  1        2 0.50246240E+00 0.25621629E+04</pdfrwt>
<pdfrwt beam="2">  1       -2 0.77307777E-01 0.25621629E+04</pdfrwt>
<totfact> 0.15546663E+00</totfact>
</mgrwt>
</event>
<event>
 6    1  0.6091287E-004  0.7492408E+03  0.7818608E-02  0.9636542E-01
         -2   -1    0    0    0  501 -0.00000000000E+00  0.00000000000E+00  0.10920151893E+03  0.10920151893E+03  0.00000000000E+00 0. -1.
          2   -1    0    0  501    0  0.00000000000E+00 -0.00000000000E+00 -0.12851510550E+04  0.12851510550E+04  0.00000000000E+00 0.  1.
         23    2    1    2    0    0  0.29269446120E+03 -0.21895866294E+03 -0.49973055632E+03  0.62566209509E+03  0.90052676921E+02 0.  0.
         13    1    3    3    0    0  0.11488994647E+03 -0.10343303854E+03 -0.28292415198E+03  0.32240373607E+03  0.00000000000E+00 0. -1.
        -13    1    3    3    0    0  0.17780451472E+03 -0.11552562440E+03 -0.21680640434E+03  0.30325835902E+03  0.00000000000E+00 0.  1.
         22    1    1    2    0    0 -0.29269446120E+03  0.21895866294E+03 -0.67621897980E+03  0.76869047888E+03  0.00000000000E+00 0. -1.
<mgrwt>
<rscale>  0 0.74924081E+03</rscale>
<asrwt>0</asrwt>
<pdfrwt beam="1">  1        2 0.19771554E+00 0.74924081E+03</pdfrwt>
<pdfrwt beam="2">  1       -2 0.16800234E-01 0.74924081E+03</pdfrwt>
<totfact> 0.49142729E+02</totfact>
</mgrwt>
</event>
<event>
 6    1  0.6091287E-004  0.2235641E+04  0.7818608E-02  0.8503738E-01
          2   -1    0    0  501    0  0.00000000000E+00  0.00000000000E+00  0.14309219921E+04  0.14309219921E+04  0.00000000000E+00 0.  1.
         -2   -1    0    0    0  501 -0.00000000000E+00 -0.00000000000E+00 -0.87322877693E+03  0.87322877693E+03  0.00000000000E+00 0. -1.
         23    2    1    2    0    0 -0.75264106344E+03 -0.67043615097E+03 -0.21429087902E+03  0.10345395511E+04  0.91642234397E+02 0.  0.
         13    1    3    3    0    0 -0.15359816979E+03 -0.15760333092E+03 -0.82508015755E+02  0.23502931805E+03  0.00000000000E+00 0. -1.
        -13    1    3    3    0    0 -0.59904289365E+03 -0.51283282005E+03 -0.13178286326E+03  0.79951023308E+03  0.00000000000E+00 0.  1.
         22    1    1    2    0    0  0.75264106344E+03  0.67043615097E+03  0.77198409414E+03  0.12696112179E+04  0.00000000000E+00 0.  1.
<mgrwt>
<rscale>  0 0.22356406E+04</rscale>
<asrwt>0</asrwt>
<pdfrwt beam="1">  1        2 0.22014184E+00 0.22356406E+04</pdfrwt>
<pdfrwt beam="2">  1       -2 0.13434289E+00 0.22356406E+04</pdfrwt>
<totfact> 0.50590206E+00</totfact>
</mgrwt>
</event>
<event>
 6    1  0.6091287E-004  0.1557731E+04  0.7818608E-02  0.8846945E-01
         -2   -1    0    0    0  501 -0.00000000000E+00  0.00000000000E+00  0.25721515025E+03  0.25721515025E+03  0.00000000000E+00 0. -1.
          2   -1    0    0  501    0  0.00000000000E+00 -0.00000000000E+00 -0.23584582509E+04  0.23584582509E+04  0.00000000000E+00 0.  1.
         23    2    1    2    0    0  0.57048017371E+03  0.27517984779E+03 -0.30072346024E+03  0.70699779940E+03  0.90772857163E+02 0.  0.
         13    1    3    3    0    0  0.11253769210E+03  0.88839696664E+02 -0.44373997840E+02  0.15008755955E+03  0.00000000000E+00 0.  1.
        -13    1    3    3    0    0  0.45794248161E+03  0.18634015113E+03 -0.25634946240E+03  0.55691023986E+03  0.00000000000E+00 0. -1.
         22    1    1    2    0    0 -0.57048017371E+03 -0.27517984779E+03 -0.18005196404E+04  0.19086756017E+04  0.00000000000E+00 0.  1.
<mgrwt>
<rscale>  0 0.15577306E+04</rscale>
<asrwt>0</asrwt>
<pdfrwt beam="1">  1        2 0.36283972E+00 0.15577306E+04</pdfrwt>
<pdfrwt beam="2">  1       -2 0.39571563E-01 0.15577306E+04</pdfrwt>
<totfact> 0.24439779E+01</totfact>
</mgrwt>
</event>
<event>
 6    1  0.6091287E-004  0.4742814E+04  0.7818608E-02  0.7869454E-01
         -2   -1    0    0    0  501 -0.00000000000E+00  0.00000000000E+00  0.20633494230E+04  0.20633494230E+04  0.00000000000E+00 0. -1.
          2   -1    0    0  501    0  0.00000000000E+00 -0.00000000000E+00 -0.27254570668E+04  0.27254570668E+04  0.00000000000E+00 0.  1.
         23    2    1    2    0    0  0.13232595900E+04  0.41839048769E+03 -0.22715963111E+04  0.26635958385E+04  0.92338765725E+02 0.  0.
         11    1    3    3    0    0  0.54857855508E+03  0.21998633361E+03 -0.94493595879E+03  0.11145565864E+04  0.00000000000E+00 0.  1.
        -11    1    3    3    0    0  0.77468103490E+03  0.19840415408E+03 -0.13266603523E+04  0.15490392521E+04  0.00000000000E+00 0. -1.
         22    1    1    2    0    0 -0.13232595900E+04 -0.41839048769E+03  0.16094886672E+04  0.21252106514E+04  0.00000000000E+00 0. -1.
<mgrwt>
<rscale>  0 0.47428136E+04</rscale>
<asrwt>0</asrwt>
<pdfrwt beam="1">  1        2 0.41930109E+00 0.47428136E+04</pdfrwt>
<pdfrwt beam="2">  1       -2 0.31743837E+00 0.47428136E+04</pdfrwt>
<totfact> 0.47305613E-02</totfact>
</mgrwt>
</event>
<event>
 6    1  0.6091287E-004  0.3490405E+04  0.7818608E-02  0.8116068E-01
         -2   -1    0    0    0  501 -0.00000000000E+00  0.00000000000E+00  0.21464952809E+04  0.21464952809E+04  0.00000000000E+00 0. -1.
          2   -1    0    0  501    0  0.00000000000E+00 -0.00000000000E+00 -0.14189324624E+04  0.14189324624E+04  0.00000000000E+00 0.  1.
         23    2    1    2    0    0 -0.10909319079E+04 -0.20393936006E+03  0.17382001356E+04  0.20643909427E+04  0.92986894018E+02 0.  0.
         13    1    3    3    0    0 -0.26639137676E+03 -0.84390123393E+02  0.39730992301E+03  0.48573782379E+03  0.00000000000E+00 0.  1.
        -13    1    3    3    0    0 -0.82454053113E+03 -0.11954923667E+03  0.13408902126E+04  0.15786531189E+04  0.00000000000E+00 0. -1.
         22    1    1    2    0    0  0.10909319079E+04  0.20393936006E+03 -0.10106373171E+04  0.15010368006E+04  0.00000000000E+00 0.  1.
<mgrwt>
<rscale>  0 0.34904050E+04</rscale>
<asrwt>0</asrwt>
<pdfrwt beam="1">  1        2 0.21829730E+00 0.34904050E+04</pdfrwt>
<pdfrwt beam="2">  1       -2 0.33023004E+00 0.34904050E+04</pdfrwt>
<totfact> 0.24008254E-01</totfact>
</mgrwt>
</event>
<event>
 6    1  0.6091287E-004  0.3781159E+04  0.7818608E-02  0.8050210E-01
          2   -1    0    0  501    0  0.00000000000E+00  0.00000000000E+00  0.25778764042E+04  0.25778764042E+04  0.00000000000E+00 0.  1.
         -2   -1    0    0    0  501 -0.00000000000E+00 -0.00000000000E+00 -0.13865252431E+04  0.13865252431E+04  0.00000000000E+00 0. -1.
         23    2    1    2    0    0  0.10430343588E+04 -0.14292304539E+04  0.12911034715E+04  0.21922360548E+04  0.91270924691E+02 0.  0.
         13    1    3    3    0    0  0.31101333562E+02 -0.39753457040E+02  0.19546645431E+02  0.54126718389E+02  0.00000000000E+00 0. -1.
        -13    1    3    3    0    0  0.10119330252E+04 -0.13894769969E+04  0.12715568260E+04  0.21381093364E+04  0.00000000000E+00 0.  1.
         22    1    1    2    0    0 -0.10430343588E+04  0.14292304539E+04 -0.99752310350E+02  0.17721655926E+04  0.00000000000E+00 0. -1.
<mgrwt>
<rscale>  0 0.37811589E+04</rscale>
<asrwt>0</asrwt>
<pdfrwt beam="1">  1        2 0.39659637E+00 0.37811589E+04</pdfrwt>
<pdfrwt beam="2">  1       -2 0.21331158E+00 0.37811589E+04</pdfrwt>
<totfact> 0.27451614E-01</totfact>
</mgrwt>
</event>
<event>
 6    1  0.8762486E-004  0.2862601E+04  0.7818608E-02  0.8284093E-01
          2   -1    0    0  501    0  0.00000000000E+00  0.00000000000E+00  0.13107488096E+04  0.13107488096E+04  0.00000000000E+00 0.  1.
         -2   -1    0    0    0  501 -0.00000000000E+00 -0.00000000000E+00 -0.15629395370E+04  0.15629395370E+04  0.00000000000E+00 0. -1.
         23    2    1    2    0    0  0.10201897080E+03 -0.12445353168E+04  0.57291145585E+03  0.13770021276E+04  0.92904779242E+02 0.  0.
         11    1    3    3    0    0  0.66182258864E+02 -0.44252362421E+03  0.16889025599E+03  0.47825847399E+03  0.00000000000E+00 0.  1.
        -11    1    3    3    0    0  0.35836711939E+02 -0.80201169261E+03  0.40402119987E+03  0.89874365363E+03  0.00000000000E+00 0. -1.
         22    1    1    2    0    0 -0.10201897080E+03  0.12445353168E+04 -0.82510218320E+03  0.14966862189E+04  0.00000000000E+00 0. -1.
<mgrwt>
<rscale>  0 0.28626010E+04</rscale>
<asrwt>0</asrwt>
<pdfrwt beam="1">  1        2 0.20165366E+00 0.28626010E+04</pdfrwt>
<pdfrwt beam="2">  1       -2 0.24045224E+00 0.28626010E+04</pdfrwt>
<totfact> 0.10382251E+00</totfact>
</mgrwt>
</event>
<event>
 6    1  0.6091287E-004  0.4504436E+04  0.7818608E-02  0.7909861E-01
          1   -1    0    0  501    0  0.00000000000E+00  0.00000000000E+00  0.31917119931E+04  0.31917119931E+04  0.00000000000E+00 0.  1.
         -1   -1    0    0    0  501 -0.00000000000E+00 -0.00000000000E+00 -0.15892677482E+04  0.15892677482E+04  0.00000000000E+00 0. -1.
         23    2    1    2    0    0 -0.75399218464E+03 -0.93118757454E+03  0.28242399188E+04  0.30697231323E+04  0.10608711741E+03 0.  0.
         13    1    3    3    0    0 -0.15167430304E+03 -0.23941567300E+03  0.59054684155E+03  0.65503475537E+03  0.00000000000E+00 0.  1.
        -13    1    3    3    0    0 -0.60231788161E+03 -0.69177190154E+03  0.22336930772E+04  0.24146883769E+04  0.00000000000E+00 0. -1.
         22    1    1    2    0    0  0.75399218464E+03  0.93118757454E+03 -0.12217956738E+04  0.17112566091E+04  0.00000000000E+00 0. -1.
<mgrwt>
<rscale>  0 0.45044356E+04</rscale>
<asrwt>0</asrwt>
<pdfrwt beam="1">  1        1 0.49103261E+00 0.45044356E+04</pdfrwt>
<pdfrwt beam="2">  1       -1 0.24450273E+00 0.45044356E+04</pdfrwt>
<totfact> 0.24518574E-02</totfact>
</mgrwt>
</event>
<event>
 6    1  0.6091287E-004  0.3078498E+04  0.7818608E-02  0.8221664E-01
         -4   -1    0    0    0  501 -0.00000000000E+00  0.00000000000E+00  0.20466279118E+04  0.20466279118E+04  0.00000000000E+00 0. -1.
          4   -1    0    0  501    0  0.00000000000E+00 -0.00000000000E+00 -0.11576538778E+04  0.11576538778E+04  0.00000000000E+00 0.  1.
         23    2    1    2    0    0  0.70124762596E+03 -0.91806356967E+03 -0.60998306475E+03  0.13118068665E+04  0.11903346078E+03 0.  0.
         13    1    3    3    0    0  0.25674089530E+03 -0.42828065661E+03 -0.28337232179E+03  0.57414290982E+03  0.00000000000E+00 0. -1.
        -13    1    3    3    0    0  0.44450673066E+03 -0.48978291306E+03 -0.32661074297E+03  0.73766395666E+03  0.00000000000E+00 0.  1.
         22    1    1    2    0    0 -0.70124762596E+03  0.91806356967E+03  0.14989570988E+04  0.18924749232E+04  0.00000000000E+00 0. -1.
<mgrwt>
<rscale>  0 0.30784975E+04</rscale>
<asrwt>0</asrwt>
<pdfrwt beam="1">  1        4 0.17810060E+00 0.30784975E+04</pdfrwt>
<pdfrwt beam="2">  1       -4 0.31486583E+00 0.30784975E+04</pdfrwt>
<totfact> 0.77864406E-03</totfact>
</mgrwt>
</event>
<event>
 6    1  0.6091287E-004  0.2703212E+04  0.7818608E-02  0.8333963E-01
          2   -1    0    0  501    0  0.00000000000E+00  0.00000000000E+00  0.17835779986E+04  0.17835779986E+04  0.00000000000E+00 0.  1.
         -2   -1    0    0    0  501 -0.00000000000E+00 -0.00000000000E+00 -0.10242552569E+04  0.10242552569E+04  0.00000000000E+00 0. -1.
         23    2    1    2    0    0  0.66712036766E+03  0.11059216534E+04  0.78822413926E+03  0.15159557152E+04  0.93338889312E+02 0.  0.
         13    1    3    3    0    0  0.31202117386E+03  0.56203047491E+03  0.43952639896E+03  0.77872904340E+03  0.00000000000E+00 0.  1.
        -13    1    3    3    0    0  0.35509919380E+03  0.54389117849E+03  0.34869774030E+03  0.73722667177E+03  0.00000000000E+00 0. -1.
         22    1    1    2    0    0 -0.66712036766E+03 -0.11059216534E+04 -0.28901397498E+02  0.12918775403E+04  0.00000000000E+00 0. -1.
<mgrwt>
<rscale>  0 0.27032123E+04</rscale>
<asrwt>0</asrwt>
<pdfrwt beam="1">  1        2 0.27439662E+00 0.27032123E+04</pdfrwt>
<pdfrwt beam="2">  1       -2 0.15757773E+00 0.27032123E+04</pdfrwt>
<totfact> 0.20295056E+00</totfact>
</mgrwt>
</event>
<event>
 6    1  0.6091287E-004  0.4916541E+04  0.7818608E-02  0.7841512E-01
          2   -1    0    0  501    0  0.00000000000E+00  0.00000000000E+00  0.40064385407E+04  0.40064385407E+04  0.00000000000E+00 0.  1.
         -2   -1    0    0    0  501 -0.00000000000E+00 -0.00000000000E+00 -0.15083456529E+04  0.15083456529E+04  0.00000000000E+00 0. -1.
         23    2    1    2    0    0 -0.19759461594E+03  0.22329561975E+04  0.12036970251E+03  0.22469554714E+04  0.95828038868E+02 0.  0.
         13    1    3    3    0    0 -0.22288347596E+02  0.54824351954E+03  0.61388774720E+02  0.55211983194E+03  0.00000000000E+00 0. -1.
        -13    1    3    3    0    0 -0.17530626835E+03  0.16847126779E+04  0.58980927792E+02  0.16948356395E+04  0.00000000000E+00 0.  1.
         22    1    1    2    0    0  0.19759461594E+03 -0.22329561975E+04  0.23777231853E+04  0.32678287222E+04  0.00000000000E+00 0.  1.
<mgrwt>
<rscale>  0 0.49165411E+04</rscale>
<asrwt>0</asrwt>
<pdfrwt beam="1">  1        2 0.61637516E+00 0.49165411E+04</pdfrwt>
<pdfrwt beam="2">  1       -2 0.23205318E+00 0.49165411E+04</pdfrwt>
<totfact> 0.20468197E-02</totfact>
</mgrwt>
</event>
<event>
 6    1  0.6091287E-004  0.7921193E+03  0.7818608E-02  0.9571495E-01
          2   -1    0    0  501    0  0.00000000000E+00  0.00000000000E+00  0.31788900073E+03  0.31788900073E+03  0.00000000000E+00 0.  1.
         -2   -1    0    0    0  501 -0.00000000000E+00 -0.00000000000E+00 -0.49345287406E+03  0.49345287406E+03  0.00000000000E+00 0. -1.
         23    2    1    2    0    0 -0.38982294769E+03  0.51539703760E+01 -0.11819230449E+03  0.41728605277E+03  0.90386586588E+02 0.  0.
         13    1    3    3    0    0 -0.29730100740E+03 -0.29067982178E+02 -0.10988613474E+03  0.31828886125E+03  0.00000000000E+00 0.  1.
        -13    1    3    3    0    0 -0.92521940293E+02  0.34221952554E+02 -0.83061697519E+01  0.98997191516E+02  0.00000000000E+00 0. -1.
         22    1    1    2    0    0  0.38982294769E+03 -0.51539703760E+01 -0.57371568838E+02  0.39405582202E+03  0.00000000000E+00 0. -1.
<mgrwt>
<rscale>  0 0.79211929E+03</rscale>
<asrwt>0</asrwt>
<pdfrwt beam="1">  1        2 0.48906001E-01 0.79211929E+03</pdfrwt>
<pdfrwt beam="2">  1       -2 0.75915826E-01 0.79211929E+03</pdfrwt>
<totfact> 0.16122714E+02</totfact>
</mgrwt>
</event>
<event>
 6    1  0.6091287E-004  0.2034853E+04  0.7818608E-02  0.8590497E-01
         -2   -1    0    0    0  501 -0.00000000000E+00  0.00000000000E+00  0.65339434121E+03  0.65339434121E+03  0.00000000000E+00 0.  1.
          2   -1    0    0  501    0  0.00000000000E+00 -0.00000000000E+00 -0.15842762941E+04  0.15842762941E+04  0.00000000000E+00 0. -1.
         23    2    1    2    0    0 -0.69900509097E+03 -0.72584221614E+03 -0.32930668125E+03  0.10640659969E+04  0.91315472166E+02 0.  0.
         11    1    3    3    0    0 -0.31802246814E+03 -0.37853214380E+03 -0.19382413976E+03  0.53102982146E+03  0.00000000000E+00 0. -1.
        -11    1    3    3    0    0 -0.38098262283E+03 -0.34731007234E+03 -0.13548254149E+03  0.53303617541E+03  0.00000000000E+00 0.  1.
         22    1    1    2    0    0  0.69900509097E+03  0.72584221614E+03 -0.60157527165E+03  0.11736046385E+04  0.00000000000E+00 0.  1.
<mgrwt>
<rscale>  0 0.20348535E+04</rscale>
<asrwt>0</asrwt>
<pdfrwt beam="1">  1        2 0.24373481E+00 0.20348535E+04</pdfrwt>
<pdfrwt beam="2">  1       -2 0.10052221E+00 0.20348535E+04</pdfrwt>
<totfact> 0.86024647E+00</totfact>
</mgrwt>
</event>
<event>
 6    1  0.6091287E-004  0.1950650E+04  0.7818608E-02  0.8630047E-01
         -1   -1    0    0    0  501 -0.00000000000E+00  0.00000000000E+00  0.51608561853E+03  0.51608561853E+03  0.00000000000E+00 0. -1.
          1   -1    0    0  501    0  0.00000000000E+00 -0.00000000000E+00 -0.18432199065E+04  0.18432199065E+04  0.00000000000E+00 0.  1.
         23    2    1    2    0    0  0.37709374346E+03 -0.29736940360E+03 -0.16889016828E+04  0.17580535800E+04  0.87950226520E+02 0.  0.
         11    1    3    3    0    0  0.32773803601E+03 -0.28827010060E+03 -0.15534027255E+04  0.16135587683E+04  0.00000000000E+00 0. -1.
        -11    1    3    3    0    0  0.49355707453E+02 -0.90993030042E+01 -0.13549895724E+03  0.14449481162E+03  0.00000000000E+00 0.  1.
         22    1    1    2    0    0 -0.37709374346E+03  0.29736940360E+03  0.36176739478E+03  0.60125194510E+03  0.00000000000E+00 0. -1.
<mgrwt>
<rscale>  0 0.19506504E+04</rscale>
<asrwt>0</asrwt>
<pdfrwt beam="1">  1        1 0.28357229E+00 0.19506504E+04</pdfrwt>
<pdfrwt beam="2">  1       -1 0.79397787E-01 0.19506504E+04</pdfrwt>
<totfact> 0.56223322E+00</totfact>
</mgrwt>
</event>
<event>
 6    1  0.6091287E-004  0.2337117E+04  0.7818608E-02  0.8463429E-01
          2   -1    0    0  501    0  0.00000000000E+00  0.00000000000E+00  0.92717726660E+03  0.92717726660E+03  0.00000000000E+00 0.  1.
         -2   -1    0    0    0  501 -0.00000000000E+00 -0.00000000000E+00 -0.14727809157E+04  0.14727809157E+04  0.00000000000E+00 0. -1.
         23    2    1    2    0    0  0.45344237437E+03 -0.32916159975E+03 -0.13242336870E+04  0.14406761165E+04  0.89417387919E+02 0.  0.
         11    1    3    3    0    0  0.44263913019E+03 -0.30345152506E+03 -0.12208918843E+04  0.13336375897E+04  0.00000000000E+00 0.  1.
        -11    1    3    3    0    0  0.10803244186E+02 -0.25710074697E+02 -0.10334180274E+03  0.10703852680E+03  0.00000000000E+00 0. -1.
         22    1    1    2    0    0 -0.45344237437E+03  0.32916159975E+03  0.77863003796E+03  0.95928206574E+03  0.00000000000E+00 0.  1.
<mgrwt>
<rscale>  0 0.23371170E+04</rscale>
<asrwt>0</asrwt>
<pdfrwt beam="1">  1        2 0.14264266E+00 0.23371170E+04</pdfrwt>
<pdfrwt beam="2">  1       -2 0.22658168E+00 0.23371170E+04</pdfrwt>
<totfact> 0.22819172E+00</totfact>
</mgrwt>
</event>
<event>
 6    1  0.6091287E-004  0.1574746E+04  0.7818608E-02  0.8836214E-01
          2   -1    0    0  501    0  0.00000000000E+00  0.00000000000E+00  0.19837978246E+04  0.19837978246E+04  0.00000000000E+00 0.  1.
         -2   -1    0    0    0  501 -0.00000000000E+00 -0.00000000000E+00 -0.31250981048E+03  0.31250981048E+03  0.00000000000E+00 0. -1.
         23    2    1    2    0    0  0.37258587610E+02 -0.49727056627E+03  0.17218098693E+04  0.17950904403E+04  0.95153793396E+02 0.  0.
         13    1    3    3    0    0 -0.21729886301E+02 -0.20937961097E+03  0.61987910473E+03  0.65464655649E+03  0.00000000000E+00 0.  1.
        -13    1    3    3    0    0  0.58988473911E+02 -0.28789095531E+03  0.11019307646E+04  0.11404438838E+04  0.00000000000E+00 0. -1.
         22    1    1    2    0    0 -0.37258587610E+02  0.49727056627E+03 -0.50521855237E+02  0.50121719472E+03  0.00000000000E+00 0. -1.
<mgrwt>
<rscale>  0 0.15747461E+04</rscale>
<asrwt>0</asrwt>
<pdfrwt beam="1">  1        2 0.30519966E+00 0.15747461E+04</pdfrwt>
<pdfrwt beam="2">  1       -2 0.48078434E-01 0.15747461E+04</pdfrwt>
<totfact> 0.26866754E+01</totfact>
</mgrwt>
</event>
<event>
 6    1  0.6091287E-004  0.3232512E+04  0.7818608E-02  0.8180283E-01
          2   -1    0    0  501    0  0.00000000000E+00  0.00000000000E+00  0.30796816466E+04  0.30796816466E+04  0.00000000000E+00 0.  1.
         -2   -1    0    0    0  501 -0.00000000000E+00 -0.00000000000E+00 -0.84823177400E+03  0.84823177400E+03  0.00000000000E+00 0. -1.
         23    2    1    2    0    0  0.37435674209E+03  0.13255267572E+04  0.21414334168E+04  0.25475992836E+04  0.85795552722E+02 0.  0.
         13    1    3    3    0    0  0.15927763169E+03  0.52198301085E+03  0.77460175237E+03  0.94754604234E+03  0.00000000000E+00 0. -1.
        -13    1    3    3    0    0  0.21507911040E+03  0.80354374639E+03  0.13668316644E+04  0.16000532413E+04  0.00000000000E+00 0.  1.
         22    1    1    2    0    0 -0.37435674209E+03 -0.13255267572E+04  0.90016455844E+02  0.13803141370E+04  0.00000000000E+00 0. -1.
<mgrwt>
<rscale>  0 0.32325122E+04</rscale>
<asrwt>0</asrwt>
<pdfrwt beam="1">  1        2 0.47379717E+00 0.32325122E+04</pdfrwt>
<pdfrwt beam="2">  1       -2 0.13049720E+00 0.32325122E+04</pdfrwt>
<totfact> 0.55959543E-01</totfact>
</mgrwt>
</event>
<event>
 6    1  0.6091287E-004  0.8442238E+03  0.7818608E-02  0.9498123E-01
          2   -1    0    0  501    0  0.00000000000E+00  0.00000000000E+00  0.77190608960E+03  0.77190608960E+03  0.00000000000E+00 0.  1.
         -2   -1    0    0    0  501 -0.00000000000E+00 -0.00000000000E+00 -0.23082918328E+03  0.23082918328E+03  0.00000000000E+00 0. -1.
         23    2    1    2    0    0 -0.90693899319E+02 -0.12099763312E+03  0.73552977254E+03  0.75640677722E+03  0.91001954608E+02 0.  0.
         11    1    3    3    0    0 -0.63314499676E+02 -0.17771811044E+02  0.36134608545E+03  0.36728130446E+03  0.00000000000E+00 0.  1.
        -11    1    3    3    0    0 -0.27379399643E+02 -0.10322582207E+03  0.37418368709E+03  0.38912547276E+03  0.00000000000E+00 0. -1.
         22    1    1    2    0    0  0.90693899319E+02  0.12099763312E+03 -0.19445286621E+03  0.24632849566E+03  0.00000000000E+00 0. -1.
<mgrwt>
<rscale>  0 0.84422379E+03</rscale>
<asrwt>0</asrwt>
<pdfrwt beam="1">  1        2 0.11875478E+00 0.84422379E+03</pdfrwt>
<pdfrwt beam="2">  1       -2 0.35512182E-01 0.84422379E+03</pdfrwt>
<totfact> 0.27009708E+02</totfact>
</mgrwt>
</event>
<event>
 6    1  0.6091287E-004  0.2024920E+04  0.7818608E-02  0.8595058E-01
          2   -1    0    0  501    0  0.00000000000E+00  0.00000000000E+00  0.13956118221E+04  0.13956118221E+04  0.00000000000E+00 0.  1.
         -2   -1    0    0    0  501 -0.00000000000E+00 -0.00000000000E+00 -0.73449850468E+03  0.73449850468E+03  0.00000000000E+00 0. -1.
         23    2    1    2    0    0 -0.83436109748E+03 -0.28234437443E+03 -0.18946928366E+03  0.90562368005E+03  0.91536078376E+02 0.  0.
         13    1    3    3    0    0 -0.26282026937E+03 -0.62541820649E+02 -0.23492060232E+02  0.27117863156E+03  0.00000000000E+00 0. -1.
        -13    1    3    3    0    0 -0.57154082811E+03 -0.21980255379E+03 -0.16597722343E+03  0.63444504848E+03  0.00000000000E+00 0.  1.
         22    1    1    2    0    0  0.83436109748E+03  0.28234437443E+03  0.85058260110E+03  0.12244866467E+04  0.00000000000E+00 0.  1.
<mgrwt>
<rscale>  0 0.20249196E+04</rscale>
<asrwt>0</asrwt>
<pdfrwt beam="1">  1        2 0.21470951E+00 0.20249196E+04</pdfrwt>
<pdfrwt beam="2">  1       -2 0.11299977E+00 0.20249196E+04</pdfrwt>
<totfact> 0.83067526E+00</totfact>
</mgrwt>
</event>
<event>
 6    1  0.6091287E-004  0.2690135E+04  0.7818608E-02  0.8338213E-01
         -2   -1    0    0    0  501 -0.00000000000E+00  0.00000000000E+00  0.78371137820E+03  0.78371137820E+03  0.00000000000E+00 0. -1.
          2   -1    0    0  501    0  0.00000000000E+00 -0.00000000000E+00 -0.23085112820E+04  0.23085112820E+04  0.00000000000E+00 0.  1.
         23    2    1    2    0    0  0.26741197682E+03 -0.13141091530E+04 -0.85597757241E+03  0.15936515600E+04  0.92928245594E+02 0.  0.
         11    1    3    3    0    0  0.91972998631E+02 -0.41728158535E+03 -0.32413767801E+03  0.53632843320E+03  0.00000000000E+00 0. -1.
        -11    1    3    3    0    0  0.17543897819E+03 -0.89682756768E+03 -0.53183989440E+03  0.10573231268E+04  0.00000000000E+00 0.  1.
         22    1    1    2    0    0 -0.26741197682E+03  0.13141091530E+04 -0.66882233143E+03  0.14985711002E+04  0.00000000000E+00 0.  1.
<mgrwt>
<rscale>  0 0.26901350E+04</rscale>
<asrwt>0</asrwt>
<pdfrwt beam="1">  1        2 0.35515558E+00 0.26901350E+04</pdfrwt>
<pdfrwt beam="2">  1       -2 0.12057098E+00 0.26901350E+04</pdfrwt>
<totfact> 0.20654232E+00</totfact>
</mgrwt>
</event>
<event>
 6    1  0.6091287E-004  0.1386453E+04  0.7818608E-02  0.8963683E-01
          1   -1    0    0  501    0  0.00000000000E+00  0.00000000000E+00  0.69325316209E+03  0.69325316209E+03  0.00000000000E+00 0.  1.
         -1   -1    0    0    0  501 -0.00000000000E+00 -0.00000000000E+00 -0.69320011813E+03  0.69320011813E+03  0.00000000000E+00 0. -1.
         23    2    1    2    0    0 -0.22832980092E+03  0.39551174573E+03  0.51761443513E+03  0.69621141491E+03  0.90672993750E+02 0.  0.
         13    1    3    3    0    0 -0.96772092650E+02  0.11739845363E+03  0.12180771482E+03  0.19489575219E+03  0.00000000000E+00 0. -1.
        -13    1    3    3    0    0 -0.13155770827E+03  0.27811329210E+03  0.39580672031E+03  0.50131566272E+03  0.00000000000E+00 0.  1.
         22    1    1    2    0    0  0.22832980092E+03 -0.39551174573E+03 -0.51756139117E+03  0.69024186531E+03  0.00000000000E+00 0. -1.
<mgrwt>
<rscale>  0 0.13864533E+04</rscale>
<asrwt>0</asrwt>
<pdfrwt beam="1">  1        1 0.10665433E+00 0.13864533E+04</pdfrwt>
<pdfrwt beam="2">  1       -1 0.10664617E+00 0.13864533E+04</pdfrwt>
<totfact> 0.22164780E+01</totfact>
</mgrwt>
</event>
<event>
 6    1  0.6091287E-004  0.2091164E+04  0.7818608E-02  0.8565145E-01
         -2   -1    0    0    0  501 -0.00000000000E+00  0.00000000000E+00  0.77133520494E+03  0.77133520494E+03  0.00000000000E+00 0. -1.
          2   -1    0    0  501    0  0.00000000000E+00 -0.00000000000E+00 -0.14173374038E+04  0.14173374038E+04  0.00000000000E+00 0.  1.
         23    2    1    2    0    0 -0.15819214742E+03 -0.75657034152E+03  0.41094253261E+03  0.87926220610E+03  0.82491361941E+02 0.  0.
         11    1    3    3    0    0 -0.12590989269E+03 -0.56201642441E+03  0.26538365760E+03  0.63414844327E+03  0.00000000000E+00 0. -1.
        -11    1    3    3    0    0 -0.32282254735E+02 -0.19455391712E+03  0.14555887501E+03  0.24511376283E+03  0.00000000000E+00 0.  1.
         22    1    1    2    0    0  0.15819214742E+03  0.75657034152E+03 -0.10569447315E+04  0.13094104027E+04  0.00000000000E+00 0.  1.
<mgrwt>
<rscale>  0 0.20911645E+04</rscale>
<asrwt>0</asrwt>
<pdfrwt beam="1">  1        2 0.21805191E+00 0.20911645E+04</pdfrwt>
<pdfrwt beam="2">  1       -2 0.11866695E+00 0.20911645E+04</pdfrwt>
<totfact> 0.71223431E+00</totfact>
</mgrwt>
</event>
<event>
 6    1  0.6091287E-004  0.1444712E+04  0.7818608E-02  0.8922074E-01
         -2   -1    0    0    0  501 -0.00000000000E+00  0.00000000000E+00  0.74072261901E+03  0.74072261901E+03  0.00000000000E+00 0. -1.
          2   -1    0    0  501    0  0.00000000000E+00 -0.00000000000E+00 -0.70444517557E+03  0.70444517557E+03  0.00000000000E+00 0.  1.
         23    2    1    2    0    0  0.91506519495E+02 -0.35229675624E+03  0.64012674122E+03  0.74010012265E+03  0.74158608120E+02 0.  0.
         11    1    3    3    0    0  0.10065999833E+03 -0.26809217802E+03  0.50800788856E+03  0.58316195522E+03  0.00000000000E+00 0.  1.
        -11    1    3    3    0    0 -0.91534788384E+01 -0.84204578222E+02  0.13211885266E+03  0.15693816743E+03  0.00000000000E+00 0. -1.
         22    1    1    2    0    0 -0.91506519495E+02  0.35229675624E+03 -0.60384929778E+03  0.70506767193E+03  0.00000000000E+00 0.  1.
<mgrwt>
<rscale>  0 0.14447124E+04</rscale>
<asrwt>0</asrwt>
<pdfrwt beam="1">  1        2 0.10837618E+00 0.14447124E+04</pdfrwt>
<pdfrwt beam="2">  1       -2 0.11395733E+00 0.14447124E+04</pdfrwt>
<totfact> 0.23773534E+01</totfact>
</mgrwt>
</event>
<event>
 6    1  0.6091287E-004  0.2341928E+04  0.7818608E-02  0.8461570E-01
         -2   -1    0    0    0  501 -0.00000000000E+00  0.00000000000E+00  0.90342830728E+03  0.90342830728E+03  0.00000000000E+00 0. -1.
          2   -1    0    0  501    0  0.00000000000E+00 -0.00000000000E+00 -0.15177266607E+04  0.15177266607E+04  0.00000000000E+00 0.  1.
         23    2    1    2    0    0  0.54582158897E+03 -0.22427051786E+03 -0.13511272892E+04  0.14771553108E+04  0.90688413567E+02 0.  0.
         11    1    3    3    0    0  0.31220479820E+03 -0.79850676225E+02 -0.71456216857E+03  0.78386673566E+03  0.00000000000E+00 0. -1.
        -11    1    3    3    0    0  0.23361679077E+03 -0.14441984163E+03 -0.63656512068E+03  0.69328857516E+03  0.00000000000E+00 0.  1.
         22    1    1    2    0    0 -0.54582158897E+03  0.22427051786E+03  0.73682893579E+03  0.94399965720E+03  0.00000000000E+00 0. -1.
<mgrwt>
<rscale>  0 0.23419285E+04</rscale>
<asrwt>0</asrwt>
<pdfrwt beam="1">  1        2 0.23349641E+00 0.23419285E+04</pdfrwt>
<pdfrwt beam="2">  1       -2 0.13898897E+00 0.23419285E+04</pdfrwt>
<totfact> 0.41026175E+00</totfact>
</mgrwt>
</event>
<event>
 6    1  0.6091287E-004  0.1610028E+04  0.7818608E-02  0.8814411E-01
         -1   -1    0    0    0  501 -0.00000000000E+00  0.00000000000E+00  0.14129208685E+04  0.14129208685E+04  0.00000000000E+00 0. -1.
          1   -1    0    0  501    0  0.00000000000E+00 -0.00000000000E+00 -0.45865786875E+03  0.45865786875E+03  0.00000000000E+00 0.  1.
         23    2    1    2    0    0  0.10558836810E+03  0.48904188347E+03  0.12079278249E+04  0.13106360389E+04  0.91467639332E+02 0.  0.
         11    1    3    3    0    0  0.56515610139E+02  0.30526050464E+03  0.63246935840E+03  0.70455338988E+03  0.00000000000E+00 0.  1.
        -11    1    3    3    0    0  0.49072757957E+02  0.18378137883E+03  0.57545846649E+03  0.60608264901E+03  0.00000000000E+00 0. -1.
         22    1    1    2    0    0 -0.10558836810E+03 -0.48904188347E+03 -0.25366482518E+03  0.56094269832E+03  0.00000000000E+00 0.  1.
<mgrwt>
<rscale>  0 0.16100277E+04</rscale>
<asrwt>0</asrwt>
<pdfrwt beam="1">  1        1 0.70562750E-01 0.16100277E+04</pdfrwt>
<pdfrwt beam="2">  1       -1 0.21737244E+00 0.16100277E+04</pdfrwt>
<totfact> 0.54821253E+00</totfact>
</mgrwt>
</event>
<event>
 6    1  0.6091287E-004  0.6840415E+03  0.7818608E-02  0.9744919E-01
         -1   -1    0    0    0  501 -0.00000000000E+00  0.00000000000E+00  0.99273159915E+03  0.99273159915E+03  0.00000000000E+00 0. -1.
          1   -1    0    0  501    0  0.00000000000E+00 -0.00000000000E+00 -0.11783467538E+03  0.11783467538E+03  0.00000000000E+00 0.  1.
         23    2    1    2    0    0  0.12794438144E+03  0.21556444506E+03  0.80219900088E+03  0.84956285940E+03  0.12408070094E+03 0.  0.
         13    1    3    3    0    0  0.26558563998E+02  0.10614650214E+03  0.50866815384E+03  0.52030349602E+03  0.00000000000E+00 0. -1.
        -13    1    3    3    0    0  0.10138581744E+03  0.10941794292E+03  0.29353084704E+03  0.32925936338E+03  0.00000000000E+00 0.  1.
         22    1    1    2    0    0 -0.12794438144E+03 -0.21556444506E+03  0.72697922898E+02  0.26100341513E+03  0.00000000000E+00 0.  1.
<mgrwt>
<rscale>  0 0.68404154E+03</rscale>
<asrwt>0</asrwt>
<pdfrwt beam="1">  1        1 0.18128412E-01 0.68404154E+03</pdfrwt>
<pdfrwt beam="2">  1       -1 0.15272793E+00 0.68404154E+03</pdfrwt>
<totfact> 0.10141077E+02</totfact>
</mgrwt>
</event>
<event>
 6    1  0.6091287E-004  0.3536691E+04  0.7818608E-02  0.8105149E-01
          2   -1    0    0  501    0  0.00000000000E+00  0.00000000000E+00  0.38126444515E+04  0.38126444515E+04  0.00000000000E+00 0.  1.
         -2   -1    0    0    0  501 -0.00000000000E+00 -0.00000000000E+00 -0.82017763230E+03  0.82017763230E+03  0.00000000000E+00 0. -1.
         23    2    1    2    0    0 -0.77634203029E+03 -0.15738703903E+04  0.17693645885E+04  0.24937208659E+04  0.90651842436E+02 0.  0.
         11    1    3    3    0    0 -0.56276282704E+03 -0.11078929045E+04  0.13065033837E+04  0.18030750897E+04  0.00000000000E+00 0. -1.
        -11    1    3    3    0    0 -0.21357920324E+03 -0.46597748579E+03  0.46286120484E+03  0.69064577626E+03  0.00000000000E+00 0.  1.
         22    1    1    2    0    0  0.77634203029E+03  0.15738703903E+04  0.12231022307E+04  0.21391012178E+04  0.00000000000E+00 0.  1.
<mgrwt>
<rscale>  0 0.35366909E+04</rscale>
<asrwt>0</asrwt>
<pdfrwt beam="1">  1        2 0.58656067E+00 0.35366909E+04</pdfrwt>
<pdfrwt beam="2">  1       -2 0.12618118E+00 0.35366909E+04</pdfrwt>
<totfact> 0.18384907E-01</totfact>
</mgrwt>
</event>
<event>
 6    1  0.6091287E-004  0.2453053E+04  0.7818608E-02  0.8419904E-01
          2   -1    0    0  501    0  0.00000000000E+00  0.00000000000E+00  0.20483610929E+04  0.20483610929E+04  0.00000000000E+00 0.  1.
         -2   -1    0    0    0  501 -0.00000000000E+00 -0.00000000000E+00 -0.73442511963E+03  0.73442511963E+03  0.00000000000E+00 0. -1.
         23    2    1    2    0    0  0.78149747130E+03 -0.88825728494E+03  0.29889024631E+03  0.12239221615E+04  0.94396907283E+02 0.  0.
         13    1    3    3    0    0  0.31181634648E+03 -0.40968064411E+03  0.16004332532E+03  0.53914889415E+03  0.00000000000E+00 0. -1.
        -13    1    3    3    0    0  0.46968112482E+03 -0.47857664084E+03  0.13884692098E+03  0.68477326732E+03  0.00000000000E+00 0.  1.
         22    1    1    2    0    0 -0.78149747130E+03  0.88825728494E+03  0.10150457270E+04  0.15588640511E+04  0.00000000000E+00 0. -1.
<mgrwt>
<rscale>  0 0.24530535E+04</rscale>
<asrwt>0</asrwt>
<pdfrwt beam="1">  1        2 0.31513247E+00 0.24530535E+04</pdfrwt>
<pdfrwt beam="2">  1       -2 0.11298848E+00 0.24530535E+04</pdfrwt>
<totfact> 0.34606993E+00</totfact>
</mgrwt>
</event>
<event>
 6    1  0.6091287E-004  0.4215621E+04  0.7818608E-02  0.7962407E-01
          2   -1    0    0  501    0  0.00000000000E+00  0.00000000000E+00  0.28672722018E+04  0.28672722018E+04  0.00000000000E+00 0.  1.
         -2   -1    0    0    0  501 -0.00000000000E+00 -0.00000000000E+00 -0.15495094400E+04  0.15495094400E+04  0.00000000000E+00 0. -1.
         23    2    1    2    0    0  0.19915243995E+04  0.68443698082E+03  0.72800040063E+03  0.22299018881E+04  0.88625238049E+02 0.  0.
         13    1    3    3    0    0  0.14789702677E+04  0.47306126945E+03  0.51487732677E+03  0.16359213548E+04  0.00000000000E+00 0.  1.
        -13    1    3    3    0    0  0.51255413181E+03  0.21137571137E+03  0.21312307386E+03  0.59398053335E+03  0.00000000000E+00 0. -1.
         22    1    1    2    0    0 -0.19915243995E+04 -0.68443698082E+03  0.58976236122E+03  0.21868797537E+04  0.00000000000E+00 0.  1.
<mgrwt>
<rscale>  0 0.42156211E+04</rscale>
<asrwt>0</asrwt>
<pdfrwt beam="1">  1        2 0.44111880E+00 0.42156211E+04</pdfrwt>
<pdfrwt beam="2">  1       -2 0.23838607E+00 0.42156211E+04</pdfrwt>
<totfact> 0.12362108E-01</totfact>
</mgrwt>
</event>
<event>
 6    1  0.6091287E-004  0.3983069E+04  0.7818608E-02  0.8007971E-01
         -2   -1    0    0    0  501 -0.00000000000E+00  0.00000000000E+00  0.16115018125E+04  0.16115018125E+04  0.00000000000E+00 0. -1.
          2   -1    0    0  501    0  0.00000000000E+00 -0.00000000000E+00 -0.24611887121E+04  0.24611887121E+04  0.00000000000E+00 0.  1.
         23    2    1    2    0    0  0.11700786429E+04  0.12794195916E+03 -0.20663750841E+04  0.23798280630E+04  0.90677704436E+02 0.  0.
         11    1    3    3    0    0  0.61044452412E+03  0.28209429433E+02 -0.11192429041E+04  0.12752031082E+04  0.00000000000E+00 0.  1.
        -11    1    3    3    0    0  0.55963411882E+03  0.99732529726E+02 -0.94713217999E+03  0.11046249548E+04  0.00000000000E+00 0. -1.
         22    1    1    2    0    0 -0.11700786429E+04 -0.12794195916E+03  0.12166881844E+04  0.16928624615E+04  0.00000000000E+00 0. -1.
<mgrwt>
<rscale>  0 0.39830692E+04</rscale>
<asrwt>0</asrwt>
<pdfrwt beam="1">  1        2 0.37864442E+00 0.39830692E+04</pdfrwt>
<pdfrwt beam="2">  1       -2 0.24792336E+00 0.39830692E+04</pdfrwt>
<totfact> 0.19166367E-01</totfact>
</mgrwt>
</event>
<event>
 6    1  0.6091287E-004  0.7629066E+03  0.7818608E-02  0.9615317E-01
         -2   -1    0    0    0  501 -0.00000000000E+00  0.00000000000E+00  0.60299028110E+02  0.60299028110E+02  0.00000000000E+00 0. -1.
          2   -1    0    0  501    0  0.00000000000E+00 -0.00000000000E+00 -0.24130837647E+04  0.24130837647E+04  0.00000000000E+00 0.  1.
         23    2    1    2    0    0  0.25978876027E+03  0.25577110164E+03 -0.89509340271E+03  0.97079399967E+03  0.91322143116E+02 0.  0.
         13    1    3    3    0    0  0.30480195515E+02  0.82044212541E+02 -0.23319557144E+03  0.24907924375E+03  0.00000000000E+00 0.  1.
        -13    1    3    3    0    0  0.22930856476E+03  0.17372688910E+03 -0.66189783128E+03  0.72171475592E+03  0.00000000000E+00 0. -1.
         22    1    1    2    0    0 -0.25978876027E+03 -0.25577110164E+03 -0.14576913338E+04  0.15025887931E+04  0.00000000000E+00 0.  1.
<mgrwt>
<rscale>  0 0.76290656E+03</rscale>
<asrwt>0</asrwt>
<pdfrwt beam="1">  1        2 0.37124363E+00 0.76290656E+03</pdfrwt>
<pdfrwt beam="2">  1       -2 0.92767743E-02 0.76290656E+03</pdfrwt>
<totfact> 0.31326591E+02</totfact>
</mgrwt>
</event>
<event>
 6    1  0.6091287E-004  0.1647793E+04  0.7818608E-02  0.8791713E-01
         -2   -1    0    0    0  501 -0.00000000000E+00  0.00000000000E+00  0.77538405265E+03  0.77538405265E+03  0.00000000000E+00 0. -1.
          2   -1    0    0  501    0  0.00000000000E+00 -0.00000000000E+00 -0.87544430216E+03  0.87544430216E+03  0.00000000000E+00 0.  1.
         23    2    1    2    0    0 -0.44303325871E+03  0.45467070664E+03  0.47198960981E+03  0.79628463952E+03  0.91055563072E+02 0.  0.
         13    1    3    3    0    0 -0.42423442913E+03  0.45525137285E+03  0.45430603412E+03  0.77046910125E+03  0.00000000000E+00 0.  1.
        -13    1    3    3    0    0 -0.18798829583E+02 -0.58066621523E+00  0.17683575692E+02  0.25815538271E+02  0.00000000000E+00 0. -1.
         22    1    1    2    0    0  0.44303325871E+03 -0.45467070664E+03 -0.57204985933E+03  0.85454371530E+03  0.00000000000E+00 0.  1.
<mgrwt>
<rscale>  0 0.16477931E+04</rscale>
<asrwt>0</asrwt>
<pdfrwt beam="1">  1        2 0.13468374E+00 0.16477931E+04</pdfrwt>
<pdfrwt beam="2">  1       -2 0.11928985E+00 0.16477931E+04</pdfrwt>
<totfact> 0.15690843E+01</totfact>
</mgrwt>
</event>
<event>
 6    1  0.6091287E-004  0.3688277E+03  0.7818608E-02  0.1055142E+00
         -2   -1    0    0    0  501 -0.00000000000E+00  0.00000000000E+00  0.36687469464E+02  0.36687469464E+02  0.00000000000E+00 0.  1.
          2   -1    0    0  501    0  0.00000000000E+00 -0.00000000000E+00 -0.92697790408E+03  0.92697790408E+03  0.00000000000E+00 0. -1.
         23    2    1    2    0    0 -0.50768787563E+02 -0.12897182934E+03 -0.20324069058E+03  0.26277411712E+03  0.92370210376E+02 0.  0.
         11    1    3    3    0    0 -0.37212950476E+02 -0.88943835678E+02 -0.60303662760E+02  0.11372045256E+03  0.00000000000E+00 0.  1.
        -11    1    3    3    0    0 -0.13555837087E+02 -0.40027993667E+02 -0.14293702782E+03  0.14905366456E+03  0.00000000000E+00 0. -1.
         22    1    1    2    0    0  0.50768787563E+02  0.12897182934E+03 -0.68704974404E+03  0.70089125643E+03  0.00000000000E+00 0. -1.
<mgrwt>
<rscale>  0 0.36882773E+03</rscale>
<asrwt>0</asrwt>
<pdfrwt beam="1">  1        2 0.14261198E+00 0.36882773E+03</pdfrwt>
<pdfrwt beam="2">  1       -2 0.56442263E-02 0.36882773E+03</pdfrwt>
<totfact> 0.47675283E+03</totfact>
</mgrwt>
</event>
<event>
 6    1  0.6091287E-004  0.1394743E+04  0.7818608E-02  0.8957633E-01
         -2   -1    0    0    0  501 -0.00000000000E+00  0.00000000000E+00  0.44130448092E+03  0.44130448092E+03  0.00000000000E+00 0. -1.
          2   -1    0    0  501    0  0.00000000000E+00 -0.00000000000E+00 -0.11020209347E+04  0.11020209347E+04  0.00000000000E+00 0.  1.
         23    2    1    2    0    0  0.33577199345E+03  0.10933710870E+03 -0.99325541594E+03  0.10582691341E+04  0.93165465820E+02 0.  0.
         11    1    3    3    0    0  0.24297946385E+03  0.11841932224E+03 -0.78054377272E+03  0.82602102689E+03  0.00000000000E+00 0.  1.
        -11    1    3    3    0    0  0.92792529598E+02 -0.90822135436E+01 -0.21271164323E+03  0.23224810724E+03  0.00000000000E+00 0. -1.
         22    1    1    2    0    0 -0.33577199345E+03 -0.10933710870E+03  0.33253896212E+03  0.48505628153E+03  0.00000000000E+00 0. -1.
<mgrwt>
<rscale>  0 0.13947427E+04</rscale>
<asrwt>0</asrwt>
<pdfrwt beam="1">  1        2 0.16954168E+00 0.13947427E+04</pdfrwt>
<pdfrwt beam="2">  1       -2 0.67892997E-01 0.13947427E+04</pdfrwt>
<totfact> 0.42033619E+01</totfact>
</mgrwt>
</event>
<event>
 6    1  0.6091287E-004  0.1430493E+04  0.7818608E-02  0.8932037E-01
         -2   -1    0    0    0  501 -0.00000000000E+00  0.00000000000E+00  0.33286286737E+03  0.33286286737E+03  0.00000000000E+00 0. -1.
          2   -1    0    0  501    0  0.00000000000E+00 -0.00000000000E+00 -0.15369019399E+04  0.15369019399E+04  0.00000000000E+00 0.  1.
         23    2    1    2    0    0 -0.37590246716E+03 -0.60233433510E+03 -0.52862001433E+03  0.88981571665E+03  0.90683923553E+02 0.  0.
         11    1    3    3    0    0 -0.16933481609E+03 -0.33201705628E+03 -0.31595605613E+03  0.48860805868E+03  0.00000000000E+00 0.  1.
        -11    1    3    3    0    0 -0.20656765107E+03 -0.27031727883E+03 -0.21266395820E+03  0.40120765798E+03  0.00000000000E+00 0. -1.
         22    1    1    2    0    0  0.37590246716E+03  0.60233433510E+03 -0.67541905823E+03  0.97994909066E+03  0.00000000000E+00 0. -1.
<mgrwt>
<rscale>  0 0.14304930E+04</rscale>
<asrwt>0</asrwt>
<pdfrwt beam="1">  1        2 0.23644646E+00 0.14304930E+04</pdfrwt>
<pdfrwt beam="2">  1       -2 0.51209671E-01 0.14304930E+04</pdfrwt>
<totfact> 0.42334779E+01</totfact>
</mgrwt>
</event>
<event>
 6    1  0.6421068E-004  0.4419125E+04  0.7818608E-02  0.7924950E-01
         -2   -1    0    0    0  501 -0.00000000000E+00  0.00000000000E+00  0.18610981080E+04  0.18610981080E+04  0.00000000000E+00 0. -1.
          2   -1    0    0  501    0  0.00000000000E+00 -0.00000000000E+00 -0.26232724756E+04  0.26232724756E+04  0.00000000000E+00 0.  1.
         23    2    1    2    0    0 -0.46839184337E+03 -0.20362771417E+04 -0.11074682378E+04  0.23665784848E+04  0.91609552020E+02 0.  0.
         13    1    3    3    0    0 -0.11317152158E+03 -0.65942742028E+03 -0.33133878869E+03  0.74661751172E+03  0.00000000000E+00 0.  1.
        -13    1    3    3    0    0 -0.35522032179E+03 -0.13768497215E+04 -0.77612944908E+03  0.16199609731E+04  0.00000000000E+00 0. -1.
         22    1    1    2    0    0  0.46839184337E+03  0.20362771417E+04  0.34529387016E+03  0.21177920988E+04  0.00000000000E+00 0. -1.
<mgrwt>
<rscale>  0 0.44191255E+04</rscale>
<asrwt>0</asrwt>
<pdfrwt beam="1">  1        2 0.40358038E+00 0.44191255E+04</pdfrwt>
<pdfrwt beam="2">  1       -2 0.28632279E+00 0.44191255E+04</pdfrwt>
<totfact> 0.86650698E-02</totfact>
</mgrwt>
</event>
<event>
 6    1  0.6091287E-004  0.1843201E+04  0.7818608E-02  0.8683657E-01
         -2   -1    0    0    0  501 -0.00000000000E+00  0.00000000000E+00  0.62510291361E+03  0.62510291361E+03  0.00000000000E+00 0. -1.
          2   -1    0    0  501    0  0.00000000000E+00 -0.00000000000E+00 -0.13587318274E+04  0.13587318274E+04  0.00000000000E+00 0.  1.
         23    2    1    2    0    0  0.69472549222E+03 -0.14782117554E+02  0.28014946928E+03  0.75476654497E+03  0.91251256011E+02 0.  0.
         11    1    3    3    0    0  0.38748287838E+03  0.22583496115E+02  0.19152339597E+03  0.43282121776E+03  0.00000000000E+00 0.  1.
        -11    1    3    3    0    0  0.30724261384E+03 -0.37365613669E+02  0.88626073315E+02  0.32194532721E+03  0.00000000000E+00 0. -1.
         22    1    1    2    0    0 -0.69472549222E+03  0.14782117554E+02 -0.10137783831E+04  0.12290681961E+04  0.00000000000E+00 0.  1.
<mgrwt>
<rscale>  0 0.18432007E+04</rscale>
<asrwt>0</asrwt>
<pdfrwt beam="1">  1        2 0.20903566E+00 0.18432007E+04</pdfrwt>
<pdfrwt beam="2">  1       -2 0.96169680E-01 0.18432007E+04</pdfrwt>
<totfact> 0.13024153E+01</totfact>
</mgrwt>
</event>
<event>
 6    1  0.6091287E-004  0.1502025E+04  0.7818608E-02  0.8883108E-01
          2   -1    0    0  501    0  0.00000000000E+00  0.00000000000E+00  0.74802735099E+03  0.74802735099E+03  0.00000000000E+00 0.  1.
         -2   -1    0    0    0  501 -0.00000000000E+00 -0.00000000000E+00 -0.75400917583E+03  0.75400917583E+03  0.00000000000E+00 0. -1.
         23    2    1    2    0    0  0.67187073341E+03 -0.29827707659E+03  0.13527446132E+03  0.75348269761E+03  0.95170893033E+02 0.  0.
         11    1    3    3    0    0  0.34117126901E+03 -0.17860735644E+03  0.29448393262E+02  0.38621966604E+03  0.00000000000E+00 0.  1.
        -11    1    3    3    0    0  0.33069946440E+03 -0.11966972015E+03  0.10582606806E+03  0.36726303157E+03  0.00000000000E+00 0. -1.
         22    1    1    2    0    0 -0.67187073341E+03  0.29827707659E+03 -0.14125628617E+03  0.74855382920E+03  0.00000000000E+00 0.  1.
<mgrwt>
<rscale>  0 0.15020246E+04</rscale>
<asrwt>0</asrwt>
<pdfrwt beam="1">  1        2 0.11508113E+00 0.15020246E+04</pdfrwt>
<pdfrwt beam="2">  1       -2 0.11600141E+00 0.15020246E+04</pdfrwt>
<totfact> 0.20983924E+01</totfact>
</mgrwt>
</event>
<event>
 6    1  0.6091287E-004  0.2274053E+04  0.7818608E-02  0.8488222E-01
          2   -1    0    0  501    0  0.00000000000E+00  0.00000000000E+00  0.21042099818E+04  0.21042099818E+04  0.00000000000E+00 0.  1.
         -2   -1    0    0    0  501 -0.00000000000E+00 -0.00000000000E+00 -0.61440138692E+03  0.61440138692E+03  0.00000000000E+00 0. -1.
         23    2    1    2    0    0  0.29531234997E+03  0.10226989108E+04  0.12181079636E+04  0.16200014838E+04  0.86575691227E+02 0.  0.
         13    1    3    3    0    0  0.13366567794E+03  0.37409903038E+03  0.40339328481E+03  0.56616494083E+03  0.00000000000E+00 0.  1.
        -13    1    3    3    0    0  0.16164667203E+03  0.64859988044E+03  0.81471467882E+03  0.10538365430E+04  0.00000000000E+00 0. -1.
         22    1    1    2    0    0 -0.29531234997E+03 -0.10226989108E+04  0.27170063129E+03  0.10986098849E+04  0.00000000000E+00 0. -1.
<mgrwt>
<rscale>  0 0.22740532E+04</rscale>
<asrwt>0</asrwt>
<pdfrwt beam="1">  1        2 0.32372461E+00 0.22740532E+04</pdfrwt>
<pdfrwt beam="2">  1       -2 0.94523292E-01 0.22740532E+04</pdfrwt>
<totfact> 0.50065328E+00</totfact>
</mgrwt>
</event>
<event>
 6    1  0.6091287E-004  0.4489451E+04  0.7818608E-02  0.7912486E-01
          2   -1    0    0  501    0  0.00000000000E+00  0.00000000000E+00  0.37845418351E+04  0.37845418351E+04  0.00000000000E+00 0.  1.
         -2   -1    0    0    0  501 -0.00000000000E+00 -0.00000000000E+00 -0.13314141340E+04  0.13314141340E+04  0.00000000000E+00 0. -1.
         23    2    1    2    0    0  0.18424999142E+04 -0.35566470263E+03  0.26290030301E+04  0.32312184686E+04  0.88388601060E+02 0.  0.
         13    1    3    3    0    0  0.16883300507E+04 -0.30949009276E+03  0.23699353659E+04  0.29262324098E+04  0.00000000000E+00 0. -1.
        -13    1    3    3    0    0  0.15416986353E+03 -0.46174609865E+02  0.25906766424E+03  0.30498605882E+03  0.00000000000E+00 0.  1.
         22    1    1    2    0    0 -0.18424999142E+04  0.35566470263E+03 -0.17587532895E+03  0.18847375005E+04  0.00000000000E+00 0. -1.
<mgrwt>
<rscale>  0 0.44894510E+04</rscale>
<asrwt>0</asrwt>
<pdfrwt beam="1">  1        2 0.58223720E+00 0.44894510E+04</pdfrwt>
<pdfrwt beam="2">  1       -2 0.20483294E+00 0.44894510E+04</pdfrwt>
<totfact> 0.47176057E-02</totfact>
</mgrwt>
</event>
<event>
 6    1  0.6091287E-004  0.2101526E+04  0.7818608E-02  0.8560571E-01
          2   -1    0    0  501    0  0.00000000000E+00  0.00000000000E+00  0.30119104626E+04  0.30119104626E+04  0.00000000000E+00 0.  1.
         -2   -1    0    0    0  501 -0.00000000000E+00 -0.00000000000E+00 -0.36657907742E+03  0.36657907742E+03  0.00000000000E+00 0. -1.
         23    2    1    2    0    0  0.66316106265E+03 -0.70143502308E+03  0.66631460971E+03  0.11766037382E+04  0.92884396152E+02 0.  0.
         11    1    3    3    0    0  0.44793368986E+03 -0.52251478332E+03  0.44224014288E+03  0.81807251101E+03  0.00000000000E+00 0.  1.
        -11    1    3    3    0    0  0.21522737279E+03 -0.17892023976E+03  0.22407446683E+03  0.35853122721E+03  0.00000000000E+00 0. -1.
         22    1    1    2    0    0 -0.66316106265E+03  0.70143502308E+03  0.19790167754E+04  0.22018858018E+04  0.00000000000E+00 0.  1.
<mgrwt>
<rscale>  0 0.21015265E+04</rscale>
<asrwt>0</asrwt>
<pdfrwt beam="1">  1        2 0.46337082E+00 0.21015265E+04</pdfrwt>
<pdfrwt beam="2">  1       -2 0.56396783E-01 0.21015265E+04</pdfrwt>
<totfact> 0.46612563E+00</totfact>
</mgrwt>
</event>
<event>
 6    1  0.6091287E-004  0.3422917E+04  0.7818608E-02  0.8132305E-01
          2   -1    0    0  501    0  0.00000000000E+00  0.00000000000E+00  0.82366812437E+03  0.82366812437E+03  0.00000000000E+00 0.  1.
         -2   -1    0    0    0  501 -0.00000000000E+00 -0.00000000000E+00 -0.35561526400E+04  0.35561526400E+04  0.00000000000E+00 0. -1.
         23    2    1    2    0    0  0.15937165348E+04  0.15038676760E+03 -0.59712093865E+03  0.17110521009E+04  0.92721645724E+02 0.  0.
         13    1    3    3    0    0  0.99512273801E+03  0.71844651758E+02 -0.32998806904E+03  0.10508677573E+04  0.00000000000E+00 0. -1.
        -13    1    3    3    0    0  0.59859379678E+03  0.78542115844E+02 -0.26713286961E+03  0.66018434360E+03  0.00000000000E+00 0.  1.
         22    1    1    2    0    0 -0.15937165348E+04 -0.15038676760E+03 -0.21353635770E+04  0.26687686635E+04  0.00000000000E+00 0.  1.
<mgrwt>
<rscale>  0 0.34229166E+04</rscale>
<asrwt>0</asrwt>
<pdfrwt beam="1">  1        2 0.12671817E+00 0.34229166E+04</pdfrwt>
<pdfrwt beam="2">  1       -2 0.54710041E+00 0.34229166E+04</pdfrwt>
<totfact> 0.24107957E-02</totfact>
</mgrwt>
</event>
<event>
 6    1  0.6091287E-004  0.8911340E+03  0.7818608E-02  0.9436733E-01
          2   -1    0    0  501    0  0.00000000000E+00  0.00000000000E+00  0.92620894743E+03  0.92620894743E+03  0.00000000000E+00 0.  1.
         -2   -1    0    0    0  501 -0.00000000000E+00 -0.00000000000E+00 -0.21434683329E+03  0.21434683329E+03  0.00000000000E+00 0. -1.
         23    2    1    2    0    0  0.26214867008E+03  0.64083080086E+02  0.80544367892E+03  0.85492301711E+03  0.96567483622E+02 0.  0.
         13    1    3    3    0    0  0.41948144878E+02  0.19150786979E+02  0.56184701602E+02  0.72685075461E+02  0.00000000000E+00 0.  1.
        -13    1    3    3    0    0  0.22020052520E+03  0.44932293108E+02  0.74925897732E+03  0.78223794165E+03  0.00000000000E+00 0. -1.
         22    1    1    2    0    0 -0.26214867008E+03 -0.64083080086E+02 -0.93581564775E+02  0.28563276361E+03  0.00000000000E+00 0. -1.
<mgrwt>
<rscale>  0 0.89113401E+03</rscale>
<asrwt>0</asrwt>
<pdfrwt beam="1">  1        2 0.14249368E+00 0.89113401E+03</pdfrwt>
<pdfrwt beam="2">  1       -2 0.32976436E-01 0.89113401E+03</pdfrwt>
<totfact> 0.24204073E+02</totfact>
</mgrwt>
</event>
<event>
 6    1  0.6091287E-004  0.1216427E+04  0.7818608E-02  0.9098599E-01
          2   -1    0    0  501    0  0.00000000000E+00  0.00000000000E+00  0.12958737832E+04  0.12958737832E+04  0.00000000000E+00 0.  1.
         -2   -1    0    0    0  501 -0.00000000000E+00 -0.00000000000E+00 -0.28546252684E+03  0.28546252684E+03  0.00000000000E+00 0. -1.
         23    2    1    2    0    0  0.21017572914E+03 -0.43690370181E+03  0.97789536844E+03  0.10954186578E+04  0.92757762327E+02 0.  0.
         13    1    3    3    0    0  0.10699364445E+03 -0.20861230420E+03  0.37129583044E+03  0.43912108481E+03  0.00000000000E+00 0. -1.
        -13    1    3    3    0    0  0.10318208469E+03 -0.22829139760E+03  0.60659953800E+03  0.65629757300E+03  0.00000000000E+00 0.  1.
         22    1    1    2    0    0 -0.21017572914E+03  0.43690370181E+03  0.32515887900E+02  0.48591765222E+03  0.00000000000E+00 0. -1.
<mgrwt>
<rscale>  0 0.12164266E+04</rscale>
<asrwt>0</asrwt>
<pdfrwt beam="1">  1        2 0.19936519E+00 0.12164266E+04</pdfrwt>
<pdfrwt beam="2">  1       -2 0.43917313E-01 0.12164266E+04</pdfrwt>
<totfact> 0.80523471E+01</totfact>
</mgrwt>
</event>
<event>
 6    1  0.6091287E-004  0.2571802E+04  0.7818608E-02  0.8377843E-01
         -2   -1    0    0    0  501 -0.00000000000E+00  0.00000000000E+00  0.10060188480E+04  0.10060188480E+04  0.00000000000E+00 0. -1.
          2   -1    0    0  501    0  0.00000000000E+00 -0.00000000000E+00 -0.16436482638E+04  0.16436482638E+04  0.00000000000E+00 0.  1.
         23    2    1    2    0    0  0.31024166935E+03 -0.41863346450E+03 -0.15285178847E+04  0.16175885610E+04  0.93391422902E+02 0.  0.
         11    1    3    3    0    0  0.13209694957E+03 -0.17703849587E+03 -0.79265294100E+03  0.82285534450E+03  0.00000000000E+00 0.  1.
        -11    1    3    3    0    0  0.17814471977E+03 -0.24159496863E+03 -0.73586494366E+03  0.79473321647E+03  0.00000000000E+00 0. -1.
         22    1    1    2    0    0 -0.31024166935E+03  0.41863346450E+03  0.89088846893E+03  0.10320785508E+04  0.00000000000E+00 0. -1.
<mgrwt>
<rscale>  0 0.25718018E+04</rscale>
<asrwt>0</asrwt>
<pdfrwt beam="1">  1        2 0.25286896E+00 0.25718018E+04</pdfrwt>
<pdfrwt beam="2">  1       -2 0.15477213E+00 0.25718018E+04</pdfrwt>
<totfact> 0.25766208E+00</totfact>
</mgrwt>
</event>
<event>
 6    1  0.6091287E-004  0.1992087E+04  0.7818608E-02  0.8610329E-01
         -2   -1    0    0    0  501 -0.00000000000E+00  0.00000000000E+00  0.62893283970E+03  0.62893283970E+03  0.00000000000E+00 0. -1.
          2   -1    0    0  501    0  0.00000000000E+00 -0.00000000000E+00 -0.15774378453E+04  0.15774378453E+04  0.00000000000E+00 0.  1.
         23    2    1    2    0    0 -0.91169268745E+03 -0.39199878525E+03 -0.41455625963E+03  0.10794510484E+04  0.92255457865E+02 0.  0.
         11    1    3    3    0    0 -0.42692519773E+03 -0.21360924042E+03 -0.23913462189E+03  0.53392827181E+03  0.00000000000E+00 0. -1.
        -11    1    3    3    0    0 -0.48476748971E+03 -0.17838954484E+03 -0.17542163774E+03  0.54552277659E+03  0.00000000000E+00 0.  1.
         22    1    1    2    0    0  0.91169268745E+03  0.39199878525E+03 -0.53394874592E+03  0.11269196366E+04  0.00000000000E+00 0. -1.
<mgrwt>
<rscale>  0 0.19920868E+04</rscale>
<asrwt>0</asrwt>
<pdfrwt beam="1">  1        2 0.24268274E+00 0.19920868E+04</pdfrwt>
<pdfrwt beam="2">  1       -2 0.96758899E-01 0.19920868E+04</pdfrwt>
<totfact> 0.95298858E+00</totfact>
</mgrwt>
</event>
<event>
 6    1  0.6091287E-004  0.2869692E+04  0.7818608E-02  0.8281953E-01
          2   -1    0    0  501    0  0.00000000000E+00  0.00000000000E+00  0.21098041108E+04  0.21098041108E+04  0.00000000000E+00 0.  1.
         -2   -1    0    0    0  501 -0.00000000000E+00 -0.00000000000E+00 -0.97581683901E+03  0.97581683901E+03  0.00000000000E+00 0. -1.
         23    2    1    2    0    0  0.13999598184E+04 -0.26737879331E+03  0.40391265142E+03  0.14842503295E+04  0.92058126461E+02 0.  0.
         13    1    3    3    0    0  0.48294848366E+03 -0.13155539853E+03  0.16342367077E+03  0.52654853235E+03  0.00000000000E+00 0.  1.
        -13    1    3    3    0    0  0.91701133470E+03 -0.13582339477E+03  0.24048898064E+03  0.95770179719E+03  0.00000000000E+00 0. -1.
         22    1    1    2    0    0 -0.13999598184E+04  0.26737879331E+03  0.73007462034E+03  0.16013706202E+04  0.00000000000E+00 0. -1.
<mgrwt>
<rscale>  0 0.28696915E+04</rscale>
<asrwt>0</asrwt>
<pdfrwt beam="1">  1        2 0.32458525E+00 0.28696915E+04</pdfrwt>
<pdfrwt beam="2">  1       -2 0.15012567E+00 0.28696915E+04</pdfrwt>
<totfact> 0.15007872E+00</totfact>
</mgrwt>
</event>
<event>
 6    1  0.6091287E-004  0.3579332E+04  0.7818608E-02  0.8095242E-01
         -2   -1    0    0    0  501 -0.00000000000E+00  0.00000000000E+00  0.19415411292E+04  0.19415411292E+04  0.00000000000E+00 0. -1.
          2   -1    0    0  501    0  0.00000000000E+00 -0.00000000000E+00 -0.16496713403E+04  0.16496713403E+04  0.00000000000E+00 0.  1.
         23    2    1    2    0    0 -0.88825911169E+03  0.14937168891E+04 -0.27560515151E+03  0.17630379148E+04  0.11022747130E+03 0.  0.
         13    1    3    3    0    0 -0.57106826110E+03  0.10547853014E+04 -0.20652841438E+03  0.12171051626E+04  0.00000000000E+00 0. -1.
        -13    1    3    3    0    0 -0.31719085058E+03  0.43893158764E+03 -0.69076737126E+02  0.54593275221E+03  0.00000000000E+00 0.  1.
         22    1    1    2    0    0  0.88825911169E+03 -0.14937168891E+04  0.56747494045E+03  0.18281745546E+04  0.00000000000E+00 0.  1.
<mgrwt>
<rscale>  0 0.35793322E+04</rscale>
<asrwt>0</asrwt>
<pdfrwt beam="1">  1        2 0.25379559E+00 0.35793322E+04</pdfrwt>
<pdfrwt beam="2">  1       -2 0.29869863E+00 0.35793322E+04</pdfrwt>
<totfact> 0.27645861E-01</totfact>
</mgrwt>
</event>
<event>
 6    1  0.6091287E-004  0.2378406E+04  0.7818608E-02  0.8447633E-01
          2   -1    0    0  501    0  0.00000000000E+00  0.00000000000E+00  0.32241947608E+04  0.32241947608E+04  0.00000000000E+00 0.  1.
         -2   -1    0    0    0  501 -0.00000000000E+00 -0.00000000000E+00 -0.43862214099E+03  0.43862214099E+03  0.00000000000E+00 0. -1.
         23    2    1    2    0    0 -0.41950670449E+03 -0.84301807039E+03  0.28070588241E+03  0.98680817343E+03  0.91264651528E+02 0.  0.
         11    1    3    3    0    0 -0.14299161626E+03 -0.38697975942E+03  0.13164342237E+03  0.43304725743E+03  0.00000000000E+00 0.  1.
        -11    1    3    3    0    0 -0.27651508823E+03 -0.45603831097E+03  0.14906246004E+03  0.55376091600E+03  0.00000000000E+00 0. -1.
         22    1    1    2    0    0  0.41950670449E+03  0.84301807039E+03  0.25048667374E+04  0.26760087284E+04  0.00000000000E+00 0.  1.
<mgrwt>
<rscale>  0 0.23784055E+04</rscale>
<asrwt>0</asrwt>
<pdfrwt beam="1">  1        2 0.49602995E+00 0.23784055E+04</pdfrwt>
<pdfrwt beam="2">  1       -2 0.67480331E-01 0.23784055E+04</pdfrwt>
<totfact> 0.22702686E+00</totfact>
</mgrwt>
</event>
<event>
 6    1  0.6091287E-004  0.3246574E+04  0.7818608E-02  0.8176624E-01
         -2   -1    0    0    0  501 -0.00000000000E+00  0.00000000000E+00  0.90252744161E+03  0.90252744161E+03  0.00000000000E+00 0. -1.
          2   -1    0    0  501    0  0.00000000000E+00 -0.00000000000E+00 -0.29196452048E+04  0.29196452048E+04  0.00000000000E+00 0.  1.
         23    2    1    2    0    0 -0.61258542067E+03 -0.15013051299E+04 -0.10579117631E+04  0.19382262190E+04  0.91463581879E+02 0.  0.
         13    1    3    3    0    0 -0.19972725018E+02 -0.18742225065E+02 -0.15988053008E+02  0.31714327741E+02  0.00000000000E+00 0. -1.
        -13    1    3    3    0    0 -0.59261269566E+03 -0.14825629048E+04 -0.10419237101E+04  0.19065118913E+04  0.00000000000E+00 0.  1.
         22    1    1    2    0    0  0.61258542067E+03  0.15013051299E+04 -0.95920600006E+03  0.18839464274E+04  0.00000000000E+00 0.  1.
<mgrwt>
<rscale>  0 0.32465735E+04</rscale>
<asrwt>0</asrwt>
<pdfrwt beam="1">  1        2 0.44917618E+00 0.32465735E+04</pdfrwt>
<pdfrwt beam="2">  1       -2 0.13885038E+00 0.32465735E+04</pdfrwt>
<totfact> 0.60099875E-01</totfact>
</mgrwt>
</event>
<event>
 6    1  0.6091287E-004  0.2838830E+04  0.7818608E-02  0.8291314E-01
          2   -1    0    0  501    0  0.00000000000E+00  0.00000000000E+00  0.98613603096E+03  0.98613603096E+03  0.00000000000E+00 0.  1.
         -2   -1    0    0    0  501 -0.00000000000E+00 -0.00000000000E+00 -0.20430643002E+04  0.20430643002E+04  0.00000000000E+00 0. -1.
         23    2    1    2    0    0 -0.60376873013E+03  0.12180992077E+04 -0.98956424818E+02  0.13660670190E+04  0.89690394908E+02 0.  0.
         11    1    3    3    0    0 -0.28289613409E+02  0.71435628667E+02  0.14131290745E+02  0.78121985689E+02  0.00000000000E+00 0. -1.
        -11    1    3    3    0    0 -0.57547911672E+03  0.11466635791E+04 -0.11308771556E+03  0.12879450333E+04  0.00000000000E+00 0.  1.
         22    1    1    2    0    0  0.60376873013E+03 -0.12180992077E+04 -0.95797184439E+03  0.16631333122E+04  0.00000000000E+00 0. -1.
<mgrwt>
<rscale>  0 0.28388303E+04</rscale>
<asrwt>0</asrwt>
<pdfrwt beam="1">  1        2 0.15171324E+00 0.28388303E+04</pdfrwt>
<pdfrwt beam="2">  1       -2 0.31431758E+00 0.28388303E+04</pdfrwt>
<totfact> 0.57891675E-01</totfact>
</mgrwt>
</event>
<event>
 6    1  0.6091287E-004  0.4956939E+04  0.7818608E-02  0.7835184E-01
          2   -1    0    0  501    0  0.00000000000E+00  0.00000000000E+00  0.30240085328E+04  0.30240085328E+04  0.00000000000E+00 0.  1.
         -2   -1    0    0    0  501 -0.00000000000E+00 -0.00000000000E+00 -0.20313472923E+04  0.20313472923E+04  0.00000000000E+00 0. -1.
         23    2    1    2    0    0  0.74860987300E+02 -0.21307378420E+04  0.17839584468E+04  0.27811968185E+04  0.83066748219E+02 0.  0.
         11    1    3    3    0    0  0.48957861031E+02 -0.12656255105E+04  0.11123714826E+04  0.16856972208E+04  0.00000000000E+00 0. -1.
        -11    1    3    3    0    0  0.25903126269E+02 -0.86511233150E+03  0.67158696422E+03  0.10954995977E+04  0.00000000000E+00 0.  1.
         22    1    1    2    0    0 -0.74860987300E+02  0.21307378420E+04 -0.79129720627E+03  0.22741590066E+04  0.00000000000E+00 0. -1.
<mgrwt>
<rscale>  0 0.49569392E+04</rscale>
<asrwt>0</asrwt>
<pdfrwt beam="1">  1        2 0.46523208E+00 0.49569392E+04</pdfrwt>
<pdfrwt beam="2">  1       -2 0.31251497E+00 0.49569392E+04</pdfrwt>
<totfact> 0.32695903E-02</totfact>
</mgrwt>
</event>
<event>
 6    1  0.6091287E-004  0.2601098E+04  0.7818608E-02  0.8367828E-01
         -2   -1    0    0    0  501 -0.00000000000E+00  0.00000000000E+00  0.77000141460E+03  0.77000141460E+03  0.00000000000E+00 0. -1.
          2   -1    0    0  501    0  0.00000000000E+00 -0.00000000000E+00 -0.21966561472E+04  0.21966561472E+04  0.00000000000E+00 0.  1.
         23    2    1    2    0    0 -0.34688415118E+03 -0.11874651569E+04 -0.11659636360E+04  0.17023941553E+04  0.90953540412E+02 0.  0.
         11    1    3    3    0    0 -0.25903539269E+03 -0.84251052110E+03 -0.77542741801E+03  0.11739723137E+04  0.00000000000E+00 0.  1.
        -11    1    3    3    0    0 -0.87848758498E+02 -0.34495463575E+03 -0.39053621799E+03  0.52842184158E+03  0.00000000000E+00 0. -1.
         22    1    1    2    0    0  0.34688415118E+03  0.11874651569E+04 -0.26069109658E+03  0.12642634065E+04  0.00000000000E+00 0. -1.
<mgrwt>
<rscale>  0 0.26010985E+04</rscale>
<asrwt>0</asrwt>
<pdfrwt beam="1">  1        2 0.33794710E+00 0.26010985E+04</pdfrwt>
<pdfrwt beam="2">  1       -2 0.11846176E+00 0.26010985E+04</pdfrwt>
<totfact> 0.25148735E+00</totfact>
</mgrwt>
</event>
<event>
 6    1  0.6091287E-004  0.3387623E+03  0.7818608E-02  0.1067324E+00
         -2   -1    0    0    0  501 -0.00000000000E+00  0.00000000000E+00  0.93505168983E+02  0.93505168983E+02  0.00000000000E+00 0. -1.
          2   -1    0    0  501    0  0.00000000000E+00 -0.00000000000E+00 -0.30682760853E+03  0.30682760853E+03  0.00000000000E+00 0.  1.
         23    2    1    2    0    0 -0.29639859383E+02 -0.12392715207E+03 -0.22460376376E+03  0.27241198733E+03  0.86746641800E+02 0.  0.
         13    1    3    3    0    0 -0.47016325098E+01 -0.12005136995E+03 -0.14183282445E+03  0.18587895757E+03  0.00000000000E+00 0. -1.
        -13    1    3    3    0    0 -0.24938226873E+02 -0.38757821240E+01 -0.82770939305E+02  0.86533029764E+02  0.00000000000E+00 0.  1.
         22    1    1    2    0    0  0.29639859383E+02  0.12392715207E+03  0.11281324207E+02  0.12792079018E+03  0.00000000000E+00 0. -1.
<mgrwt>
<rscale>  0 0.33876226E+03</rscale>
<asrwt>0</asrwt>
<pdfrwt beam="1">  1        2 0.47204247E-01 0.33876226E+03</pdfrwt>
<pdfrwt beam="2">  1       -2 0.14385411E-01 0.33876226E+03</pdfrwt>
<totfact> 0.39250192E+03</totfact>
</mgrwt>
</event>
<event>
 6    1  0.6091287E-004  0.4596527E+04  0.7818608E-02  0.7893952E-01
         -2   -1    0    0    0  501 -0.00000000000E+00  0.00000000000E+00  0.30255050878E+04  0.30255050878E+04  0.00000000000E+00 0. -1.
          2   -1    0    0  501    0  0.00000000000E+00 -0.00000000000E+00 -0.17458295282E+04  0.17458295282E+04  0.00000000000E+00 0.  1.
         23    2    1    2    0    0 -0.13234938321E+04 -0.15451747950E+04  0.17480002447E+04  0.26836255650E+04  0.84499983495E+02 0.  0.
         13    1    3    3    0    0 -0.21403746237E+03 -0.20798562771E+03  0.24031457901E+03  0.38317248533E+03  0.00000000000E+00 0.  1.
        -13    1    3    3    0    0 -0.11094563697E+04 -0.13371891673E+04  0.15076856657E+04  0.23004530797E+04  0.00000000000E+00 0. -1.
         22    1    1    2    0    0  0.13234938321E+04  0.15451747950E+04 -0.46832468516E+03  0.20877090510E+04  0.00000000000E+00 0.  1.
<mgrwt>
<rscale>  0 0.45965274E+04</rscale>
<asrwt>0</asrwt>
<pdfrwt beam="1">  1        2 0.26858916E+00 0.45965274E+04</pdfrwt>
<pdfrwt beam="2">  1       -2 0.46546232E+00 0.45965274E+04</pdfrwt>
<totfact> 0.19133032E-02</totfact>
</mgrwt>
</event>
<event>
 6    1  0.6091287E-004  0.2249707E+04  0.7818608E-02  0.8498019E-01
          2   -1    0    0  501    0  0.00000000000E+00  0.00000000000E+00  0.28147762627E+04  0.28147762627E+04  0.00000000000E+00 0.  1.
         -2   -1    0    0    0  501 -0.00000000000E+00 -0.00000000000E+00 -0.44951911619E+03  0.44951911619E+03  0.00000000000E+00 0. -1.
         23    2    1    2    0    0  0.49847804586E+03 -0.95374177833E+03  0.71902007710E+03  0.12975213119E+04  0.92021419103E+02 0.  0.
         13    1    3    3    0    0  0.25043058769E+03 -0.51522390496E+03  0.43380003077E+03  0.71857749630E+03  0.00000000000E+00 0. -1.
        -13    1    3    3    0    0  0.24804745817E+03 -0.43851787337E+03  0.28522004633E+03  0.57894381558E+03  0.00000000000E+00 0.  1.
         22    1    1    2    0    0 -0.49847804586E+03  0.95374177833E+03  0.16462370694E+04  0.19667740670E+04  0.00000000000E+00 0. -1.
<mgrwt>
<rscale>  0 0.22497073E+04</rscale>
<asrwt>0</asrwt>
<pdfrwt beam="1">  1        2 0.43304249E+00 0.22497073E+04</pdfrwt>
<pdfrwt beam="2">  1       -2 0.69156789E-01 0.22497073E+04</pdfrwt>
<totfact> 0.39381402E+00</totfact>
</mgrwt>
</event>
<event>
 6    1  0.6091287E-004  0.1261418E+04  0.7818608E-02  0.9060734E-01
         -2   -1    0    0    0  501 -0.00000000000E+00  0.00000000000E+00  0.39811454202E+03  0.39811454202E+03  0.00000000000E+00 0. -1.
          2   -1    0    0  501    0  0.00000000000E+00 -0.00000000000E+00 -0.99919378482E+03  0.99919378482E+03  0.00000000000E+00 0.  1.
         23    2    1    2    0    0  0.38031001883E+03 -0.49044979358E+03 -0.19955791158E+03  0.65812222723E+03  0.90137647265E+02 0.  0.
         13    1    3    3    0    0  0.17246282354E+02 -0.63911949871E+02 -0.31569169952E+02  0.73340194183E+02  0.00000000000E+00 0.  1.
        -13    1    3    3    0    0  0.36306373648E+03 -0.42653784371E+03 -0.16798874162E+03  0.58478203304E+03  0.00000000000E+00 0. -1.
         22    1    1    2    0    0 -0.38031001883E+03  0.49044979358E+03 -0.40152133122E+03  0.73918609962E+03  0.00000000000E+00 0. -1.
<mgrwt>
<rscale>  0 0.12614176E+04</rscale>
<asrwt>0</asrwt>
<pdfrwt beam="1">  1        2 0.15372212E+00 0.12614176E+04</pdfrwt>
<pdfrwt beam="2">  1       -2 0.61248392E-01 0.12614176E+04</pdfrwt>
<totfact> 0.61452544E+01</totfact>
</mgrwt>
</event>
<event>
 6    1  0.6091287E-004  0.1538127E+04  0.7818608E-02  0.8859487E-01
          2   -1    0    0  501    0  0.00000000000E+00  0.00000000000E+00  0.10176883027E+04  0.10176883027E+04  0.00000000000E+00 0.  1.
         -2   -1    0    0    0  501 -0.00000000000E+00 -0.00000000000E+00 -0.58117887295E+03  0.58117887295E+03  0.00000000000E+00 0. -1.
         23    2    1    2    0    0 -0.22569836664E+03 -0.57315466350E+03 -0.25543505314E+03  0.67245841685E+03  0.86644301685E+02 0.  0.
         13    1    3    3    0    0 -0.14834423887E+03 -0.47168004586E+03 -0.20376713211E+03  0.53479820773E+03  0.00000000000E+00 0. -1.
        -13    1    3    3    0    0 -0.77354127769E+02 -0.10147461765E+03 -0.51667921035E+02  0.13766020912E+03  0.00000000000E+00 0.  1.
         22    1    1    2    0    0  0.22569836664E+03  0.57315466350E+03  0.69194448294E+03  0.92640875885E+03  0.00000000000E+00 0.  1.
<mgrwt>
<rscale>  0 0.15381274E+04</rscale>
<asrwt>0</asrwt>
<pdfrwt beam="1">  1        2 0.15656743E+00 0.15381274E+04</pdfrwt>
<pdfrwt beam="2">  1       -2 0.89412134E-01 0.15381274E+04</pdfrwt>
<totfact> 0.25371688E+01</totfact>
</mgrwt>
</event>
<event>
 6    1  0.6091287E-004  0.3928675E+04  0.7818608E-02  0.8019092E-01
         -2   -1    0    0    0  501 -0.00000000000E+00  0.00000000000E+00  0.21556852829E+04  0.21556852829E+04  0.00000000000E+00 0. -1.
          2   -1    0    0  501    0  0.00000000000E+00 -0.00000000000E+00 -0.17899741768E+04  0.17899741768E+04  0.00000000000E+00 0.  1.
         23    2    1    2    0    0 -0.16367214372E+04 -0.51295601117E+03 -0.77652375828E+03  0.18849116785E+04  0.89005370571E+02 0.  0.
         11    1    3    3    0    0 -0.29322513936E+03 -0.10866488926E+03 -0.17544530300E+03  0.35856672302E+03  0.00000000000E+00 0.  1.
        -11    1    3    3    0    0 -0.13434962979E+04 -0.40429112191E+03 -0.60107845528E+03  0.15263449554E+04  0.00000000000E+00 0. -1.
         22    1    1    2    0    0  0.16367214372E+04  0.51295601117E+03  0.11422348644E+04  0.20607477812E+04  0.00000000000E+00 0. -1.
<mgrwt>
<rscale>  0 0.39286746E+04</rscale>
<asrwt>0</asrwt>
<pdfrwt beam="1">  1        2 0.27538064E+00 0.39286746E+04</pdfrwt>
<pdfrwt beam="2">  1       -2 0.33164389E+00 0.39286746E+04</pdfrwt>
<totfact> 0.14058131E-01</totfact>
</mgrwt>
</event>
<event>
 6    1  0.6091287E-004  0.6383768E+04  0.7818608E-02  0.7644558E-01
         -2   -1    0    0    0  501 -0.00000000000E+00  0.00000000000E+00  0.41742957613E+04  0.41742957613E+04  0.00000000000E+00 0. -1.
          2   -1    0    0  501    0  0.00000000000E+00 -0.00000000000E+00 -0.24406811314E+04  0.24406811314E+04  0.00000000000E+00 0.  1.
         23    2    1    2    0    0  0.15942679523E+04  0.73868718650E+03  0.36273974042E+04  0.40316143049E+04  0.92481958168E+02 0.  0.
         11    1    3    3    0    0  0.91619861966E+03  0.47356853104E+03  0.21041904600E+04  0.23433532717E+04  0.00000000000E+00 0.  1.
        -11    1    3    3    0    0  0.67806933267E+03  0.26511865546E+03  0.15232069442E+04  0.16882610332E+04  0.00000000000E+00 0. -1.
         22    1    1    2    0    0 -0.15942679523E+04 -0.73868718650E+03 -0.18937827743E+04  0.25833625877E+04  0.00000000000E+00 0.  1.
<mgrwt>
<rscale>  0 0.63837684E+04</rscale>
<asrwt>0</asrwt>
<pdfrwt beam="1">  1        2 0.37548940E+00 0.63837684E+04</pdfrwt>
<pdfrwt beam="2">  1       -2 0.64219935E+00 0.63837684E+04</pdfrwt>
<totfact> 0.90082922E-04</totfact>
</mgrwt>
</event>
<event>
 6    1  0.6091287E-004  0.4303148E+04  0.7818608E-02  0.7946036E-01
          2   -1    0    0  501    0  0.00000000000E+00  0.00000000000E+00  0.19545655450E+04  0.19545655450E+04  0.00000000000E+00 0.  1.
         -2   -1    0    0    0  501 -0.00000000000E+00 -0.00000000000E+00 -0.23684402110E+04  0.23684402110E+04  0.00000000000E+00 0. -1.
         23    2    1    2    0    0 -0.22429342117E+03 -0.14531160697E+04  0.13696879097E+04  0.20115236962E+04  0.91262038877E+02 0.  0.
         13    1    3    3    0    0 -0.22131158856E+03 -0.13607704352E+04  0.13081808542E+04  0.19005294377E+04  0.00000000000E+00 0.  1.
        -13    1    3    3    0    0 -0.29818326090E+01 -0.92345634487E+02  0.61507055540E+02  0.11099425848E+03  0.00000000000E+00 0. -1.
         22    1    1    2    0    0  0.22429342117E+03  0.14531160697E+04 -0.17835625758E+04  0.23114820597E+04  0.00000000000E+00 0. -1.
<mgrwt>
<rscale>  0 0.43031484E+04</rscale>
<asrwt>0</asrwt>
<pdfrwt beam="1">  1        2 0.30070239E+00 0.43031484E+04</pdfrwt>
<pdfrwt beam="2">  1       -2 0.36437542E+00 0.43031484E+04</pdfrwt>
<totfact> 0.68744756E-02</totfact>
</mgrwt>
</event>
<event>
 6    1  0.6091287E-004  0.2600274E+04  0.7818608E-02  0.8368108E-01
         -2   -1    0    0    0  501 -0.00000000000E+00  0.00000000000E+00  0.91303587225E+03  0.91303587225E+03  0.00000000000E+00 0. -1.
          2   -1    0    0  501    0  0.00000000000E+00 -0.00000000000E+00 -0.18513576744E+04  0.18513576744E+04  0.00000000000E+00 0.  1.
         23    2    1    2    0    0 -0.82354358765E+03  0.98930878345E+03 -0.28539157288E+03  0.13210384988E+04  0.82088097841E+02 0.  0.
         11    1    3    3    0    0 -0.41608284381E+03  0.55971494500E+03 -0.16903128528E+03  0.71761920819E+03  0.00000000000E+00 0.  1.
        -11    1    3    3    0    0 -0.40746074384E+03  0.42959383845E+03 -0.11636028760E+03  0.60341929066E+03  0.00000000000E+00 0. -1.
         22    1    1    2    0    0  0.82354358765E+03 -0.98930878345E+03 -0.65293022933E+03  0.14433550478E+04  0.00000000000E+00 0.  1.
<mgrwt>
<rscale>  0 0.26002738E+04</rscale>
<asrwt>0</asrwt>
<pdfrwt beam="1">  1        2 0.28482426E+00 0.26002738E+04</pdfrwt>
<pdfrwt beam="2">  1       -2 0.14046706E+00 0.26002738E+04</pdfrwt>
<totfact> 0.25452615E+00</totfact>
</mgrwt>
</event>
<event>
 6    1  0.6091287E-004  0.4346919E+04  0.7818608E-02  0.7937999E-01
          2   -1    0    0  501    0  0.00000000000E+00  0.00000000000E+00  0.36231888973E+04  0.36231888973E+04  0.00000000000E+00 0.  1.
         -2   -1    0    0    0  501 -0.00000000000E+00 -0.00000000000E+00 -0.13038036800E+04  0.13038036800E+04  0.00000000000E+00 0. -1.
         23    2    1    2    0    0  0.15676512522E+04 -0.11124353896E+04  0.23074355185E+04  0.30047059859E+04  0.94638497127E+02 0.  0.
         11    1    3    3    0    0  0.10493227900E+04 -0.76149322309E+03  0.16210820294E+04  0.20757786955E+04  0.00000000000E+00 0. -1.
        -11    1    3    3    0    0  0.51832846214E+03 -0.35094216649E+03  0.68635348904E+03  0.92892729038E+03  0.00000000000E+00 0.  1.
         22    1    1    2    0    0 -0.15676512522E+04  0.11124353896E+04  0.11949698785E+02  0.19222865915E+04  0.00000000000E+00 0. -1.
<mgrwt>
<rscale>  0 0.43469194E+04</rscale>
<asrwt>0</asrwt>
<pdfrwt beam="1">  1        2 0.55741367E+00 0.43469194E+04</pdfrwt>
<pdfrwt beam="2">  1       -2 0.20058518E+00 0.43469194E+04</pdfrwt>
<totfact> 0.67024029E-02</totfact>
</mgrwt>
</event>
<event>
 6    1  0.6091287E-004  0.1355472E+04  0.7818608E-02  0.8986696E-01
         -2   -1    0    0    0  501 -0.00000000000E+00  0.00000000000E+00  0.44657183214E+03  0.44657183214E+03  0.00000000000E+00 0. -1.
          2   -1    0    0  501    0  0.00000000000E+00 -0.00000000000E+00 -0.10285608436E+04  0.10285608436E+04  0.00000000000E+00 0.  1.
         23    2    1    2    0    0  0.26948676843E+03 -0.55209066833E+03  0.11481904194E+02  0.62094595601E+03  0.89525536843E+02 0.  0.
         13    1    3    3    0    0  0.21350630878E+03 -0.46424320156E+03  0.41136216903E+02  0.51263913470E+03  0.00000000000E+00 0.  1.
        -13    1    3    3    0    0  0.55980459656E+02 -0.87847466770E+02 -0.29654312708E+02  0.10830682132E+03  0.00000000000E+00 0. -1.
         22    1    1    2    0    0 -0.26948676843E+03  0.55209066833E+03 -0.59347091565E+03  0.85418671972E+03  0.00000000000E+00 0.  1.
<mgrwt>
<rscale>  0 0.13554723E+04</rscale>
<asrwt>0</asrwt>
<pdfrwt beam="1">  1        2 0.15824013E+00 0.13554723E+04</pdfrwt>
<pdfrwt beam="2">  1       -2 0.68703359E-01 0.13554723E+04</pdfrwt>
<totfact> 0.45670219E+01</totfact>
</mgrwt>
</event>
<event>
 6    1  0.6091287E-004  0.1629145E+04  0.7818608E-02  0.8802840E-01
         -2   -1    0    0    0  501 -0.00000000000E+00  0.00000000000E+00  0.41746533871E+03  0.41746533871E+03  0.00000000000E+00 0. -1.
          2   -1    0    0  501    0  0.00000000000E+00 -0.00000000000E+00 -0.15894223058E+04  0.15894223058E+04  0.00000000000E+00 0.  1.
         23    2    1    2    0    0 -0.30990356705E+03  0.35082759687E+03  0.22933738398E+03  0.52947569047E+03  0.92890513581E+02 0.  0.
         13    1    3    3    0    0 -0.13539399439E+03  0.13634129130E+03  0.14392991817E+03  0.24007561886E+03  0.00000000000E+00 0. -1.
        -13    1    3    3    0    0 -0.17450957266E+03  0.21448630557E+03  0.85407465803E+02  0.28940007160E+03  0.00000000000E+00 0.  1.
         22    1    1    2    0    0  0.30990356705E+03 -0.35082759687E+03 -0.14012943510E+04  0.14774119540E+04  0.00000000000E+00 0. -1.
<mgrwt>
<rscale>  0 0.16291454E+04</rscale>
<asrwt>0</asrwt>
<pdfrwt beam="1">  1        2 0.24452651E+00 0.16291454E+04</pdfrwt>
<pdfrwt beam="2">  1       -2 0.64225437E-01 0.16291454E+04</pdfrwt>
<totfact> 0.24228104E+01</totfact>
</mgrwt>
</event>
<event>
 6    1  0.6091287E-004  0.3502965E+04  0.7818608E-02  0.8113088E-01
          2   -1    0    0  501    0  0.00000000000E+00  0.00000000000E+00  0.25918294588E+04  0.25918294588E+04  0.00000000000E+00 0.  1.
         -2   -1    0    0    0  501 -0.00000000000E+00 -0.00000000000E+00 -0.11836005329E+04  0.11836005329E+04  0.00000000000E+00 0. -1.
         23    2    1    2    0    0 -0.24163751070E+03  0.15500441450E+04 -0.13195158086E+03  0.15769801898E+04  0.91813730060E+02 0.  0.
         13    1    3    3    0    0 -0.21424306961E+03  0.12206381258E+04 -0.13319863649E+03  0.12464346769E+04  0.00000000000E+00 0. -1.
        -13    1    3    3    0    0 -0.27394441095E+02  0.32940601927E+03  0.12470556300E+01  0.33054551287E+03  0.00000000000E+00 0.  1.
         22    1    1    2    0    0  0.24163751070E+03 -0.15500441450E+04  0.15401805067E+04  0.21984498019E+04  0.00000000000E+00 0.  1.
<mgrwt>
<rscale>  0 0.35029649E+04</rscale>
<asrwt>0</asrwt>
<pdfrwt beam="1">  1        2 0.39874299E+00 0.35029649E+04</pdfrwt>
<pdfrwt beam="2">  1       -2 0.18209239E+00 0.35029649E+04</pdfrwt>
<totfact> 0.44330819E-01</totfact>
</mgrwt>
</event>
<event>
 6    1  0.6091287E-004  0.4365719E+04  0.7818608E-02  0.7934577E-01
         -2   -1    0    0    0  501 -0.00000000000E+00  0.00000000000E+00  0.14282514544E+04  0.14282514544E+04  0.00000000000E+00 0.  1.
          2   -1    0    0  501    0  0.00000000000E+00 -0.00000000000E+00 -0.33361596287E+04  0.33361596287E+04  0.00000000000E+00 0. -1.
         23    2    1    2    0    0 -0.91817210357E+03 -0.10536741729E+04 -0.27829315705E+04  0.31154916738E+04  0.91164515627E+02 0.  0.
         11    1    3    3    0    0 -0.75027917568E+03 -0.81797690954E+03 -0.21531839088E+04  0.24224380304E+04  0.00000000000E+00 0.  1.
        -11    1    3    3    0    0 -0.16789292789E+03 -0.23569726333E+03 -0.62974766177E+03  0.69305364344E+03  0.00000000000E+00 0. -1.
         22    1    1    2    0    0  0.91817210357E+03  0.10536741729E+04  0.87502339624E+03  0.16489194093E+04  0.00000000000E+00 0.  1.
<mgrwt>
<rscale>  0 0.43657187E+04</rscale>
<asrwt>0</asrwt>
<pdfrwt beam="1">  1        2 0.51325532E+00 0.43657187E+04</pdfrwt>
<pdfrwt beam="2">  1       -2 0.21973100E+00 0.43657187E+04</pdfrwt>
<totfact> 0.79950034E-02</totfact>
</mgrwt>
</event>
<event>
 6    1  0.6091287E-004  0.1348205E+04  0.7818608E-02  0.8992188E-01
         -2   -1    0    0    0  501 -0.00000000000E+00  0.00000000000E+00  0.37444754275E+03  0.37444754275E+03  0.00000000000E+00 0. -1.
          2   -1    0    0  501    0  0.00000000000E+00 -0.00000000000E+00 -0.12135581599E+04  0.12135581599E+04  0.00000000000E+00 0.  1.
         23    2    1    2    0    0 -0.57270810070E+03 -0.22516427356E+03 -0.73637692276E+03  0.96410849104E+03  0.92524004595E+02 0.  0.
         13    1    3    3    0    0 -0.34541738244E+03 -0.18018296528E+03 -0.43489495791E+03  0.58387729317E+03  0.00000000000E+00 0. -1.
        -13    1    3    3    0    0 -0.22729071826E+03 -0.44981308288E+02 -0.30148196484E+03  0.38023119786E+03  0.00000000000E+00 0.  1.
         22    1    1    2    0    0  0.57270810070E+03  0.22516427356E+03 -0.10273369439E+03  0.62389721161E+03  0.00000000000E+00 0. -1.
<mgrwt>
<rscale>  0 0.13482045E+04</rscale>
<asrwt>0</asrwt>
<pdfrwt beam="1">  1        2 0.18670125E+00 0.13482045E+04</pdfrwt>
<pdfrwt beam="2">  1       -2 0.57607314E-01 0.13482045E+04</pdfrwt>
<totfact> 0.51247909E+01</totfact>
</mgrwt>
</event>
<event>
 6    1  0.6091287E-004  0.2589451E+04  0.7818608E-02  0.8371793E-01
         -2   -1    0    0    0  501 -0.00000000000E+00  0.00000000000E+00  0.54952882137E+03  0.54952882137E+03  0.00000000000E+00 0. -1.
          2   -1    0    0  501    0  0.00000000000E+00 -0.00000000000E+00 -0.30504568997E+04  0.30504568997E+04  0.00000000000E+00 0.  1.
         23    2    1    2    0    0 -0.67076235343E+03  0.10994423152E+04 -0.10870257070E+04  0.16874440994E+04  0.84540886962E+02 0.  0.
         11    1    3    3    0    0 -0.24707372366E+03  0.48508888795E+03 -0.45663595896E+03  0.71054419507E+03  0.00000000000E+00 0. -1.
        -11    1    3    3    0    0 -0.42368862977E+03  0.61435342723E+03 -0.63038974805E+03  0.97689990428E+03  0.00000000000E+00 0.  1.
         22    1    1    2    0    0  0.67076235343E+03 -0.10994423152E+04 -0.14139023713E+04  0.19125416217E+04  0.00000000000E+00 0.  1.
<mgrwt>
<rscale>  0 0.25894509E+04</rscale>
<asrwt>0</asrwt>
<pdfrwt beam="1">  1        2 0.46930106E+00 0.25894509E+04</pdfrwt>
<pdfrwt beam="2">  1       -2 0.84542895E-01 0.25894509E+04</pdfrwt>
<totfact> 0.17475163E+00</totfact>
</mgrwt>
</event>
<event>
 6    1  0.6091287E-004  0.3200228E+04  0.7818608E-02  0.8188757E-01
         -2   -1    0    0    0  501 -0.00000000000E+00  0.00000000000E+00  0.13862265018E+04  0.13862265018E+04  0.00000000000E+00 0. -1.
          2   -1    0    0  501    0  0.00000000000E+00 -0.00000000000E+00 -0.18470029757E+04  0.18470029757E+04  0.00000000000E+00 0.  1.
         23    2    1    2    0    0  0.40679161010E+03 -0.26312776643E+03  0.13087558214E+04  0.13985741476E+04  0.91935905174E+02 0.  0.
         13    1    3    3    0    0  0.24338709713E+03 -0.14450246881E+03  0.63540583637E+03  0.69559961144E+03  0.00000000000E+00 0. -1.
        -13    1    3    3    0    0  0.16340451297E+03 -0.11862529762E+03  0.67334998502E+03  0.70297453611E+03  0.00000000000E+00 0.  1.
         22    1    1    2    0    0 -0.40679161010E+03  0.26312776643E+03 -0.17695322953E+04  0.18346553300E+04  0.00000000000E+00 0.  1.
<mgrwt>
<rscale>  0 0.32002278E+04</rscale>
<asrwt>0</asrwt>
<pdfrwt beam="1">  1        2 0.28415430E+00 0.32002278E+04</pdfrwt>
<pdfrwt beam="2">  1       -2 0.21326562E+00 0.32002278E+04</pdfrwt>
<totfact> 0.74658180E-01</totfact>
</mgrwt>
</event>
<event>
 6    1  0.6091287E-004  0.3016841E+04  0.7818608E-02  0.8238938E-01
          2   -1    0    0  501    0  0.00000000000E+00  0.00000000000E+00  0.10070346155E+04  0.10070346155E+04  0.00000000000E+00 0. -1.
         -2   -1    0    0    0  501 -0.00000000000E+00 -0.00000000000E+00 -0.22594381460E+04  0.22594381460E+04  0.00000000000E+00 0.  1.
         23    2    1    2    0    0 -0.10402601567E+03 -0.59807638858E+03  0.86674561634E+03  0.10620885199E+04  0.90924595615E+02 0.  0.
         13    1    3    3    0    0 -0.10221182366E+03 -0.46064131447E+03  0.72175360917E+03  0.86230270198E+03  0.00000000000E+00 0. -1.
        -13    1    3    3    0    0 -0.18141920112E+01 -0.13743507411E+03  0.14499200718E+03  0.19978581790E+03  0.00000000000E+00 0.  1.
         22    1    1    2    0    0  0.10402601567E+03  0.59807638858E+03 -0.21191491468E+04  0.22043842416E+04  0.00000000000E+00 0.  1.
<mgrwt>
<rscale>  0 0.30168410E+04</rscale>
<asrwt>0</asrwt>
<pdfrwt beam="1">  1        2 0.15492841E+00 0.30168410E+04</pdfrwt>
<pdfrwt beam="2">  1       -2 0.34760586E+00 0.30168410E+04</pdfrwt>
<totfact> 0.34316022E-01</totfact>
</mgrwt>
</event>
<event>
 6    1  0.6091287E-004  0.2241850E+04  0.7818608E-02  0.8501209E-01
         -2   -1    0    0    0  501 -0.00000000000E+00  0.00000000000E+00  0.33292300409E+03  0.33292300409E+03  0.00000000000E+00 0. -1.
          2   -1    0    0  501    0  0.00000000000E+00 -0.00000000000E+00 -0.37740631839E+04  0.37740631839E+04  0.00000000000E+00 0.  1.
         23    2    1    2    0    0  0.29927079143E+02 -0.11186537588E+04 -0.16978428603E+04  0.20354246016E+04  0.89448690603E+02 0.  0.
         11    1    3    3    0    0  0.43892426935E+02 -0.59734162294E+03 -0.97050368394E+03  0.11404477016E+04  0.00000000000E+00 0.  1.
        -11    1    3    3    0    0 -0.13965347792E+02 -0.52131213585E+03 -0.72733917638E+03  0.89497689993E+03  0.00000000000E+00 0. -1.
         22    1    1    2    0    0 -0.29927079143E+02  0.11186537588E+04 -0.17432973195E+04  0.20715615864E+04  0.00000000000E+00 0. -1.
<mgrwt>
<rscale>  0 0.22418496E+04</rscale>
<asrwt>0</asrwt>
<pdfrwt beam="1">  1        2 0.58062509E+00 0.22418496E+04</pdfrwt>
<pdfrwt beam="2">  1       -2 0.51218925E-01 0.22418496E+04</pdfrwt>
<totfact> 0.16943261E+00</totfact>
</mgrwt>
</event>
<event>
 6    1  0.6091287E-004  0.3562048E+04  0.7818608E-02  0.8099241E-01
          2   -1    0    0  501    0  0.00000000000E+00  0.00000000000E+00  0.17609109161E+04  0.17609109161E+04  0.00000000000E+00 0.  1.
         -2   -1    0    0    0  501 -0.00000000000E+00 -0.00000000000E+00 -0.18013672518E+04  0.18013672518E+04  0.00000000000E+00 0. -1.
         23    2    1    2    0    0 -0.58204041253E+03 -0.68088580687E+03 -0.15583374560E+04  0.17997970703E+04  0.92072490390E+02 0.  0.
         13    1    3    3    0    0 -0.13692156009E+03 -0.20302237840E+03 -0.48715286025E+03  0.54523711264E+03  0.00000000000E+00 0. -1.
        -13    1    3    3    0    0 -0.44511885243E+03 -0.47786342848E+03 -0.10711845958E+04  0.12545599576E+04  0.00000000000E+00 0.  1.
         22    1    1    2    0    0  0.58204041253E+03  0.68088580687E+03  0.15178811203E+04  0.17624810976E+04  0.00000000000E+00 0.  1.
<mgrwt>
<rscale>  0 0.35620484E+04</rscale>
<asrwt>0</asrwt>
<pdfrwt beam="1">  1        2 0.27090937E+00 0.35620484E+04</pdfrwt>
<pdfrwt beam="2">  1       -2 0.27713342E+00 0.35620484E+04</pdfrwt>
<totfact> 0.32514894E-01</totfact>
</mgrwt>
</event>
<event>
 6    1  0.6091287E-004  0.3807328E+04  0.7818608E-02  0.8044584E-01
          2   -1    0    0  501    0  0.00000000000E+00  0.00000000000E+00  0.34161571307E+04  0.34161571307E+04  0.00000000000E+00 0.  1.
         -2   -1    0    0    0  501 -0.00000000000E+00 -0.00000000000E+00 -0.10608224805E+04  0.10608224805E+04  0.00000000000E+00 0. -1.
         23    2    1    2    0    0  0.64234432032E+03 -0.73368936190E+03  0.30992459067E+04  0.32504763445E+04  0.96772778936E+02 0.  0.
         11    1    3    3    0    0  0.35459083190E+03 -0.43174152602E+03  0.19202650000E+04  0.19998882653E+04  0.00000000000E+00 0. -1.
        -11    1    3    3    0    0  0.28775348842E+03 -0.30194783589E+03  0.11789809067E+04  0.12505880793E+04  0.00000000000E+00 0.  1.
         22    1    1    2    0    0 -0.64234432032E+03  0.73368936190E+03 -0.74391125645E+03  0.12265032666E+04  0.00000000000E+00 0. -1.
<mgrwt>
<rscale>  0 0.38073278E+04</rscale>
<asrwt>0</asrwt>
<pdfrwt beam="1">  1        2 0.52556263E+00 0.38073278E+04</pdfrwt>
<pdfrwt beam="2">  1       -2 0.16320346E+00 0.38073278E+04</pdfrwt>
<totfact> 0.17742327E-01</totfact>
</mgrwt>
</event>
<event>
 6    1  0.6091287E-004  0.3609853E+04  0.7818608E-02  0.8088238E-01
          2   -1    0    0  501    0  0.00000000000E+00  0.00000000000E+00  0.22747255499E+04  0.22747255499E+04  0.00000000000E+00 0.  1.
         -2   -1    0    0    0  501 -0.00000000000E+00 -0.00000000000E+00 -0.14321553018E+04  0.14321553018E+04  0.00000000000E+00 0. -1.
         23    2    1    2    0    0 -0.19063469840E+03  0.14898980071E+04  0.14471795239E+04  0.20877174763E+04  0.89989036164E+02 0.  0.
         13    1    3    3    0    0 -0.15227062535E+03  0.86755947863E+03  0.82366968480E+03  0.12059343025E+04  0.00000000000E+00 0.  1.
        -13    1    3    3    0    0 -0.38364073056E+02  0.62233852851E+03  0.62350983907E+03  0.88178317379E+03  0.00000000000E+00 0. -1.
         22    1    1    2    0    0  0.19063469840E+03 -0.14898980071E+04 -0.60460927574E+03  0.16191633754E+04  0.00000000000E+00 0. -1.
<mgrwt>
<rscale>  0 0.36098533E+04</rscale>
<asrwt>0</asrwt>
<pdfrwt beam="1">  1        2 0.34995778E+00 0.36098533E+04</pdfrwt>
<pdfrwt beam="2">  1       -2 0.22033159E+00 0.36098533E+04</pdfrwt>
<totfact> 0.37533863E-01</totfact>
</mgrwt>
</event>
<event>
 6    1  0.6091287E-004  0.4422922E+04  0.7818608E-02  0.7924271E-01
          2   -1    0    0  501    0  0.00000000000E+00  0.00000000000E+00  0.14222412372E+04  0.14222412372E+04  0.00000000000E+00 0.  1.
         -2   -1    0    0    0  501 -0.00000000000E+00 -0.00000000000E+00 -0.34386292904E+04  0.34386292904E+04  0.00000000000E+00 0. -1.
         23    2    1    2    0    0 -0.92716557323E+03  0.14912767160E+04 -0.24842965941E+04  0.30435976679E+04  0.90636375237E+02 0.  0.
         11    1    3    3    0    0 -0.45690471068E+03  0.64973805759E+03 -0.11160636564E+04  0.13698611401E+04  0.00000000000E+00 0. -1.
        -11    1    3    3    0    0 -0.47026086255E+03  0.84153865841E+03 -0.13682329378E+04  0.16737365278E+04  0.00000000000E+00 0.  1.
         22    1    1    2    0    0  0.92716557323E+03 -0.14912767160E+04  0.46790854088E+03  0.18172728597E+04  0.00000000000E+00 0.  1.
<mgrwt>
<rscale>  0 0.44229223E+04</rscale>
<asrwt>0</asrwt>
<pdfrwt beam="1">  1        2 0.21880635E+00 0.44229223E+04</pdfrwt>
<pdfrwt beam="2">  1       -2 0.52901989E+00 0.44229223E+04</pdfrwt>
<totfact> 0.11931752E-02</totfact>
</mgrwt>
</event>
<event>
 6    1  0.6091287E-004  0.1212555E+04  0.7818608E-02  0.9101937E-01
          2   -1    0    0  501    0  0.00000000000E+00  0.00000000000E+00  0.67511783193E+03  0.67511783193E+03  0.00000000000E+00 0.  1.
         -2   -1    0    0    0  501 -0.00000000000E+00 -0.00000000000E+00 -0.54445696462E+03  0.54445696462E+03  0.00000000000E+00 0. -1.
         23    2    1    2    0    0 -0.32110687052E+03 -0.47011233160E+03 -0.13261413679E+03  0.59233564407E+03  0.95706736153E+02 0.  0.
         11    1    3    3    0    0 -0.16523399741E+03 -0.30464465753E+03 -0.48488412629E+02  0.34994537777E+03  0.00000000000E+00 0.  1.
        -11    1    3    3    0    0 -0.15587287311E+03 -0.16546767407E+03 -0.84125724165E+02  0.24239026630E+03  0.00000000000E+00 0. -1.
         22    1    1    2    0    0  0.32110687052E+03  0.47011233160E+03  0.26327500411E+03  0.62723915248E+03  0.00000000000E+00 0.  1.
<mgrwt>
<rscale>  0 0.12125553E+04</rscale>
<asrwt>0</asrwt>
<pdfrwt beam="1">  1        2 0.10386428E+00 0.12125553E+04</pdfrwt>
<pdfrwt beam="2">  1       -2 0.83762610E-01 0.12125553E+04</pdfrwt>
<totfact> 0.52702636E+01</totfact>
</mgrwt>
</event>
<event>
 6    1  0.6091287E-004  0.4387722E+04  0.7818608E-02  0.7930594E-01
          2   -1    0    0  501    0  0.00000000000E+00  0.00000000000E+00  0.41713338550E+04  0.41713338550E+04  0.00000000000E+00 0.  1.
         -2   -1    0    0    0  501 -0.00000000000E+00 -0.00000000000E+00 -0.11538336318E+04  0.11538336318E+04  0.00000000000E+00 0. -1.
         23    2    1    2    0    0 -0.60993964249E+03 -0.40587855060E+03 -0.99901528974E+03  0.12423791465E+04  0.93330751959E+02 0.  0.
         13    1    3    3    0    0 -0.17501297043E+03 -0.81859141773E+02 -0.21507763958E+03  0.28911736364E+03  0.00000000000E+00 0.  1.
        -13    1    3    3    0    0 -0.43492667205E+03 -0.32401940883E+03 -0.78393765016E+03  0.95326178288E+03  0.00000000000E+00 0. -1.
         22    1    1    2    0    0  0.60993964249E+03  0.40587855060E+03  0.40165155130E+04  0.40827883403E+04  0.00000000000E+00 0.  1.
<mgrwt>
<rscale>  0 0.43877216E+04</rscale>
<asrwt>0</asrwt>
<pdfrwt beam="1">  1        2 0.64174366E+00 0.43877216E+04</pdfrwt>
<pdfrwt beam="2">  1       -2 0.17751287E+00 0.43877216E+04</pdfrwt>
<totfact> 0.35328241E-02</totfact>
</mgrwt>
</event>
<event>
 6    1  0.6091287E-004  0.1373033E+04  0.7818608E-02  0.8973573E-01
         -2   -1    0    0    0  501 -0.00000000000E+00  0.00000000000E+00  0.21478386298E+03  0.21478386298E+03  0.00000000000E+00 0. -1.
          2   -1    0    0  501    0  0.00000000000E+00 -0.00000000000E+00 -0.21943213132E+04  0.21943213132E+04  0.00000000000E+00 0.  1.
         23    2    1    2    0    0  0.62590675236E+03 -0.74454438716E+02 -0.14579360990E+04  0.15909543981E+04  0.90859792461E+02 0.  0.
         11    1    3    3    0    0  0.27145515568E+03 -0.67249337402E+02 -0.71560117915E+03  0.76830685440E+03  0.00000000000E+00 0. -1.
        -11    1    3    3    0    0  0.35445159668E+03 -0.72051013135E+01 -0.74233491989E+03  0.82264754370E+03  0.00000000000E+00 0.  1.
         22    1    1    2    0    0 -0.62590675236E+03  0.74454438716E+02 -0.52160135115E+03  0.81815077805E+03  0.00000000000E+00 0. -1.
<mgrwt>
<rscale>  0 0.13730329E+04</rscale>
<asrwt>0</asrwt>
<pdfrwt beam="1">  1        2 0.33758791E+00 0.13730329E+04</pdfrwt>
<pdfrwt beam="2">  1       -2 0.33043670E-01 0.13730329E+04</pdfrwt>
<totfact> 0.43438101E+01</totfact>
</mgrwt>
</event>
<event>
 6    1  0.6091287E-004  0.3540041E+04  0.7818608E-02  0.8104366E-01
          2   -1    0    0  501    0  0.00000000000E+00  0.00000000000E+00  0.21072414060E+04  0.21072414060E+04  0.00000000000E+00 0.  1.
         -2   -1    0    0    0  501 -0.00000000000E+00 -0.00000000000E+00 -0.14867646927E+04  0.14867646927E+04  0.00000000000E+00 0. -1.
         23    2    1    2    0    0 -0.11330000206E+04  0.28552015976E+03  0.16587626557E+04  0.20309166878E+04  0.88984473727E+02 0.  0.
         13    1    3    3    0    0 -0.97658990965E+03  0.21397440948E+03  0.14220384169E+04  0.17383055424E+04  0.00000000000E+00 0.  1.
        -13    1    3    3    0    0 -0.15641011092E+03  0.71545750279E+02  0.23672423873E+03  0.29261114535E+03  0.00000000000E+00 0. -1.
         22    1    1    2    0    0  0.11330000206E+04 -0.28552015976E+03 -0.10382859424E+04  0.15630894109E+04  0.00000000000E+00 0. -1.
<mgrwt>
<rscale>  0 0.35400407E+04</rscale>
<asrwt>0</asrwt>
<pdfrwt beam="1">  1        2 0.32419099E+00 0.35400407E+04</pdfrwt>
<pdfrwt beam="2">  1       -2 0.22873303E+00 0.35400407E+04</pdfrwt>
<totfact> 0.41519276E-01</totfact>
</mgrwt>
</event>
<event>
 6    1  0.6091287E-004  0.2900716E+04  0.7818608E-02  0.8272665E-01
         -2   -1    0    0    0  501 -0.00000000000E+00  0.00000000000E+00  0.13237607345E+04  0.13237607345E+04  0.00000000000E+00 0. -1.
          2   -1    0    0  501    0  0.00000000000E+00 -0.00000000000E+00 -0.15890620640E+04  0.15890620640E+04  0.00000000000E+00 0.  1.
         23    2    1    2    0    0  0.18121410472E+03 -0.13127856979E+04 -0.72112429703E+03  0.15113880273E+04  0.89602885631E+02 0.  0.
         13    1    3    3    0    0  0.15794101150E+03 -0.11527916637E+04 -0.59846655080E+03  0.13084480102E+04  0.00000000000E+00 0.  1.
        -13    1    3    3    0    0  0.23273093220E+02 -0.15999403418E+03 -0.12265774622E+03  0.20294001712E+03  0.00000000000E+00 0. -1.
         22    1    1    2    0    0 -0.18121410472E+03  0.13127856979E+04  0.45582296756E+03  0.14014347712E+04  0.00000000000E+00 0. -1.
<mgrwt>
<rscale>  0 0.29007157E+04</rscale>
<asrwt>0</asrwt>
<pdfrwt beam="1">  1        2 0.24447109E+00 0.29007157E+04</pdfrwt>
<pdfrwt beam="2">  1       -2 0.20365550E+00 0.29007157E+04</pdfrwt>
<totfact> 0.12287578E+00</totfact>
</mgrwt>
</event>
<event>
 6    1  0.6091287E-004  0.2941011E+04  0.7818608E-02  0.8260779E-01
          2   -1    0    0  501    0  0.00000000000E+00  0.00000000000E+00  0.29291791184E+04  0.29291791184E+04  0.00000000000E+00 0.  1.
         -2   -1    0    0    0  501 -0.00000000000E+00 -0.00000000000E+00 -0.73822252570E+03  0.73822252570E+03  0.00000000000E+00 0. -1.
         23    2    1    2    0    0  0.11313111963E+04 -0.58271415152E+03  0.18076722660E+03  0.12882669079E+04  0.86798793699E+02 0.  0.
         11    1    3    3    0    0  0.83223618308E+03 -0.38526104900E+03  0.12430743259E+03  0.92547040909E+03  0.00000000000E+00 0. -1.
        -11    1    3    3    0    0  0.29907501323E+03 -0.19745310253E+03  0.56459794019E+02  0.36279649885E+03  0.00000000000E+00 0.  1.
         22    1    1    2    0    0 -0.11313111963E+04  0.58271415152E+03  0.20101893661E+04  0.23791347362E+04  0.00000000000E+00 0.  1.
<mgrwt>
<rscale>  0 0.29410107E+04</rscale>
<asrwt>0</asrwt>
<pdfrwt beam="1">  1        2 0.45064293E+00 0.29410107E+04</pdfrwt>
<pdfrwt beam="2">  1       -2 0.11357270E+00 0.29410107E+04</pdfrwt>
<totfact> 0.10073138E+00</totfact>
</mgrwt>
</event>
<event>
 6    1  0.6091287E-004  0.2759103E+04  0.7818608E-02  0.8316079E-01
         -2   -1    0    0    0  501 -0.00000000000E+00  0.00000000000E+00  0.96938521664E+03  0.96938521664E+03  0.00000000000E+00 0. -1.
          2   -1    0    0  501    0  0.00000000000E+00 -0.00000000000E+00 -0.19632666942E+04  0.19632666942E+04  0.00000000000E+00 0.  1.
         23    2    1    2    0    0  0.12879215958E+04  0.40787693794E+03 -0.20834906179E+03  0.13699085507E+04  0.90191309562E+02 0.  0.
         13    1    3    3    0    0  0.83087312897E+03  0.30595738829E+03 -0.12295444906E+03  0.89391155963E+03  0.00000000000E+00 0.  1.
        -13    1    3    3    0    0  0.45704846682E+03  0.10191954965E+03 -0.85394612731E+02  0.47599699107E+03  0.00000000000E+00 0. -1.
         22    1    1    2    0    0 -0.12879215958E+04 -0.40787693794E+03 -0.78553241577E+03  0.15627433601E+04  0.00000000000E+00 0. -1.
<mgrwt>
<rscale>  0 0.27591025E+04</rscale>
<asrwt>0</asrwt>
<pdfrwt beam="1">  1        2 0.30204103E+00 0.27591025E+04</pdfrwt>
<pdfrwt beam="2">  1       -2 0.14913619E+00 0.27591025E+04</pdfrwt>
<totfact> 0.18603483E+00</totfact>
</mgrwt>
</event>
<event>
 6    1  0.6091287E-004  0.1563599E+04  0.7818608E-02  0.8843228E-01
         -2   -1    0    0    0  501 -0.00000000000E+00  0.00000000000E+00  0.78615801465E+03  0.78615801465E+03  0.00000000000E+00 0. -1.
          2   -1    0    0  501    0  0.00000000000E+00 -0.00000000000E+00 -0.77746500200E+03  0.77746500200E+03  0.00000000000E+00 0.  1.
         23    2    1    2    0    0  0.50598723373E+03 -0.56694700416E+03 -0.17139307338E+03  0.78267296408E+03  0.75824777497E+02 0.  0.
         13    1    3    3    0    0  0.16238118667E+03 -0.23694204490E+03 -0.67221487979E+02  0.29500493364E+03  0.00000000000E+00 0.  1.
        -13    1    3    3    0    0  0.34360604706E+03 -0.33000495925E+03 -0.10417158540E+03  0.48766803044E+03  0.00000000000E+00 0. -1.
         22    1    1    2    0    0 -0.50598723373E+03  0.56694700416E+03  0.18008608603E+03  0.78095005257E+03  0.00000000000E+00 0.  1.
<mgrwt>
<rscale>  0 0.15635989E+04</rscale>
<asrwt>0</asrwt>
<pdfrwt beam="1">  1        2 0.11961000E+00 0.15635989E+04</pdfrwt>
<pdfrwt beam="2">  1       -2 0.12094739E+00 0.15635989E+04</pdfrwt>
<totfact> 0.17911501E+01</totfact>
</mgrwt>
</event>
<event>
 6    1  0.6091287E-004  0.8689728E+03  0.7818608E-02  0.9465220E-01
          2   -1    0    0  501    0  0.00000000000E+00  0.00000000000E+00  0.75387115033E+03  0.75387115033E+03  0.00000000000E+00 0. -1.
         -2   -1    0    0    0  501 -0.00000000000E+00 -0.00000000000E+00 -0.25041208855E+03  0.25041208855E+03  0.00000000000E+00 0.  1.
         23    2    1    2    0    0  0.97032595732E+01 -0.40894664460E+03  0.40609295157E+03  0.58379344021E+03  0.92583930274E+02 0.  0.
         13    1    3    3    0    0 -0.34282962584E+02 -0.85571014192E+02  0.74309047535E+02  0.11840419984E+03  0.00000000000E+00 0.  1.
        -13    1    3    3    0    0  0.43986222158E+02 -0.32337563041E+03  0.33178390403E+03  0.46538924037E+03  0.00000000000E+00 0. -1.
         22    1    1    2    0    0 -0.97032595732E+01  0.40894664460E+03  0.97366110213E+02  0.42048979868E+03  0.00000000000E+00 0.  1.
<mgrwt>
<rscale>  0 0.86897284E+03</rscale>
<asrwt>0</asrwt>
<pdfrwt beam="1">  1        2 0.11598018E+00 0.86897284E+03</pdfrwt>
<pdfrwt beam="2">  1       -2 0.38524937E-01 0.86897284E+03</pdfrwt>
<totfact> 0.23788075E+02</totfact>
</mgrwt>
</event>
<event>
 6    1  0.6091287E-004  0.2449409E+04  0.7818608E-02  0.8421234E-01
         -2   -1    0    0    0  501 -0.00000000000E+00  0.00000000000E+00  0.11189708253E+04  0.11189708253E+04  0.00000000000E+00 0.  1.
          2   -1    0    0  501    0  0.00000000000E+00 -0.00000000000E+00 -0.13404292931E+04  0.13404292931E+04  0.00000000000E+00 0. -1.
         23    2    1    2    0    0 -0.86233025093E+02  0.12199348433E+04 -0.92600500755E+02  0.12296515538E+04  0.88266270762E+02 0.  0.
         11    1    3    3    0    0 -0.38993856133E+02  0.55500746816E+03 -0.86227779361E+02  0.56301779764E+03  0.00000000000E+00 0. -1.
        -11    1    3    3    0    0 -0.47239168960E+02  0.66492737512E+03 -0.63727213942E+01  0.66663375616E+03  0.00000000000E+00 0.  1.
         22    1    1    2    0    0  0.86233025093E+02 -0.12199348433E+04 -0.12885796700E+03  0.12297485646E+04  0.00000000000E+00 0. -1.
<mgrwt>
<rscale>  0 0.24494091E+04</rscale>
<asrwt>0</asrwt>
<pdfrwt beam="1">  1        2 0.20621989E+00 0.24494091E+04</pdfrwt>
<pdfrwt beam="2">  1       -2 0.17214936E+00 0.24494091E+04</pdfrwt>
<totfact> 0.28864258E+00</totfact>
</mgrwt>
</event>
<event>
 6    1  0.6091287E-004  0.3220971E+04  0.7818608E-02  0.8183301E-01
         -2   -1    0    0    0  501 -0.00000000000E+00  0.00000000000E+00  0.12927370383E+04  0.12927370383E+04  0.00000000000E+00 0. -1.
          2   -1    0    0  501    0  0.00000000000E+00 -0.00000000000E+00 -0.20063345343E+04  0.20063345343E+04  0.00000000000E+00 0.  1.
         23    2    1    2    0    0  0.32384441890E+03 -0.15387105037E+04 -0.70753455368E+03  0.17266397041E+04  0.90411842183E+02 0.  0.
         13    1    3    3    0    0  0.13287356275E+03 -0.79481894870E+03 -0.39530613738E+03  0.89758536483E+03  0.00000000000E+00 0. -1.
        -13    1    3    3    0    0  0.19097085615E+03 -0.74389155500E+03 -0.31222841629E+03  0.82905433925E+03  0.00000000000E+00 0.  1.
         22    1    1    2    0    0 -0.32384441890E+03  0.15387105037E+04 -0.60629423040E+01  0.15724318685E+04  0.00000000000E+00 0.  1.
<mgrwt>
<rscale>  0 0.32209706E+04</rscale>
<asrwt>0</asrwt>
<pdfrwt beam="1">  1        2 0.30866685E+00 0.32209706E+04</pdfrwt>
<pdfrwt beam="2">  1       -2 0.19888262E+00 0.32209706E+04</pdfrwt>
<totfact> 0.75363305E-01</totfact>
</mgrwt>
</event>
<event>
 6    1  0.6091287E-004  0.2239392E+04  0.7818608E-02  0.8502209E-01
          2   -1    0    0  501    0  0.00000000000E+00  0.00000000000E+00  0.12900917032E+04  0.12900917032E+04  0.00000000000E+00 0.  1.
         -2   -1    0    0    0  501 -0.00000000000E+00 -0.00000000000E+00 -0.97180631346E+03  0.97180631346E+03  0.00000000000E+00 0. -1.
         23    2    1    2    0    0 -0.33706086482E+03  0.49225468468E+03 -0.79494597134E+03  0.99888227470E+03  0.99508794452E+02 0.  0.
         13    1    3    3    0    0 -0.14536249047E+03  0.13269934096E+03 -0.27908281015E+03  0.34150634496E+03  0.00000000000E+00 0. -1.
        -13    1    3    3    0    0 -0.19169837435E+03  0.35955534372E+03 -0.51586316119E+03  0.65737592974E+03  0.00000000000E+00 0.  1.
         22    1    1    2    0    0  0.33706086482E+03 -0.49225468468E+03  0.11132313611E+04  0.12630157420E+04  0.00000000000E+00 0.  1.
<mgrwt>
<rscale>  0 0.22393921E+04</rscale>
<asrwt>0</asrwt>
<pdfrwt beam="1">  1        2 0.19847565E+00 0.22393921E+04</pdfrwt>
<pdfrwt beam="2">  1       -2 0.14950866E+00 0.22393921E+04</pdfrwt>
<totfact> 0.46139559E+00</totfact>
</mgrwt>
</event>
<event>
 6    1  0.6091287E-004  0.3382926E+04  0.7818608E-02  0.8142110E-01
          2   -1    0    0  501    0  0.00000000000E+00  0.00000000000E+00  0.11623911301E+04  0.11623911301E+04  0.00000000000E+00 0.  1.
         -2   -1    0    0    0  501 -0.00000000000E+00 -0.00000000000E+00 -0.24613465497E+04  0.24613465497E+04  0.00000000000E+00 0. -1.
         23    2    1    2    0    0  0.91008924915E+03 -0.11197594401E+04  0.29290998853E+03  0.14752128085E+04  0.91284851015E+02 0.  0.
         13    1    3    3    0    0  0.29190269009E+03 -0.29442879495E+03  0.90163802100E+02  0.42429353870E+03  0.00000000000E+00 0. -1.
        -13    1    3    3    0    0  0.61818655906E+03 -0.82533064513E+03  0.20274618643E+03  0.10509192698E+04  0.00000000000E+00 0.  1.
         22    1    1    2    0    0 -0.91008924915E+03  0.11197594401E+04 -0.15918654081E+04  0.21485248713E+04  0.00000000000E+00 0. -1.
<mgrwt>
<rscale>  0 0.33829262E+04</rscale>
<asrwt>0</asrwt>
<pdfrwt beam="1">  1        2 0.17882941E+00 0.33829262E+04</pdfrwt>
<pdfrwt beam="2">  1       -2 0.37866869E+00 0.33829262E+04</pdfrwt>
<totfact> 0.16893363E-01</totfact>
</mgrwt>
</event>
<event>
 6    1  0.6091287E-004  0.2343428E+04  0.7818608E-02  0.8460992E-01
          2   -1    0    0  501    0  0.00000000000E+00  0.00000000000E+00  0.28397181251E+04  0.28397181251E+04  0.00000000000E+00 0.  1.
         -2   -1    0    0    0  501 -0.00000000000E+00 -0.00000000000E+00 -0.48346842422E+03  0.48346842422E+03  0.00000000000E+00 0. -1.
         23    2    1    2    0    0  0.26059296702E+03 -0.60673637831E+03 -0.18956964475E+03  0.69312307711E+03  0.91897892194E+02 0.  0.
         13    1    3    3    0    0  0.88474377860E+02 -0.31375607807E+03 -0.11088660505E+03  0.34433476624E+03  0.00000000000E+00 0.  1.
        -13    1    3    3    0    0  0.17211858916E+03 -0.29298030024E+03 -0.78683039702E+02  0.34878831087E+03  0.00000000000E+00 0. -1.
         22    1    1    2    0    0 -0.26059296702E+03  0.60673637831E+03  0.25458193456E+04  0.26300634722E+04  0.00000000000E+00 0.  1.
<mgrwt>
<rscale>  0 0.23434283E+04</rscale>
<asrwt>0</asrwt>
<pdfrwt beam="1">  1        2 0.43687970E+00 0.23434283E+04</pdfrwt>
<pdfrwt beam="2">  1       -2 0.74379760E-01 0.23434283E+04</pdfrwt>
<totfact> 0.32151932E+00</totfact>
</mgrwt>
</event>
<event>
 6    1  0.6091287E-004  0.1667517E+04  0.7818608E-02  0.8780111E-01
         -2   -1    0    0    0  501 -0.00000000000E+00  0.00000000000E+00  0.11691250937E+04  0.11691250937E+04  0.00000000000E+00 0. -1.
          2   -1    0    0  501    0  0.00000000000E+00 -0.00000000000E+00 -0.59459266726E+03  0.59459266726E+03  0.00000000000E+00 0.  1.
         23    2    1    2    0    0 -0.14963233803E+03 -0.15066854870E+03  0.11381478863E+04  0.11614277687E+04  0.91885813820E+02 0.  0.
         11    1    3    3    0    0 -0.15314140239E+03 -0.12814007334E+03  0.88460176194E+03  0.90685855829E+03  0.00000000000E+00 0. -1.
        -11    1    3    3    0    0  0.35090643594E+01 -0.22528475361E+02  0.25354612433E+03  0.25456921043E+03  0.00000000000E+00 0.  1.
         22    1    1    2    0    0  0.14963233803E+03  0.15066854870E+03 -0.56361545985E+03  0.60228999222E+03  0.00000000000E+00 0.  1.
<mgrwt>
<rscale>  0 0.16675170E+04</rscale>
<asrwt>0</asrwt>
<pdfrwt beam="1">  1        2 0.91475795E-01 0.16675170E+04</pdfrwt>
<pdfrwt beam="2">  1       -2 0.17986540E+00 0.16675170E+04</pdfrwt>
<totfact> 0.86842599E+00</totfact>
</mgrwt>
</event>
<event>
 6    1  0.6091287E-004  0.1754133E+04  0.7818608E-02  0.8731078E-01
          2   -1    0    0  501    0  0.00000000000E+00  0.00000000000E+00  0.17533218478E+04  0.17533218478E+04  0.00000000000E+00 0.  1.
         -2   -1    0    0    0  501 -0.00000000000E+00 -0.00000000000E+00 -0.43873633511E+03  0.43873633511E+03  0.00000000000E+00 0. -1.
         23    2    1    2    0    0 -0.24217733367E+02  0.86860436037E+03  0.53290013350E+03  0.10232587709E+04  0.89531706588E+02 0.  0.
         13    1    3    3    0    0  0.32896911699E+02  0.38485652833E+03  0.24584985888E+03  0.45786341556E+03  0.00000000000E+00 0. -1.
        -13    1    3    3    0    0 -0.57114645066E+02  0.48374783204E+03  0.28705027462E+03  0.56539535534E+03  0.00000000000E+00 0.  1.
         22    1    1    2    0    0  0.24217733367E+02 -0.86860436037E+03  0.78168537916E+03  0.11687994120E+04  0.00000000000E+00 0. -1.
<mgrwt>
<rscale>  0 0.17541334E+04</rscale>
<asrwt>0</asrwt>
<pdfrwt beam="1">  1        2 0.26974182E+00 0.17541334E+04</pdfrwt>
<pdfrwt beam="2">  1       -2 0.67497899E-01 0.17541334E+04</pdfrwt>
<totfact> 0.17462491E+01</totfact>
</mgrwt>
</event>
<event>
 6    1  0.6091287E-004  0.5069887E+04  0.7818608E-02  0.7817816E-01
          2   -1    0    0  501    0  0.00000000000E+00  0.00000000000E+00  0.20830678835E+04  0.20830678835E+04  0.00000000000E+00 0.  1.
         -2   -1    0    0    0  501 -0.00000000000E+00 -0.00000000000E+00 -0.30848429906E+04  0.30848429906E+04  0.00000000000E+00 0. -1.
         23    2    1    2    0    0  0.20734758317E+04  0.13795037419E+04 -0.23625131301E+02  0.24922595565E+04  0.92016039993E+02 0.  0.
         13    1    3    3    0    0  0.11144374582E+04  0.72292997997E+03 -0.55841209631E+02  0.13295551305E+04  0.00000000000E+00 0. -1.
        -13    1    3    3    0    0  0.95903837346E+03  0.65657376193E+03  0.32216078331E+02  0.11627044260E+04  0.00000000000E+00 0.  1.
         22    1    1    2    0    0 -0.20734758317E+04 -0.13795037419E+04 -0.97814997575E+03  0.26756513176E+04  0.00000000000E+00 0. -1.
<mgrwt>
<rscale>  0 0.50698865E+04</rscale>
<asrwt>0</asrwt>
<pdfrwt beam="1">  1        2 0.32047198E+00 0.50698865E+04</pdfrwt>
<pdfrwt beam="2">  1       -2 0.47459123E+00 0.50698865E+04</pdfrwt>
<totfact> 0.10456712E-02</totfact>
</mgrwt>
</event>
<event>
 6    1  0.6091287E-004  0.7873793E+03  0.7818608E-02  0.9578467E-01
          2   -1    0    0  501    0  0.00000000000E+00  0.00000000000E+00  0.54551072052E+03  0.54551072052E+03  0.00000000000E+00 0.  1.
         -2   -1    0    0    0  501 -0.00000000000E+00 -0.00000000000E+00 -0.28412191954E+03  0.28412191954E+03  0.00000000000E+00 0. -1.
         23    2    1    2    0    0 -0.11566638735E+03 -0.95764872857E+02  0.50981053611E+03  0.53935177172E+03  0.91890842248E+02 0.  0.
         11    1    3    3    0    0 -0.11662696983E+03 -0.10488094412E+03  0.40770299718E+03  0.43683360269E+03  0.00000000000E+00 0. -1.
        -11    1    3    3    0    0  0.96058247417E+00  0.91160712649E+01  0.10210753893E+03  0.10251816903E+03  0.00000000000E+00 0.  1.
         22    1    1    2    0    0  0.11566638735E+03  0.95764872857E+02 -0.24842173513E+03  0.29028086834E+03  0.00000000000E+00 0. -1.
<mgrwt>
<rscale>  0 0.78737933E+03</rscale>
<asrwt>0</asrwt>
<pdfrwt beam="1">  1        2 0.83924726E-01 0.78737933E+03</pdfrwt>
<pdfrwt beam="2">  1       -2 0.43711065E-01 0.78737933E+03</pdfrwt>
<totfact> 0.27776822E+02</totfact>
</mgrwt>
</event>
<event>
 6    1  0.6091287E-004  0.3082711E+04  0.7818608E-02  0.8220499E-01
         -2   -1    0    0    0  501 -0.00000000000E+00  0.00000000000E+00  0.17067626264E+04  0.17067626264E+04  0.00000000000E+00 0. -1.
          2   -1    0    0  501    0  0.00000000000E+00 -0.00000000000E+00 -0.13919786916E+04  0.13919786916E+04  0.00000000000E+00 0.  1.
         23    2    1    2    0    0  0.62087273352E+03  0.69017336625E+03  0.13926626443E+04  0.16761926407E+04  0.91051091303E+02 0.  0.
         11    1    3    3    0    0  0.35296739764E+02  0.75810907134E+02  0.11065836132E+03  0.13870265465E+03  0.00000000000E+00 0. -1.
        -11    1    3    3    0    0  0.58557599375E+03  0.61436245912E+03  0.12820042830E+04  0.15374899861E+04  0.00000000000E+00 0.  1.
         22    1    1    2    0    0 -0.62087273352E+03 -0.69017336625E+03 -0.10778787096E+04  0.14225486773E+04  0.00000000000E+00 0.  1.
<mgrwt>
<rscale>  0 0.30827113E+04</rscale>
<asrwt>0</asrwt>
<pdfrwt beam="1">  1        2 0.21415057E+00 0.30827113E+04</pdfrwt>
<pdfrwt beam="2">  1       -2 0.26257887E+00 0.30827113E+04</pdfrwt>
<totfact> 0.66899209E-01</totfact>
</mgrwt>
</event>
<event>
 6    1  0.6091287E-004  0.2587220E+04  0.7818608E-02  0.8372555E-01
          2   -1    0    0  501    0  0.00000000000E+00  0.00000000000E+00  0.85961241033E+03  0.85961241033E+03  0.00000000000E+00 0.  1.
         -2   -1    0    0    0  501 -0.00000000000E+00 -0.00000000000E+00 -0.19467232609E+04  0.19467232609E+04  0.00000000000E+00 0. -1.
         23    2    1    2    0    0  0.85718483441E+03 -0.95461436136E+03 -0.70970423258E+03  0.14689912225E+04  0.90557688140E+02 0.  0.
         13    1    3    3    0    0  0.54243515678E+03 -0.62184928127E+03 -0.40824090131E+03  0.92064817462E+03  0.00000000000E+00 0.  1.
        -13    1    3    3    0    0  0.31474967763E+03 -0.33276508009E+03 -0.30146333127E+03  0.54834304791E+03  0.00000000000E+00 0. -1.
         22    1    1    2    0    0 -0.85718483441E+03  0.95461436136E+03 -0.37740661802E+03  0.13373444487E+04  0.00000000000E+00 0. -1.
<mgrwt>
<rscale>  0 0.25872205E+04</rscale>
<asrwt>0</asrwt>
<pdfrwt beam="1">  1        2 0.13224806E+00 0.25872205E+04</pdfrwt>
<pdfrwt beam="2">  1       -2 0.29949588E+00 0.25872205E+04</pdfrwt>
<totfact> 0.88595528E-01</totfact>
</mgrwt>
</event>
<event>
 6    1  0.6091287E-004  0.1088063E+04  0.7818608E-02  0.9216906E-01
         -2   -1    0    0    0  501 -0.00000000000E+00  0.00000000000E+00  0.11090704623E+03  0.11090704623E+03  0.00000000000E+00 0.  1.
          2   -1    0    0  501    0  0.00000000000E+00 -0.00000000000E+00 -0.26686315029E+04  0.26686315029E+04  0.00000000000E+00 0. -1.
         23    2    1    2    0    0 -0.30453460810E+03 -0.36515987553E+03 -0.19427814598E+04  0.20022111074E+04  0.91468332979E+02 0.  0.
         11    1    3    3    0    0 -0.83612269468E+02 -0.70616003513E+02 -0.32043136857E+03  0.33860580846E+03  0.00000000000E+00 0.  1.
        -11    1    3    3    0    0 -0.22092233864E+03 -0.29454387202E+03 -0.16223500912E+04  0.16636052989E+04  0.00000000000E+00 0. -1.
         22    1    1    2    0    0  0.30453460810E+03  0.36515987553E+03 -0.61494299694E+03  0.77732744176E+03  0.00000000000E+00 0. -1.
<mgrwt>
<rscale>  0 0.10880626E+04</rscale>
<asrwt>0</asrwt>
<pdfrwt beam="1">  1        2 0.41055872E+00 0.10880626E+04</pdfrwt>
<pdfrwt beam="2">  1       -2 0.17062622E-01 0.10880626E+04</pdfrwt>
<totfact> 0.78567789E+01</totfact>
</mgrwt>
</event>
<event>
 6    1  0.6091287E-004  0.1386883E+04  0.7818608E-02  0.8963368E-01
         -2   -1    0    0    0  501 -0.00000000000E+00  0.00000000000E+00  0.23495710287E+03  0.23495710287E+03  0.00000000000E+00 0. -1.
          2   -1    0    0  501    0  0.00000000000E+00 -0.00000000000E+00 -0.20465921028E+04  0.20465921028E+04  0.00000000000E+00 0.  1.
         23    2    1    2    0    0 -0.32205094408E+03 -0.45028830040E+03 -0.23104044195E+03  0.60680877182E+03  0.91437605434E+02 0.  0.
         11    1    3    3    0    0 -0.77709337447E+02 -0.17930860224E+03 -0.65182298223E+02  0.20600739784E+03  0.00000000000E+00 0. -1.
        -11    1    3    3    0    0 -0.24434160663E+03 -0.27097969816E+03 -0.16585814373E+03  0.40080137398E+03  0.00000000000E+00 0.  1.
         22    1    1    2    0    0  0.32205094408E+03  0.45028830040E+03 -0.15805945580E+04  0.16747404338E+04  0.00000000000E+00 0.  1.
<mgrwt>
<rscale>  0 0.13868833E+04</rscale>
<asrwt>0</asrwt>
<pdfrwt beam="1">  1        2 0.31486033E+00 0.13868833E+04</pdfrwt>
<pdfrwt beam="2">  1       -2 0.36147246E-01 0.13868833E+04</pdfrwt>
<totfact> 0.44186166E+01</totfact>
</mgrwt>
</event>
<event>
 6    1  0.6091287E-004  0.2554931E+04  0.7818608E-02  0.8383673E-01
         -2   -1    0    0    0  501 -0.00000000000E+00  0.00000000000E+00  0.11085739544E+04  0.11085739544E+04  0.00000000000E+00 0. -1.
          2   -1    0    0  501    0  0.00000000000E+00 -0.00000000000E+00 -0.14720873083E+04  0.14720873083E+04  0.00000000000E+00 0.  1.
         23    2    1    2    0    0  0.90050795330E+03 -0.55014384956E+03 -0.90624487275E+03  0.13940145880E+04  0.91782748848E+02 0.  0.
         13    1    3    3    0    0  0.50156350488E+03 -0.30945294853E+03 -0.44583267336E+03  0.73898162995E+03  0.00000000000E+00 0.  1.
        -13    1    3    3    0    0  0.39894444842E+03 -0.24069090104E+03 -0.46041219939E+03  0.65503295804E+03  0.00000000000E+00 0. -1.
         22    1    1    2    0    0 -0.90050795330E+03  0.55014384956E+03  0.54273151878E+03  0.11866466747E+04  0.00000000000E+00 0. -1.
<mgrwt>
<rscale>  0 0.25549306E+04</rscale>
<asrwt>0</asrwt>
<pdfrwt beam="1">  1        2 0.22647497E+00 0.25549306E+04</pdfrwt>
<pdfrwt beam="2">  1       -2 0.17054984E+00 0.25549306E+04</pdfrwt>
<totfact> 0.24691177E+00</totfact>
</mgrwt>
</event>
<event>
 6    1  0.6091287E-004  0.7991580E+03  0.7818608E-02  0.9561237E-01
         -2   -1    0    0    0  501 -0.00000000000E+00  0.00000000000E+00  0.30883688794E+03  0.30883688794E+03  0.00000000000E+00 0. -1.
          2   -1    0    0  501    0  0.00000000000E+00 -0.00000000000E+00 -0.51698283004E+03  0.51698283004E+03  0.00000000000E+00 0.  1.
         23    2    1    2    0    0 -0.22014156661E+03 -0.32213908764E+03 -0.46950774734E+02  0.40365886816E+03  0.92196558815E+02 0.  0.
         13    1    3    3    0    0 -0.14160130569E+03 -0.17666903330E+03 -0.69430012188E+02  0.23681934822E+03  0.00000000000E+00 0. -1.
        -13    1    3    3    0    0 -0.78540260925E+02 -0.14547005434E+03  0.22479237454E+02  0.16683951993E+03  0.00000000000E+00 0.  1.
         22    1    1    2    0    0  0.22014156661E+03  0.32213908764E+03 -0.16119516736E+03  0.42216084982E+03  0.00000000000E+00 0.  1.
<mgrwt>
<rscale>  0 0.79915798E+03</rscale>
<asrwt>0</asrwt>
<pdfrwt beam="1">  1        2 0.79535818E-01 0.79915798E+03</pdfrwt>
<pdfrwt beam="2">  1       -2 0.47513368E-01 0.79915798E+03</pdfrwt>
<totfact> 0.25031456E+02</totfact>
</mgrwt>
</event>
<event>
 6    1  0.6091287E-004  0.1799155E+04  0.7818608E-02  0.8706749E-01
          2   -1    0    0  501    0  0.00000000000E+00  0.00000000000E+00  0.30142835239E+04  0.30142835239E+04  0.00000000000E+00 0.  1.
         -2   -1    0    0    0  501 -0.00000000000E+00 -0.00000000000E+00 -0.26846834550E+03  0.26846834550E+03  0.00000000000E+00 0. -1.
         23    2    1    2    0    0  0.60667693695E+02 -0.76243502283E+03  0.22323874024E+04  0.23615592651E+04  0.91765543384E+02 0.  0.
         13    1    3    3    0    0  0.39386282487E+02 -0.53937967444E+03  0.14441473725E+04  0.15420905764E+04  0.00000000000E+00 0.  1.
        -13    1    3    3    0    0  0.21281411208E+02 -0.22305534839E+03  0.78824002994E+03  0.81946868867E+03  0.00000000000E+00 0. -1.
         22    1    1    2    0    0 -0.60667693695E+02  0.76243502283E+03  0.51342777598E+03  0.92119260431E+03  0.00000000000E+00 0. -1.
<mgrwt>
<rscale>  0 0.17991550E+04</rscale>
<asrwt>0</asrwt>
<pdfrwt beam="1">  1        2 0.46373590E+00 0.17991550E+04</pdfrwt>
<pdfrwt beam="2">  1       -2 0.41302824E-01 0.17991550E+04</pdfrwt>
<totfact> 0.89774518E+00</totfact>
</mgrwt>
</event>
<event>
 6    1  0.6091287E-004  0.3647646E+04  0.7818608E-02  0.8079664E-01
          2   -1    0    0  501    0  0.00000000000E+00  0.00000000000E+00  0.34064099804E+04  0.34064099804E+04  0.00000000000E+00 0.  1.
         -2   -1    0    0    0  501 -0.00000000000E+00 -0.00000000000E+00 -0.97649165883E+03  0.97649165883E+03  0.00000000000E+00 0. -1.
         23    2    1    2    0    0  0.68103879939E+03  0.16344575716E+04  0.17353231137E+04  0.24808690679E+04  0.89997906326E+02 0.  0.
         13    1    3    3    0    0  0.30309237368E+03  0.66484760249E+03  0.76815044799E+03  0.10601615124E+04  0.00000000000E+00 0.  1.
        -13    1    3    3    0    0  0.37794642571E+03  0.96960996913E+03  0.96717266572E+03  0.14207075555E+04  0.00000000000E+00 0. -1.
         22    1    1    2    0    0 -0.68103879939E+03 -0.16344575716E+04  0.69459520781E+03  0.19020325713E+04  0.00000000000E+00 0. -1.
<mgrwt>
<rscale>  0 0.36476463E+04</rscale>
<asrwt>0</asrwt>
<pdfrwt beam="1">  1        2 0.52406307E+00 0.36476463E+04</pdfrwt>
<pdfrwt beam="2">  1       -2 0.15022949E+00 0.36476463E+04</pdfrwt>
<totfact> 0.22831521E-01</totfact>
</mgrwt>
</event>
<event>
 6    1  0.6091287E-004  0.1241829E+04  0.7818608E-02  0.9077011E-01
         -2   -1    0    0    0  501 -0.00000000000E+00  0.00000000000E+00  0.28631849284E+03  0.28631849284E+03  0.00000000000E+00 0. -1.
          2   -1    0    0  501    0  0.00000000000E+00 -0.00000000000E+00 -0.13465251400E+04  0.13465251400E+04  0.00000000000E+00 0.  1.
         23    2    1    2    0    0  0.37635149642E+03 -0.20775559118E+03 -0.11162821970E+04  0.11993147390E+04  0.86412183223E+02 0.  0.
         13    1    3    3    0    0  0.28547200769E+03 -0.11327894644E+03 -0.76285320568E+03  0.82235722183E+03  0.00000000000E+00 0.  1.
        -13    1    3    3    0    0  0.90879488735E+02 -0.94476644745E+02 -0.35342899130E+03  0.37695751719E+03  0.00000000000E+00 0. -1.
         22    1    1    2    0    0 -0.37635149642E+03  0.20775559118E+03  0.56075549782E+02  0.43352889386E+03  0.00000000000E+00 0. -1.
<mgrwt>
<rscale>  0 0.12418294E+04</rscale>
<asrwt>0</asrwt>
<pdfrwt beam="1">  1        2 0.20715772E+00 0.12418294E+04</pdfrwt>
<pdfrwt beam="2">  1       -2 0.44048997E-01 0.12418294E+04</pdfrwt>
<totfact> 0.74673314E+01</totfact>
</mgrwt>
</event>
<event>
 6    1  0.6091287E-004  0.4032857E+04  0.7818608E-02  0.7997951E-01
         -2   -1    0    0    0  501 -0.00000000000E+00  0.00000000000E+00  0.14029287822E+04  0.14029287822E+04  0.00000000000E+00 0. -1.
          2   -1    0    0  501    0  0.00000000000E+00 -0.00000000000E+00 -0.28982106073E+04  0.28982106073E+04  0.00000000000E+00 0.  1.
         23    2    1    2    0    0 -0.18833386508E+04  0.63409946500E+03 -0.38925721778E+03  0.20268621335E+04  0.87191293439E+02 0.  0.
         13    1    3    3    0    0 -0.30071994809E+03  0.12247484821E+03 -0.38063551921E+02  0.32692722372E+03  0.00000000000E+00 0. -1.
        -13    1    3    3    0    0 -0.15826187027E+04  0.51162461679E+03 -0.35119366586E+03  0.16999349098E+04  0.00000000000E+00 0.  1.
         22    1    1    2    0    0  0.18833386508E+04 -0.63409946500E+03 -0.11060246073E+04  0.22742772560E+04  0.00000000000E+00 0.  1.
<mgrwt>
<rscale>  0 0.40328566E+04</rscale>
<asrwt>0</asrwt>
<pdfrwt beam="1">  1        2 0.44587854E+00 0.40328566E+04</pdfrwt>
<pdfrwt beam="2">  1       -2 0.21583520E+00 0.40328566E+04</pdfrwt>
<totfact> 0.16641079E-01</totfact>
</mgrwt>
</event>
<event>
 6    1  0.6091287E-004  0.1716906E+04  0.7818608E-02  0.8751781E-01
          2   -1    0    0  501    0  0.00000000000E+00  0.00000000000E+00  0.15272724413E+04  0.15272724413E+04  0.00000000000E+00 0.  1.
         -2   -1    0    0    0  501 -0.00000000000E+00 -0.00000000000E+00 -0.48252133055E+03  0.48252133055E+03  0.00000000000E+00 0. -1.
         23    2    1    2    0    0 -0.18346332009E+03 -0.69703865211E+03  0.10631832375E+04  0.12887796142E+04  0.10522654086E+03 0.  0.
         11    1    3    3    0    0 -0.86357636495E+02 -0.51279388757E+03  0.74779598864E+03  0.91083151743E+03  0.00000000000E+00 0. -1.
        -11    1    3    3    0    0 -0.97105683590E+02 -0.18424476454E+03  0.31538724890E+03  0.37794809672E+03  0.00000000000E+00 0.  1.
         22    1    1    2    0    0  0.18346332009E+03  0.69703865211E+03 -0.18432126760E+02  0.72101415773E+03  0.00000000000E+00 0. -1.
<mgrwt>
<rscale>  0 0.17169060E+04</rscale>
<asrwt>0</asrwt>
<pdfrwt beam="1">  1        2 0.23496499E+00 0.17169060E+04</pdfrwt>
<pdfrwt beam="2">  1       -2 0.74234051E-01 0.17169060E+04</pdfrwt>
<totfact> 0.19018231E+01</totfact>
</mgrwt>
</event>
<event>
 6    1  0.6091287E-004  0.4258093E+04  0.7818608E-02  0.7954413E-01
          2   -1    0    0  501    0  0.00000000000E+00  0.00000000000E+00  0.29963341717E+04  0.29963341717E+04  0.00000000000E+00 0.  1.
         -2   -1    0    0    0  501 -0.00000000000E+00 -0.00000000000E+00 -0.15127946374E+04  0.15127946374E+04  0.00000000000E+00 0. -1.
         23    2    1    2    0    0  0.11602328241E+04 -0.11276366977E+04  0.22060758633E+04  0.27371910350E+04  0.87973402545E+02 0.  0.
         13    1    3    3    0    0  0.83307964802E+03 -0.85141184872E+03  0.16638485617E+04  0.20462932029E+04  0.00000000000E+00 0. -1.
        -13    1    3    3    0    0  0.32715317610E+03 -0.27622484901E+03  0.54222730156E+03  0.69089783210E+03  0.00000000000E+00 0.  1.
         22    1    1    2    0    0 -0.11602328241E+04  0.11276366977E+04 -0.72253632898E+03  0.17719377740E+04  0.00000000000E+00 0. -1.
<mgrwt>
<rscale>  0 0.42580927E+04</rscale>
<asrwt>0</asrwt>
<pdfrwt beam="1">  1        2 0.46097449E+00 0.42580927E+04</pdfrwt>
<pdfrwt beam="2">  1       -2 0.23273764E+00 0.42580927E+04</pdfrwt>
<totfact> 0.11109933E-01</totfact>
</mgrwt>
</event>
<event>
 6    1  0.6091287E-004  0.2179944E+04  0.7818608E-02  0.8526822E-01
         -2   -1    0    0    0  501 -0.00000000000E+00  0.00000000000E+00  0.32866985614E+03  0.32866985614E+03  0.00000000000E+00 0.  1.
          2   -1    0    0  501    0  0.00000000000E+00 -0.00000000000E+00 -0.36146890925E+04  0.36146890925E+04  0.00000000000E+00 0. -1.
         23    2    1    2    0    0 -0.19814470836E+03  0.10699159182E+04 -0.16488948511E+04  0.19776128688E+04  0.90094569119E+02 0.  0.
         13    1    3    3    0    0 -0.15259026769E+03  0.95693137448E+03 -0.14901369822E+04  0.17775009623E+04  0.00000000000E+00 0.  1.
        -13    1    3    3    0    0 -0.45554440666E+02  0.11298454375E+03 -0.15875786888E+03  0.20011190650E+03  0.00000000000E+00 0. -1.
         22    1    1    2    0    0  0.19814470836E+03 -0.10699159182E+04 -0.16371243852E+04  0.19657460798E+04  0.00000000000E+00 0. -1.
<mgrwt>
<rscale>  0 0.21799444E+04</rscale>
<asrwt>0</asrwt>
<pdfrwt beam="1">  1        2 0.55610601E+00 0.21799444E+04</pdfrwt>
<pdfrwt beam="2">  1       -2 0.50564594E-01 0.21799444E+04</pdfrwt>
<totfact> 0.22915687E+00</totfact>
</mgrwt>
</event>
<event>
 6    1  0.6091287E-004  0.1343803E+04  0.7818608E-02  0.8995533E-01
          2   -1    0    0  501    0  0.00000000000E+00  0.00000000000E+00  0.74672698414E+03  0.74672698414E+03  0.00000000000E+00 0.  1.
         -2   -1    0    0    0  501 -0.00000000000E+00 -0.00000000000E+00 -0.60457378171E+03  0.60457378171E+03  0.00000000000E+00 0. -1.
         23    2    1    2    0    0  0.51847570811E+03  0.13452669032E+03  0.47412401043E+03  0.72112689487E+03  0.91191726195E+02 0.  0.
         11    1    3    3    0    0  0.29469187631E+03  0.42526006170E+02  0.30273679965E+03  0.42461904459E+03  0.00000000000E+00 0.  1.
        -11    1    3    3    0    0  0.22378383180E+03  0.92000684149E+02  0.17138721078E+03  0.29650785028E+03  0.00000000000E+00 0. -1.
         22    1    1    2    0    0 -0.51847570811E+03 -0.13452669032E+03 -0.33197080800E+03  0.63017387098E+03  0.00000000000E+00 0. -1.
<mgrwt>
<rscale>  0 0.13438029E+04</rscale>
<asrwt>0</asrwt>
<pdfrwt beam="1">  1        2 0.11488107E+00 0.13438029E+04</pdfrwt>
<pdfrwt beam="2">  1       -2 0.93011351E-01 0.13438029E+04</pdfrwt>
<totfact> 0.36097890E+01</totfact>
</mgrwt>
</event>
<event>
 6    1  0.6091287E-004  0.2734799E+04  0.7818608E-02  0.8323802E-01
          2   -1    0    0  501    0  0.00000000000E+00  0.00000000000E+00  0.14582438065E+04  0.14582438065E+04  0.00000000000E+00 0.  1.
         -2   -1    0    0    0  501 -0.00000000000E+00 -0.00000000000E+00 -0.12822141103E+04  0.12822141103E+04  0.00000000000E+00 0. -1.
         23    2    1    2    0    0  0.11339370172E+03  0.75487452147E+03 -0.10468848145E+04  0.12988568709E+04  0.91475031897E+02 0.  0.
         11    1    3    3    0    0  0.46167626998E+01  0.30465459280E+03 -0.44710687920E+03  0.54105480022E+03  0.00000000000E+00 0.  1.
        -11    1    3    3    0    0  0.10877693902E+03  0.45021992867E+03 -0.59977793533E+03  0.75780207069E+03  0.00000000000E+00 0. -1.
         22    1    1    2    0    0 -0.11339370172E+03 -0.75487452147E+03  0.12229145108E+04  0.14416010458E+04  0.00000000000E+00 0.  1.
<mgrwt>
<rscale>  0 0.27347986E+04</rscale>
<asrwt>0</asrwt>
<pdfrwt beam="1">  1        2 0.22434520E+00 0.27347986E+04</pdfrwt>
<pdfrwt beam="2">  1       -2 0.19726371E+00 0.27347986E+04</pdfrwt>
<totfact> 0.16259447E+00</totfact>
</mgrwt>
</event>
<event>
 6    1  0.6091287E-004  0.3833112E+04  0.7818608E-02  0.8039086E-01
          2   -1    0    0  501    0  0.00000000000E+00  0.00000000000E+00  0.30262457941E+04  0.30262457941E+04  0.00000000000E+00 0.  1.
         -2   -1    0    0    0  501 -0.00000000000E+00 -0.00000000000E+00 -0.12137766014E+04  0.12137766014E+04  0.00000000000E+00 0. -1.
         23    2    1    2    0    0 -0.14494142904E+04 -0.58092260847E+03  0.21339585529E+04  0.26457738982E+04  0.89819556531E+02 0.  0.
         13    1    3    3    0    0 -0.33756685256E+03 -0.98255538705E+02  0.45486940944E+03  0.57490147893E+03  0.00000000000E+00 0. -1.
        -13    1    3    3    0    0 -0.11118474379E+04 -0.48266706976E+03  0.16790891434E+04  0.20708724193E+04  0.00000000000E+00 0.  1.
         22    1    1    2    0    0  0.14494142904E+04  0.58092260847E+03 -0.32148936013E+03  0.15942484972E+04  0.00000000000E+00 0. -1.
<mgrwt>
<rscale>  0 0.38331117E+04</rscale>
<asrwt>0</asrwt>
<pdfrwt beam="1">  1        2 0.46557627E+00 0.38331117E+04</pdfrwt>
<pdfrwt beam="2">  1       -2 0.18673486E+00 0.38331117E+04</pdfrwt>
<totfact> 0.21841924E-01</totfact>
</mgrwt>
</event>
<event>
 6    1  0.6091287E-004  0.2066932E+04  0.7818608E-02  0.8575952E-01
         -2   -1    0    0    0  501 -0.00000000000E+00  0.00000000000E+00  0.96406213122E+03  0.96406213122E+03  0.00000000000E+00 0. -1.
          2   -1    0    0  501    0  0.00000000000E+00 -0.00000000000E+00 -0.11078660946E+04  0.11078660946E+04  0.00000000000E+00 0.  1.
         23    2    1    2    0    0 -0.51163676460E+03  0.31179445918E+03  0.76959346828E+03  0.97955336716E+03  0.90899554555E+02 0.  0.
         13    1    3    3    0    0 -0.22197315975E+03  0.14661772401E+03  0.41375473981E+03  0.49189615302E+03  0.00000000000E+00 0. -1.
        -13    1    3    3    0    0 -0.28966360485E+03  0.16517673516E+03  0.35583872848E+03  0.48765721414E+03  0.00000000000E+00 0.  1.
         22    1    1    2    0    0  0.51163676460E+03 -0.31179445918E+03 -0.91339743166E+03  0.10923748587E+04  0.00000000000E+00 0.  1.
<mgrwt>
<rscale>  0 0.20669318E+04</rscale>
<asrwt>0</asrwt>
<pdfrwt beam="1">  1        2 0.17044094E+00 0.20669318E+04</pdfrwt>
<pdfrwt beam="2">  1       -2 0.14831725E+00 0.20669318E+04</pdfrwt>
<totfact> 0.61456676E+00</totfact>
</mgrwt>
</event>
<event>
 6    1  0.6091287E-004  0.2762332E+04  0.7818608E-02  0.8315059E-01
         -2   -1    0    0    0  501 -0.00000000000E+00  0.00000000000E+00  0.76571052636E+03  0.76571052636E+03  0.00000000000E+00 0. -1.
          2   -1    0    0  501    0  0.00000000000E+00 -0.00000000000E+00 -0.24913068433E+04  0.24913068433E+04  0.00000000000E+00 0.  1.
         23    2    1    2    0    0  0.97321552896E+03  0.97739101035E+03 -0.83066003378E+03  0.16128298488E+04  0.93714334197E+02 0.  0.
         13    1    3    3    0    0  0.69122801304E+03  0.63214900880E+03 -0.56393301067E+03  0.10933567468E+04  0.00000000000E+00 0.  1.
        -13    1    3    3    0    0  0.28198751592E+03  0.34524200155E+03 -0.26672702311E+03  0.51947310193E+03  0.00000000000E+00 0. -1.
         22    1    1    2    0    0 -0.97321552896E+03 -0.97739101035E+03 -0.89493628317E+03  0.16441875209E+04  0.00000000000E+00 0. -1.
<mgrwt>
<rscale>  0 0.27623323E+04</rscale>
<asrwt>0</asrwt>
<pdfrwt beam="1">  1        2 0.38327797E+00 0.27623323E+04</pdfrwt>
<pdfrwt beam="2">  1       -2 0.11780162E+00 0.27623323E+04</pdfrwt>
<totfact> 0.17083707E+00</totfact>
</mgrwt>
</event>
<event>
 6    1  0.6091287E-004  0.2849205E+04  0.7818608E-02  0.8288153E-01
         -2   -1    0    0    0  501 -0.00000000000E+00  0.00000000000E+00  0.12185485428E+04  0.12185485428E+04  0.00000000000E+00 0.  1.
          2   -1    0    0  501    0  0.00000000000E+00 -0.00000000000E+00 -0.16654997001E+04  0.16654997001E+04  0.00000000000E+00 0. -1.
         23    2    1    2    0    0 -0.12472232281E+04 -0.58780922300E+03  0.13270612593E+03  0.13883584256E+04  0.94035837972E+02 0.  0.
         13    1    3    3    0    0 -0.11074752339E+04 -0.55344818035E+03  0.12146863934E+03  0.12440100130E+04  0.00000000000E+00 0.  1.
        -13    1    3    3    0    0 -0.13974799416E+03 -0.34361042655E+02  0.11237486582E+02  0.14434841263E+03  0.00000000000E+00 0. -1.
         22    1    1    2    0    0  0.12472232281E+04  0.58780922300E+03 -0.57965728324E+03  0.14956898172E+04  0.00000000000E+00 0.  1.
<mgrwt>
<rscale>  0 0.28492050E+04</rscale>
<asrwt>0</asrwt>
<pdfrwt beam="1">  1        2 0.25623072E+00 0.28492050E+04</pdfrwt>
<pdfrwt beam="2">  1       -2 0.18746901E+00 0.28492050E+04</pdfrwt>
<totfact> 0.14323684E+00</totfact>
</mgrwt>
</event>
<event>
 6    1  0.6091287E-004  0.2647042E+04  0.7818608E-02  0.8352395E-01
         -2   -1    0    0    0  501 -0.00000000000E+00  0.00000000000E+00  0.20976048272E+04  0.20976048272E+04  0.00000000000E+00 0. -1.
          2   -1    0    0  501    0  0.00000000000E+00 -0.00000000000E+00 -0.83509903620E+03  0.83509903620E+03  0.00000000000E+00 0.  1.
         23    2    1    2    0    0  0.24417593434E+03  0.10027589349E+04 -0.28323414747E+03  0.10740862788E+04  0.91062525626E+02 0.  0.
         13    1    3    3    0    0  0.67868660575E+02  0.17961608342E+03 -0.25461866680E+02  0.19369150515E+03  0.00000000000E+00 0. -1.
        -13    1    3    3    0    0  0.17630727377E+03  0.82314285148E+03 -0.25777228079E+03  0.88039477365E+03  0.00000000000E+00 0.  1.
         22    1    1    2    0    0 -0.24417593434E+03 -0.10027589349E+04  0.15457399385E+04  0.18586175846E+04  0.00000000000E+00 0. -1.
<mgrwt>
<rscale>  0 0.26470419E+04</rscale>
<asrwt>0</asrwt>
<pdfrwt beam="1">  1        2 0.12847677E+00 0.26470419E+04</pdfrwt>
<pdfrwt beam="2">  1       -2 0.32270843E+00 0.26470419E+04</pdfrwt>
<totfact> 0.66008789E-01</totfact>
</mgrwt>
</event>
<event>
 6    1  0.6091287E-004  0.2730911E+04  0.7818608E-02  0.8325045E-01
          2   -1    0    0  501    0  0.00000000000E+00  0.00000000000E+00  0.15414288315E+04  0.15414288315E+04  0.00000000000E+00 0.  1.
         -2   -1    0    0    0  501 -0.00000000000E+00 -0.00000000000E+00 -0.12095715611E+04  0.12095715611E+04  0.00000000000E+00 0. -1.
         23    2    1    2    0    0 -0.13334938636E+04  0.21062390112E+03  0.36579112740E+03  0.14005486835E+04  0.71869004356E+02 0.  0.
         13    1    3    3    0    0 -0.75789803413E+03  0.85855457531E+02  0.19364113702E+03  0.78694185279E+03  0.00000000000E+00 0.  1.
        -13    1    3    3    0    0 -0.57559582949E+03  0.12476844359E+03  0.17214999038E+03  0.61360683066E+03  0.00000000000E+00 0. -1.
         22    1    1    2    0    0  0.13334938636E+04 -0.21062390112E+03 -0.33933857035E+02  0.13504517091E+04  0.00000000000E+00 0.  1.
<mgrwt>
<rscale>  0 0.27309108E+04</rscale>
<asrwt>0</asrwt>
<pdfrwt beam="1">  1        2 0.23714290E+00 0.27309108E+04</pdfrwt>
<pdfrwt beam="2">  1       -2 0.18608793E+00 0.27309108E+04</pdfrwt>
<totfact> 0.17341542E+00</totfact>
</mgrwt>
</event>
<event>
 6    1  0.6091287E-004  0.2990182E+04  0.7818608E-02  0.8246540E-01
         -2   -1    0    0    0  501 -0.00000000000E+00  0.00000000000E+00  0.12201434443E+04  0.12201434443E+04  0.00000000000E+00 0. -1.
          2   -1    0    0  501    0  0.00000000000E+00 -0.00000000000E+00 -0.18319957950E+04  0.18319957950E+04  0.00000000000E+00 0.  1.
         23    2    1    2    0    0  0.11932496526E+04 -0.53925691958E+03 -0.10401708619E+04  0.16744239184E+04  0.84245343578E+02 0.  0.
         13    1    3    3    0    0  0.62339410468E+03 -0.23991159214E+03 -0.55259287911E+03  0.86691214771E+03  0.00000000000E+00 0. -1.
        -13    1    3    3    0    0  0.56985554789E+03 -0.29934532744E+03 -0.48757798274E+03  0.80751177068E+03  0.00000000000E+00 0.  1.
         22    1    1    2    0    0 -0.11932496526E+04  0.53925691958E+03  0.42831851114E+03  0.13777153210E+04  0.00000000000E+00 0. -1.
<mgrwt>
<rscale>  0 0.29901824E+04</rscale>
<asrwt>0</asrwt>
<pdfrwt beam="1">  1        2 0.28184551E+00 0.29901824E+04</pdfrwt>
<pdfrwt beam="2">  1       -2 0.18771438E+00 0.29901824E+04</pdfrwt>
<totfact> 0.11397378E+00</totfact>
</mgrwt>
</event>
<event>
 6    1  0.6091287E-004  0.2904616E+04  0.7818608E-02  0.8271505E-01
          2   -1    0    0  501    0  0.00000000000E+00  0.00000000000E+00  0.95284068258E+03  0.95284068258E+03  0.00000000000E+00 0.  1.
         -2   -1    0    0    0  501 -0.00000000000E+00 -0.00000000000E+00 -0.22135903383E+04  0.22135903383E+04  0.00000000000E+00 0. -1.
         23    2    1    2    0    0 -0.86458881268E+03 -0.34416467591E+03  0.58248891351E+03  0.11016086163E+04  0.91022360429E+02 0.  0.
         13    1    3    3    0    0 -0.80414802790E+03 -0.31536267828E+03  0.51074999056E+03  0.10034805541E+04  0.00000000000E+00 0. -1.
        -13    1    3    3    0    0 -0.60440784788E+02 -0.28801997622E+02  0.71738922952E+02  0.98128062240E+02  0.00000000000E+00 0.  1.
         22    1    1    2    0    0  0.86458881268E+03  0.34416467591E+03 -0.18432385692E+04  0.20648224045E+04  0.00000000000E+00 0. -1.
<mgrwt>
<rscale>  0 0.29046163E+04</rscale>
<asrwt>0</asrwt>
<pdfrwt beam="1">  1        2 0.14659088E+00 0.29046163E+04</pdfrwt>
<pdfrwt beam="2">  1       -2 0.34055236E+00 0.29046163E+04</pdfrwt>
<totfact> 0.41597762E-01</totfact>
</mgrwt>
</event>
<event>
 6    1  0.6091287E-004  0.3627571E+04  0.7818608E-02  0.8084205E-01
          2   -1    0    0  501    0  0.00000000000E+00  0.00000000000E+00  0.19256291588E+04  0.19256291588E+04  0.00000000000E+00 0.  1.
         -2   -1    0    0    0  501 -0.00000000000E+00 -0.00000000000E+00 -0.17084378530E+04  0.17084378530E+04  0.00000000000E+00 0. -1.
         23    2    1    2    0    0 -0.45498946746E+03  0.15446439491E+04 -0.72514712493E+03  0.17683387188E+04  0.90791665185E+02 0.  0.
         11    1    3    3    0    0 -0.16521582381E+03  0.71918549342E+03 -0.33917861528E+03  0.81213679602E+03  0.00000000000E+00 0.  1.
        -11    1    3    3    0    0 -0.28977364365E+03  0.82545845573E+03 -0.38596850965E+03  0.95620192278E+03  0.00000000000E+00 0. -1.
         22    1    1    2    0    0  0.45498946746E+03 -0.15446439491E+04  0.94233843072E+03  0.18657282930E+04  0.00000000000E+00 0.  1.
<mgrwt>
<rscale>  0 0.36275709E+04</rscale>
<asrwt>0</asrwt>
<pdfrwt beam="1">  1        2 0.29625064E+00 0.36275709E+04</pdfrwt>
<pdfrwt beam="2">  1       -2 0.26283659E+00 0.36275709E+04</pdfrwt>
<totfact> 0.32037069E-01</totfact>
</mgrwt>
</event>
<event>
 6    1  0.6091287E-004  0.1868465E+04  0.7818608E-02  0.8670715E-01
          2   -1    0    0  501    0  0.00000000000E+00  0.00000000000E+00  0.20302264508E+04  0.20302264508E+04  0.00000000000E+00 0.  1.
         -2   -1    0    0    0  501 -0.00000000000E+00 -0.00000000000E+00 -0.42989799122E+03  0.42989799122E+03  0.00000000000E+00 0. -1.
         23    2    1    2    0    0 -0.46774483550E+03  0.32011360029E+02 -0.25847076978E+03  0.54310995761E+03  0.91385605648E+02 0.  0.
         11    1    3    3    0    0 -0.27839371017E+03 -0.19930864317E+02 -0.17721949740E+03  0.33061616335E+03  0.00000000000E+00 0.  1.
        -11    1    3    3    0    0 -0.18935112533E+03  0.51942224345E+02 -0.81251272383E+02  0.21249379426E+03  0.00000000000E+00 0. -1.
         22    1    1    2    0    0  0.46774483550E+03 -0.32011360029E+02  0.18587992293E+04  0.19170144844E+04  0.00000000000E+00 0.  1.
<mgrwt>
<rscale>  0 0.18684649E+04</rscale>
<asrwt>0</asrwt>
<pdfrwt beam="1">  1        2 0.31234252E+00 0.18684649E+04</pdfrwt>
<pdfrwt beam="2">  1       -2 0.66138154E-01 0.18684649E+04</pdfrwt>
<totfact> 0.12690137E+01</totfact>
</mgrwt>
</event>
<event>
 6    1  0.6091287E-004  0.3053098E+04  0.7818608E-02  0.8228729E-01
         -2   -1    0    0    0  501 -0.00000000000E+00  0.00000000000E+00  0.11392357329E+04  0.11392357329E+04  0.00000000000E+00 0. -1.
          2   -1    0    0  501    0  0.00000000000E+00 -0.00000000000E+00 -0.20455390232E+04  0.20455390232E+04  0.00000000000E+00 0.  1.
         23    2    1    2    0    0 -0.72673978298E+03 -0.96307043515E+03 -0.14269120844E+04  0.18707394097E+04  0.89064398512E+02 0.  0.
         13    1    3    3    0    0 -0.50249755981E+02 -0.34885780088E+02 -0.67920681335E+02  0.91407191083E+02  0.00000000000E+00 0. -1.
        -13    1    3    3    0    0 -0.67649002699E+03 -0.92818465506E+03 -0.13589914031E+04  0.17793322186E+04  0.00000000000E+00 0.  1.
         22    1    1    2    0    0  0.72673978298E+03  0.96307043515E+03  0.52060879406E+03  0.13140353464E+04  0.00000000000E+00 0. -1.
<mgrwt>
<rscale>  0 0.30530975E+04</rscale>
<asrwt>0</asrwt>
<pdfrwt beam="1">  1        2 0.31469831E+00 0.30530975E+04</pdfrwt>
<pdfrwt beam="2">  1       -2 0.17526704E+00 0.30530975E+04</pdfrwt>
<totfact> 0.10508565E+00</totfact>
</mgrwt>
</event>
<event>
 6    1  0.6091287E-004  0.2857806E+04  0.7818608E-02  0.8285543E-01
         -2   -1    0    0    0  501 -0.00000000000E+00  0.00000000000E+00  0.11951871661E+04  0.11951871661E+04  0.00000000000E+00 0. -1.
          2   -1    0    0  501    0  0.00000000000E+00 -0.00000000000E+00 -0.17083211723E+04  0.17083211723E+04  0.00000000000E+00 0.  1.
         23    2    1    2    0    0 -0.13129983554E+04  0.25743752937E+03  0.24834576945E+03  0.13639986075E+04  0.92616506342E+02 0.  0.
         13    1    3    3    0    0 -0.24203915217E+03  0.81317294854E+02  0.32419625187E+02  0.25738392670E+03  0.00000000000E+00 0. -1.
        -13    1    3    3    0    0 -0.10709592032E+04  0.17612023452E+03  0.21592614427E+03  0.11066146808E+04  0.00000000000E+00 0.  1.
         22    1    1    2    0    0  0.13129983554E+04 -0.25743752937E+03 -0.76147977562E+03  0.15395097309E+04  0.00000000000E+00 0. -1.
<mgrwt>
<rscale>  0 0.28578058E+04</rscale>
<asrwt>0</asrwt>
<pdfrwt beam="1">  1        2 0.26281864E+00 0.28578058E+04</pdfrwt>
<pdfrwt beam="2">  1       -2 0.18387495E+00 0.28578058E+04</pdfrwt>
<totfact> 0.14332778E+00</totfact>
</mgrwt>
</event>
<event>
 6    1  0.6091287E-004  0.2980976E+04  0.7818608E-02  0.8249184E-01
          2   -1    0    0  501    0  0.00000000000E+00  0.00000000000E+00  0.39755039144E+04  0.39755039144E+04  0.00000000000E+00 0. -1.
         -2   -1    0    0    0  501 -0.00000000000E+00 -0.00000000000E+00 -0.55881088988E+03  0.55881088988E+03  0.00000000000E+00 0.  1.
         23    2    1    2    0    0  0.11457796888E+03  0.76984134840E+03 -0.22089770623E+03  0.81438871132E+03  0.93001956184E+02 0.  0.
         11    1    3    3    0    0  0.98495416719E+02  0.47629145760E+03 -0.10018075374E+03  0.49657938250E+03  0.00000000000E+00 0. -1.
        -11    1    3    3    0    0  0.16082552158E+02  0.29354989079E+03 -0.12071695249E+03  0.31780932882E+03  0.00000000000E+00 0.  1.
         22    1    1    2    0    0 -0.11457796888E+03 -0.76984134840E+03  0.36375907308E+04  0.37199260930E+04  0.00000000000E+00 0. -1.
<mgrwt>
<rscale>  0 0.29809763E+04</rscale>
<asrwt>0</asrwt>
<pdfrwt beam="1">  1        2 0.61161597E+00 0.29809763E+04</pdfrwt>
<pdfrwt beam="2">  1       -2 0.85970909E-01 0.29809763E+04</pdfrwt>
<totfact> 0.36023924E-01</totfact>
</mgrwt>
</event>
<event>
 6    1  0.6091287E-004  0.3540103E+04  0.7818608E-02  0.8104351E-01
          2   -1    0    0  501    0  0.00000000000E+00  0.00000000000E+00  0.27275874143E+04  0.27275874143E+04  0.00000000000E+00 0.  1.
         -2   -1    0    0    0  501 -0.00000000000E+00 -0.00000000000E+00 -0.11486642900E+04  0.11486642900E+04  0.00000000000E+00 0. -1.
         23    2    1    2    0    0  0.17553582666E+04 -0.17412774922E+03  0.64523485038E+03  0.18804118034E+04  0.89540052276E+02 0.  0.
         13    1    3    3    0    0  0.51144876418E+03 -0.27640458601E+02  0.22320255983E+03  0.55871568445E+03  0.00000000000E+00 0.  1.
        -13    1    3    3    0    0  0.12439095024E+04 -0.14648729062E+03  0.42203229055E+03  0.13216961189E+04  0.00000000000E+00 0. -1.
         22    1    1    2    0    0 -0.17553582666E+04  0.17412774922E+03  0.93368827391E+03  0.19958399009E+04  0.00000000000E+00 0.  1.
<mgrwt>
<rscale>  0 0.35401030E+04</rscale>
<asrwt>0</asrwt>
<pdfrwt beam="1">  1        2 0.41962883E+00 0.35401030E+04</pdfrwt>
<pdfrwt beam="2">  1       -2 0.17671758E+00 0.35401030E+04</pdfrwt>
<totfact> 0.40004196E-01</totfact>
</mgrwt>
</event>
<event>
 6    1  0.6091287E-004  0.8119786E+03  0.7818608E-02  0.9542839E-01
         -2   -1    0    0    0  501 -0.00000000000E+00  0.00000000000E+00  0.82432055719E+02  0.82432055719E+02  0.00000000000E+00 0. -1.
          2   -1    0    0  501    0  0.00000000000E+00 -0.00000000000E+00 -0.19995533514E+04  0.19995533514E+04  0.00000000000E+00 0.  1.
         23    2    1    2    0    0  0.25921811604E+03 -0.24334267639E+03 -0.49749037341E+03  0.61850952918E+03  0.92992882612E+02 0.  0.
         13    1    3    3    0    0  0.69969237716E+02 -0.12712438841E+03 -0.20907290779E+03  0.25449515737E+03  0.00000000000E+00 0. -1.
        -13    1    3    3    0    0  0.18924887832E+03 -0.11621828798E+03 -0.28841746562E+03  0.36401437181E+03  0.00000000000E+00 0.  1.
         22    1    1    2    0    0 -0.25921811604E+03  0.24334267639E+03 -0.14196309223E+04  0.14634758780E+04  0.00000000000E+00 0.  1.
<mgrwt>
<rscale>  0 0.81197855E+03</rscale>
<asrwt>0</asrwt>
<pdfrwt beam="1">  1        2 0.30762361E+00 0.81197855E+03</pdfrwt>
<pdfrwt beam="2">  1       -2 0.12681854E-01 0.81197855E+03</pdfrwt>
<totfact> 0.31625809E+02</totfact>
</mgrwt>
</event>
<event>
 6    1  0.6091287E-004  0.3644783E+04  0.7818608E-02  0.8080310E-01
         -2   -1    0    0    0  501 -0.00000000000E+00  0.00000000000E+00  0.14450082223E+04  0.14450082223E+04  0.00000000000E+00 0. -1.
          2   -1    0    0  501    0  0.00000000000E+00 -0.00000000000E+00 -0.22983330382E+04  0.22983330382E+04  0.00000000000E+00 0.  1.
         23    2    1    2    0    0  0.16347407530E+04 -0.33290431564E+03  0.32337483246E+03  0.17018161748E+04  0.91675500853E+02 0.  0.
         11    1    3    3    0    0  0.14758450459E+03 -0.56793292176E+01  0.39036037008E+02  0.15276535262E+03  0.00000000000E+00 0.  1.
        -11    1    3    3    0    0  0.14871562484E+04 -0.32722498642E+03  0.28433879545E+03  0.15490508221E+04  0.00000000000E+00 0. -1.
         22    1    1    2    0    0 -0.16347407530E+04  0.33290431564E+03 -0.11766996483E+04  0.20415250857E+04  0.00000000000E+00 0.  1.
<mgrwt>
<rscale>  0 0.36447826E+04</rscale>
<asrwt>0</asrwt>
<pdfrwt beam="1">  1        2 0.35358970E+00 0.36447826E+04</pdfrwt>
<pdfrwt beam="2">  1       -2 0.22230896E+00 0.36447826E+04</pdfrwt>
<totfact> 0.35260327E-01</totfact>
</mgrwt>
</event>
<event>
 6    1  0.6091287E-004  0.4704788E+04  0.7818608E-02  0.7875733E-01
          2   -1    0    0  501    0  0.00000000000E+00  0.00000000000E+00  0.21431326552E+04  0.21431326552E+04  0.00000000000E+00 0.  1.
         -2   -1    0    0    0  501 -0.00000000000E+00 -0.00000000000E+00 -0.25820884033E+04  0.25820884033E+04  0.00000000000E+00 0. -1.
         23    2    1    2    0    0 -0.14743415926E+04  0.18290093331E+04 -0.32326418422E+03  0.23731277758E+04  0.90980412211E+02 0.  0.
         11    1    3    3    0    0 -0.11792871589E+04  0.14476622221E+04 -0.29259921805E+03  0.18899889986E+04  0.00000000000E+00 0. -1.
        -11    1    3    3    0    0 -0.29505443368E+03  0.38134711101E+03 -0.30664966173E+02  0.48313877723E+03  0.00000000000E+00 0.  1.
         22    1    1    2    0    0  0.14743415926E+04 -0.18290093331E+04 -0.11569156385E+03  0.23520932826E+04  0.00000000000E+00 0.  1.
<mgrwt>
<rscale>  0 0.47047882E+04</rscale>
<asrwt>0</asrwt>
<pdfrwt beam="1">  1        2 0.32971272E+00 0.47047882E+04</pdfrwt>
<pdfrwt beam="2">  1       -2 0.39724437E+00 0.47047882E+04</pdfrwt>
<totfact> 0.32059008E-02</totfact>
</mgrwt>
</event>
<event>
 6    1  0.8062942E-004  0.2629517E+04  0.7818608E-02  0.8358244E-01
          2   -1    0    0  501    0  0.00000000000E+00  0.00000000000E+00  0.11197850944E+04  0.11197850944E+04  0.00000000000E+00 0.  1.
         -2   -1    0    0    0  501 -0.00000000000E+00 -0.00000000000E+00 -0.15436798941E+04  0.15436798941E+04  0.00000000000E+00 0. -1.
         23    2    1    2    0    0 -0.12137259946E+04 -0.36386453601E+03 -0.56176466113E+03  0.13888920055E+04  0.88956607238E+02 0.  0.
         11    1    3    3    0    0 -0.59117136050E+03 -0.13526400005E+03 -0.28904451868E+03  0.67180850021E+03  0.00000000000E+00 0.  1.
        -11    1    3    3    0    0 -0.62255463407E+03 -0.22860053596E+03 -0.27272014245E+03  0.71708350527E+03  0.00000000000E+00 0. -1.
         22    1    1    2    0    0  0.12137259946E+04  0.36386453601E+03  0.13786986143E+03  0.12745729831E+04  0.00000000000E+00 0.  1.
<mgrwt>
<rscale>  0 0.26295169E+04</rscale>
<asrwt>0</asrwt>
<pdfrwt beam="1">  1        2 0.17227463E+00 0.26295169E+04</pdfrwt>
<pdfrwt beam="2">  1       -2 0.23748921E+00 0.26295169E+04</pdfrwt>
<totfact> 0.14351160E+00</totfact>
</mgrwt>
</event>
<event>
 6    1  0.6091287E-004  0.1031008E+04  0.7818608E-02  0.9275175E-01
          2   -1    0    0  501    0  0.00000000000E+00  0.00000000000E+00  0.12548353579E+04  0.12548353579E+04  0.00000000000E+00 0. -1.
         -2   -1    0    0    0  501 -0.00000000000E+00 -0.00000000000E+00 -0.21177635275E+03  0.21177635275E+03  0.00000000000E+00 0.  1.
         23    2    1    2    0    0 -0.32951543342E+03  0.38383053962E+03  0.63186048649E+03  0.81469873659E+03  0.92628575541E+02 0.  0.
         11    1    3    3    0    0 -0.32474359309E+03  0.34096159406E+03  0.58606511445E+03  0.75178822035E+03  0.00000000000E+00 0. -1.
        -11    1    3    3    0    0 -0.47718403234E+01  0.42868945555E+02  0.45795372044E+02  0.62910516241E+02  0.00000000000E+00 0.  1.
         22    1    1    2    0    0  0.32951543342E+03 -0.38383053962E+03  0.41119851866E+03  0.65191297406E+03  0.00000000000E+00 0.  1.
<mgrwt>
<rscale>  0 0.10310082E+04</rscale>
<asrwt>0</asrwt>
<pdfrwt beam="1">  1        2 0.19305159E+00 0.10310082E+04</pdfrwt>
<pdfrwt beam="2">  1       -2 0.32580978E-01 0.10310082E+04</pdfrwt>
<totfact> 0.15358903E+02</totfact>
</mgrwt>
</event>
<event>
 6    1  0.6091287E-004  0.1010289E+04  0.7818608E-02  0.9297331E-01
         -2   -1    0    0    0  501 -0.00000000000E+00  0.00000000000E+00  0.22300416878E+03  0.22300416878E+03  0.00000000000E+00 0. -1.
          2   -1    0    0  501    0  0.00000000000E+00 -0.00000000000E+00 -0.11442429520E+04  0.11442429520E+04  0.00000000000E+00 0.  1.
         23    2    1    2    0    0  0.17027552915E+03 -0.35212014880E+03 -0.40497003888E+02  0.40356229840E+03  0.90775361986E+02 0.  0.
         11    1    3    3    0    0  0.15957396293E+03 -0.33195075353E+03 -0.60447778966E+02  0.37324132461E+03  0.00000000000E+00 0.  1.
        -11    1    3    3    0    0  0.10701566225E+02 -0.20169395273E+02  0.19950775078E+02  0.30320973790E+02  0.00000000000E+00 0. -1.
         22    1    1    2    0    0 -0.17027552915E+03  0.35212014880E+03 -0.88074177935E+03  0.96368482239E+03  0.00000000000E+00 0.  1.
<mgrwt>
<rscale>  0 0.10102890E+04</rscale>
<asrwt>0</asrwt>
<pdfrwt beam="1">  1        2 0.17603738E+00 0.10102890E+04</pdfrwt>
<pdfrwt beam="2">  1       -2 0.34308333E-01 0.10102890E+04</pdfrwt>
<totfact> 0.16233318E+02</totfact>
</mgrwt>
</event>
<event>
 6    1  0.6091287E-004  0.3631681E+04  0.7818608E-02  0.8083273E-01
          2   -1    0    0  501    0  0.00000000000E+00  0.00000000000E+00  0.33437849606E+04  0.33437849606E+04  0.00000000000E+00 0.  1.
         -2   -1    0    0    0  501 -0.00000000000E+00 -0.00000000000E+00 -0.98609108805E+03  0.98609108805E+03  0.00000000000E+00 0. -1.
         23    2    1    2    0    0  0.12308591044E+02 -0.12358079427E+04  0.27638965557E+04  0.30289635256E+04  0.90128222953E+02 0.  0.
         11    1    3    3    0    0  0.45082768299E+02 -0.76828326270E+03  0.16621418099E+04  0.18316678257E+04  0.00000000000E+00 0.  1.
        -11    1    3    3    0    0 -0.32774177255E+02 -0.46752467997E+03  0.11017547458E+04  0.11972956999E+04  0.00000000000E+00 0. -1.
         22    1    1    2    0    0 -0.12308591044E+02  0.12358079427E+04 -0.40620268318E+03  0.13009125230E+04  0.00000000000E+00 0. -1.
<mgrwt>
<rscale>  0 0.36316809E+04</rscale>
<asrwt>0</asrwt>
<pdfrwt beam="1">  1        2 0.51442845E+00 0.36316809E+04</pdfrwt>
<pdfrwt beam="2">  1       -2 0.15170632E+00 0.36316809E+04</pdfrwt>
<totfact> 0.24570853E-01</totfact>
</mgrwt>
</event>
<event>
 6    1  0.6091287E-004  0.3308820E+04  0.7818608E-02  0.8160655E-01
          2   -1    0    0  501    0  0.00000000000E+00  0.00000000000E+00  0.29290197048E+04  0.29290197048E+04  0.00000000000E+00 0.  1.
         -2   -1    0    0    0  501 -0.00000000000E+00 -0.00000000000E+00 -0.93446716985E+03  0.93446716985E+03  0.00000000000E+00 0. -1.
         23    2    1    2    0    0 -0.40139284530E+03  0.82603313081E+03 -0.60725935038E+03  0.11043435228E+04  0.85812284893E+02 0.  0.
         13    1    3    3    0    0 -0.19854033445E+03  0.36048158581E+03 -0.22757987223E+03  0.47027421400E+03  0.00000000000E+00 0. -1.
        -13    1    3    3    0    0 -0.20285251085E+03  0.46555154500E+03 -0.37967947815E+03  0.63406930878E+03  0.00000000000E+00 0.  1.
         22    1    1    2    0    0  0.40139284530E+03 -0.82603313081E+03  0.26018118853E+04  0.27591433518E+04  0.00000000000E+00 0.  1.
<mgrwt>
<rscale>  0 0.33088202E+04</rscale>
<asrwt>0</asrwt>
<pdfrwt beam="1">  1        2 0.45061841E+00 0.33088202E+04</pdfrwt>
<pdfrwt beam="2">  1       -2 0.14376418E+00 0.33088202E+04</pdfrwt>
<totfact> 0.53886599E-01</totfact>
</mgrwt>
</event>
<event>
 6    1  0.6091287E-004  0.1783612E+04  0.7818608E-02  0.8715063E-01
         -2   -1    0    0    0  501 -0.00000000000E+00  0.00000000000E+00  0.31296553104E+03  0.31296553104E+03  0.00000000000E+00 0. -1.
          2   -1    0    0  501    0  0.00000000000E+00 -0.00000000000E+00 -0.25412329726E+04  0.25412329726E+04  0.00000000000E+00 0.  1.
         23    2    1    2    0    0  0.59844819121E+02  0.15505464075E+03 -0.25152269388E+04  0.25225826158E+04  0.97124435972E+02 0.  0.
         11    1    3    3    0    0  0.69270918757E+02  0.63966501881E+02 -0.94638636563E+03  0.95107167270E+03  0.00000000000E+00 0.  1.
        -11    1    3    3    0    0 -0.94260996358E+01  0.91088138873E+02 -0.15688405732E+04  0.15715109431E+04  0.00000000000E+00 0. -1.
         22    1    1    2    0    0 -0.59844819121E+02 -0.15505464075E+03  0.28695949723E+03  0.33161588781E+03  0.00000000000E+00 0. -1.
<mgrwt>
<rscale>  0 0.17836124E+04</rscale>
<asrwt>0</asrwt>
<pdfrwt beam="1">  1        2 0.39095893E+00 0.17836124E+04</pdfrwt>
<pdfrwt beam="2">  1       -2 0.48148542E-01 0.17836124E+04</pdfrwt>
<totfact> 0.12742770E+01</totfact>
</mgrwt>
</event>
<event>
 6    1  0.6091287E-004  0.3134109E+04  0.7818608E-02  0.8206439E-01
         -2   -1    0    0    0  501 -0.00000000000E+00  0.00000000000E+00  0.76396286341E+03  0.76396286341E+03  0.00000000000E+00 0.  1.
          2   -1    0    0  501    0  0.00000000000E+00 -0.00000000000E+00 -0.32143702224E+04  0.32143702224E+04  0.00000000000E+00 0. -1.
         23    2    1    2    0    0  0.47651829750E+03 -0.44417828468E+03  0.58185454035E+03  0.87688563944E+03  0.77522139418E+02 0.  0.
         11    1    3    3    0    0  0.17046217428E+03 -0.20533681460E+03  0.21418259572E+03  0.34219109369E+03  0.00000000000E+00 0. -1.
        -11    1    3    3    0    0  0.30605612322E+03 -0.23884147008E+03  0.36767194463E+03  0.53469454575E+03  0.00000000000E+00 0.  1.
         22    1    1    2    0    0 -0.47651829750E+03  0.44417828468E+03 -0.30322618993E+04  0.31014474464E+04  0.00000000000E+00 0. -1.
<mgrwt>
<rscale>  0 0.31341088E+04</rscale>
<asrwt>0</asrwt>
<pdfrwt beam="1">  1        2 0.49451850E+00 0.31341088E+04</pdfrwt>
<pdfrwt beam="2">  1       -2 0.11753275E+00 0.31341088E+04</pdfrwt>
<totfact> 0.60006110E-01</totfact>
</mgrwt>
</event>
<event>
 6    1  0.6091287E-004  0.1183134E+04  0.7818608E-02  0.9127749E-01
          2   -1    0    0  501    0  0.00000000000E+00  0.00000000000E+00  0.11989802154E+04  0.11989802154E+04  0.00000000000E+00 0.  1.
         -2   -1    0    0    0  501 -0.00000000000E+00 -0.00000000000E+00 -0.29187411787E+03  0.29187411787E+03  0.00000000000E+00 0. -1.
         23    2    1    2    0    0 -0.22022825709E+03 -0.50204928009E+03  0.72445458501E+03  0.91300007835E+03  0.90447401656E+02 0.  0.
         13    1    3    3    0    0 -0.14363665404E+03 -0.34667966218E+03  0.42419541069E+03  0.56635679832E+03  0.00000000000E+00 0.  1.
        -13    1    3    3    0    0 -0.76591603051E+02 -0.15536961791E+03  0.30025917432E+03  0.34664328003E+03  0.00000000000E+00 0. -1.
         22    1    1    2    0    0  0.22022825709E+03  0.50204928009E+03  0.18265151248E+03  0.57785425487E+03  0.00000000000E+00 0. -1.
<mgrwt>
<rscale>  0 0.11831336E+04</rscale>
<asrwt>0</asrwt>
<pdfrwt beam="1">  1        2 0.18445849E+00 0.11831336E+04</pdfrwt>
<pdfrwt beam="2">  1       -2 0.44903711E-01 0.11831336E+04</pdfrwt>
<totfact> 0.88080311E+01</totfact>
</mgrwt>
</event>
<event>
 6    1  0.6091287E-004  0.1278369E+04  0.7818608E-02  0.9046896E-01
          2   -1    0    0  501    0  0.00000000000E+00  0.00000000000E+00  0.58385356272E+03  0.58385356272E+03  0.00000000000E+00 0.  1.
         -2   -1    0    0    0  501 -0.00000000000E+00 -0.00000000000E+00 -0.69975953665E+03  0.69975953665E+03  0.00000000000E+00 0. -1.
         23    2    1    2    0    0  0.12860717716E+03  0.12266308031E+03 -0.67156204329E+03  0.70022668823E+03  0.87953394680E+02 0.  0.
         13    1    3    3    0    0 -0.12537874695E+02  0.67773733067E+01 -0.30614279413E+02  0.33769293668E+02  0.00000000000E+00 0.  1.
        -13    1    3    3    0    0  0.14114505185E+03  0.11588570701E+03 -0.64094776388E+03  0.66645739456E+03  0.00000000000E+00 0. -1.
         22    1    1    2    0    0 -0.12860717716E+03 -0.12266308031E+03  0.55565606936E+03  0.58338641114E+03  0.00000000000E+00 0.  1.
<mgrwt>
<rscale>  0 0.12783694E+04</rscale>
<asrwt>0</asrwt>
<pdfrwt beam="1">  1        2 0.89823626E-01 0.12783694E+04</pdfrwt>
<pdfrwt beam="2">  1       -2 0.10765531E+00 0.12783694E+04</pdfrwt>
<totfact> 0.34829951E+01</totfact>
</mgrwt>
</event>
<event>
 6    1  0.6091287E-004  0.3351850E+04  0.7818608E-02  0.8149826E-01
         -2   -1    0    0    0  501 -0.00000000000E+00  0.00000000000E+00  0.13453400662E+04  0.13453400662E+04  0.00000000000E+00 0. -1.
          2   -1    0    0  501    0  0.00000000000E+00 -0.00000000000E+00 -0.20877438161E+04  0.20877438161E+04  0.00000000000E+00 0.  1.
         23    2    1    2    0    0  0.10567906808E+04 -0.64708896684E+02  0.95751399554E+03  0.14304071421E+04  0.90762085855E+02 0.  0.
         11    1    3    3    0    0  0.60491422658E+03  0.10476161176E+01  0.51324533133E+03  0.79331147045E+03  0.00000000000E+00 0.  1.
        -11    1    3    3    0    0  0.45187645418E+03 -0.65756512802E+02  0.44426866420E+03  0.63709567163E+03  0.00000000000E+00 0. -1.
         22    1    1    2    0    0 -0.10567906808E+04  0.64708896684E+02 -0.16999177454E+04  0.20026767401E+04  0.00000000000E+00 0.  1.
<mgrwt>
<rscale>  0 0.33518505E+04</rscale>
<asrwt>0</asrwt>
<pdfrwt beam="1">  1        2 0.32119135E+00 0.33518505E+04</pdfrwt>
<pdfrwt beam="2">  1       -2 0.20697540E+00 0.33518505E+04</pdfrwt>
<totfact> 0.59466212E-01</totfact>
</mgrwt>
</event>
<event>
 6    1  0.6091287E-004  0.3006101E+04  0.7818608E-02  0.8241991E-01
          2   -1    0    0  501    0  0.00000000000E+00  0.00000000000E+00  0.15630418209E+04  0.15630418209E+04  0.00000000000E+00 0.  1.
         -2   -1    0    0    0  501 -0.00000000000E+00 -0.00000000000E+00 -0.14453617579E+04  0.14453617579E+04  0.00000000000E+00 0. -1.
         23    2    1    2    0    0 -0.78767027090E+02  0.88617093521E+03 -0.11520841884E+04  0.14579828536E+04  0.83143570527E+02 0.  0.
         11    1    3    3    0    0 -0.24500601935E+01  0.49411964593E+03 -0.63961811934E+03  0.80825216726E+03  0.00000000000E+00 0.  1.
        -11    1    3    3    0    0 -0.76316966897E+02  0.39205128928E+03 -0.51246606907E+03  0.64973068637E+03  0.00000000000E+00 0. -1.
         22    1    1    2    0    0  0.78767027090E+02 -0.88617093521E+03  0.12697642514E+04  0.15504207252E+04  0.00000000000E+00 0.  1.
<mgrwt>
<rscale>  0 0.30061010E+04</rscale>
<asrwt>0</asrwt>
<pdfrwt beam="1">  1        2 0.24046797E+00 0.30061010E+04</pdfrwt>
<pdfrwt beam="2">  1       -2 0.22236335E+00 0.30061010E+04</pdfrwt>
<totfact> 0.95571606E-01</totfact>
</mgrwt>
</event>
<event>
 6    1  0.6091287E-004  0.1261285E+04  0.7818608E-02  0.9060843E-01
         -2   -1    0    0    0  501 -0.00000000000E+00  0.00000000000E+00  0.12352390191E+03  0.12352390191E+03  0.00000000000E+00 0.  1.
          2   -1    0    0  501    0  0.00000000000E+00 -0.00000000000E+00 -0.32196988183E+04  0.32196988183E+04  0.00000000000E+00 0. -1.
         23    2    1    2    0    0  0.53966109055E+03 -0.25461397818E+03 -0.10436707644E+04  0.12057392315E+04  0.92174071099E+02 0.  0.
         13    1    3    3    0    0  0.26101741945E+03 -0.13929634862E+03 -0.60424579036E+03  0.67279011672E+03  0.00000000000E+00 0.  1.
        -13    1    3    3    0    0  0.27864367110E+03 -0.11531762957E+03 -0.43942497401E+03  0.53294911475E+03  0.00000000000E+00 0. -1.
         22    1    1    2    0    0 -0.53966109055E+03  0.25461397818E+03 -0.20525041521E+04  0.21374834888E+04  0.00000000000E+00 0.  1.
<mgrwt>
<rscale>  0 0.12612847E+04</rscale>
<asrwt>0</asrwt>
<pdfrwt beam="1">  1        2 0.49533820E+00 0.12612847E+04</pdfrwt>
<pdfrwt beam="2">  1       -2 0.19003680E-01 0.12612847E+04</pdfrwt>
<totfact> 0.29404132E+01</totfact>
</mgrwt>
</event>
<event>
 6    1  0.6091287E-004  0.2022332E+03  0.7818608E-02  0.1147868E+00
          2   -1    0    0  501    0  0.00000000000E+00  0.00000000000E+00  0.46052343319E+03  0.46052343319E+03  0.00000000000E+00 0.  1.
         -2   -1    0    0    0  501 -0.00000000000E+00 -0.00000000000E+00 -0.22202053563E+02  0.22202053563E+02  0.00000000000E+00 0. -1.
         23    2    1    2    0    0 -0.91762031667E+01  0.57393969220E+02  0.12496915532E+03  0.16402831562E+03  0.88936652386E+02 0.  0.
         13    1    3    3    0    0 -0.38396664100E+02  0.47977703813E+02  0.11724275335E+03  0.13237079394E+03  0.00000000000E+00 0. -1.
        -13    1    3    3    0    0  0.29220460933E+02  0.94162654062E+01  0.77264019717E+01  0.31657521678E+02  0.00000000000E+00 0.  1.
         22    1    1    2    0    0  0.91762031667E+01 -0.57393969220E+02  0.31335222431E+03  0.31869717113E+03  0.00000000000E+00 0.  1.
<mgrwt>
<rscale>  0 0.20223319E+03</rscale>
<asrwt>0</asrwt>
<pdfrwt beam="1">  1        2 0.70849752E-01 0.20223319E+03</pdfrwt>
<pdfrwt beam="2">  1       -2 0.34157009E-02 0.20223319E+03</pdfrwt>
<totfact> 0.23100712E+04</totfact>
</mgrwt>
</event>
<event>
 6    1  0.6091287E-004  0.3524123E+04  0.7818608E-02  0.8108097E-01
         -2   -1    0    0    0  501 -0.00000000000E+00  0.00000000000E+00  0.11307521315E+04  0.11307521315E+04  0.00000000000E+00 0. -1.
          2   -1    0    0  501    0  0.00000000000E+00 -0.00000000000E+00 -0.27458360884E+04  0.27458360884E+04  0.00000000000E+00 0.  1.
         23    2    1    2    0    0 -0.37319189288E+03 -0.15081712711E+04 -0.17197162542E+04  0.23194110658E+04  0.91601993300E+02 0.  0.
         11    1    3    3    0    0 -0.56405932599E+02 -0.37695422027E+03 -0.44602704293E+03  0.58669944302E+03  0.00000000000E+00 0. -1.
        -11    1    3    3    0    0 -0.31678596028E+03 -0.11312170508E+04 -0.12736892113E+04  0.17327116228E+04  0.00000000000E+00 0.  1.
         22    1    1    2    0    0  0.37319189288E+03  0.15081712711E+04  0.10463229726E+03  0.15571771542E+04  0.00000000000E+00 0. -1.
<mgrwt>
<rscale>  0 0.35241226E+04</rscale>
<asrwt>0</asrwt>
<pdfrwt beam="1">  1        2 0.42243632E+00 0.35241226E+04</pdfrwt>
<pdfrwt beam="2">  1       -2 0.17396187E+00 0.35241226E+04</pdfrwt>
<totfact> 0.40837660E-01</totfact>
</mgrwt>
</event>
<event>
 6    1  0.6091287E-004  0.2190837E+04  0.7818608E-02  0.8522252E-01
         -2   -1    0    0    0  501 -0.00000000000E+00  0.00000000000E+00  0.90027714441E+03  0.90027714441E+03  0.00000000000E+00 0. -1.
          2   -1    0    0  501    0  0.00000000000E+00 -0.00000000000E+00 -0.13328582426E+04  0.13328582426E+04  0.00000000000E+00 0.  1.
         23    2    1    2    0    0  0.35778505143E+03 -0.77670804781E+03  0.47787524337E+03  0.98404920725E+03  0.93287509958E+02 0.  0.
         13    1    3    3    0    0  0.80234230252E+02 -0.22480624781E+03  0.92812287955E+02  0.25610447390E+03  0.00000000000E+00 0. -1.
        -13    1    3    3    0    0  0.27755082118E+03 -0.55190180000E+03  0.38506295542E+03  0.72794473335E+03  0.00000000000E+00 0.  1.
         22    1    1    2    0    0 -0.35778505143E+03  0.77670804781E+03 -0.91045634154E+03  0.12490861797E+04  0.00000000000E+00 0.  1.
<mgrwt>
<rscale>  0 0.21908371E+04</rscale>
<asrwt>0</asrwt>
<pdfrwt beam="1">  1        2 0.20505511E+00 0.21908371E+04</pdfrwt>
<pdfrwt beam="2">  1       -2 0.13850418E+00 0.21908371E+04</pdfrwt>
<totfact> 0.53451246E+00</totfact>
</mgrwt>
</event>
<event>
 6    1  0.6091287E-004  0.4038255E+04  0.7818608E-02  0.7996874E-01
         -2   -1    0    0    0  501 -0.00000000000E+00  0.00000000000E+00  0.16534963009E+04  0.16534963009E+04  0.00000000000E+00 0. -1.
          2   -1    0    0  501    0  0.00000000000E+00 -0.00000000000E+00 -0.24656090231E+04  0.24656090231E+04  0.00000000000E+00 0.  1.
         23    2    1    2    0    0  0.73463101262E+03  0.14682635108E+04 -0.16032778861E+04  0.22966282244E+04  0.92307959176E+02 0.  0.
         13    1    3    3    0    0  0.60176833857E+03  0.12733199128E+04 -0.13636923626E+04  0.19603891434E+04  0.00000000000E+00 0. -1.
        -13    1    3    3    0    0  0.13286267405E+03  0.19494359798E+03 -0.23958552348E+03  0.33623908103E+03  0.00000000000E+00 0.  1.
         22    1    1    2    0    0 -0.73463101262E+03 -0.14682635108E+04  0.79116516388E+03  0.18224770995E+04  0.00000000000E+00 0. -1.
<mgrwt>
<rscale>  0 0.40382548E+04</rscale>
<asrwt>0</asrwt>
<pdfrwt beam="1">  1        2 0.37932446E+00 0.40382548E+04</pdfrwt>
<pdfrwt beam="2">  1       -2 0.25438405E+00 0.40382548E+04</pdfrwt>
<totfact> 0.17310646E-01</totfact>
</mgrwt>
</event>
<event>
 6    1  0.6091287E-004  0.1788631E+04  0.7818608E-02  0.8712369E-01
         -2   -1    0    0    0  501 -0.00000000000E+00  0.00000000000E+00  0.42992875253E+03  0.42992875253E+03  0.00000000000E+00 0.  1.
          2   -1    0    0  501    0  0.00000000000E+00 -0.00000000000E+00 -0.18603097087E+04  0.18603097087E+04  0.00000000000E+00 0. -1.
         23    2    1    2    0    0  0.81563737199E+03  0.25218114027E+02 -0.11786614665E+04  0.14362695055E+04  0.87903150839E+02 0.  0.
         11    1    3    3    0    0  0.60120697493E+03  0.34522764259E+02 -0.92807291607E+03  0.11063277026E+04  0.00000000000E+00 0.  1.
        -11    1    3    3    0    0  0.21443039706E+03 -0.93046502317E+01 -0.25058855042E+03  0.32994180290E+03  0.00000000000E+00 0. -1.
         22    1    1    2    0    0 -0.81563737199E+03 -0.25218114027E+02 -0.25171948965E+03  0.85396895572E+03  0.00000000000E+00 0.  1.
<mgrwt>
<rscale>  0 0.17886315E+04</rscale>
<asrwt>0</asrwt>
<pdfrwt beam="1">  1        2 0.28620150E+00 0.17886315E+04</pdfrwt>
<pdfrwt beam="2">  1       -2 0.66142884E-01 0.17886315E+04</pdfrwt>
<totfact> 0.15870469E+01</totfact>
</mgrwt>
</event>
<event>
 6    1  0.6091287E-004  0.2245544E+04  0.7818608E-02  0.8499707E-01
         -2   -1    0    0    0  501 -0.00000000000E+00  0.00000000000E+00  0.94226393736E+03  0.94226393736E+03  0.00000000000E+00 0. -1.
          2   -1    0    0  501    0  0.00000000000E+00 -0.00000000000E+00 -0.13378598186E+04  0.13378598186E+04  0.00000000000E+00 0.  1.
         23    2    1    2    0    0 -0.35798420901E+03 -0.22684453733E+03  0.85549398703E+03  0.95920097376E+03  0.92657477877E+02 0.  0.
         13    1    3    3    0    0 -0.13325070914E+03 -0.10569385075E+03  0.25309793614E+03  0.30493525026E+03  0.00000000000E+00 0.  1.
        -13    1    3    3    0    0 -0.22473349987E+03 -0.12115068658E+03  0.60239605089E+03  0.65426572350E+03  0.00000000000E+00 0. -1.
         22    1    1    2    0    0  0.35798420901E+03  0.22684453733E+03 -0.12510898682E+04  0.13209227822E+04  0.00000000000E+00 0.  1.
<mgrwt>
<rscale>  0 0.22455441E+04</rscale>
<asrwt>0</asrwt>
<pdfrwt beam="1">  1        2 0.20582459E+00 0.22455441E+04</pdfrwt>
<pdfrwt beam="2">  1       -2 0.14496368E+00 0.22455441E+04</pdfrwt>
<totfact> 0.46928709E+00</totfact>
</mgrwt>
</event>
<event>
 6    1  0.6091287E-004  0.5335099E+04  0.7818608E-02  0.7778796E-01
          2   -1    0    0  501    0  0.00000000000E+00  0.00000000000E+00  0.16436427210E+04  0.16436427210E+04  0.00000000000E+00 0.  1.
         -2   -1    0    0    0  501 -0.00000000000E+00 -0.00000000000E+00 -0.43292986386E+04  0.43292986386E+04  0.00000000000E+00 0. -1.
         23    2    1    2    0    0 -0.25455006480E+04  0.26630958620E+03 -0.21818941535E+04  0.33644417411E+04  0.91169003998E+02 0.  0.
         13    1    3    3    0    0 -0.11988325694E+04  0.14511413246E+03 -0.97544292082E+03  0.15523358311E+04  0.00000000000E+00 0.  1.
        -13    1    3    3    0    0 -0.13466680786E+04  0.12119545374E+03 -0.12064512327E+04  0.18121059099E+04  0.00000000000E+00 0. -1.
         22    1    1    2    0    0  0.25455006480E+04 -0.26630958620E+03 -0.50376176411E+03  0.26084996185E+04  0.00000000000E+00 0.  1.
<mgrwt>
<rscale>  0 0.53350989E+04</rscale>
<asrwt>0</asrwt>
<pdfrwt beam="1">  1        2 0.25286811E+00 0.53350989E+04</pdfrwt>
<pdfrwt beam="2">  1       -2 0.66604594E+00 0.53350989E+04</pdfrwt>
<totfact> 0.22509092E-03</totfact>
</mgrwt>
</event>
<event>
 6    1  0.6091287E-004  0.3290706E+04  0.7818608E-02  0.8165264E-01
         -2   -1    0    0    0  501 -0.00000000000E+00  0.00000000000E+00  0.83994983053E+03  0.83994983053E+03  0.00000000000E+00 0. -1.
          2   -1    0    0  501    0  0.00000000000E+00 -0.00000000000E+00 -0.32230335411E+04  0.32230335411E+04  0.00000000000E+00 0.  1.
         23    2    1    2    0    0 -0.49168450544E+03  0.11611641979E+04 -0.24950139821E+04  0.27970511724E+04  0.91348470077E+02 0.  0.
         11    1    3    3    0    0 -0.13605823614E+03  0.26627173388E+03 -0.66521933866E+03  0.72933479857E+03  0.00000000000E+00 0.  1.
        -11    1    3    3    0    0 -0.35562626930E+03  0.89489246403E+03 -0.18297946434E+04  0.20677163738E+04  0.00000000000E+00 0. -1.
         22    1    1    2    0    0  0.49168450544E+03 -0.11611641979E+04  0.11193027149E+03  0.12659321992E+04  0.00000000000E+00 0. -1.
<mgrwt>
<rscale>  0 0.32907060E+04</rscale>
<asrwt>0</asrwt>
<pdfrwt beam="1">  1        2 0.49585132E+00 0.32907060E+04</pdfrwt>
<pdfrwt beam="2">  1       -2 0.12922305E+00 0.32907060E+04</pdfrwt>
<totfact> 0.46114762E-01</totfact>
</mgrwt>
</event>
<event>
 6    1  0.6091287E-004  0.4543624E+04  0.7818608E-02  0.7903044E-01
          2   -1    0    0  501    0  0.00000000000E+00  0.00000000000E+00  0.33735995413E+04  0.33735995413E+04  0.00000000000E+00 0.  1.
         -2   -1    0    0    0  501 -0.00000000000E+00 -0.00000000000E+00 -0.15298587136E+04  0.15298587136E+04  0.00000000000E+00 0. -1.
         23    2    1    2    0    0 -0.61844343504E+03  0.34166296647E+03  0.32513344330E+04  0.33284898034E+04  0.91994081670E+02 0.  0.
         11    1    3    3    0    0 -0.36835291599E+03  0.15466234881E+03  0.18992720646E+04  0.19408345340E+04  0.00000000000E+00 0. -1.
        -11    1    3    3    0    0 -0.25009051905E+03  0.18700061766E+03  0.13520623684E+04  0.13876552695E+04  0.00000000000E+00 0.  1.
         22    1    1    2    0    0  0.61844343504E+03 -0.34166296647E+03 -0.14075936054E+04  0.15749684514E+04  0.00000000000E+00 0. -1.
<mgrwt>
<rscale>  0 0.45436244E+04</rscale>
<asrwt>0</asrwt>
<pdfrwt beam="1">  1        2 0.51901531E+00 0.45436244E+04</pdfrwt>
<pdfrwt beam="2">  1       -2 0.23536288E+00 0.45436244E+04</pdfrwt>
<totfact> 0.59301671E-02</totfact>
</mgrwt>
</event>
<event>
 6    1  0.6091287E-004  0.2335645E+04  0.7818608E-02  0.8463998E-01
          2   -1    0    0  501    0  0.00000000000E+00  0.00000000000E+00  0.99368724463E+03  0.99368724463E+03  0.00000000000E+00 0.  1.
         -2   -1    0    0    0  501 -0.00000000000E+00 -0.00000000000E+00 -0.13724734955E+04  0.13724734955E+04  0.00000000000E+00 0. -1.
         23    2    1    2    0    0 -0.19703231157E+03  0.10698586406E+04  0.23550445607E+03  0.11168520051E+04  0.92069591930E+02 0.  0.
         11    1    3    3    0    0 -0.47979098361E+02  0.33190902359E+03  0.31415582016E+02  0.33682715540E+03  0.00000000000E+00 0. -1.
        -11    1    3    3    0    0 -0.14905321321E+03  0.73794961705E+03  0.20408887405E+03  0.78002484972E+03  0.00000000000E+00 0.  1.
         22    1    1    2    0    0  0.19703231157E+03 -0.10698586406E+04 -0.61429070695E+03  0.12493087350E+04  0.00000000000E+00 0. -1.
<mgrwt>
<rscale>  0 0.23356450E+04</rscale>
<asrwt>0</asrwt>
<pdfrwt beam="1">  1        2 0.15287496E+00 0.23356450E+04</pdfrwt>
<pdfrwt beam="2">  1       -2 0.21114977E+00 0.23356450E+04</pdfrwt>
<totfact> 0.25868280E+00</totfact>
</mgrwt>
</event>
<event>
 6    1  0.6091287E-004  0.3952985E+04  0.7818608E-02  0.8014099E-01
         -2   -1    0    0    0  501 -0.00000000000E+00  0.00000000000E+00  0.12354265503E+04  0.12354265503E+04  0.00000000000E+00 0. -1.
          2   -1    0    0  501    0  0.00000000000E+00 -0.00000000000E+00 -0.31620847141E+04  0.31620847141E+04  0.00000000000E+00 0.  1.
         23    2    1    2    0    0  0.21503767010E+03  0.39307340201E+03 -0.31041887375E+04  0.31376199393E+04  0.89012730939E+02 0.  0.
         13    1    3    3    0    0  0.90854652199E+02  0.22173704565E+03 -0.14023689948E+04  0.14226948664E+04  0.00000000000E+00 0. -1.
        -13    1    3    3    0    0  0.12418301790E+03  0.17133635636E+03 -0.17018197428E+04  0.17149250730E+04  0.00000000000E+00 0.  1.
         22    1    1    2    0    0 -0.21503767010E+03 -0.39307340201E+03  0.11775305738E+04  0.12598913251E+04  0.00000000000E+00 0. -1.
<mgrwt>
<rscale>  0 0.39529854E+04</rscale>
<asrwt>0</asrwt>
<pdfrwt beam="1">  1        2 0.48647456E+00 0.39529854E+04</pdfrwt>
<pdfrwt beam="2">  1       -2 0.19006563E+00 0.39529854E+04</pdfrwt>
<totfact> 0.16813966E-01</totfact>
</mgrwt>
</event>
<event>
 6    1  0.6091287E-004  0.3036488E+04  0.7818608E-02  0.8233388E-01
         -2   -1    0    0    0  501 -0.00000000000E+00  0.00000000000E+00  0.11654007755E+04  0.11654007755E+04  0.00000000000E+00 0. -1.
          2   -1    0    0  501    0  0.00000000000E+00 -0.00000000000E+00 -0.19779158035E+04  0.19779158035E+04  0.00000000000E+00 0.  1.
         23    2    1    2    0    0 -0.58557326737E+03  0.41207718597E+03 -0.17908945211E+04  0.19309098440E+04  0.91684137648E+02 0.  0.
         13    1    3    3    0    0 -0.41133815216E+03  0.24332060794E+03 -0.11300024774E+04  0.12269105886E+04  0.00000000000E+00 0. -1.
        -13    1    3    3    0    0 -0.17423511522E+03  0.16875657803E+03 -0.66089204375E+03  0.70399925532E+03  0.00000000000E+00 0.  1.
         22    1    1    2    0    0  0.58557326737E+03 -0.41207718597E+03  0.97837949315E+03  0.12124067351E+04  0.00000000000E+00 0. -1.
<mgrwt>
<rscale>  0 0.30364878E+04</rscale>
<asrwt>0</asrwt>
<pdfrwt beam="1">  1        2 0.30429474E+00 0.30364878E+04</pdfrwt>
<pdfrwt beam="2">  1       -2 0.17929243E+00 0.30364878E+04</pdfrwt>
<totfact> 0.10757887E+00</totfact>
</mgrwt>
</event>
<event>
 6    1  0.6091287E-004  0.2232994E+04  0.7818608E-02  0.8504819E-01
         -2   -1    0    0    0  501 -0.00000000000E+00  0.00000000000E+00  0.58814160869E+03  0.58814160869E+03  0.00000000000E+00 0. -1.
          2   -1    0    0  501    0  0.00000000000E+00 -0.00000000000E+00 -0.21194991380E+04  0.21194991380E+04  0.00000000000E+00 0.  1.
         23    2    1    2    0    0 -0.12193960712E+03  0.62693722850E+03  0.34088081661E+03  0.72946078012E+03  0.89407730802E+02 0.  0.
         13    1    3    3    0    0 -0.12492713774E+03  0.45639990930E+03  0.23095730428E+03  0.52654434130E+03  0.00000000000E+00 0.  1.
        -13    1    3    3    0    0  0.29875306152E+01  0.17053731920E+03  0.10992351233E+03  0.20291643882E+03  0.00000000000E+00 0. -1.
         22    1    1    2    0    0  0.12193960712E+03 -0.62693722850E+03 -0.18722383460E+04  0.19781799666E+04  0.00000000000E+00 0.  1.
<mgrwt>
<rscale>  0 0.22329941E+04</rscale>
<asrwt>0</asrwt>
<pdfrwt beam="1">  1        2 0.32607679E+00 0.22329941E+04</pdfrwt>
<pdfrwt beam="2">  1       -2 0.90483324E-01 0.22329941E+04</pdfrwt>
<totfact> 0.54515795E+00</totfact>
</mgrwt>
</event>
<event>
 6    1  0.6091287E-004  0.1171073E+04  0.7818608E-02  0.9138560E-01
         -2   -1    0    0    0  501 -0.00000000000E+00  0.00000000000E+00  0.13842956722E+04  0.13842956722E+04  0.00000000000E+00 0. -1.
          2   -1    0    0  501    0  0.00000000000E+00 -0.00000000000E+00 -0.24767323678E+03  0.24767323678E+03  0.00000000000E+00 0.  1.
         23    2    1    2    0    0 -0.12491986061E+03 -0.13243904584E+03  0.13411844573E+04  0.13581246225E+04  0.11216804027E+03 0.  0.
         11    1    3    3    0    0 -0.45369552324E+02 -0.12385065373E+03  0.74361489890E+03  0.75522215180E+03  0.00000000000E+00 0.  1.
        -11    1    3    3    0    0 -0.79550308290E+02 -0.85883921094E+01  0.59756955838E+03  0.60290247066E+03  0.00000000000E+00 0. -1.
         22    1    1    2    0    0  0.12491986061E+03  0.13243904584E+03 -0.20456202189E+03  0.27384428648E+03  0.00000000000E+00 0.  1.
<mgrwt>
<rscale>  0 0.11710730E+04</rscale>
<asrwt>0</asrwt>
<pdfrwt beam="1">  1        2 0.38103576E-01 0.11710730E+04</pdfrwt>
<pdfrwt beam="2">  1       -2 0.21296856E+00 0.11710730E+04</pdfrwt>
<totfact> 0.14737525E+01</totfact>
</mgrwt>
</event>
<event>
 6    1  0.6091287E-004  0.4380751E+04  0.7818608E-02  0.7931853E-01
          2   -1    0    0  501    0  0.00000000000E+00  0.00000000000E+00  0.25702966554E+04  0.25702966554E+04  0.00000000000E+00 0.  1.
         -2   -1    0    0    0  501 -0.00000000000E+00 -0.00000000000E+00 -0.18666112618E+04  0.18666112618E+04  0.00000000000E+00 0. -1.
         23    2    1    2    0    0  0.37921353275E+03 -0.18996100746E+04 -0.68202426881E+03  0.20552041977E+04  0.79911526723E+02 0.  0.
         11    1    3    3    0    0  0.85534001368E+02 -0.59677864215E+03 -0.22998552709E+03  0.64525510908E+03  0.00000000000E+00 0. -1.
        -11    1    3    3    0    0  0.29367953138E+03 -0.13028314325E+04 -0.45203874173E+03  0.14099490886E+04  0.00000000000E+00 0.  1.
         22    1    1    2    0    0 -0.37921353275E+03  0.18996100746E+04  0.13857096624E+04  0.23817037195E+04  0.00000000000E+00 0.  1.
<mgrwt>
<rscale>  0 0.43807509E+04</rscale>
<asrwt>0</asrwt>
<pdfrwt beam="1">  1        2 0.39543025E+00 0.43807509E+04</pdfrwt>
<pdfrwt beam="2">  1       -2 0.28717096E+00 0.43807509E+04</pdfrwt>
<totfact> 0.92272011E-02</totfact>
</mgrwt>
</event>
<event>
 6    1  0.6091287E-004  0.3134652E+04  0.7818608E-02  0.8206292E-01
         -2   -1    0    0    0  501 -0.00000000000E+00  0.00000000000E+00  0.79222941947E+03  0.79222941947E+03  0.00000000000E+00 0. -1.
          2   -1    0    0  501    0  0.00000000000E+00 -0.00000000000E+00 -0.31007558873E+04  0.31007558873E+04  0.00000000000E+00 0.  1.
         23    2    1    2    0    0  0.64979825166E+03  0.14099941835E+04 -0.14095609891E+04  0.20989785349E+04  0.92343611387E+02 0.  0.
         11    1    3    3    0    0  0.50300742828E+03  0.11717392628E+04 -0.11404956483E+04  0.17107658216E+04  0.00000000000E+00 0.  1.
        -11    1    3    3    0    0  0.14679082338E+03  0.23825492078E+03 -0.26906534089E+03  0.38821271331E+03  0.00000000000E+00 0. -1.
         22    1    1    2    0    0 -0.64979825166E+03 -0.14099941835E+04 -0.89896547867E+03  0.17940067718E+04  0.00000000000E+00 0.  1.
<mgrwt>
<rscale>  0 0.31346515E+04</rscale>
<asrwt>0</asrwt>
<pdfrwt beam="1">  1        2 0.47703937E+00 0.31346515E+04</pdfrwt>
<pdfrwt beam="2">  1       -2 0.12188145E+00 0.31346515E+04</pdfrwt>
<totfact> 0.64953792E-01</totfact>
</mgrwt>
</event>
<event>
 6    1  0.6091287E-004  0.1352829E+04  0.7818608E-02  0.8988690E-01
          2   -1    0    0  501    0  0.00000000000E+00  0.00000000000E+00  0.15544080300E+04  0.15544080300E+04  0.00000000000E+00 0.  1.
         -2   -1    0    0    0  501 -0.00000000000E+00 -0.00000000000E+00 -0.29434767674E+03  0.29434767674E+03  0.00000000000E+00 0. -1.
         23    2    1    2    0    0  0.22189539400E+03  0.11145436133E+03 -0.22229187384E+03  0.34574946399E+03  0.92029202620E+02 0.  0.
         11    1    3    3    0    0  0.16413673406E+03  0.97313839780E+02 -0.21230111983E+03  0.28545160073E+03  0.00000000000E+00 0. -1.
        -11    1    3    3    0    0  0.57758659941E+02  0.14140521548E+02 -0.99907540177E+01  0.60297863260E+02  0.00000000000E+00 0.  1.
         22    1    1    2    0    0 -0.22189539400E+03 -0.11145436133E+03  0.14823522271E+04  0.15030062428E+04  0.00000000000E+00 0.  1.
<mgrwt>
<rscale>  0 0.13528287E+04</rscale>
<asrwt>0</asrwt>
<pdfrwt beam="1">  1        2 0.23913969E+00 0.13528287E+04</pdfrwt>
<pdfrwt beam="2">  1       -2 0.45284259E-01 0.13528287E+04</pdfrwt>
<totfact> 0.53404175E+01</totfact>
</mgrwt>
</event>
<event>
 6    1  0.6091287E-004  0.6223604E+03  0.7818608E-02  0.9860071E-01
         -2   -1    0    0    0  501 -0.00000000000E+00  0.00000000000E+00  0.61151607372E+02  0.61151607372E+02  0.00000000000E+00 0. -1.
          2   -1    0    0  501    0  0.00000000000E+00 -0.00000000000E+00 -0.15834923849E+04  0.15834923849E+04  0.00000000000E+00 0.  1.
         23    2    1    2    0    0  0.22162620620E+03  0.12214284664E+03 -0.33022931254E+03  0.42596979659E+03  0.91442979429E+02 0.  0.
         11    1    3    3    0    0  0.19675020158E+03  0.10883476400E+03 -0.32800271722E+03  0.39767000161E+03  0.00000000000E+00 0. -1.
        -11    1    3    3    0    0  0.24876004623E+02  0.13308082638E+02 -0.22265953252E+01  0.28299794986E+02  0.00000000000E+00 0.  1.
         22    1    1    2    0    0 -0.22162620620E+03 -0.12214284664E+03 -0.11921114650E+04  0.12186741957E+04  0.00000000000E+00 0.  1.
<mgrwt>
<rscale>  0 0.62236036E+03</rscale>
<asrwt>0</asrwt>
<pdfrwt beam="1">  1        2 0.24361422E+00 0.62236036E+03</pdfrwt>
<pdfrwt beam="2">  1       -2 0.94079395E-02 0.62236036E+03</pdfrwt>
<totfact> 0.88082333E+02</totfact>
</mgrwt>
</event>
<event>
 6    1  0.6091287E-004  0.2086233E+04  0.7818608E-02  0.8567332E-01
         -2   -1    0    0    0  501 -0.00000000000E+00  0.00000000000E+00  0.31711917834E+03  0.31711917834E+03  0.00000000000E+00 0. -1.
          2   -1    0    0  501    0  0.00000000000E+00 -0.00000000000E+00 -0.34311764512E+04  0.34311764512E+04  0.00000000000E+00 0.  1.
         23    2    1    2    0    0 -0.89380732404E+03  0.44802628653E+03 -0.20817184639E+04  0.23111656763E+04  0.91191745812E+02 0.  0.
         13    1    3    3    0    0 -0.76141324939E+03  0.41634287026E+03 -0.18042571910E+04  0.20021077727E+04  0.00000000000E+00 0. -1.
        -13    1    3    3    0    0 -0.13239407464E+03  0.31683416270E+02 -0.27746127288E+03  0.30905790366E+03  0.00000000000E+00 0.  1.
         22    1    1    2    0    0  0.89380732404E+03 -0.44802628653E+03 -0.10323388089E+04  0.14371299532E+04  0.00000000000E+00 0. -1.
<mgrwt>
<rscale>  0 0.20862328E+04</rscale>
<asrwt>0</asrwt>
<pdfrwt beam="1">  1        2 0.52787330E+00 0.20862328E+04</pdfrwt>
<pdfrwt beam="2">  1       -2 0.48787566E-01 0.20862328E+04</pdfrwt>
<totfact> 0.33452735E+00</totfact>
</mgrwt>
</event>
<event>
 6    1  0.6091287E-004  0.1742632E+04  0.7818608E-02  0.8737416E-01
          2   -1    0    0  501    0  0.00000000000E+00  0.00000000000E+00  0.38833503477E+03  0.38833503477E+03  0.00000000000E+00 0.  1.
         -2   -1    0    0    0  501 -0.00000000000E+00 -0.00000000000E+00 -0.19549916479E+04  0.19549916479E+04  0.00000000000E+00 0. -1.
         23    2    1    2    0    0  0.51801451898E+02 -0.23050451709E+03 -0.19102959550E+04  0.19263090331E+04  0.74967543521E+02 0.  0.
         13    1    3    3    0    0  0.67264790628E+02 -0.14969070271E+03 -0.13675874215E+04  0.13773987128E+04  0.00000000000E+00 0.  1.
        -13    1    3    3    0    0 -0.15463338729E+02 -0.80813814376E+02 -0.54270853344E+03  0.54891032028E+03  0.00000000000E+00 0. -1.
         22    1    1    2    0    0 -0.51801451898E+02  0.23050451709E+03  0.34363934183E+03  0.41701764959E+03  0.00000000000E+00 0.  1.
<mgrwt>
<rscale>  0 0.17426322E+04</rscale>
<asrwt>0</asrwt>
<pdfrwt beam="1">  1        2 0.59743850E-01 0.17426322E+04</pdfrwt>
<pdfrwt beam="2">  1       -2 0.30076795E+00 0.17426322E+04</pdfrwt>
<totfact> 0.24566716E+00</totfact>
</mgrwt>
</event>
<event>
 6    1  0.6091287E-004  0.3162366E+04  0.7818608E-02  0.8198827E-01
         -2   -1    0    0    0  501 -0.00000000000E+00  0.00000000000E+00  0.14164757185E+04  0.14164757185E+04  0.00000000000E+00 0. -1.
          2   -1    0    0  501    0  0.00000000000E+00 -0.00000000000E+00 -0.17650427434E+04  0.17650427434E+04  0.00000000000E+00 0.  1.
         23    2    1    2    0    0  0.10067615718E+04  0.81441875503E+03 -0.10851633729E+04  0.16917463482E+04  0.87059689871E+02 0.  0.
         13    1    3    3    0    0  0.54921621465E+03  0.44176542871E+03 -0.53397985804E+03  0.88426785152E+03  0.00000000000E+00 0.  1.
        -13    1    3    3    0    0  0.45754535713E+03  0.37265332632E+03 -0.55118351488E+03  0.80747849664E+03  0.00000000000E+00 0. -1.
         22    1    1    2    0    0 -0.10067615718E+04 -0.81441875503E+03  0.73659634802E+03  0.14897721137E+04  0.00000000000E+00 0. -1.
<mgrwt>
<rscale>  0 0.31623663E+04</rscale>
<asrwt>0</asrwt>
<pdfrwt beam="1">  1        2 0.27154504E+00 0.31623663E+04</pdfrwt>
<pdfrwt beam="2">  1       -2 0.21791934E+00 0.31623663E+04</pdfrwt>
<totfact> 0.77663381E-01</totfact>
</mgrwt>
</event>
<event>
 6    1  0.6091287E-004  0.9417083E+03  0.7818608E-02  0.9374895E-01
         -2   -1    0    0    0  501 -0.00000000000E+00  0.00000000000E+00  0.84385536793E+02  0.84385536793E+02  0.00000000000E+00 0. -1.
          2   -1    0    0  501    0  0.00000000000E+00 -0.00000000000E+00 -0.26272705774E+04  0.26272705774E+04  0.00000000000E+00 0.  1.
         23    2    1    2    0    0  0.27872862597E+03  0.29352283285E+03 -0.19501766121E+04  0.19939175953E+04  0.93130327825E+02 0.  0.
         11    1    3    3    0    0  0.77966706285E+02  0.90666489900E+02 -0.39254655895E+03  0.41035596819E+03  0.00000000000E+00 0.  1.
        -11    1    3    3    0    0  0.20076191968E+03  0.20285634295E+03 -0.15576300532E+04  0.15835616271E+04  0.00000000000E+00 0. -1.
         22    1    1    2    0    0 -0.27872862597E+03 -0.29352283285E+03 -0.59270842848E+03  0.71773851891E+03  0.00000000000E+00 0. -1.
<mgrwt>
<rscale>  0 0.94170832E+03</rscale>
<asrwt>0</asrwt>
<pdfrwt beam="1">  1        2 0.40419548E+00 0.94170832E+03</pdfrwt>
<pdfrwt beam="2">  1       -2 0.12982390E-01 0.94170832E+03</pdfrwt>
<totfact> 0.13386218E+02</totfact>
</mgrwt>
</event>
<event>
 6    1  0.6091287E-004  0.2726992E+04  0.7818608E-02  0.8326300E-01
         -2   -1    0    0    0  501 -0.00000000000E+00  0.00000000000E+00  0.90126878754E+03  0.90126878754E+03  0.00000000000E+00 0. -1.
          2   -1    0    0  501    0  0.00000000000E+00 -0.00000000000E+00 -0.20627829573E+04  0.20627829573E+04  0.00000000000E+00 0.  1.
         23    2    1    2    0    0 -0.44839463727E+03 -0.91723504239E+02 -0.19756051545E+04  0.20301271851E+04  0.94497138588E+02 0.  0.
         13    1    3    3    0    0 -0.20224347539E+03 -0.69304205684E+02 -0.10848703631E+04  0.11057346883E+04  0.00000000000E+00 0. -1.
        -13    1    3    3    0    0 -0.24615116188E+03 -0.22419298555E+02 -0.89073479137E+03  0.92439249672E+03  0.00000000000E+00 0.  1.
         22    1    1    2    0    0  0.44839463727E+03  0.91723504239E+02  0.81409098471E+03  0.93392455977E+03  0.00000000000E+00 0. -1.
<mgrwt>
<rscale>  0 0.27269924E+04</rscale>
<asrwt>0</asrwt>
<pdfrwt beam="1">  1        2 0.31735122E+00 0.27269924E+04</pdfrwt>
<pdfrwt beam="2">  1       -2 0.13865674E+00 0.27269924E+04</pdfrwt>
<totfact> 0.19871391E+00</totfact>
</mgrwt>
</event>
<event>
 6    1  0.6091287E-004  0.4463076E+03  0.7818608E-02  0.1028829E+00
         -2   -1    0    0    0  501 -0.00000000000E+00  0.00000000000E+00  0.18139720215E+03  0.18139720215E+03  0.00000000000E+00 0. -1.
          2   -1    0    0  501    0  0.00000000000E+00 -0.00000000000E+00 -0.27452252526E+03  0.27452252526E+03  0.00000000000E+00 0.  1.
         23    2    1    2    0    0 -0.41994466398E+02 -0.67516370142E+02  0.15423118625E+03  0.19609817677E+03  0.91352288838E+02 0.  0.
         13    1    3    3    0    0 -0.43907514369E+02  0.55833108320E+01  0.82729453632E+02  0.93825399953E+02  0.00000000000E+00 0. -1.
        -13    1    3    3    0    0  0.19130479717E+01 -0.73099680974E+02  0.71501732621E+02  0.10227277682E+03  0.00000000000E+00 0.  1.
         22    1    1    2    0    0  0.41994466398E+02  0.67516370142E+02 -0.24735650936E+03  0.25982155063E+03  0.00000000000E+00 0.  1.
<mgrwt>
<rscale>  0 0.44630760E+03</rscale>
<asrwt>0</asrwt>
<pdfrwt beam="1">  1        2 0.42234235E-01 0.44630760E+03</pdfrwt>
<pdfrwt beam="2">  1       -2 0.27907262E-01 0.44630760E+03</pdfrwt>
<totfact> 0.14150617E+03</totfact>
</mgrwt>
</event>
<event>
 6    1  0.6091287E-004  0.1419588E+04  0.7818608E-02  0.8939760E-01
          2   -1    0    0  501    0  0.00000000000E+00  0.00000000000E+00  0.41203937065E+04  0.41203937065E+04  0.00000000000E+00 0.  1.
         -2   -1    0    0    0  501 -0.00000000000E+00 -0.00000000000E+00 -0.12227176000E+03  0.12227176000E+03  0.00000000000E+00 0. -1.
         23    2    1    2    0    0 -0.30943012379E+03 -0.46174778256E+03  0.33118778019E+04  0.33595521996E+04  0.95385484763E+02 0.  0.
         13    1    3    3    0    0 -0.56866125884E+02 -0.15122368421E+03  0.10900125353E+04  0.11019209073E+04  0.00000000000E+00 0. -1.
        -13    1    3    3    0    0 -0.25256399790E+03 -0.31052409835E+03  0.22218652667E+04  0.22576312923E+04  0.00000000000E+00 0.  1.
         22    1    1    2    0    0  0.30943012379E+03  0.46174778256E+03  0.68624414455E+03  0.88311326688E+03  0.00000000000E+00 0. -1.
<mgrwt>
<rscale>  0 0.14195884E+04</rscale>
<asrwt>0</asrwt>
<pdfrwt beam="1">  1        2 0.63390662E+00 0.14195884E+04</pdfrwt>
<pdfrwt beam="2">  1       -2 0.18811043E-01 0.14195884E+04</pdfrwt>
<totfact> 0.64854062E+00</totfact>
</mgrwt>
</event>
<event>
 6    1  0.6091287E-004  0.3244391E+04  0.7818608E-02  0.8177191E-01
         -2   -1    0    0    0  501 -0.00000000000E+00  0.00000000000E+00  0.87708235161E+03  0.87708235161E+03  0.00000000000E+00 0. -1.
          2   -1    0    0  501    0  0.00000000000E+00 -0.00000000000E+00 -0.30003093765E+04  0.30003093765E+04  0.00000000000E+00 0.  1.
         23    2    1    2    0    0  0.14909202096E+04 -0.63496666438E+03 -0.10203144136E+04  0.19171769530E+04  0.92196692329E+02 0.  0.
         11    1    3    3    0    0  0.11521891206E+04 -0.44924924577E+03 -0.78831801382E+03  0.14665639929E+04  0.00000000000E+00 0. -1.
        -11    1    3    3    0    0  0.33873108904E+03 -0.18571741861E+03 -0.23199639978E+03  0.45061296006E+03  0.00000000000E+00 0.  1.
         22    1    1    2    0    0 -0.14909202096E+04  0.63496666438E+03 -0.11029126113E+04  0.19602147751E+04  0.00000000000E+00 0.  1.
<mgrwt>
<rscale>  0 0.32443911E+04</rscale>
<asrwt>0</asrwt>
<pdfrwt beam="1">  1        2 0.46158606E+00 0.32443911E+04</pdfrwt>
<pdfrwt beam="2">  1       -2 0.13493575E+00 0.32443911E+04</pdfrwt>
<totfact> 0.57633808E-01</totfact>
</mgrwt>
</event>
<event>
 6    1  0.6091287E-004  0.5783517E+04  0.7818608E-02  0.7717838E-01
          2   -1    0    0  501    0  0.00000000000E+00  0.00000000000E+00  0.32620724745E+04  0.32620724745E+04  0.00000000000E+00 0.  1.
         -2   -1    0    0    0  501 -0.00000000000E+00 -0.00000000000E+00 -0.25634829360E+04  0.25634829360E+04  0.00000000000E+00 0. -1.
         23    2    1    2    0    0 -0.29850013954E+03 -0.22767926863E+04 -0.14199772995E+04  0.27012614557E+04  0.87124344146E+02 0.  0.
         11    1    3    3    0    0 -0.12941691771E+03 -0.10175353561E+04 -0.68510318092E+03  0.12334882683E+04  0.00000000000E+00 0. -1.
        -11    1    3    3    0    0 -0.16908322183E+03 -0.12592573301E+04 -0.73487411854E+03  0.14677731874E+04  0.00000000000E+00 0.  1.
         22    1    1    2    0    0  0.29850013954E+03  0.22767926863E+04  0.21185668379E+04  0.31242939549E+04  0.00000000000E+00 0.  1.
<mgrwt>
<rscale>  0 0.57835170E+04</rscale>
<asrwt>0</asrwt>
<pdfrwt beam="1">  1        2 0.50185730E+00 0.57835170E+04</pdfrwt>
<pdfrwt beam="2">  1       -2 0.39438199E+00 0.57835170E+04</pdfrwt>
<totfact> 0.65245685E-03</totfact>
</mgrwt>
</event>
<event>
 6    1  0.6091287E-004  0.2651304E+04  0.7818608E-02  0.8350980E-01
         -1   -1    0    0    0  501 -0.00000000000E+00  0.00000000000E+00  0.89469846797E+03  0.89469846797E+03  0.00000000000E+00 0. -1.
          1   -1    0    0  501    0  0.00000000000E+00 -0.00000000000E+00 -0.19641846019E+04  0.19641846019E+04  0.00000000000E+00 0.  1.
         23    2    1    2    0    0 -0.11613425311E+03 -0.99516218843E+03 -0.14688849120E+04  0.17802940240E+04  0.89381100471E+02 0.  0.
         13    1    3    3    0    0 -0.13378990638E+02 -0.49216831217E+03 -0.70311345610E+03  0.85835725490E+03  0.00000000000E+00 0.  1.
        -13    1    3    3    0    0 -0.10275526248E+03 -0.50299387626E+03 -0.76577145594E+03  0.92193676912E+03  0.00000000000E+00 0. -1.
         22    1    1    2    0    0  0.11613425311E+03  0.99516218843E+03  0.39939877807E+03  0.10785890459E+04  0.00000000000E+00 0. -1.
<mgrwt>
<rscale>  0 0.26513038E+04</rscale>
<asrwt>0</asrwt>
<pdfrwt beam="1">  1        1 0.30218224E+00 0.26513038E+04</pdfrwt>
<pdfrwt beam="2">  1       -1 0.13764592E+00 0.26513038E+04</pdfrwt>
<totfact> 0.12105698E+00</totfact>
</mgrwt>
</event>
<event>
 6    1  0.6091287E-004  0.2363863E+04  0.7818608E-02  0.8453158E-01
          2   -1    0    0  501    0  0.00000000000E+00  0.00000000000E+00  0.39107289823E+04  0.39107289823E+04  0.00000000000E+00 0.  1.
         -2   -1    0    0    0  501 -0.00000000000E+00 -0.00000000000E+00 -0.35721268220E+03  0.35721268220E+03  0.00000000000E+00 0. -1.
         23    2    1    2    0    0 -0.10586465961E+04  0.51703186056E+03  0.16609690562E+04  0.20386391658E+04  0.95796046037E+02 0.  0.
         13    1    3    3    0    0 -0.31393035629E+03  0.13585452849E+03  0.55399888967E+03  0.65109407251E+03  0.00000000000E+00 0.  1.
        -13    1    3    3    0    0 -0.74471623982E+03  0.38117733207E+03  0.11069701665E+04  0.13875450933E+04  0.00000000000E+00 0. -1.
         22    1    1    2    0    0  0.10586465961E+04 -0.51703186056E+03  0.18925472439E+04  0.22293024987E+04  0.00000000000E+00 0. -1.
<mgrwt>
<rscale>  0 0.23638629E+04</rscale>
<asrwt>0</asrwt>
<pdfrwt beam="1">  1        2 0.60165058E+00 0.23638629E+04</pdfrwt>
<pdfrwt beam="2">  1       -2 0.54955800E-01 0.23638629E+04</pdfrwt>
<totfact> 0.11373973E+00</totfact>
</mgrwt>
</event>
<event>
 6    1  0.6091287E-004  0.1519226E+04  0.7818608E-02  0.8871768E-01
          2   -1    0    0  501    0  0.00000000000E+00  0.00000000000E+00  0.93881398541E+03  0.93881398541E+03  0.00000000000E+00 0.  1.
         -2   -1    0    0    0  501 -0.00000000000E+00 -0.00000000000E+00 -0.61461784012E+03  0.61461784012E+03  0.00000000000E+00 0. -1.
         23    2    1    2    0    0 -0.58745823030E+03  0.33834262149E+03  0.50680137757E+03  0.85134381629E+03  0.91409821016E+02 0.  0.
         13    1    3    3    0    0 -0.12350992801E+03  0.94135819109E+02  0.76687257083E+02  0.17319696925E+03  0.00000000000E+00 0.  1.
        -13    1    3    3    0    0 -0.46394830229E+03  0.24420680238E+03  0.43011412048E+03  0.67814684705E+03  0.00000000000E+00 0. -1.
         22    1    1    2    0    0  0.58745823030E+03 -0.33834262149E+03 -0.18260523227E+03  0.70208800924E+03  0.00000000000E+00 0. -1.
<mgrwt>
<rscale>  0 0.15192259E+04</rscale>
<asrwt>0</asrwt>
<pdfrwt beam="1">  1        2 0.14443292E+00 0.15192259E+04</pdfrwt>
<pdfrwt beam="2">  1       -2 0.94556591E-01 0.15192259E+04</pdfrwt>
<totfact> 0.25111829E+01</totfact>
</mgrwt>
</event>
<event>
 6    1  0.6091287E-004  0.1805075E+04  0.7818608E-02  0.8703605E-01
         -2   -1    0    0    0  501 -0.00000000000E+00  0.00000000000E+00  0.42993177989E+03  0.42993177989E+03  0.00000000000E+00 0. -1.
          2   -1    0    0  501    0  0.00000000000E+00 -0.00000000000E+00 -0.18946588724E+04  0.18946588724E+04  0.00000000000E+00 0.  1.
         23    2    1    2    0    0 -0.55784971332E+02 -0.68638235471E+03 -0.14809728212E+04  0.16357534992E+04  0.90422967053E+02 0.  0.
         13    1    3    3    0    0 -0.10784148946E+02 -0.55054096145E+03 -0.12064300020E+04  0.13261542134E+04  0.00000000000E+00 0.  1.
        -13    1    3    3    0    0 -0.45000822385E+02 -0.13584139326E+03 -0.27454281921E+03  0.30959928572E+03  0.00000000000E+00 0. -1.
         22    1    1    2    0    0  0.55784971332E+02  0.68638235471E+03  0.16245728662E+02  0.68883715317E+03  0.00000000000E+00 0. -1.
<mgrwt>
<rscale>  0 0.18050751E+04</rscale>
<asrwt>0</asrwt>
<pdfrwt beam="1">  1        2 0.29148598E+00 0.18050751E+04</pdfrwt>
<pdfrwt beam="2">  1       -2 0.66143351E-01 0.18050751E+04</pdfrwt>
<totfact> 0.15168771E+01</totfact>
</mgrwt>
</event>
<event>
 6    1  0.6091287E-004  0.7654343E+03  0.7818608E-02  0.9611443E-01
         -2   -1    0    0    0  501 -0.00000000000E+00  0.00000000000E+00  0.19374230319E+03  0.19374230319E+03  0.00000000000E+00 0. -1.
          2   -1    0    0  501    0  0.00000000000E+00 -0.00000000000E+00 -0.75601679151E+03  0.75601679151E+03  0.00000000000E+00 0.  1.
         23    2    1    2    0    0  0.25288029623E+03  0.24701832240E+03 -0.44927834378E+03  0.57863293758E+03  0.89434615447E+02 0.  0.
         11    1    3    3    0    0  0.52027928201E+02  0.10898754970E+03 -0.15713844591E+03  0.19818597954E+03  0.00000000000E+00 0. -1.
        -11    1    3    3    0    0  0.20085236803E+03  0.13803077269E+03 -0.29213989787E+03  0.38044695804E+03  0.00000000000E+00 0.  1.
         22    1    1    2    0    0 -0.25288029623E+03 -0.24701832240E+03 -0.11299614454E+03  0.37112615713E+03  0.00000000000E+00 0.  1.
<mgrwt>
<rscale>  0 0.76543435E+03</rscale>
<asrwt>0</asrwt>
<pdfrwt beam="1">  1        2 0.11631028E+00 0.76543435E+03</pdfrwt>
<pdfrwt beam="2">  1       -2 0.29806508E-01 0.76543435E+03</pdfrwt>
<totfact> 0.38713398E+02</totfact>
</mgrwt>
</event>
<event>
 6    1  0.7261820E-004  0.3578016E+04  0.7818608E-02  0.8095546E-01
         -2   -1    0    0    0  501 -0.00000000000E+00  0.00000000000E+00  0.14021179474E+04  0.14021179474E+04  0.00000000000E+00 0. -1.
          2   -1    0    0  501    0  0.00000000000E+00 -0.00000000000E+00 -0.22826537729E+04  0.22826537729E+04  0.00000000000E+00 0.  1.
         23    2    1    2    0    0 -0.40168147272E+03 -0.10227480476E+04  0.10119096749E+04  0.14964592321E+04  0.89819088239E+02 0.  0.
         11    1    3    3    0    0 -0.28256357090E+03 -0.65015828927E+03  0.69862096429E+03  0.99529856046E+03  0.00000000000E+00 0. -1.
        -11    1    3    3    0    0 -0.11911790183E+03 -0.37258975834E+03  0.31328871062E+03  0.50116067160E+03  0.00000000000E+00 0.  1.
         22    1    1    2    0    0  0.40168147272E+03  0.10227480476E+04 -0.18924455003E+04  0.21883124882E+04  0.00000000000E+00 0.  1.
<mgrwt>
<rscale>  0 0.35780161E+04</rscale>
<asrwt>0</asrwt>
<pdfrwt beam="1">  1        2 0.35117750E+00 0.35780161E+04</pdfrwt>
<pdfrwt beam="2">  1       -2 0.21571046E+00 0.35780161E+04</pdfrwt>
<totfact> 0.39851835E-01</totfact>
</mgrwt>
</event>
<event>
 6    1  0.6091287E-004  0.5937252E+04  0.7818608E-02  0.7698231E-01
          2   -1    0    0  501    0  0.00000000000E+00  0.00000000000E+00  0.35836570497E+04  0.35836570497E+04  0.00000000000E+00 0.  1.
         -2   -1    0    0    0  501 -0.00000000000E+00 -0.00000000000E+00 -0.24591473493E+04  0.24591473493E+04  0.00000000000E+00 0. -1.
         23    2    1    2    0    0 -0.79791076381E+03 -0.10860116323E+04  0.32537464409E+04  0.35229369521E+04  0.90199857275E+02 0.  0.
         11    1    3    3    0    0 -0.32303147614E+03 -0.50652306764E+03  0.15030160342E+04  0.16186328033E+04  0.00000000000E+00 0. -1.
        -11    1    3    3    0    0 -0.47487928767E+03 -0.57948856464E+03  0.17507304067E+04  0.19043041488E+04  0.00000000000E+00 0.  1.
         22    1    1    2    0    0  0.79791076381E+03  0.10860116323E+04 -0.21292367405E+04  0.25198674469E+04  0.00000000000E+00 0. -1.
<mgrwt>
<rscale>  0 0.59372521E+04</rscale>
<asrwt>0</asrwt>
<pdfrwt beam="1">  1        2 0.55133185E+00 0.59372521E+04</pdfrwt>
<pdfrwt beam="2">  1       -2 0.37833036E+00 0.59372521E+04</pdfrwt>
<totfact> 0.49142778E-03</totfact>
</mgrwt>
</event>
<event>
 6    1  0.9002922E-004  0.4461163E+04  0.7818608E-02  0.7917471E-01
         -2   -1    0    0    0  501 -0.00000000000E+00  0.00000000000E+00  0.26848559245E+04  0.26848559245E+04  0.00000000000E+00 0.  1.
          2   -1    0    0  501    0  0.00000000000E+00 -0.00000000000E+00 -0.18531699908E+04  0.18531699908E+04  0.00000000000E+00 0. -1.
         23    2    1    2    0    0 -0.20266442752E+04 -0.92175363448E+03  0.53894578876E+03  0.22924494696E+04  0.89136001391E+02 0.  0.
         13    1    3    3    0    0 -0.58179451502E+03 -0.29136060266E+03  0.19092055407E+03  0.67810509249E+03  0.00000000000E+00 0. -1.
        -13    1    3    3    0    0 -0.14448497602E+04 -0.63039303181E+03  0.34802523469E+03  0.16143443771E+04  0.00000000000E+00 0.  1.
         22    1    1    2    0    0  0.20266442752E+04  0.92175363448E+03  0.29274014491E+03  0.22455764457E+04  0.00000000000E+00 0.  1.
<mgrwt>
<rscale>  0 0.44611633E+04</rscale>
<asrwt>0</asrwt>
<pdfrwt beam="1">  1        2 0.28510307E+00 0.44611633E+04</pdfrwt>
<pdfrwt beam="2">  1       -2 0.41305476E+00 0.44611633E+04</pdfrwt>
<totfact> 0.37345657E-02</totfact>
</mgrwt>
</event>
<event>
 6    1  0.6091287E-004  0.1472606E+04  0.7818608E-02  0.8902877E-01
         -2   -1    0    0    0  501 -0.00000000000E+00  0.00000000000E+00  0.24976905045E+03  0.24976905045E+03  0.00000000000E+00 0. -1.
          2   -1    0    0  501    0  0.00000000000E+00 -0.00000000000E+00 -0.21705729106E+04  0.21705729106E+04  0.00000000000E+00 0.  1.
         23    2    1    2    0    0  0.67573263096E+03  0.17202014609E+03 -0.58959265977E+03  0.91756826576E+03  0.90036096544E+02 0.  0.
         11    1    3    3    0    0  0.37729167821E+03  0.59784246434E+02 -0.28485530236E+03  0.47651412345E+03  0.00000000000E+00 0. -1.
        -11    1    3    3    0    0  0.29844095275E+03  0.11223589966E+03 -0.30473735740E+03  0.44105414231E+03  0.00000000000E+00 0.  1.
         22    1    1    2    0    0 -0.67573263096E+03 -0.17202014609E+03 -0.13312112004E+04  0.15027736953E+04  0.00000000000E+00 0.  1.
<mgrwt>
<rscale>  0 0.14726058E+04</rscale>
<asrwt>0</asrwt>
<pdfrwt beam="1">  1        2 0.33393429E+00 0.14726058E+04</pdfrwt>
<pdfrwt beam="2">  1       -2 0.38426009E-01 0.14726058E+04</pdfrwt>
<totfact> 0.33257702E+01</totfact>
</mgrwt>
</event>
<event>
 6    1  0.6091287E-004  0.2609976E+04  0.7818608E-02  0.8364820E-01
          2   -1    0    0  501    0  0.00000000000E+00  0.00000000000E+00  0.23162043387E+04  0.23162043387E+04  0.00000000000E+00 0.  1.
         -2   -1    0    0    0  501 -0.00000000000E+00 -0.00000000000E+00 -0.73525197203E+03  0.73525197203E+03  0.00000000000E+00 0. -1.
         23    2    1    2    0    0 -0.72964994482E+03 -0.10727635577E+04  0.64512552750E+03  0.14517742906E+04  0.90834750128E+02 0.  0.
         11    1    3    3    0    0 -0.52251302033E+03 -0.69321851372E+03  0.42265738310E+03  0.96551075999E+03  0.00000000000E+00 0.  1.
        -11    1    3    3    0    0 -0.20713692449E+03 -0.37954504397E+03  0.22246814440E+03  0.48626353057E+03  0.00000000000E+00 0. -1.
         22    1    1    2    0    0  0.72964994482E+03  0.10727635577E+04  0.93582683915E+03  0.15996820201E+04  0.00000000000E+00 0.  1.
<mgrwt>
<rscale>  0 0.26099761E+04</rscale>
<asrwt>0</asrwt>
<pdfrwt beam="1">  1        2 0.35633913E+00 0.26099761E+04</pdfrwt>
<pdfrwt beam="2">  1       -2 0.11311569E+00 0.26099761E+04</pdfrwt>
<totfact> 0.24078997E+00</totfact>
</mgrwt>
</event>
<event>
 6    1  0.6091287E-004  0.3286406E+04  0.7818608E-02  0.8166363E-01
          2   -1    0    0  501    0  0.00000000000E+00  0.00000000000E+00  0.22865177557E+04  0.22865177557E+04  0.00000000000E+00 0.  1.
         -2   -1    0    0    0  501 -0.00000000000E+00 -0.00000000000E+00 -0.11808858223E+04  0.11808858223E+04  0.00000000000E+00 0. -1.
         23    2    1    2    0    0 -0.57870641784E+03  0.15159859452E+04  0.28875014565E+03  0.16507004214E+04  0.91218039130E+02 0.  0.
         13    1    3    3    0    0 -0.43860303326E+03  0.12388667907E+04  0.24978853061E+03  0.13377435688E+04  0.00000000000E+00 0. -1.
        -13    1    3    3    0    0 -0.14010338459E+03  0.27711915447E+03  0.38961615040E+02  0.31295685260E+03  0.00000000000E+00 0.  1.
         22    1    1    2    0    0  0.57870641784E+03 -0.15159859452E+04  0.81688178770E+03  0.18167031566E+04  0.00000000000E+00 0. -1.
<mgrwt>
<rscale>  0 0.32864062E+04</rscale>
<asrwt>0</asrwt>
<pdfrwt beam="1">  1        2 0.35177196E+00 0.32864062E+04</pdfrwt>
<pdfrwt beam="2">  1       -2 0.18167474E+00 0.32864062E+04</pdfrwt>
<totfact> 0.68118884E-01</totfact>
</mgrwt>
</event>
<event>
 6    1  0.6091287E-004  0.2325477E+04  0.7818608E-02  0.8467943E-01
         -2   -1    0    0    0  501 -0.00000000000E+00  0.00000000000E+00  0.58010839510E+03  0.58010839510E+03  0.00000000000E+00 0. -1.
          2   -1    0    0  501    0  0.00000000000E+00 -0.00000000000E+00 -0.23305310439E+04  0.23305310439E+04  0.00000000000E+00 0.  1.
         23    2    1    2    0    0  0.11641360963E+03  0.53986103183E+03 -0.21548465101E+04  0.22261244853E+04  0.85233089140E+02 0.  0.
         13    1    3    3    0    0  0.32613841902E+02  0.34228709898E+03 -0.12875550626E+04  0.13326748141E+04  0.00000000000E+00 0.  1.
        -13    1    3    3    0    0  0.83799767732E+02  0.19757393285E+03 -0.86729144749E+03  0.89344967117E+03  0.00000000000E+00 0. -1.
         22    1    1    2    0    0 -0.11641360963E+03 -0.53986103183E+03  0.40442386137E+03  0.68451495370E+03  0.00000000000E+00 0. -1.
<mgrwt>
<rscale>  0 0.23254768E+04</rscale>
<asrwt>0</asrwt>
<pdfrwt beam="1">  1        2 0.35854324E+00 0.23254768E+04</pdfrwt>
<pdfrwt beam="2">  1       -2 0.89247446E-01 0.23254768E+04</pdfrwt>
<totfact> 0.42457985E+00</totfact>
</mgrwt>
</event>
<event>
 6    1  0.6091287E-004  0.1192364E+04  0.7818608E-02  0.9119566E-01
         -2   -1    0    0    0  501 -0.00000000000E+00  0.00000000000E+00  0.12565138708E+03  0.12565138708E+03  0.00000000000E+00 0. -1.
          2   -1    0    0  501    0  0.00000000000E+00 -0.00000000000E+00 -0.28287253074E+04  0.28287253074E+04  0.00000000000E+00 0.  1.
         23    2    1    2    0    0 -0.21470338813E+03 -0.89897269234E+02 -0.27105145238E+04  0.27214938345E+04  0.73896166529E+02 0.  0.
         11    1    3    3    0    0 -0.92806108888E+02 -0.21192270413E+01 -0.11676055089E+04  0.11712899254E+04  0.00000000000E+00 0. -1.
        -11    1    3    3    0    0 -0.12189727924E+03 -0.87778042192E+02 -0.15429090150E+04  0.15502039091E+04  0.00000000000E+00 0.  1.
         22    1    1    2    0    0  0.21470338813E+03  0.89897269234E+02  0.74406035257E+01  0.23288285998E+03  0.00000000000E+00 0. -1.
<mgrwt>
<rscale>  0 0.11923645E+04</rscale>
<asrwt>0</asrwt>
<pdfrwt beam="1">  1        2 0.43518851E+00 0.11923645E+04</pdfrwt>
<pdfrwt beam="2">  1       -2 0.19330983E-01 0.11923645E+04</pdfrwt>
<totfact> 0.50343821E+01</totfact>
</mgrwt>
</event>
<event>
 6    1  0.6091287E-004  0.3408909E+04  0.7818608E-02  0.8135723E-01
         -2   -1    0    0    0  501 -0.00000000000E+00  0.00000000000E+00  0.80462460131E+03  0.80462460131E+03  0.00000000000E+00 0. -1.
          2   -1    0    0  501    0  0.00000000000E+00 -0.00000000000E+00 -0.36105845850E+04  0.36105845850E+04  0.00000000000E+00 0.  1.
         23    2    1    2    0    0 -0.86580629607E+03  0.44175205928E+03  0.40771218978E+03  0.10577616048E+04  0.88684602309E+02 0.  0.
         13    1    3    3    0    0 -0.14274370641E+03  0.81883140063E+02  0.10512795793E+03  0.19527545131E+03  0.00000000000E+00 0. -1.
        -13    1    3    3    0    0 -0.72306258966E+03  0.35986891921E+03  0.30258423185E+03  0.86248615348E+03  0.00000000000E+00 0.  1.
         22    1    1    2    0    0  0.86580629607E+03 -0.44175205928E+03 -0.32136721735E+04  0.33574475815E+04  0.00000000000E+00 0.  1.
<mgrwt>
<rscale>  0 0.34089090E+04</rscale>
<asrwt>0</asrwt>
<pdfrwt beam="1">  1        2 0.55547457E+00 0.34089090E+04</pdfrwt>
<pdfrwt beam="2">  1       -2 0.12378840E+00 0.34089090E+04</pdfrwt>
<totfact> 0.27545902E-01</totfact>
</mgrwt>
</event>
<event>
 6    1  0.6091287E-004  0.4014206E+04  0.7818608E-02  0.8001687E-01
         -2   -1    0    0    0  501 -0.00000000000E+00  0.00000000000E+00  0.21640906874E+04  0.21640906874E+04  0.00000000000E+00 0. -1.
          2   -1    0    0  501    0  0.00000000000E+00 -0.00000000000E+00 -0.18615034547E+04  0.18615034547E+04  0.00000000000E+00 0.  1.
         23    2    1    2    0    0  0.83904449420E+03 -0.75213562864E+03  0.18158958793E+04  0.21388491336E+04  0.86568496612E+02 0.  0.
         13    1    3    3    0    0  0.29747592207E+03 -0.31809997598E+03  0.73358293693E+03  0.85312569079E+03  0.00000000000E+00 0. -1.
        -13    1    3    3    0    0  0.54156857213E+03 -0.43403565266E+03  0.10823129424E+04  0.12857234428E+04  0.00000000000E+00 0.  1.
         22    1    1    2    0    0 -0.83904449420E+03  0.75213562864E+03 -0.15133086467E+04  0.18867450085E+04  0.00000000000E+00 0.  1.
<mgrwt>
<rscale>  0 0.40142059E+04</rscale>
<asrwt>0</asrwt>
<pdfrwt beam="1">  1        2 0.28638514E+00 0.40142059E+04</pdfrwt>
<pdfrwt beam="2">  1       -2 0.33293703E+00 0.40142059E+04</pdfrwt>
<totfact> 0.12507870E-01</totfact>
</mgrwt>
</event>
<event>
 6    1  0.6091287E-004  0.1968949E+04  0.7818608E-02  0.8621277E-01
         -2   -1    0    0    0  501 -0.00000000000E+00  0.00000000000E+00  0.44824420058E+03  0.44824420058E+03  0.00000000000E+00 0. -1.
          2   -1    0    0  501    0  0.00000000000E+00 -0.00000000000E+00 -0.21621911604E+04  0.21621911604E+04  0.00000000000E+00 0.  1.
         23    2    1    2    0    0 -0.28394843424E+02  0.84008437452E+03 -0.15327222172E+04  0.17505572122E+04  0.93086704767E+02 0.  0.
         11    1    3    3    0    0 -0.55139756662E+02  0.32079576509E+03 -0.60985884425E+03  0.69128729597E+03  0.00000000000E+00 0.  1.
        -11    1    3    3    0    0  0.26744913238E+02  0.51928860943E+03 -0.92286337298E+03  0.10592699162E+04  0.00000000000E+00 0. -1.
         22    1    1    2    0    0  0.28394843424E+02 -0.84008437452E+03 -0.18122474262E+03  0.85987814880E+03  0.00000000000E+00 0. -1.
<mgrwt>
<rscale>  0 0.19689486E+04</rscale>
<asrwt>0</asrwt>
<pdfrwt beam="1">  1        2 0.33264479E+00 0.19689486E+04</pdfrwt>
<pdfrwt beam="2">  1       -2 0.68960647E-01 0.19689486E+04</pdfrwt>
<totfact> 0.97008832E+00</totfact>
</mgrwt>
</event>
<event>
 6    1  0.6091287E-004  0.1448769E+04  0.7818608E-02  0.8919255E-01
         -2   -1    0    0    0  501 -0.00000000000E+00  0.00000000000E+00  0.13109979026E+03  0.13109979026E+03  0.00000000000E+00 0. -1.
          2   -1    0    0  501    0  0.00000000000E+00 -0.00000000000E+00 -0.40025433298E+04  0.40025433298E+04  0.00000000000E+00 0.  1.
         23    2    1    2    0    0 -0.68273741626E+03  0.13131860099E+03 -0.13916169644E+04  0.15581985376E+04  0.89498337924E+02 0.  0.
         11    1    3    3    0    0 -0.18822692479E+03  0.77035349777E+02 -0.41737454733E+03  0.46429013891E+03  0.00000000000E+00 0. -1.
        -11    1    3    3    0    0 -0.49451049147E+03  0.54283251213E+02 -0.97424241709E+03  0.10939083987E+04  0.00000000000E+00 0.  1.
         22    1    1    2    0    0  0.68273741626E+03 -0.13131860099E+03 -0.24798265751E+04  0.25754445824E+04  0.00000000000E+00 0. -1.
<mgrwt>
<rscale>  0 0.14487686E+04</rscale>
<asrwt>0</asrwt>
<pdfrwt beam="1">  1        2 0.61577595E+00 0.14487686E+04</pdfrwt>
<pdfrwt beam="2">  1       -2 0.20169197E-01 0.14487686E+04</pdfrwt>
<totfact> 0.71382924E+00</totfact>
</mgrwt>
</event>
<event>
 6    1  0.6091287E-004  0.2030768E+04  0.7818608E-02  0.8592369E-01
         -2   -1    0    0    0  501 -0.00000000000E+00  0.00000000000E+00  0.15770799224E+04  0.15770799224E+04  0.00000000000E+00 0. -1.
          2   -1    0    0  501    0  0.00000000000E+00 -0.00000000000E+00 -0.65374283408E+03  0.65374283408E+03  0.00000000000E+00 0.  1.
         23    2    1    2    0    0 -0.55447840274E+03 -0.66224017104E+03  0.10448420537E+04  0.13586004225E+04  0.89954697570E+02 0.  0.
         13    1    3    3    0    0 -0.70356466536E+02 -0.94612836924E+02  0.99073635696E+02  0.15400391743E+03  0.00000000000E+00 0. -1.
        -13    1    3    3    0    0 -0.48412193620E+03 -0.56762733412E+03  0.94576841799E+03  0.12045965051E+04  0.00000000000E+00 0.  1.
         22    1    1    2    0    0  0.55447840274E+03  0.66224017104E+03 -0.12150496538E+03  0.87222233396E+03  0.00000000000E+00 0.  1.
<mgrwt>
<rscale>  0 0.20307680E+04</rscale>
<asrwt>0</asrwt>
<pdfrwt beam="1">  1        2 0.10057582E+00 0.20307680E+04</pdfrwt>
<pdfrwt beam="2">  1       -2 0.24262768E+00 0.20307680E+04</pdfrwt>
<totfact> 0.29512187E+00</totfact>
</mgrwt>
</event>
<event>
 6    1  0.6091287E-004  0.4077531E+04  0.7818608E-02  0.7989086E-01
          2   -1    0    0  501    0  0.00000000000E+00  0.00000000000E+00  0.14363325055E+04  0.14363325055E+04  0.00000000000E+00 0.  1.
         -2   -1    0    0    0  501 -0.00000000000E+00 -0.00000000000E+00 -0.28938741669E+04  0.28938741669E+04  0.00000000000E+00 0. -1.
         23    2    1    2    0    0 -0.15004442013E+04 -0.11080249761E+04  0.14182694092E+03  0.18731694169E+04  0.97962412879E+02 0.  0.
         11    1    3    3    0    0 -0.88455850189E+03 -0.61560428740E+03  0.11975617535E+03  0.10843218726E+04  0.00000000000E+00 0.  1.
        -11    1    3    3    0    0 -0.61588569939E+03 -0.49242068865E+03  0.22070765567E+02  0.78884754422E+03  0.00000000000E+00 0. -1.
         22    1    1    2    0    0  0.15004442013E+04  0.11080249761E+04 -0.15993686023E+04  0.24570372555E+04  0.00000000000E+00 0. -1.
<mgrwt>
<rscale>  0 0.40775314E+04</rscale>
<asrwt>0</asrwt>
<pdfrwt beam="1">  1        2 0.22097424E+00 0.40775314E+04</pdfrwt>
<pdfrwt beam="2">  1       -2 0.44521140E+00 0.40775314E+04</pdfrwt>
<totfact> 0.40380500E-02</totfact>
</mgrwt>
</event>
<event>
 6    1  0.6091287E-004  0.4596919E+04  0.7818608E-02  0.7893886E-01
          2   -1    0    0  501    0  0.00000000000E+00  0.00000000000E+00  0.26152332712E+04  0.26152332712E+04  0.00000000000E+00 0.  1.
         -2   -1    0    0    0  501 -0.00000000000E+00 -0.00000000000E+00 -0.20200549788E+04  0.20200549788E+04  0.00000000000E+00 0. -1.
         23    2    1    2    0    0 -0.82854170768E+03 -0.17316255708E+04 -0.97482181377E+03  0.21553872817E+04  0.10202101265E+03 0.  0.
         11    1    3    3    0    0 -0.51035833515E+03 -0.95014754805E+03 -0.55360890111E+03  0.12123237227E+04  0.00000000000E+00 0. -1.
        -11    1    3    3    0    0 -0.31818337253E+03 -0.78147802271E+03 -0.42121291266E+03  0.94306355901E+03  0.00000000000E+00 0.  1.
         22    1    1    2    0    0  0.82854170768E+03  0.17316255708E+04  0.15700001062E+04  0.24799009682E+04  0.00000000000E+00 0.  1.
<mgrwt>
<rscale>  0 0.45969185E+04</rscale>
<asrwt>0</asrwt>
<pdfrwt beam="1">  1        2 0.40234358E+00 0.45969185E+04</pdfrwt>
<pdfrwt beam="2">  1       -2 0.31077769E+00 0.45969185E+04</pdfrwt>
<totfact> 0.61165817E-02</totfact>
</mgrwt>
</event>
<event>
 6    1  0.6091287E-004  0.2451770E+04  0.7818608E-02  0.8420372E-01
          2   -1    0    0  501    0  0.00000000000E+00  0.00000000000E+00  0.19636161442E+04  0.19636161442E+04  0.00000000000E+00 0.  1.
         -2   -1    0    0    0  501 -0.00000000000E+00 -0.00000000000E+00 -0.76531943635E+03  0.76531943635E+03  0.00000000000E+00 0. -1.
         23    2    1    2    0    0  0.10702985874E+04  0.53617264918E+03  0.88533288880E+03  0.14916132588E+04  0.89864420642E+02 0.  0.
         11    1    3    3    0    0  0.20770925456E+03  0.14490256277E+03  0.18359264729E+03  0.31280368807E+03  0.00000000000E+00 0. -1.
        -11    1    3    3    0    0  0.86258933280E+03  0.39127008641E+03  0.70174024151E+03  0.11788095708E+04  0.00000000000E+00 0.  1.
         22    1    1    2    0    0 -0.10702985874E+04 -0.53617264918E+03  0.31296381907E+03  0.12373223217E+04  0.00000000000E+00 0. -1.
<mgrwt>
<rscale>  0 0.24517696E+04</rscale>
<asrwt>0</asrwt>
<pdfrwt beam="1">  1        2 0.30209479E+00 0.24517696E+04</pdfrwt>
<pdfrwt beam="2">  1       -2 0.11774145E+00 0.24517696E+04</pdfrwt>
<totfact> 0.34886498E+00</totfact>
</mgrwt>
</event>
<event>
 6    1  0.6091287E-004  0.3500590E+04  0.7818608E-02  0.8113650E-01
         -2   -1    0    0    0  501 -0.00000000000E+00  0.00000000000E+00  0.11483610215E+04  0.11483610215E+04  0.00000000000E+00 0. -1.
          2   -1    0    0  501    0  0.00000000000E+00 -0.00000000000E+00 -0.26677428584E+04  0.26677428584E+04  0.00000000000E+00 0.  1.
         23    2    1    2    0    0  0.28437746210E+03 -0.28241491472E+03 -0.26162503105E+04  0.26483071624E+04  0.90202074995E+02 0.  0.
         11    1    3    3    0    0  0.21581991058E+03 -0.15433593332E+03 -0.16496175309E+04  0.16708189047E+04  0.00000000000E+00 0. -1.
        -11    1    3    3    0    0  0.68557551521E+02 -0.12807898140E+03 -0.96663277959E+03  0.97748825769E+03  0.00000000000E+00 0.  1.
         22    1    1    2    0    0 -0.28437746210E+03  0.28241491472E+03  0.10968684736E+04  0.11677967175E+04  0.00000000000E+00 0. -1.
<mgrwt>
<rscale>  0 0.35005896E+04</rscale>
<asrwt>0</asrwt>
<pdfrwt beam="1">  1        2 0.41042197E+00 0.35005896E+04</pdfrwt>
<pdfrwt beam="2">  1       -2 0.17667093E+00 0.35005896E+04</pdfrwt>
<totfact> 0.43603599E-01</totfact>
</mgrwt>
</event>
<event>
 6    1  0.6091287E-004  0.4149381E+04  0.7818608E-02  0.7975071E-01
         -2   -1    0    0    0  501 -0.00000000000E+00  0.00000000000E+00  0.97650124611E+03  0.97650124611E+03  0.00000000000E+00 0. -1.
          2   -1    0    0  501    0  0.00000000000E+00 -0.00000000000E+00 -0.44079212565E+04  0.44079212565E+04  0.00000000000E+00 0.  1.
         23    2    1    2    0    0 -0.18741947803E+04  0.38533356899E+03 -0.27543203607E+04  0.33547545570E+04  0.83722483969E+02 0.  0.
         11    1    3    3    0    0 -0.12820705412E+04  0.25637808520E+03 -0.18139795061E+04  0.22360581932E+04  0.00000000000E+00 0. -1.
        -11    1    3    3    0    0 -0.59212423914E+03  0.12895548379E+03 -0.94034085462E+03  0.11186963637E+04  0.00000000000E+00 0.  1.
         22    1    1    2    0    0  0.18741947803E+04 -0.38533356899E+03 -0.67709964973E+03  0.20296679456E+04  0.00000000000E+00 0. -1.
<mgrwt>
<rscale>  0 0.41493810E+04</rscale>
<asrwt>0</asrwt>
<pdfrwt beam="1">  1        2 0.67814172E+00 0.41493810E+04</pdfrwt>
<pdfrwt beam="2">  1       -2 0.15023096E+00 0.41493810E+04</pdfrwt>
<totfact> 0.34851768E-02</totfact>
</mgrwt>
</event>
<event>
 6    1  0.6091287E-004  0.2195486E+04  0.7818608E-02  0.8520309E-01
          2   -1    0    0  501    0  0.00000000000E+00  0.00000000000E+00  0.13909234767E+04  0.13909234767E+04  0.00000000000E+00 0.  1.
         -2   -1    0    0    0  501 -0.00000000000E+00 -0.00000000000E+00 -0.86635911836E+03  0.86635911836E+03  0.00000000000E+00 0. -1.
         23    2    1    2    0    0 -0.22929311739E+03 -0.25734172716E+03 -0.80673217269E+03  0.88209149860E+03  0.92024536013E+02 0.  0.
         11    1    3    3    0    0 -0.22854314142E+03 -0.23331742711E+03 -0.69655509172E+03  0.76932306938E+03  0.00000000000E+00 0. -1.
        -11    1    3    3    0    0 -0.74997596748E+00 -0.24024300051E+02 -0.11017708097E+03  0.11276842922E+03  0.00000000000E+00 0.  1.
         22    1    1    2    0    0  0.22929311739E+03  0.25734172716E+03  0.13312965310E+04  0.13751910964E+04  0.00000000000E+00 0.  1.
<mgrwt>
<rscale>  0 0.21954856E+04</rscale>
<asrwt>0</asrwt>
<pdfrwt beam="1">  1        2 0.21398823E+00 0.21954856E+04</pdfrwt>
<pdfrwt beam="2">  1       -2 0.13328602E+00 0.21954856E+04</pdfrwt>
<totfact> 0.54592227E+00</totfact>
</mgrwt>
</event>
<event>
 6    1  0.6091287E-004  0.1597699E+04  0.7818608E-02  0.8821963E-01
          4   -1    0    0  501    0  0.00000000000E+00  0.00000000000E+00  0.58289891793E+03  0.58289891793E+03  0.00000000000E+00 0.  1.
         -4   -1    0    0    0  501 -0.00000000000E+00 -0.00000000000E+00 -0.10948051452E+04  0.10948051452E+04  0.00000000000E+00 0. -1.
         23    2    1    2    0    0  0.49036196648E+03  0.57753495240E+03  0.29571380510E+00  0.76318106845E+03  0.91890023257E+02 0.  0.
         13    1    3    3    0    0  0.20124536240E+03  0.17408529659E+03  0.16136741358E+02  0.26658165878E+03  0.00000000000E+00 0. -1.
        -13    1    3    3    0    0  0.28911660409E+03  0.40344965580E+03 -0.15841027553E+02  0.49659940966E+03  0.00000000000E+00 0.  1.
         22    1    1    2    0    0 -0.49036196648E+03 -0.57753495240E+03 -0.51220194112E+03  0.91452299474E+03  0.00000000000E+00 0. -1.
<mgrwt>
<rscale>  0 0.15976993E+04</rscale>
<asrwt>0</asrwt>
<pdfrwt beam="1">  1        4 0.89676759E-01 0.15976993E+04</pdfrwt>
<pdfrwt beam="2">  1       -4 0.16843156E+00 0.15976993E+04</pdfrwt>
<totfact> 0.44435898E-01</totfact>
</mgrwt>
</event>
<event>
 6    1  0.6091287E-004  0.1541168E+04  0.7818608E-02  0.8857529E-01
          2   -1    0    0  501    0  0.00000000000E+00  0.00000000000E+00  0.11350863868E+04  0.11350863868E+04  0.00000000000E+00 0.  1.
         -2   -1    0    0    0  501 -0.00000000000E+00 -0.00000000000E+00 -0.52313151912E+03  0.52313151912E+03  0.00000000000E+00 0. -1.
         23    2    1    2    0    0  0.63670426193E+03  0.24685580874E+03  0.68490862760E+03  0.97144839687E+03  0.91005780967E+02 0.  0.
         11    1    3    3    0    0  0.25210893972E+03  0.75227884496E+02  0.20943619679E+03  0.33627618503E+03  0.00000000000E+00 0. -1.
        -11    1    3    3    0    0  0.38459532221E+03  0.17162792425E+03  0.47547243080E+03  0.63517221184E+03  0.00000000000E+00 0.  1.
         22    1    1    2    0    0 -0.63670426193E+03 -0.24685580874E+03 -0.72953759919E+02  0.68676950904E+03  0.00000000000E+00 0. -1.
<mgrwt>
<rscale>  0 0.15411677E+04</rscale>
<asrwt>0</asrwt>
<pdfrwt beam="1">  1        2 0.17462867E+00 0.15411677E+04</pdfrwt>
<pdfrwt beam="2">  1       -2 0.80481772E-01 0.15411677E+04</pdfrwt>
<totfact> 0.27236734E+01</totfact>
</mgrwt>
</event>
<event>
 6    1  0.6091287E-004  0.4786825E+04  0.7818608E-02  0.7862260E-01
          2   -1    0    0  501    0  0.00000000000E+00  0.00000000000E+00  0.22603102071E+04  0.22603102071E+04  0.00000000000E+00 0.  1.
         -2   -1    0    0    0  501 -0.00000000000E+00 -0.00000000000E+00 -0.25343525029E+04  0.25343525029E+04  0.00000000000E+00 0. -1.
         23    2    1    2    0    0 -0.41813788794E+03  0.23536827648E+04 -0.39061065901E+02  0.23926056688E+04  0.91511031233E+02 0.  0.
         11    1    3    3    0    0 -0.29246529284E+03  0.17850817534E+04  0.13424049962E+01  0.18088821454E+04  0.00000000000E+00 0. -1.
        -11    1    3    3    0    0 -0.12567259511E+03  0.56860101145E+03 -0.40403470898E+02  0.58372352346E+03  0.00000000000E+00 0.  1.
         22    1    1    2    0    0  0.41813788794E+03 -0.23536827648E+04 -0.23498122983E+03  0.24020570412E+04  0.00000000000E+00 0.  1.
<mgrwt>
<rscale>  0 0.47868248E+04</rscale>
<asrwt>0</asrwt>
<pdfrwt beam="1">  1        2 0.34774003E+00 0.47868248E+04</pdfrwt>
<pdfrwt beam="2">  1       -2 0.38990039E+00 0.47868248E+04</pdfrwt>
<totfact> 0.30547641E-02</totfact>
</mgrwt>
</event>
<event>
 6    1  0.6091287E-004  0.1637105E+04  0.7818608E-02  0.8798072E-01
         -1   -1    0    0    0  501 -0.00000000000E+00  0.00000000000E+00  0.26420798661E+03  0.26420798661E+03  0.00000000000E+00 0. -1.
          1   -1    0    0  501    0  0.00000000000E+00 -0.00000000000E+00 -0.25359888932E+04  0.25359888932E+04  0.00000000000E+00 0.  1.
         23    2    1    2    0    0 -0.26444273401E+03 -0.32785309578E+03 -0.23348792326E+04  0.23742872524E+04  0.90339990322E+02 0.  0.
         13    1    3    3    0    0 -0.10890012976E+03 -0.86237454559E+02 -0.93049696611E+03  0.94080855692E+03  0.00000000000E+00 0. -1.
        -13    1    3    3    0    0 -0.15554260425E+03 -0.24161564122E+03 -0.14043822665E+04  0.14334786955E+04  0.00000000000E+00 0.  1.
         22    1    1    2    0    0  0.26444273401E+03  0.32785309578E+03  0.63098326043E+02  0.42590962742E+03  0.00000000000E+00 0. -1.
<mgrwt>
<rscale>  0 0.16371054E+04</rscale>
<asrwt>0</asrwt>
<pdfrwt beam="1">  1        1 0.39015214E+00 0.16371054E+04</pdfrwt>
<pdfrwt beam="2">  1       -1 0.40647383E-01 0.16371054E+04</pdfrwt>
<totfact> 0.72495546E+00</totfact>
</mgrwt>
</event>
<event>
 6    1  0.6091287E-004  0.1002381E+04  0.7818608E-02  0.9305937E-01
          2   -1    0    0  501    0  0.00000000000E+00  0.00000000000E+00  0.30539532891E+04  0.30539532891E+04  0.00000000000E+00 0.  1.
         -2   -1    0    0    0  501 -0.00000000000E+00 -0.00000000000E+00 -0.82251383899E+02  0.82251383899E+02  0.00000000000E+00 0. -1.
         23    2    1    2    0    0 -0.86827012901E+02  0.34803419018E+02  0.30254852642E+04  0.30283025977E+04  0.91133591632E+02 0.  0.
         13    1    3    3    0    0 -0.49091246212E+02 -0.27798158905E+02  0.15144124705E+04  0.15154629058E+04  0.00000000000E+00 0.  1.
        -13    1    3    3    0    0 -0.37735766689E+02  0.62601577922E+02  0.15110727937E+04  0.15128396919E+04  0.00000000000E+00 0. -1.
         22    1    1    2    0    0  0.86827012901E+02 -0.34803419018E+02 -0.53783358975E+02  0.10790207527E+03  0.00000000000E+00 0. -1.
<mgrwt>
<rscale>  0 0.10023809E+04</rscale>
<asrwt>0</asrwt>
<pdfrwt beam="1">  1        2 0.46983888E+00 0.10023809E+04</pdfrwt>
<pdfrwt beam="2">  1       -2 0.12654061E-01 0.10023809E+04</pdfrwt>
<totfact> 0.77032247E+01</totfact>
</mgrwt>
</event>
<event>
 6    1  0.6091287E-004  0.1904510E+04  0.7818608E-02  0.8652615E-01
         -2   -1    0    0    0  501 -0.00000000000E+00  0.00000000000E+00  0.80538281600E+03  0.80538281600E+03  0.00000000000E+00 0. -1.
          2   -1    0    0  501    0  0.00000000000E+00 -0.00000000000E+00 -0.11259114071E+04  0.11259114071E+04  0.00000000000E+00 0.  1.
         23    2    1    2    0    0  0.23221688876E+03 -0.48698633876E+02 -0.10934473402E+04  0.11227772888E+04  0.93303344147E+02 0.  0.
         13    1    3    3    0    0  0.22855885109E+03 -0.63265617809E+02 -0.97727838394E+03  0.10056414503E+04  0.00000000000E+00 0. -1.
        -13    1    3    3    0    0  0.36580376683E+01  0.14566983932E+02 -0.11616895630E+03  0.11713583853E+03  0.00000000000E+00 0.  1.
         22    1    1    2    0    0 -0.23221688876E+03  0.48698633876E+02  0.77291874911E+03  0.80851693432E+03  0.00000000000E+00 0. -1.
<mgrwt>
<rscale>  0 0.19045101E+04</rscale>
<asrwt>0</asrwt>
<pdfrwt beam="1">  1        2 0.17321714E+00 0.19045101E+04</pdfrwt>
<pdfrwt beam="2">  1       -2 0.12390505E+00 0.19045101E+04</pdfrwt>
<totfact> 0.96390557E+00</totfact>
</mgrwt>
</event>
<event>
 6    1  0.6091287E-004  0.2637786E+04  0.7818608E-02  0.8355478E-01
         -2   -1    0    0    0  501 -0.00000000000E+00  0.00000000000E+00  0.10989545918E+04  0.10989545918E+04  0.00000000000E+00 0. -1.
          2   -1    0    0  501    0  0.00000000000E+00 -0.00000000000E+00 -0.15828491922E+04  0.15828491922E+04  0.00000000000E+00 0.  1.
         23    2    1    2    0    0  0.12827507875E+04  0.27254357472E+03 -0.36799508193E+03  0.13653075701E+04  0.94418206208E+02 0.  0.
         11    1    3    3    0    0  0.46747184799E+03  0.92742313717E+02 -0.87291815954E+02  0.48451101799E+03  0.00000000000E+00 0.  1.
        -11    1    3    3    0    0  0.81527893948E+03  0.17980126100E+03 -0.28070326597E+03  0.88079655207E+03  0.00000000000E+00 0. -1.
         22    1    1    2    0    0 -0.12827507875E+04 -0.27254357472E+03 -0.11589951850E+03  0.13164962139E+04  0.00000000000E+00 0. -1.
<mgrwt>
<rscale>  0 0.26377865E+04</rscale>
<asrwt>0</asrwt>
<pdfrwt beam="1">  1        2 0.24351526E+00 0.26377865E+04</pdfrwt>
<pdfrwt beam="2">  1       -2 0.16906994E+00 0.26377865E+04</pdfrwt>
<totfact> 0.21761483E+00</totfact>
</mgrwt>
</event>
<event>
 6    1  0.6091287E-004  0.2286200E+04  0.7818608E-02  0.8483382E-01
         -1   -1    0    0    0  501 -0.00000000000E+00  0.00000000000E+00  0.45246161926E+03  0.45246161926E+03  0.00000000000E+00 0.  1.
          1   -1    0    0  501    0  0.00000000000E+00 -0.00000000000E+00 -0.28879315241E+04  0.28879315241E+04  0.00000000000E+00 0. -1.
         23    2    1    2    0    0 -0.11174370174E+04  0.23007336260E+03 -0.11721207218E+04  0.16381445134E+04  0.89728592633E+02 0.  0.
         13    1    3    3    0    0 -0.91833668871E+03  0.19848240461E+03 -0.91562042549E+03  0.13119063619E+04  0.00000000000E+00 0. -1.
        -13    1    3    3    0    0 -0.19910032866E+03  0.31590957989E+02 -0.25650029628E+03  0.32623815150E+03  0.00000000000E+00 0.  1.
         22    1    1    2    0    0  0.11174370174E+04 -0.23007336260E+03 -0.12633491831E+04  0.17022486300E+04  0.00000000000E+00 0. -1.
<mgrwt>
<rscale>  0 0.22862005E+04</rscale>
<asrwt>0</asrwt>
<pdfrwt beam="1">  1        1 0.44429714E+00 0.22862005E+04</pdfrwt>
<pdfrwt beam="2">  1       -1 0.69609482E-01 0.22862005E+04</pdfrwt>
<totfact> 0.13618929E+00</totfact>
</mgrwt>
</event>
<event>
 6    1  0.6091287E-004  0.1684626E+04  0.7818608E-02  0.8770182E-01
          2   -1    0    0  501    0  0.00000000000E+00  0.00000000000E+00  0.13080870088E+04  0.13080870088E+04  0.00000000000E+00 0.  1.
         -2   -1    0    0    0  501 -0.00000000000E+00 -0.00000000000E+00 -0.54238828428E+03  0.54238828428E+03  0.00000000000E+00 0. -1.
         23    2    1    2    0    0 -0.37903448941E+03 -0.57575374616E+03 -0.14271095145E+03  0.71013864991E+03  0.93653435882E+02 0.  0.
         11    1    3    3    0    0 -0.19940756157E+03 -0.23990257303E+03 -0.32504946398E+02  0.31364500904E+03  0.00000000000E+00 0.  1.
        -11    1    3    3    0    0 -0.17962692784E+03 -0.33585117313E+03 -0.11020600505E+03  0.39649364086E+03  0.00000000000E+00 0. -1.
         22    1    1    2    0    0  0.37903448941E+03  0.57575374616E+03  0.90840967600E+03  0.11403366432E+04  0.00000000000E+00 0.  1.
<mgrwt>
<rscale>  0 0.16846259E+04</rscale>
<asrwt>0</asrwt>
<pdfrwt beam="1">  1        2 0.20124415E+00 0.16846259E+04</pdfrwt>
<pdfrwt beam="2">  1       -2 0.83444352E-01 0.16846259E+04</pdfrwt>
<totfact> 0.19578821E+01</totfact>
</mgrwt>
</event>
<event>
 6    1  0.6091287E-004  0.2993032E+04  0.7818608E-02  0.8245723E-01
         -2   -1    0    0    0  501 -0.00000000000E+00  0.00000000000E+00  0.88259193867E+03  0.88259193867E+03  0.00000000000E+00 0. -1.
          2   -1    0    0  501    0  0.00000000000E+00 -0.00000000000E+00 -0.25374806855E+04  0.25374806855E+04  0.00000000000E+00 0.  1.
         23    2    1    2    0    0 -0.12121033922E+04  0.40573397270E+03 -0.17145497886E+04  0.21404734174E+04  0.90170854299E+02 0.  0.
         11    1    3    3    0    0 -0.76311734198E+03  0.30093252673E+03 -0.10920103593E+04  0.13657946727E+04  0.00000000000E+00 0.  1.
        -11    1    3    3    0    0 -0.44898605024E+03  0.10480144598E+03 -0.62253942936E+03  0.77467874470E+03  0.00000000000E+00 0. -1.
         22    1    1    2    0    0  0.12121033922E+04 -0.40573397270E+03  0.59661041791E+02  0.12795992068E+04  0.00000000000E+00 0. -1.
<mgrwt>
<rscale>  0 0.29930319E+04</rscale>
<asrwt>0</asrwt>
<pdfrwt beam="1">  1        2 0.39038163E+00 0.29930319E+04</pdfrwt>
<pdfrwt beam="2">  1       -2 0.13578338E+00 0.29930319E+04</pdfrwt>
<totfact> 0.11020000E+00</totfact>
</mgrwt>
</event>
<event>
 6    1  0.6091287E-004  0.1817783E+04  0.7818608E-02  0.8696899E-01
         -2   -1    0    0    0  501 -0.00000000000E+00  0.00000000000E+00  0.46513740988E+03  0.46513740988E+03  0.00000000000E+00 0. -1.
          2   -1    0    0  501    0  0.00000000000E+00 -0.00000000000E+00 -0.17760002802E+04  0.17760002802E+04  0.00000000000E+00 0.  1.
         23    2    1    2    0    0 -0.17601877765E+03  0.12709795237E+03 -0.17422931585E+04  0.17581588156E+04  0.91654083951E+02 0.  0.
         13    1    3    3    0    0 -0.49418866687E+02 -0.72638432786E+01 -0.44543389255E+03  0.44822576949E+03  0.00000000000E+00 0. -1.
        -13    1    3    3    0    0 -0.12659991096E+03  0.13436179565E+03 -0.12968592659E+04  0.13099330461E+04  0.00000000000E+00 0.  1.
         22    1    1    2    0    0  0.17601877765E+03 -0.12709795237E+03  0.43143028822E+03  0.48297887446E+03  0.00000000000E+00 0. -1.
<mgrwt>
<rscale>  0 0.18177835E+04</rscale>
<asrwt>0</asrwt>
<pdfrwt beam="1">  1        2 0.27323082E+00 0.18177835E+04</pdfrwt>
<pdfrwt beam="2">  1       -2 0.71559601E-01 0.18177835E+04</pdfrwt>
<totfact> 0.14856072E+01</totfact>
</mgrwt>
</event>
<event>
 6    1  0.6091287E-004  0.2104554E+04  0.7818608E-02  0.8559240E-01
         -2   -1    0    0    0  501 -0.00000000000E+00  0.00000000000E+00  0.21670598894E+04  0.21670598894E+04  0.00000000000E+00 0. -1.
          2   -1    0    0  501    0  0.00000000000E+00 -0.00000000000E+00 -0.51096287551E+03  0.51096287551E+03  0.00000000000E+00 0.  1.
         23    2    1    2    0    0 -0.26669458746E+03 -0.89609637411E+03  0.22058068449E+03  0.96489059060E+03  0.90792614220E+02 0.  0.
         13    1    3    3    0    0 -0.22226037343E+03 -0.83154735453E+03  0.20811651826E+03  0.88554116877E+03  0.00000000000E+00 0.  1.
        -13    1    3    3    0    0 -0.44434214029E+02 -0.64549019578E+02  0.12464166236E+02  0.79349421830E+02  0.00000000000E+00 0. -1.
         22    1    1    2    0    0  0.26669458746E+03  0.89609637411E+03  0.14355163294E+04  0.17131321743E+04  0.00000000000E+00 0. -1.
<mgrwt>
<rscale>  0 0.21045543E+04</rscale>
<asrwt>0</asrwt>
<pdfrwt beam="1">  1        2 0.78609675E-01 0.21045543E+04</pdfrwt>
<pdfrwt beam="2">  1       -2 0.33339382E+00 0.21045543E+04</pdfrwt>
<totfact> 0.10953048E+00</totfact>
</mgrwt>
</event>
<event>
 6    1  0.6091287E-004  0.1364884E+04  0.7818608E-02  0.8979637E-01
          2   -1    0    0  501    0  0.00000000000E+00  0.00000000000E+00  0.48703803559E+03  0.48703803559E+03  0.00000000000E+00 0.  1.
         -2   -1    0    0    0  501 -0.00000000000E+00 -0.00000000000E+00 -0.95624410708E+03  0.95624410708E+03  0.00000000000E+00 0. -1.
         23    2    1    2    0    0  0.43848364937E+03 -0.43083445173E+03  0.70514294104E+02  0.62524528006E+03  0.89850759562E+02 0.  0.
         11    1    3    3    0    0  0.19770719062E+03 -0.13311827878E+03  0.29249972742E+02  0.24013365086E+03  0.00000000000E+00 0.  1.
        -11    1    3    3    0    0  0.24077645875E+03 -0.29771617296E+03  0.41264321362E+02  0.38511162920E+03  0.00000000000E+00 0. -1.
         22    1    1    2    0    0 -0.43848364937E+03  0.43083445173E+03 -0.53972036559E+03  0.81803686262E+03  0.00000000000E+00 0. -1.
<mgrwt>
<rscale>  0 0.13648842E+04</rscale>
<asrwt>0</asrwt>
<pdfrwt beam="1">  1        2 0.74928929E-01 0.13648842E+04</pdfrwt>
<pdfrwt beam="2">  1       -2 0.14711448E+00 0.13648842E+04</pdfrwt>
<totfact> 0.19523089E+01</totfact>
</mgrwt>
</event>
<event>
 6    1  0.6091287E-004  0.2510596E+04  0.7818608E-02  0.8399220E-01
         -2   -1    0    0    0  501 -0.00000000000E+00  0.00000000000E+00  0.74352273340E+03  0.74352273340E+03  0.00000000000E+00 0. -1.
          2   -1    0    0  501    0  0.00000000000E+00 -0.00000000000E+00 -0.21193342983E+04  0.21193342983E+04  0.00000000000E+00 0.  1.
         23    2    1    2    0    0  0.10739814856E+03  0.51415338338E+03  0.60919078387E+03  0.80953718604E+03  0.91372755679E+02 0.  0.
         13    1    3    3    0    0  0.53467163409E+02  0.34067747896E+03  0.45722824089E+03  0.57269323944E+03  0.00000000000E+00 0.  1.
        -13    1    3    3    0    0  0.53930985154E+02  0.17347590442E+03  0.15196254298E+03  0.23684394660E+03  0.00000000000E+00 0. -1.
         22    1    1    2    0    0 -0.10739814856E+03 -0.51415338338E+03 -0.19850023488E+04  0.20533198457E+04  0.00000000000E+00 0.  1.
<mgrwt>
<rscale>  0 0.25105961E+04</rscale>
<asrwt>0</asrwt>
<pdfrwt beam="1">  1        2 0.32605142E+00 0.25105961E+04</pdfrwt>
<pdfrwt beam="2">  1       -2 0.11438812E+00 0.25105961E+04</pdfrwt>
<totfact> 0.30507264E+00</totfact>
</mgrwt>
</event>
<event>
 6    1  0.6091287E-004  0.3290787E+04  0.7818608E-02  0.8165244E-01
          2   -1    0    0  501    0  0.00000000000E+00  0.00000000000E+00  0.26649314313E+04  0.26649314313E+04  0.00000000000E+00 0.  1.
         -2   -1    0    0    0  501 -0.00000000000E+00 -0.00000000000E+00 -0.10159060483E+04  0.10159060483E+04  0.00000000000E+00 0. -1.
         23    2    1    2    0    0  0.21134894502E+03  0.62497390666E+03  0.25095793115E+04  0.25964879860E+04  0.92199673747E+02 0.  0.
         13    1    3    3    0    0  0.13752254016E+03  0.39455910578E+03  0.14102825121E+04  0.14708793631E+04  0.00000000000E+00 0. -1.
        -13    1    3    3    0    0  0.73826404862E+02  0.23041480088E+03  0.10992967994E+04  0.11256086228E+04  0.00000000000E+00 0.  1.
         22    1    1    2    0    0 -0.21134894502E+03 -0.62497390666E+03 -0.86055392850E+03  0.10843494937E+04  0.00000000000E+00 0. -1.
<mgrwt>
<rscale>  0 0.32907871E+04</rscale>
<asrwt>0</asrwt>
<pdfrwt beam="1">  1        2 0.40998945E+00 0.32907871E+04</pdfrwt>
<pdfrwt beam="2">  1       -2 0.15629324E+00 0.32907871E+04</pdfrwt>
<totfact> 0.62492211E-01</totfact>
</mgrwt>
</event>
<event>
 6    1  0.6091287E-004  0.3209368E+04  0.7818608E-02  0.8186347E-01
          2   -1    0    0  501    0  0.00000000000E+00  0.00000000000E+00  0.92032575771E+03  0.92032575771E+03  0.00000000000E+00 0.  1.
         -2   -1    0    0    0  501 -0.00000000000E+00 -0.00000000000E+00 -0.27979341804E+04  0.27979341804E+04  0.00000000000E+00 0. -1.
         23    2    1    2    0    0  0.16732954121E+03  0.37172031036E+03 -0.27361645566E+04  0.27678422407E+04  0.90437958457E+02 0.  0.
         11    1    3    3    0    0  0.96376426783E+02  0.18372902139E+03 -0.16771172312E+04  0.16899014694E+04  0.00000000000E+00 0. -1.
        -11    1    3    3    0    0  0.70953114430E+02  0.18799128896E+03 -0.10590473254E+04  0.10779407713E+04  0.00000000000E+00 0.  1.
         22    1    1    2    0    0 -0.16732954121E+03 -0.37172031036E+03  0.85855613388E+03  0.95041769740E+03  0.00000000000E+00 0.  1.
<mgrwt>
<rscale>  0 0.32093681E+04</rscale>
<asrwt>0</asrwt>
<pdfrwt beam="1">  1        2 0.14158858E+00 0.32093681E+04</pdfrwt>
<pdfrwt beam="2">  1       -2 0.43045141E+00 0.32093681E+04</pdfrwt>
<totfact> 0.11165072E-01</totfact>
</mgrwt>
</event>
<event>
 6    1  0.6091287E-004  0.5833334E+04  0.7818608E-02  0.7711417E-01
         -2   -1    0    0    0  501 -0.00000000000E+00  0.00000000000E+00  0.19059232164E+04  0.19059232164E+04  0.00000000000E+00 0. -1.
          2   -1    0    0  501    0  0.00000000000E+00 -0.00000000000E+00 -0.44634261804E+04  0.44634261804E+04  0.00000000000E+00 0.  1.
         23    2    1    2    0    0  0.15583246645E+03  0.19621870880E+04  0.10700191059E+04  0.22421980435E+04  0.89717630574E+02 0.  0.
         11    1    3    3    0    0  0.79774268202E+02  0.71320204860E+03  0.34867585680E+03  0.79786963165E+03  0.00000000000E+00 0. -1.
        -11    1    3    3    0    0  0.76058198247E+02  0.12489850394E+04  0.72134324912E+03  0.14443284118E+04  0.00000000000E+00 0.  1.
         22    1    1    2    0    0 -0.15583246645E+03 -0.19621870880E+04 -0.36275220699E+04  0.41271513534E+04  0.00000000000E+00 0.  1.
<mgrwt>
<rscale>  0 0.58333344E+04</rscale>
<asrwt>0</asrwt>
<pdfrwt beam="1">  1        2 0.68668095E+00 0.58333344E+04</pdfrwt>
<pdfrwt beam="2">  1       -2 0.29321896E+00 0.58333344E+04</pdfrwt>
<totfact> 0.31499978E-03</totfact>
</mgrwt>
</event>
<event>
 6    1  0.6091287E-004  0.8512980E+03  0.7818608E-02  0.9488596E-01
          2   -1    0    0  501    0  0.00000000000E+00  0.00000000000E+00  0.12890869235E+04  0.12890869235E+04  0.00000000000E+00 0.  1.
         -2   -1    0    0    0  501 -0.00000000000E+00 -0.00000000000E+00 -0.14054683735E+03  0.14054683735E+03  0.00000000000E+00 0. -1.
         23    2    1    2    0    0  0.26434686768E+03 -0.26630153487E+02  0.32392191044E+02  0.28230008869E+03  0.89753298028E+02 0.  0.
         11    1    3    3    0    0  0.18077500741E+03 -0.33749683438E+02 -0.17465276268E+02  0.18472596004E+03  0.00000000000E+00 0.  1.
        -11    1    3    3    0    0  0.83571860269E+02  0.71195299504E+01  0.49857467313E+02  0.97574128653E+02  0.00000000000E+00 0. -1.
         22    1    1    2    0    0 -0.26434686768E+03  0.26630153487E+02  0.11161478951E+04  0.11473336722E+04  0.00000000000E+00 0.  1.
<mgrwt>
<rscale>  0 0.85129804E+03</rscale>
<asrwt>0</asrwt>
<pdfrwt beam="1">  1        2 0.19832106E+00 0.85129804E+03</pdfrwt>
<pdfrwt beam="2">  1       -2 0.21622591E-01 0.85129804E+03</pdfrwt>
<totfact> 0.31337957E+02</totfact>
</mgrwt>
</event>
<event>
 6    1  0.6091287E-004  0.3794320E+04  0.7818608E-02  0.8047375E-01
         -2   -1    0    0    0  501 -0.00000000000E+00  0.00000000000E+00  0.29435124173E+04  0.29435124173E+04  0.00000000000E+00 0. -1.
          2   -1    0    0  501    0  0.00000000000E+00 -0.00000000000E+00 -0.12227625167E+04  0.12227625167E+04  0.00000000000E+00 0.  1.
         23    2    1    2    0    0 -0.78191293483E+03 -0.17267134625E+04  0.81158275211E+03  0.20640113627E+04  0.92461465986E+02 0.  0.
         11    1    3    3    0    0 -0.27252330738E+03 -0.49919062271E+03  0.24440588817E+03  0.61902703417E+03  0.00000000000E+00 0.  1.
        -11    1    3    3    0    0 -0.50938962745E+03 -0.12275228398E+04  0.56717686395E+03  0.14449843286E+04  0.00000000000E+00 0. -1.
         22    1    1    2    0    0  0.78191293483E+03  0.17267134625E+04  0.90916714849E+03  0.21022635713E+04  0.00000000000E+00 0. -1.
<mgrwt>
<rscale>  0 0.37943203E+04</rscale>
<asrwt>0</asrwt>
<pdfrwt beam="1">  1        2 0.18811731E+00 0.37943203E+04</pdfrwt>
<pdfrwt beam="2">  1       -2 0.45284806E+00 0.37943203E+04</pdfrwt>
<totfact> 0.48921106E-02</totfact>
</mgrwt>
</event>
<event>
 6    1  0.6091287E-004  0.1655345E+04  0.7818608E-02  0.8787251E-01
          2   -1    0    0  501    0  0.00000000000E+00  0.00000000000E+00  0.23409599703E+04  0.23409599703E+04  0.00000000000E+00 0.  1.
         -2   -1    0    0    0  501 -0.00000000000E+00 -0.00000000000E+00 -0.29263294875E+03  0.29263294875E+03  0.00000000000E+00 0. -1.
         23    2    1    2    0    0 -0.35394936627E+03 -0.17844793360E+03 -0.12396245721E+03  0.42543409360E+03  0.92215282443E+02 0.  0.
         13    1    3    3    0    0 -0.57687036317E+02  0.55808547148E+01 -0.22942775708E+02  0.62332263360E+02  0.00000000000E+00 0.  1.
        -13    1    3    3    0    0 -0.29626232995E+03 -0.18402878831E+03 -0.10101968150E+03  0.36310183024E+03  0.00000000000E+00 0. -1.
         22    1    1    2    0    0  0.35394936627E+03  0.17844793360E+03  0.21722894788E+04  0.22081588255E+04  0.00000000000E+00 0.  1.
<mgrwt>
<rscale>  0 0.16553453E+04</rscale>
<asrwt>0</asrwt>
<pdfrwt beam="1">  1        2 0.36014768E+00 0.16553453E+04</pdfrwt>
<pdfrwt beam="2">  1       -2 0.45020455E-01 0.16553453E+04</pdfrwt>
<totfact> 0.19218429E+01</totfact>
</mgrwt>
</event>
<event>
 6    1  0.6091287E-004  0.2776759E+04  0.7818608E-02  0.8310520E-01
          2   -1    0    0  501    0  0.00000000000E+00  0.00000000000E+00  0.31715809846E+04  0.31715809846E+04  0.00000000000E+00 0.  1.
         -2   -1    0    0    0  501 -0.00000000000E+00 -0.00000000000E+00 -0.60777202162E+03  0.60777202162E+03  0.00000000000E+00 0. -1.
         23    2    1    2    0    0  0.12464830244E+04 -0.57995296152E+02  0.46008765594E+03  0.13333916978E+04  0.95756901019E+02 0.  0.
         13    1    3    3    0    0  0.28105460798E+03 -0.53190068264E+02  0.10230082961E+03  0.30378666160E+03  0.00000000000E+00 0.  1.
        -13    1    3    3    0    0  0.96542841644E+03 -0.48052278881E+01  0.35778682633E+03  0.10296050362E+04  0.00000000000E+00 0. -1.
         22    1    1    2    0    0 -0.12464830244E+04  0.57995296152E+02  0.21037213070E+04  0.24459613084E+04  0.00000000000E+00 0.  1.
<mgrwt>
<rscale>  0 0.27767594E+04</rscale>
<asrwt>0</asrwt>
<pdfrwt beam="1">  1        2 0.48793553E+00 0.27767594E+04</pdfrwt>
<pdfrwt beam="2">  1       -2 0.93503390E-01 0.27767594E+04</pdfrwt>
<totfact> 0.11406707E+00</totfact>
</mgrwt>
</event>
<event>
 6    1  0.6091287E-004  0.4211764E+04  0.7818608E-02  0.7963138E-01
         -2   -1    0    0    0  501 -0.00000000000E+00  0.00000000000E+00  0.25251742926E+04  0.25251742926E+04  0.00000000000E+00 0. -1.
          2   -1    0    0  501    0  0.00000000000E+00 -0.00000000000E+00 -0.17562107822E+04  0.17562107822E+04  0.00000000000E+00 0.  1.
         23    2    1    2    0    0 -0.67663082766E+03 -0.55504267886E+02  0.24099919197E+04  0.25054672161E+04  0.91623779693E+02 0.  0.
         13    1    3    3    0    0 -0.30125504250E+03 -0.46453397618E+02  0.12281558516E+04  0.12654166565E+04  0.00000000000E+00 0. -1.
        -13    1    3    3    0    0 -0.37537578515E+03 -0.90508702686E+01  0.11818360682E+04  0.12400505596E+04  0.00000000000E+00 0.  1.
         22    1    1    2    0    0  0.67663082766E+03  0.55504267886E+02 -0.16410284093E+04  0.17759178587E+04  0.00000000000E+00 0.  1.
<mgrwt>
<rscale>  0 0.42117637E+04</rscale>
<asrwt>0</asrwt>
<pdfrwt beam="1">  1        2 0.27018627E+00 0.42117637E+04</pdfrwt>
<pdfrwt beam="2">  1       -2 0.38848835E+00 0.42117637E+04</pdfrwt>
<totfact> 0.62421500E-02</totfact>
</mgrwt>
</event>
<event>
 6    1  0.6091287E-004  0.5840659E+04  0.7818608E-02  0.7710478E-01
         -2   -1    0    0    0  501 -0.00000000000E+00  0.00000000000E+00  0.17363271686E+04  0.17363271686E+04  0.00000000000E+00 0. -1.
          2   -1    0    0  501    0  0.00000000000E+00 -0.00000000000E+00 -0.49117043386E+04  0.49117043386E+04  0.00000000000E+00 0.  1.
         23    2    1    2    0    0 -0.90979472917E+03  0.18185548123E+04 -0.39727196406E+04  0.44638559030E+04  0.92952275899E+02 0.  0.
         11    1    3    3    0    0 -0.35713716538E+03  0.62418465294E+03 -0.14458293034E+04  0.16147990000E+04  0.00000000000E+00 0.  1.
        -11    1    3    3    0    0 -0.55265756378E+03  0.11943701593E+04 -0.25268903372E+04  0.28490569030E+04  0.00000000000E+00 0. -1.
         22    1    1    2    0    0  0.90979472917E+03 -0.18185548123E+04  0.79734247055E+03  0.21841756042E+04  0.00000000000E+00 0. -1.
<mgrwt>
<rscale>  0 0.58406594E+04</rscale>
<asrwt>0</asrwt>
<pdfrwt beam="1">  1        2 0.75564680E+00 0.58406594E+04</pdfrwt>
<pdfrwt beam="2">  1       -2 0.26712726E+00 0.58406594E+04</pdfrwt>
<totfact> 0.14883734E-03</totfact>
</mgrwt>
</event>
<event>
 6    1  0.6091287E-004  0.2333752E+04  0.7818608E-02  0.8464731E-01
         -2   -1    0    0    0  501 -0.00000000000E+00  0.00000000000E+00  0.38148522304E+03  0.38148522304E+03  0.00000000000E+00 0. -1.
          2   -1    0    0  501    0  0.00000000000E+00 -0.00000000000E+00 -0.35692054833E+04  0.35692054833E+04  0.00000000000E+00 0.  1.
         23    2    1    2    0    0  0.27335342058E+03 -0.99399345473E+03 -0.25152273353E+04  0.27198406689E+04  0.91758570968E+02 0.  0.
         11    1    3    3    0    0  0.20735486087E+03 -0.61326706154E+03 -0.15111927341E+04  0.16440182501E+04  0.00000000000E+00 0. -1.
        -11    1    3    3    0    0  0.65998559704E+02 -0.38072639319E+03 -0.10040346012E+04  0.10758224187E+04  0.00000000000E+00 0.  1.
         22    1    1    2    0    0 -0.27335342058E+03  0.99399345473E+03 -0.67249292499E+03  0.12308500375E+04  0.00000000000E+00 0. -1.
<mgrwt>
<rscale>  0 0.23337516E+04</rscale>
<asrwt>0</asrwt>
<pdfrwt beam="1">  1        2 0.54910856E+00 0.23337516E+04</pdfrwt>
<pdfrwt beam="2">  1       -2 0.58690032E-01 0.23337516E+04</pdfrwt>
<totfact> 0.17870036E+00</totfact>
</mgrwt>
</event>
<event>
 6    1  0.6091287E-004  0.2164483E+04  0.7818608E-02  0.8533358E-01
          2   -1    0    0  501    0  0.00000000000E+00  0.00000000000E+00  0.12714604847E+04  0.12714604847E+04  0.00000000000E+00 0.  1.
         -2   -1    0    0    0  501 -0.00000000000E+00 -0.00000000000E+00 -0.92118235811E+03  0.92118235811E+03  0.00000000000E+00 0. -1.
         23    2    1    2    0    0 -0.70332123762E+03 -0.78406606850E+03  0.41875714513E+03  0.11371288737E+04  0.91017392659E+02 0.  0.
         13    1    3    3    0    0 -0.85011013483E+02 -0.83985068668E+02  0.78840778740E+02  0.14316505357E+03  0.00000000000E+00 0.  1.
        -13    1    3    3    0    0 -0.61831022414E+03 -0.70008099984E+03  0.33991636639E+03  0.99396382014E+03  0.00000000000E+00 0. -1.
         22    1    1    2    0    0  0.70332123762E+03  0.78406606850E+03 -0.68479018499E+02  0.10555139691E+04  0.00000000000E+00 0.  1.
<mgrwt>
<rscale>  0 0.21644833E+04</rscale>
<asrwt>0</asrwt>
<pdfrwt beam="1">  1        2 0.19560930E+00 0.21644833E+04</pdfrwt>
<pdfrwt beam="2">  1       -2 0.14172036E+00 0.21644833E+04</pdfrwt>
<totfact> 0.54800789E+00</totfact>
</mgrwt>
</event>
<event>
 6    1  0.6091287E-004  0.2247226E+04  0.7818608E-02  0.8499025E-01
         -2   -1    0    0    0  501 -0.00000000000E+00  0.00000000000E+00  0.53757899071E+03  0.53757899071E+03  0.00000000000E+00 0. -1.
          2   -1    0    0  501    0  0.00000000000E+00 -0.00000000000E+00 -0.23485037909E+04  0.23485037909E+04  0.00000000000E+00 0.  1.
         23    2    1    2    0    0  0.51886800107E+03 -0.11129307258E+03 -0.21765992878E+04  0.22416233326E+04  0.75369459628E+02 0.  0.
         11    1    3    3    0    0  0.37439325164E+03 -0.90316072265E+02 -0.17043929356E+04  0.17473644665E+04  0.00000000000E+00 0. -1.
        -11    1    3    3    0    0  0.14447474943E+03 -0.20977000317E+02 -0.47220635211E+03  0.49425886612E+03  0.00000000000E+00 0.  1.
         22    1    1    2    0    0 -0.51886800107E+03  0.11129307258E+03  0.36567448755E+03  0.64445944899E+03  0.00000000000E+00 0. -1.
<mgrwt>
<rscale>  0 0.22472261E+04</rscale>
<asrwt>0</asrwt>
<pdfrwt beam="1">  1        2 0.36130827E+00 0.22472261E+04</pdfrwt>
<pdfrwt beam="2">  1       -2 0.82704461E-01 0.22472261E+04</pdfrwt>
<totfact> 0.49667494E+00</totfact>
</mgrwt>
</event>
<event>
 6    1  0.6091287E-004  0.1548307E+04  0.7818608E-02  0.8852950E-01
          2   -1    0    0  501    0  0.00000000000E+00  0.00000000000E+00  0.46138619764E+03  0.46138619764E+03  0.00000000000E+00 0.  1.
         -2   -1    0    0    0  501 -0.00000000000E+00 -0.00000000000E+00 -0.12989411735E+04  0.12989411735E+04  0.00000000000E+00 0. -1.
         23    2    1    2    0    0  0.34820854165E+02 -0.58668395422E+03  0.14790387995E+03  0.61292172773E+03  0.91580197607E+02 0.  0.
         11    1    3    3    0    0  0.27664661089E+02 -0.42258701616E+03  0.14818360486E+03  0.44866858643E+03  0.00000000000E+00 0. -1.
        -11    1    3    3    0    0  0.71561930755E+01 -0.16409693806E+03 -0.27972491340E+00  0.16425314130E+03  0.00000000000E+00 0.  1.
         22    1    1    2    0    0 -0.34820854165E+02  0.58668395422E+03 -0.98545885584E+03  0.11474056434E+04  0.00000000000E+00 0. -1.
<mgrwt>
<rscale>  0 0.15483069E+04</rscale>
<asrwt>0</asrwt>
<pdfrwt beam="1">  1        2 0.70982493E-01 0.15483069E+04</pdfrwt>
<pdfrwt beam="2">  1       -2 0.19983710E+00 0.15483069E+04</pdfrwt>
<totfact> 0.86656946E+00</totfact>
</mgrwt>
</event>
<event>
 6    1  0.6091287E-004  0.1163312E+04  0.7818608E-02  0.9145590E-01
         -1   -1    0    0    0  501 -0.00000000000E+00  0.00000000000E+00  0.53263844342E+03  0.53263844342E+03  0.00000000000E+00 0. -1.
          1   -1    0    0  501    0  0.00000000000E+00 -0.00000000000E+00 -0.63518411682E+03  0.63518411682E+03  0.00000000000E+00 0.  1.
         23    2    1    2    0    0 -0.36261945996E+03  0.60513904356E+02  0.39607044176E+03  0.54832854441E+03  0.92938648676E+02 0.  0.
         13    1    3    3    0    0 -0.13618127887E+03  0.13821189890E+02  0.21404725386E+03  0.25407202304E+03  0.00000000000E+00 0.  1.
        -13    1    3    3    0    0 -0.22643818108E+03  0.46692714466E+02  0.18202318790E+03  0.29425652137E+03  0.00000000000E+00 0. -1.
         22    1    1    2    0    0  0.36261945996E+03 -0.60513904356E+02 -0.49861611516E+03  0.61949401584E+03  0.00000000000E+00 0.  1.
<mgrwt>
<rscale>  0 0.11633116E+04</rscale>
<asrwt>0</asrwt>
<pdfrwt beam="1">  1        1 0.97720633E-01 0.11633116E+04</pdfrwt>
<pdfrwt beam="2">  1       -1 0.81944376E-01 0.11633116E+04</pdfrwt>
<totfact> 0.46357865E+01</totfact>
</mgrwt>
</event>
<event>
 6    1  0.6091287E-004  0.3535881E+04  0.7818608E-02  0.8105339E-01
          2   -1    0    0  501    0  0.00000000000E+00  0.00000000000E+00  0.13519614994E+04  0.13519614994E+04  0.00000000000E+00 0.  1.
         -2   -1    0    0    0  501 -0.00000000000E+00 -0.00000000000E+00 -0.23119106807E+04  0.23119106807E+04  0.00000000000E+00 0. -1.
         23    2    1    2    0    0  0.15986837873E+04  0.64151653962E+03 -0.73398654719E+02  0.17265273067E+04  0.90420441010E+02 0.  0.
         11    1    3    3    0    0  0.50281652283E+03  0.23799884774E+03 -0.49333780741E+02  0.55848162824E+03  0.00000000000E+00 0. -1.
        -11    1    3    3    0    0  0.10958672644E+04  0.40351769187E+03 -0.24064873978E+02  0.11680456785E+04  0.00000000000E+00 0.  1.
         22    1    1    2    0    0 -0.15986837873E+04 -0.64151653962E+03 -0.88655052661E+03  0.19373448734E+04  0.00000000000E+00 0. -1.
<mgrwt>
<rscale>  0 0.35358814E+04</rscale>
<asrwt>0</asrwt>
<pdfrwt beam="1">  1        2 0.20799408E+00 0.35358814E+04</pdfrwt>
<pdfrwt beam="2">  1       -2 0.35567857E+00 0.35358814E+04</pdfrwt>
<totfact> 0.18090085E-01</totfact>
</mgrwt>
</event>
<event>
 6    1  0.6091287E-004  0.7424684E+03  0.7818608E-02  0.9647241E-01
         -2   -1    0    0    0  501 -0.00000000000E+00  0.00000000000E+00  0.13285594816E+03  0.13285594816E+03  0.00000000000E+00 0. -1.
          2   -1    0    0  501    0  0.00000000000E+00 -0.00000000000E+00 -0.10373253318E+04  0.10373253318E+04  0.00000000000E+00 0.  1.
         23    2    1    2    0    0 -0.22983330538E+02 -0.12668245961E+02 -0.10337122560E+04  0.10383008873E+04  0.93909458265E+02 0.  0.
         13    1    3    3    0    0  0.21450004032E+02  0.29333686787E+02 -0.39671381709E+03  0.39837472375E+03  0.00000000000E+00 0. -1.
        -13    1    3    3    0    0 -0.44433334570E+02 -0.42001932749E+02 -0.63699843893E+03  0.63992616353E+03  0.00000000000E+00 0.  1.
         22    1    1    2    0    0  0.22983330538E+02  0.12668245961E+02  0.12924287233E+03  0.13188039273E+03  0.00000000000E+00 0. -1.
<mgrwt>
<rscale>  0 0.74246842E+03</rscale>
<asrwt>0</asrwt>
<pdfrwt beam="1">  1        2 0.15958852E+00 0.74246842E+03</pdfrwt>
<pdfrwt beam="2">  1       -2 0.20439376E-01 0.74246842E+03</pdfrwt>
<totfact> 0.49289503E+02</totfact>
</mgrwt>
</event>
<event>
 6    1  0.6091287E-004  0.2390799E+04  0.7818608E-02  0.8442956E-01
         -2   -1    0    0    0  501 -0.00000000000E+00  0.00000000000E+00  0.66631352795E+03  0.66631352795E+03  0.00000000000E+00 0. -1.
          2   -1    0    0  501    0  0.00000000000E+00 -0.00000000000E+00 -0.21446059292E+04  0.21446059292E+04  0.00000000000E+00 0.  1.
         23    2    1    2    0    0 -0.15726069605E+03  0.88448848313E+03 -0.16642756980E+04  0.18935097396E+04  0.92275302564E+02 0.  0.
         13    1    3    3    0    0 -0.25052329223E+02  0.38498382041E+03 -0.74526731429E+03  0.83920410564E+03  0.00000000000E+00 0.  1.
        -13    1    3    3    0    0 -0.13220836683E+03  0.49950466272E+03 -0.91900838374E+03  0.10543056339E+04  0.00000000000E+00 0. -1.
         22    1    1    2    0    0  0.15726069605E+03 -0.88448848313E+03  0.18598329674E+03  0.91740971762E+03  0.00000000000E+00 0. -1.
<mgrwt>
<rscale>  0 0.23907990E+04</rscale>
<asrwt>0</asrwt>
<pdfrwt beam="1">  1        2 0.32993938E+00 0.23907990E+04</pdfrwt>
<pdfrwt beam="2">  1       -2 0.10250977E+00 0.23907990E+04</pdfrwt>
<totfact> 0.38865729E+00</totfact>
</mgrwt>
</event>
<event>
 6    1  0.6091287E-004  0.2949602E+04  0.7818608E-02  0.8258271E-01
         -2   -1    0    0    0  501 -0.00000000000E+00  0.00000000000E+00  0.81643557546E+03  0.81643557546E+03  0.00000000000E+00 0. -1.
          2   -1    0    0  501    0  0.00000000000E+00 -0.00000000000E+00 -0.26640648858E+04  0.26640648858E+04  0.00000000000E+00 0.  1.
         23    2    1    2    0    0  0.89051592395E+03  0.72111297840E+03  0.16829871495E+03  0.11616670603E+04  0.90129701125E+02 0.  0.
         11    1    3    3    0    0  0.74834599619E+03  0.61745959183E+03  0.17378975071E+03  0.98563733442E+03  0.00000000000E+00 0.  1.
        -11    1    3    3    0    0  0.14216992776E+03  0.10365338658E+03 -0.54910357535E+01  0.17602972585E+03  0.00000000000E+00 0. -1.
         22    1    1    2    0    0 -0.89051592395E+03 -0.72111297840E+03 -0.20159280253E+04  0.23188334010E+04  0.00000000000E+00 0.  1.
<mgrwt>
<rscale>  0 0.29496016E+04</rscale>
<asrwt>0</asrwt>
<pdfrwt beam="1">  1        2 0.40985614E+00 0.29496016E+04</pdfrwt>
<pdfrwt beam="2">  1       -2 0.12560547E+00 0.29496016E+04</pdfrwt>
<totfact> 0.11353835E+00</totfact>
</mgrwt>
</event>
<event>
 6    1  0.6091287E-004  0.3179614E+04  0.7818608E-02  0.8194222E-01
          2   -1    0    0  501    0  0.00000000000E+00  0.00000000000E+00  0.14227636416E+04  0.14227636416E+04  0.00000000000E+00 0. -1.
         -2   -1    0    0    0  501 -0.00000000000E+00 -0.00000000000E+00 -0.17764623066E+04  0.17764623066E+04  0.00000000000E+00 0.  1.
         23    2    1    2    0    0  0.46869053196E+03 -0.31702588002E+03  0.13164087813E+04  0.14358669077E+04  0.92765693148E+02 0.  0.
         13    1    3    3    0    0  0.23143381969E+03 -0.20535774502E+03  0.76829031333E+03  0.82825323536E+03  0.00000000000E+00 0. -1.
        -13    1    3    3    0    0  0.23725671228E+03 -0.11166813500E+03  0.54811846799E+03  0.60761367236E+03  0.00000000000E+00 0.  1.
         22    1    1    2    0    0 -0.46869053196E+03  0.31702588002E+03 -0.16701074463E+04  0.17633590404E+04  0.00000000000E+00 0.  1.
<mgrwt>
<rscale>  0 0.31796138E+04</rscale>
<asrwt>0</asrwt>
<pdfrwt beam="1">  1        2 0.21888671E+00 0.31796138E+04</pdfrwt>
<pdfrwt beam="2">  1       -2 0.27330189E+00 0.31796138E+04</pdfrwt>
<totfact> 0.54803595E-01</totfact>
</mgrwt>
</event>
<event>
 6    1  0.6091287E-004  0.1297885E+04  0.7818608E-02  0.9031244E-01
          2   -1    0    0  501    0  0.00000000000E+00  0.00000000000E+00  0.23610486020E+04  0.23610486020E+04  0.00000000000E+00 0.  1.
         -2   -1    0    0    0  501 -0.00000000000E+00 -0.00000000000E+00 -0.17836423063E+03  0.17836423063E+03  0.00000000000E+00 0. -1.
         23    2    1    2    0    0 -0.13911941899E+03  0.13637252996E+03  0.23013113327E+04  0.23113250522E+04  0.90763246536E+02 0.  0.
         11    1    3    3    0    0 -0.85395391622E+02  0.13651139916E+03  0.17647818849E+04  0.17721125349E+04  0.00000000000E+00 0. -1.
        -11    1    3    3    0    0 -0.53724027363E+02 -0.13886920269E+00  0.53652944779E+03  0.53921251724E+03  0.00000000000E+00 0.  1.
         22    1    1    2    0    0  0.13911941899E+03 -0.13637252996E+03 -0.11862696132E+03  0.22808778051E+03  0.00000000000E+00 0. -1.
<mgrwt>
<rscale>  0 0.12978854E+04</rscale>
<asrwt>0</asrwt>
<pdfrwt beam="1">  1        2 0.36323822E+00 0.12978854E+04</pdfrwt>
<pdfrwt beam="2">  1       -2 0.27440653E-01 0.12978854E+04</pdfrwt>
<totfact> 0.49808546E+01</totfact>
</mgrwt>
</event>
<event>
 6    1  0.6091287E-004  0.1776158E+04  0.7818608E-02  0.8719082E-01
         -2   -1    0    0    0  501 -0.00000000000E+00  0.00000000000E+00  0.86783900480E+03  0.86783900480E+03  0.00000000000E+00 0. -1.
          2   -1    0    0  501    0  0.00000000000E+00 -0.00000000000E+00 -0.90879152323E+03  0.90879152323E+03  0.00000000000E+00 0.  1.
         23    2    1    2    0    0 -0.55286725531E+03  0.63612556824E+03  0.25211575058E+03  0.88432623528E+03  0.90291739150E+02 0.  0.
         11    1    3    3    0    0 -0.36796886305E+03  0.44402805858E+03  0.13044169398E+03  0.59125040086E+03  0.00000000000E+00 0.  1.
        -11    1    3    3    0    0 -0.18489839226E+03  0.19209750965E+03  0.12167405660E+03  0.29307583442E+03  0.00000000000E+00 0. -1.
         22    1    1    2    0    0  0.55286725531E+03 -0.63612556824E+03 -0.29306826901E+03  0.89230429275E+03  0.00000000000E+00 0.  1.
<mgrwt>
<rscale>  0 0.17761585E+04</rscale>
<asrwt>0</asrwt>
<pdfrwt beam="1">  1        2 0.13981408E+00 0.17761585E+04</pdfrwt>
<pdfrwt beam="2">  1       -2 0.13351369E+00 0.17761585E+04</pdfrwt>
<totfact> 0.11101105E+01</totfact>
</mgrwt>
</event>
<event>
 6    1  0.6091287E-004  0.3822743E+04  0.7818608E-02  0.8041292E-01
         -2   -1    0    0    0  501 -0.00000000000E+00  0.00000000000E+00  0.99809559596E+03  0.99809559596E+03  0.00000000000E+00 0. -1.
          2   -1    0    0  501    0  0.00000000000E+00 -0.00000000000E+00 -0.36603122643E+04  0.36603122643E+04  0.00000000000E+00 0.  1.
         23    2    1    2    0    0 -0.23454798052E+03  0.18087637990E+04 -0.63970377607E+03  0.19349546047E+04  0.90494006060E+02 0.  0.
         11    1    3    3    0    0 -0.22218057486E+03  0.14471217479E+04 -0.52484099108E+03  0.15553082097E+04  0.00000000000E+00 0.  1.
        -11    1    3    3    0    0 -0.12367405655E+02  0.36164205112E+03 -0.11486278499E+03  0.37964639500E+03  0.00000000000E+00 0. -1.
         22    1    1    2    0    0  0.23454798052E+03 -0.18087637990E+04 -0.20225128922E+04  0.27234532556E+04  0.00000000000E+00 0.  1.
<mgrwt>
<rscale>  0 0.38227433E+04</rscale>
<asrwt>0</asrwt>
<pdfrwt beam="1">  1        2 0.56312497E+00 0.38227433E+04</pdfrwt>
<pdfrwt beam="2">  1       -2 0.15355317E+00 0.38227433E+04</pdfrwt>
<totfact> 0.14032728E-01</totfact>
</mgrwt>
</event>
<event>
 6    1  0.6091287E-004  0.1144636E+04  0.7818608E-02  0.9162746E-01
          2   -1    0    0  501    0  0.00000000000E+00  0.00000000000E+00  0.95906395079E+03  0.95906395079E+03  0.00000000000E+00 0.  1.
         -2   -1    0    0    0  501 -0.00000000000E+00 -0.00000000000E+00 -0.34152896405E+03  0.34152896405E+03  0.00000000000E+00 0. -1.
         23    2    1    2    0    0 -0.40015218018E+03 -0.22226404319E+03  0.69416923695E+03  0.83648529748E+03  0.91179225549E+02 0.  0.
         13    1    3    3    0    0 -0.28603036426E+03 -0.18534224265E+03  0.45058766370E+03  0.56497288330E+03  0.00000000000E+00 0. -1.
        -13    1    3    3    0    0 -0.11412181592E+03 -0.36921800537E+02  0.24358157325E+03  0.27151241417E+03  0.00000000000E+00 0.  1.
         22    1    1    2    0    0  0.40015218018E+03  0.22226404319E+03 -0.76634250215E+02  0.46410761737E+03  0.00000000000E+00 0. -1.
<mgrwt>
<rscale>  0 0.11446364E+04</rscale>
<asrwt>0</asrwt>
<pdfrwt beam="1">  1        2 0.14754830E+00 0.11446364E+04</pdfrwt>
<pdfrwt beam="2">  1       -2 0.52542918E-01 0.11446364E+04</pdfrwt>
<totfact> 0.90625722E+01</totfact>
</mgrwt>
</event>
<event>
 6    1  0.6091287E-004  0.1708942E+04  0.7818608E-02  0.8756281E-01
         -2   -1    0    0    0  501 -0.00000000000E+00  0.00000000000E+00  0.54168083948E+03  0.54168083948E+03  0.00000000000E+00 0. -1.
          2   -1    0    0  501    0  0.00000000000E+00 -0.00000000000E+00 -0.13478803068E+04  0.13478803068E+04  0.00000000000E+00 0.  1.
         23    2    1    2    0    0 -0.76485212805E+02 -0.14706247811E+03 -0.13283558807E+04  0.13417247836E+04  0.90656985020E+02 0.  0.
         13    1    3    3    0    0 -0.64663892907E+02 -0.44291860189E+02 -0.39870258833E+03  0.40633353525E+03  0.00000000000E+00 0. -1.
        -13    1    3    3    0    0 -0.11821319898E+02 -0.10277061792E+03 -0.92965329232E+03  0.93539124832E+03  0.00000000000E+00 0.  1.
         22    1    1    2    0    0  0.76485212805E+02  0.14706247811E+03  0.52215641337E+03  0.54783636268E+03  0.00000000000E+00 0. -1.
<mgrwt>
<rscale>  0 0.17089423E+04</rscale>
<asrwt>0</asrwt>
<pdfrwt beam="1">  1        2 0.20736620E+00 0.17089423E+04</pdfrwt>
<pdfrwt beam="2">  1       -2 0.83335514E-01 0.17089423E+04</pdfrwt>
<totfact> 0.18583902E+01</totfact>
</mgrwt>
</event>
<event>
 6    1  0.6091287E-004  0.2094078E+04  0.7818608E-02  0.8563856E-01
         -2   -1    0    0    0  501 -0.00000000000E+00  0.00000000000E+00  0.79420108711E+03  0.79420108711E+03  0.00000000000E+00 0. -1.
          2   -1    0    0  501    0  0.00000000000E+00 -0.00000000000E+00 -0.13803696456E+04  0.13803696456E+04  0.00000000000E+00 0.  1.
         23    2    1    2    0    0  0.10568914052E+03 -0.56401572532E+03 -0.12006738339E+04  0.13337968830E+04  0.90069622037E+02 0.  0.
         13    1    3    3    0    0  0.58741562969E+01 -0.18771570606E+03 -0.32257159836E+03  0.37326147415E+03  0.00000000000E+00 0.  1.
        -13    1    3    3    0    0  0.99814984227E+02 -0.37630001926E+03 -0.87810223551E+03  0.96053540881E+03  0.00000000000E+00 0. -1.
         22    1    1    2    0    0 -0.10568914052E+03  0.56401572532E+03  0.61450527543E+03  0.84077384971E+03  0.00000000000E+00 0. -1.
<mgrwt>
<rscale>  0 0.20940784E+04</rscale>
<asrwt>0</asrwt>
<pdfrwt beam="1">  1        2 0.21236456E+00 0.20940784E+04</pdfrwt>
<pdfrwt beam="2">  1       -2 0.12218478E+00 0.20940784E+04</pdfrwt>
<totfact> 0.69521595E+00</totfact>
</mgrwt>
</event>
<event>
 6    1  0.6091287E-004  0.1911650E+04  0.7818608E-02  0.8649079E-01
          2   -1    0    0  501    0  0.00000000000E+00  0.00000000000E+00  0.15086106941E+04  0.15086106941E+04  0.00000000000E+00 0.  1.
         -2   -1    0    0    0  501 -0.00000000000E+00 -0.00000000000E+00 -0.60559095298E+03  0.60559095298E+03  0.00000000000E+00 0. -1.
         23    2    1    2    0    0  0.17413697732E+03 -0.23166565900E+03  0.14573151331E+04  0.14887130013E+04  0.92229814703E+02 0.  0.
         11    1    3    3    0    0  0.13599956831E+03 -0.21330691512E+03  0.10901849274E+04  0.11191509722E+04  0.00000000000E+00 0. -1.
        -11    1    3    3    0    0  0.38137409013E+02 -0.18358743878E+02  0.36713020564E+03  0.36956202908E+03  0.00000000000E+00 0.  1.
         22    1    1    2    0    0 -0.17413697732E+03  0.23166565900E+03 -0.55429539197E+03  0.62548864577E+03  0.00000000000E+00 0. -1.
<mgrwt>
<rscale>  0 0.19116495E+04</rscale>
<asrwt>0</asrwt>
<pdfrwt beam="1">  1        2 0.23209395E+00 0.19116495E+04</pdfrwt>
<pdfrwt beam="2">  1       -2 0.93167839E-01 0.19116495E+04</pdfrwt>
<totfact> 0.11456370E+01</totfact>
</mgrwt>
</event>
<event>
 6    1  0.6091287E-004  0.3567467E+04  0.7818608E-02  0.8097985E-01
         -2   -1    0    0    0  501 -0.00000000000E+00  0.00000000000E+00  0.12164936206E+04  0.12164936206E+04  0.00000000000E+00 0. -1.
          2   -1    0    0  501    0  0.00000000000E+00 -0.00000000000E+00 -0.26154717928E+04  0.26154717928E+04  0.00000000000E+00 0.  1.
         23    2    1    2    0    0 -0.15869207598E+04  0.35669530964E+03  0.83382469594E+02  0.16312968527E+04  0.92885648446E+02 0.  0.
         11    1    3    3    0    0 -0.41246449473E+03  0.52572991751E+02  0.11022122200E+02  0.41594755204E+03  0.00000000000E+00 0. -1.
        -11    1    3    3    0    0 -0.11744562651E+04  0.30412231789E+03  0.72360347394E+02  0.12153493007E+04  0.00000000000E+00 0.  1.
         22    1    1    2    0    0  0.15869207598E+04 -0.35669530964E+03 -0.14823606417E+04  0.22006685607E+04  0.00000000000E+00 0. -1.
<mgrwt>
<rscale>  0 0.35674667E+04</rscale>
<asrwt>0</asrwt>
<pdfrwt beam="1">  1        2 0.40238027E+00 0.35674667E+04</pdfrwt>
<pdfrwt beam="2">  1       -2 0.18715287E+00 0.35674667E+04</pdfrwt>
<totfact> 0.39446398E-01</totfact>
</mgrwt>
</event>
<event>
 6    1  0.6091287E-004  0.4278433E+04  0.7818608E-02  0.7950618E-01
          2   -1    0    0  501    0  0.00000000000E+00  0.00000000000E+00  0.15391723134E+04  0.15391723134E+04  0.00000000000E+00 0.  1.
         -2   -1    0    0    0  501 -0.00000000000E+00 -0.00000000000E+00 -0.29731869237E+04  0.29731869237E+04  0.00000000000E+00 0. -1.
         23    2    1    2    0    0 -0.12804057391E+04 -0.14577635246E+04 -0.16650952281E+04  0.25584115402E+04  0.91728623778E+02 0.  0.
         13    1    3    3    0    0 -0.60822633556E+03 -0.63033978128E+03 -0.72467502332E+03  0.11368471333E+04  0.00000000000E+00 0.  1.
        -13    1    3    3    0    0 -0.67217940352E+03 -0.82742374329E+03 -0.94042020477E+03  0.14215644069E+04  0.00000000000E+00 0. -1.
         22    1    1    2    0    0  0.12804057391E+04  0.14577635246E+04  0.23108061772E+03  0.19539476969E+04  0.00000000000E+00 0.  1.
<mgrwt>
<rscale>  0 0.42784329E+04</rscale>
<asrwt>0</asrwt>
<pdfrwt beam="1">  1        2 0.23679574E+00 0.42784329E+04</pdfrwt>
<pdfrwt beam="2">  1       -2 0.45741337E+00 0.42784329E+04</pdfrwt>
<totfact> 0.28884168E-02</totfact>
</mgrwt>
</event>
<event>
 6    1  0.6091287E-004  0.1958137E+04  0.7818608E-02  0.8626447E-01
         -2   -1    0    0    0  501 -0.00000000000E+00  0.00000000000E+00  0.33816280189E+04  0.33816280189E+04  0.00000000000E+00 0. -1.
          2   -1    0    0  501    0  0.00000000000E+00 -0.00000000000E+00 -0.28346556435E+03  0.28346556435E+03  0.00000000000E+00 0.  1.
         23    2    1    2    0    0 -0.62065290760E+03  0.72203942779E+02  0.14683657441E+03  0.64834899812E+03  0.91498648727E+02 0.  0.
         13    1    3    3    0    0 -0.29326710881E+03  0.72528888834E+02  0.96336287573E+02  0.31709102341E+03  0.00000000000E+00 0. -1.
        -13    1    3    3    0    0 -0.32738579879E+03 -0.32494605522E+00  0.50500286834E+02  0.33125797471E+03  0.00000000000E+00 0.  1.
         22    1    1    2    0    0  0.62065290760E+03 -0.72203942779E+02  0.29513258801E+04  0.30167445851E+04  0.00000000000E+00 0. -1.
<mgrwt>
<rscale>  0 0.19581370E+04</rscale>
<asrwt>0</asrwt>
<pdfrwt beam="1">  1        2 0.43610089E-01 0.19581370E+04</pdfrwt>
<pdfrwt beam="2">  1       -2 0.52025043E+00 0.19581370E+04</pdfrwt>
<totfact> 0.13486857E-01</totfact>
</mgrwt>
</event>
<event>
 6    1  0.6091287E-004  0.6216326E+04  0.7818608E-02  0.7664144E-01
         -2   -1    0    0    0  501 -0.00000000000E+00  0.00000000000E+00  0.28805858298E+04  0.28805858298E+04  0.00000000000E+00 0. -1.
          2   -1    0    0  501    0  0.00000000000E+00 -0.00000000000E+00 -0.33537194220E+04  0.33537194220E+04  0.00000000000E+00 0.  1.
         23    2    1    2    0    0 -0.22807756728E+04 -0.19457621021E+04  0.58327856572E+03  0.30556365878E+04  0.93665594322E+02 0.  0.
         13    1    3    3    0    0 -0.90842430472E+03 -0.83131326256E+03  0.22222132477E+03  0.12512788559E+04  0.00000000000E+00 0. -1.
        -13    1    3    3    0    0 -0.13723513681E+04 -0.11144488395E+04  0.36105724095E+03  0.18043577319E+04  0.00000000000E+00 0.  1.
         22    1    1    2    0    0  0.22807756728E+04  0.19457621021E+04 -0.10564121579E+04  0.31786686639E+04  0.00000000000E+00 0.  1.
<mgrwt>
<rscale>  0 0.62163258E+04</rscale>
<asrwt>0</asrwt>
<pdfrwt beam="1">  1        2 0.51595683E+00 0.62163258E+04</pdfrwt>
<pdfrwt beam="2">  1       -2 0.44316705E+00 0.62163258E+04</pdfrwt>
<totfact> 0.26212824E-03</totfact>
</mgrwt>
</event>
<event>
 6    1  0.6091287E-004  0.2551913E+04  0.7818608E-02  0.8384721E-01
          2   -1    0    0  501    0  0.00000000000E+00  0.00000000000E+00  0.11083913368E+04  0.11083913368E+04  0.00000000000E+00 0.  1.
         -2   -1    0    0    0  501 -0.00000000000E+00 -0.00000000000E+00 -0.14688540989E+04  0.14688540989E+04  0.00000000000E+00 0. -1.
         23    2    1    2    0    0  0.79592229461E+03 -0.60056442712E+03 -0.98192084331E+03  0.14023496629E+04  0.90808063414E+02 0.  0.
         13    1    3    3    0    0  0.49055224559E+03 -0.32371128204E+03 -0.54194924246E+03  0.79946199483E+03  0.00000000000E+00 0.  1.
        -13    1    3    3    0    0  0.30537004902E+03 -0.27685314508E+03 -0.43997160086E+03  0.60288766809E+03  0.00000000000E+00 0. -1.
         22    1    1    2    0    0 -0.79592229461E+03  0.60056442712E+03  0.62145808120E+03  0.11748957728E+04  0.00000000000E+00 0.  1.
<mgrwt>
<rscale>  0 0.25519131E+04</rscale>
<asrwt>0</asrwt>
<pdfrwt beam="1">  1        2 0.17052174E+00 0.25519131E+04</pdfrwt>
<pdfrwt beam="2">  1       -2 0.22597755E+00 0.25519131E+04</pdfrwt>
<totfact> 0.17322038E+00</totfact>
</mgrwt>
</event>
<event>
 6    1  0.9605787E-004  0.3950758E+04  0.7818608E-02  0.8014554E-01
          2   -1    0    0  501    0  0.00000000000E+00  0.00000000000E+00  0.17081340736E+04  0.17081340736E+04  0.00000000000E+00 0.  1.
         -2   -1    0    0    0  501 -0.00000000000E+00 -0.00000000000E+00 -0.22844357889E+04  0.22844357889E+04  0.00000000000E+00 0. -1.
         23    2    1    2    0    0  0.14440979309E+04 -0.52556843948E+03  0.96427876485E+03  0.18165576303E+04  0.91690070501E+02 0.  0.
         11    1    3    3    0    0  0.72225571893E+03 -0.23155740178E+03  0.43409693207E+03  0.87390634525E+03  0.00000000000E+00 0. -1.
        -11    1    3    3    0    0  0.72184221202E+03 -0.29401103770E+03  0.53018183278E+03  0.94265128502E+03  0.00000000000E+00 0.  1.
         22    1    1    2    0    0 -0.14440979309E+04  0.52556843948E+03 -0.15405804802E+04  0.21760122322E+04  0.00000000000E+00 0. -1.
<mgrwt>
<rscale>  0 0.39507582E+04</rscale>
<asrwt>0</asrwt>
<pdfrwt beam="1">  1        2 0.26278986E+00 0.39507582E+04</pdfrwt>
<pdfrwt beam="2">  1       -2 0.35145166E+00 0.39507582E+04</pdfrwt>
<totfact> 0.11706128E-01</totfact>
</mgrwt>
</event>
<event>
 6    1  0.6091287E-004  0.6095072E+04  0.7818608E-02  0.7678725E-01
          2   -1    0    0  501    0  0.00000000000E+00  0.00000000000E+00  0.29255081746E+04  0.29255081746E+04  0.00000000000E+00 0.  1.
         -2   -1    0    0    0  501 -0.00000000000E+00 -0.00000000000E+00 -0.31746533147E+04  0.31746533147E+04  0.00000000000E+00 0. -1.
         23    2    1    2    0    0 -0.27414168473E+04  0.58712844587E+03  0.10693349009E+04  0.30020207951E+04  0.92550428364E+02 0.  0.
         13    1    3    3    0    0 -0.15355241247E+04  0.37579472849E+03  0.60170647575E+03  0.16914806232E+04  0.00000000000E+00 0. -1.
        -13    1    3    3    0    0 -0.12058927225E+04  0.21133371738E+03  0.46762842514E+03  0.13105401720E+04  0.00000000000E+00 0.  1.
         22    1    1    2    0    0  0.27414168473E+04 -0.58712844587E+03 -0.13184800410E+04  0.30981406942E+04  0.00000000000E+00 0. -1.
<mgrwt>
<rscale>  0 0.60950715E+04</rscale>
<asrwt>0</asrwt>
<pdfrwt beam="1">  1        2 0.45007818E+00 0.60950715E+04</pdfrwt>
<pdfrwt beam="2">  1       -2 0.48840820E+00 0.60950715E+04</pdfrwt>
<totfact> 0.25502223E-03</totfact>
</mgrwt>
</event>
<event>
 6    1  0.6091287E-004  0.2606001E+04  0.7818608E-02  0.8366166E-01
          4   -1    0    0  501    0  0.00000000000E+00  0.00000000000E+00  0.82572771079E+03  0.82572771079E+03  0.00000000000E+00 0.  1.
         -4   -1    0    0    0  501 -0.00000000000E+00 -0.00000000000E+00 -0.20561375975E+04  0.20561375975E+04  0.00000000000E+00 0. -1.
         23    2    1    2    0    0 -0.79119664617E+03  0.87704128129E+03 -0.12203101389E+04  0.17006390188E+04  0.88446002493E+02 0.  0.
         11    1    3    3    0    0 -0.57023550885E+03  0.58534857366E+03 -0.88005231970E+03  0.12009552755E+04  0.00000000000E+00 0. -1.
        -11    1    3    3    0    0 -0.22096113732E+03  0.29169270763E+03 -0.34025781918E+03  0.49968374339E+03  0.00000000000E+00 0.  1.
         22    1    1    2    0    0  0.79119664617E+03 -0.87704128129E+03 -0.10099747843E+02  0.11812262895E+04  0.00000000000E+00 0.  1.
<mgrwt>
<rscale>  0 0.26060006E+04</rscale>
<asrwt>0</asrwt>
<pdfrwt beam="1">  1        4 0.12703503E+00 0.26060006E+04</pdfrwt>
<pdfrwt beam="2">  1       -4 0.31632886E+00 0.26060006E+04</pdfrwt>
<totfact> 0.19716370E-02</totfact>
</mgrwt>
</event>
<event>
 6    1  0.6091287E-004  0.6218886E+04  0.7818608E-02  0.7663840E-01
         -2   -1    0    0    0  501 -0.00000000000E+00  0.00000000000E+00  0.28034479228E+04  0.28034479228E+04  0.00000000000E+00 0. -1.
          2   -1    0    0  501    0  0.00000000000E+00 -0.00000000000E+00 -0.34488367516E+04  0.34488367516E+04  0.00000000000E+00 0.  1.
         23    2    1    2    0    0 -0.30142427961E+04 -0.14093924497E+03  0.42878952978E+03  0.30492575670E+04  0.92670085766E+02 0.  0.
         11    1    3    3    0    0 -0.18772864615E+04 -0.11905908759E+03  0.29978497756E+03  0.19047967235E+04  0.00000000000E+00 0.  1.
        -11    1    3    3    0    0 -0.11369563345E+04 -0.21880157382E+02  0.12900455222E+03  0.11444608436E+04  0.00000000000E+00 0. -1.
         22    1    1    2    0    0  0.30142427961E+04  0.14093924497E+03 -0.10741783586E+04  0.32030271074E+04  0.00000000000E+00 0. -1.
<mgrwt>
<rscale>  0 0.62188855E+04</rscale>
<asrwt>0</asrwt>
<pdfrwt beam="1">  1        2 0.53059027E+00 0.62188855E+04</pdfrwt>
<pdfrwt beam="2">  1       -2 0.43129968E+00 0.62188855E+04</pdfrwt>
<totfact> 0.27000329E-03</totfact>
</mgrwt>
</event>
<event>
 6    1  0.6091287E-004  0.9903839E+03  0.7818608E-02  0.9319155E-01
          2   -1    0    0  501    0  0.00000000000E+00  0.00000000000E+00  0.17530336882E+04  0.17530336882E+04  0.00000000000E+00 0.  1.
         -2   -1    0    0    0  501 -0.00000000000E+00 -0.00000000000E+00 -0.13988041253E+03  0.13988041253E+03  0.00000000000E+00 0. -1.
         23    2    1    2    0    0 -0.47311667449E+03  0.11482150706E+03  0.93695178531E+03  0.10596843475E+04  0.89604140983E+02 0.  0.
         11    1    3    3    0    0 -0.37357034663E+03  0.11020841010E+03  0.67345881691E+03  0.77797652639E+03  0.00000000000E+00 0. -1.
        -11    1    3    3    0    0 -0.99546327863E+02  0.46130969648E+01  0.26349296840E+03  0.28170782107E+03  0.00000000000E+00 0.  1.
         22    1    1    2    0    0  0.47311667449E+03 -0.11482150706E+03  0.67620149034E+03  0.83322975325E+03  0.00000000000E+00 0. -1.
<mgrwt>
<rscale>  0 0.99038392E+03</rscale>
<asrwt>0</asrwt>
<pdfrwt beam="1">  1        2 0.26969747E+00 0.99038392E+03</pdfrwt>
<pdfrwt beam="2">  1       -2 0.21520065E-01 0.99038392E+03</pdfrwt>
<totfact> 0.17204573E+02</totfact>
</mgrwt>
</event>
<event>
 6    1  0.6091287E-004  0.2177923E+04  0.7818608E-02  0.8527673E-01
          2   -1    0    0  501    0  0.00000000000E+00  0.00000000000E+00  0.35908731130E+04  0.35908731130E+04  0.00000000000E+00 0.  1.
         -2   -1    0    0    0  501 -0.00000000000E+00 -0.00000000000E+00 -0.33023655498E+03  0.33023655498E+03  0.00000000000E+00 0. -1.
         23    2    1    2    0    0  0.71630383561E+03 -0.36013031819E+03  0.29544165492E+04  0.30628814204E+04  0.99400295199E+02 0.  0.
         11    1    3    3    0    0  0.38410056920E+03 -0.15009417078E+03  0.13931031579E+04  0.14528585326E+04  0.00000000000E+00 0. -1.
        -11    1    3    3    0    0  0.33220326641E+03 -0.21003614741E+03  0.15613133913E+04  0.16100228878E+04  0.00000000000E+00 0.  1.
         22    1    1    2    0    0 -0.71630383561E+03  0.36013031819E+03  0.30622000881E+03  0.85822824749E+03  0.00000000000E+00 0. -1.
<mgrwt>
<rscale>  0 0.21779234E+04</rscale>
<asrwt>0</asrwt>
<pdfrwt beam="1">  1        2 0.55244199E+00 0.21779234E+04</pdfrwt>
<pdfrwt beam="2">  1       -2 0.50805626E-01 0.21779234E+04</pdfrwt>
<totfact> 0.23607812E+00</totfact>
</mgrwt>
</event>
<event>
 6    1  0.6091287E-004  0.9255748E+03  0.7818608E-02  0.9394164E-01
          2   -1    0    0  501    0  0.00000000000E+00  0.00000000000E+00  0.18344088502E+04  0.18344088502E+04  0.00000000000E+00 0. -1.
         -2   -1    0    0    0  501 -0.00000000000E+00 -0.00000000000E+00 -0.11675270062E+03  0.11675270062E+03  0.00000000000E+00 0.  1.
         23    2    1    2    0    0 -0.20017853914E+03 -0.31680528943E+03  0.14231299125E+04  0.14745246416E+04  0.92125630788E+02 0.  0.
         11    1    3    3    0    0 -0.20104411066E+03 -0.25815155611E+03  0.12147606232E+04  0.12580557746E+04  0.00000000000E+00 0.  1.
        -11    1    3    3    0    0  0.86557151729E+00 -0.58653733319E+02  0.20836928930E+03  0.21646886697E+03  0.00000000000E+00 0. -1.
         22    1    1    2    0    0  0.20017853914E+03  0.31680528943E+03  0.29452623715E+03  0.47663690931E+03  0.00000000000E+00 0.  1.
<mgrwt>
<rscale>  0 0.92557482E+03</rscale>
<asrwt>0</asrwt>
<pdfrwt beam="1">  1        2 0.28221673E+00 0.92557482E+03</pdfrwt>
<pdfrwt beam="2">  1       -2 0.17961955E-01 0.92557482E+03</pdfrwt>
<totfact> 0.21399540E+02</totfact>
</mgrwt>
</event>
<event>
 6    1  0.6091287E-004  0.1787762E+04  0.7818608E-02  0.8712835E-01
          2   -1    0    0  501    0  0.00000000000E+00  0.00000000000E+00  0.21741846375E+04  0.21741846375E+04  0.00000000000E+00 0.  1.
         -2   -1    0    0    0  501 -0.00000000000E+00 -0.00000000000E+00 -0.36750464602E+03  0.36750464602E+03  0.00000000000E+00 0. -1.
         23    2    1    2    0    0  0.46169573854E+03 -0.70151341106E+03  0.48031327297E+03  0.97180626469E+03  0.91774479099E+02 0.  0.
         11    1    3    3    0    0  0.40053792605E+03 -0.55582487610E+03  0.41377194614E+03  0.80036188472E+03  0.00000000000E+00 0.  1.
        -11    1    3    3    0    0  0.61157812487E+02 -0.14568853496E+03  0.66541326832E+02  0.17144437997E+03  0.00000000000E+00 0. -1.
         22    1    1    2    0    0 -0.46169573854E+03  0.70151341106E+03  0.13263667185E+04  0.15698830188E+04  0.00000000000E+00 0.  1.
<mgrwt>
<rscale>  0 0.17877617E+04</rscale>
<asrwt>0</asrwt>
<pdfrwt beam="1">  1        2 0.33448994E+00 0.17877617E+04</pdfrwt>
<pdfrwt beam="2">  1       -2 0.56539178E-01 0.17877617E+04</pdfrwt>
<totfact> 0.14812524E+01</totfact>
</mgrwt>
</event>
<event>
 6    1  0.6091287E-004  0.2143033E+04  0.7818608E-02  0.8542520E-01
         -2   -1    0    0    0  501 -0.00000000000E+00  0.00000000000E+00  0.32108287262E+03  0.32108287262E+03  0.00000000000E+00 0. -1.
          2   -1    0    0  501    0  0.00000000000E+00 -0.00000000000E+00 -0.35758622493E+04  0.35758622493E+04  0.00000000000E+00 0.  1.
         23    2    1    2    0    0 -0.65360060299E+03  0.84438868944E+03 -0.15192653672E+04  0.18592516012E+04  0.91995943887E+02 0.  0.
         13    1    3    3    0    0 -0.15237651401E+03  0.26070297501E+03 -0.40499202506E+03  0.50517638856E+03  0.00000000000E+00 0. -1.
        -13    1    3    3    0    0 -0.50122408898E+03  0.58368571443E+03 -0.11142733421E+04  0.13540752127E+04  0.00000000000E+00 0.  1.
         22    1    1    2    0    0  0.65360060299E+03 -0.84438868944E+03 -0.17355140096E+04  0.20376935207E+04  0.00000000000E+00 0. -1.
<mgrwt>
<rscale>  0 0.21430335E+04</rscale>
<asrwt>0</asrwt>
<pdfrwt beam="1">  1        2 0.55013264E+00 0.21430335E+04</pdfrwt>
<pdfrwt beam="2">  1       -2 0.49397366E-01 0.21430335E+04</pdfrwt>
<totfact> 0.25711026E+00</totfact>
</mgrwt>
</event>
<event>
 6    1  0.6091287E-004  0.1140928E+04  0.7818608E-02  0.9166194E-01
         -2   -1    0    0    0  501 -0.00000000000E+00  0.00000000000E+00  0.79110292042E+03  0.79110292042E+03  0.00000000000E+00 0. -1.
          2   -1    0    0  501    0  0.00000000000E+00 -0.00000000000E+00 -0.41136127543E+03  0.41136127543E+03  0.00000000000E+00 0.  1.
         23    2    1    2    0    0 -0.31207009603E+03  0.35390286171E+03 -0.13878840401E+03  0.50138760083E+03  0.97428562637E+02 0.  0.
         11    1    3    3    0    0 -0.17704395871E+03  0.17730899237E+03 -0.25429197395E+02  0.25185250876E+03  0.00000000000E+00 0. -1.
        -11    1    3    3    0    0 -0.13502613732E+03  0.17659386934E+03 -0.11335920662E+03  0.24953509207E+03  0.00000000000E+00 0.  1.
         22    1    1    2    0    0  0.31207009603E+03 -0.35390286171E+03  0.51853004901E+03  0.70107659502E+03  0.00000000000E+00 0. -1.
<mgrwt>
<rscale>  0 0.11409279E+04</rscale>
<asrwt>0</asrwt>
<pdfrwt beam="1">  1        2 0.63286350E-01 0.11409279E+04</pdfrwt>
<pdfrwt beam="2">  1       -2 0.12170814E+00 0.11409279E+04</pdfrwt>
<totfact> 0.39096476E+01</totfact>
</mgrwt>
</event>
<event>
 6    1  0.6091287E-004  0.3005095E+04  0.7818608E-02  0.8242277E-01
          2   -1    0    0  501    0  0.00000000000E+00  0.00000000000E+00  0.19668830766E+04  0.19668830766E+04  0.00000000000E+00 0.  1.
         -2   -1    0    0    0  501 -0.00000000000E+00 -0.00000000000E+00 -0.11478310445E+04  0.11478310445E+04  0.00000000000E+00 0. -1.
         23    2    1    2    0    0 -0.30965265955E+03 -0.71679411552E+03 -0.91901848994E+03  0.12093092526E+04  0.90306754440E+02 0.  0.
         11    1    3    3    0    0 -0.15373331017E+03 -0.45682274166E+03 -0.53603568189E+03  0.72087113981E+03  0.00000000000E+00 0. -1.
        -11    1    3    3    0    0 -0.15591934937E+03 -0.25997137387E+03 -0.38298280805E+03  0.48843811276E+03  0.00000000000E+00 0.  1.
         22    1    1    2    0    0  0.30965265955E+03  0.71679411552E+03  0.17380705220E+04  0.19054048686E+04  0.00000000000E+00 0.  1.
<mgrwt>
<rscale>  0 0.30050953E+04</rscale>
<asrwt>0</asrwt>
<pdfrwt beam="1">  1        2 0.30259740E+00 0.30050953E+04</pdfrwt>
<pdfrwt beam="2">  1       -2 0.17658939E+00 0.30050953E+04</pdfrwt>
<totfact> 0.11423454E+00</totfact>
</mgrwt>
</event>
<event>
 6    1  0.6091287E-004  0.1026478E+04  0.7818608E-02  0.9279972E-01
          2   -1    0    0  501    0  0.00000000000E+00  0.00000000000E+00  0.81777526264E+03  0.81777526264E+03  0.00000000000E+00 0.  1.
         -2   -1    0    0    0  501 -0.00000000000E+00 -0.00000000000E+00 -0.32211066158E+03  0.32211066158E+03  0.00000000000E+00 0. -1.
         23    2    1    2    0    0  0.13399848280E+03 -0.45566058736E+03  0.45334398271E+03  0.66304926559E+03  0.92365565432E+02 0.  0.
         13    1    3    3    0    0  0.13879830938E+03 -0.41227004018E+03  0.37956556255E+03  0.57732276327E+03  0.00000000000E+00 0. -1.
        -13    1    3    3    0    0 -0.47998265725E+01 -0.43390547188E+02  0.73778420156E+02  0.85726502327E+02  0.00000000000E+00 0.  1.
         22    1    1    2    0    0 -0.13399848280E+03  0.45566058736E+03  0.42320618354E+02  0.47683665862E+03  0.00000000000E+00 0. -1.
<mgrwt>
<rscale>  0 0.10264777E+04</rscale>
<asrwt>0</asrwt>
<pdfrwt beam="1">  1        2 0.12581158E+00 0.10264777E+04</pdfrwt>
<pdfrwt beam="2">  1       -2 0.49555487E-01 0.10264777E+04</pdfrwt>
<totfact> 0.12850630E+02</totfact>
</mgrwt>
</event>
<event>
 6    1  0.6091287E-004  0.2699451E+04  0.7818608E-02  0.8335183E-01
         -2   -1    0    0    0  501 -0.00000000000E+00  0.00000000000E+00  0.98472594335E+03  0.98472594335E+03  0.00000000000E+00 0. -1.
          2   -1    0    0  501    0  0.00000000000E+00 -0.00000000000E+00 -0.18500164377E+04  0.18500164377E+04  0.00000000000E+00 0.  1.
         23    2    1    2    0    0 -0.76672045647E+03  0.79000144823E+03  0.38415862242E+03  0.11694839501E+04  0.90290175062E+02 0.  0.
         11    1    3    3    0    0 -0.28678184691E+03  0.29091227912E+03  0.96806189644E+02  0.41981569791E+03  0.00000000000E+00 0. -1.
        -11    1    3    3    0    0 -0.47993860956E+03  0.49908916910E+03  0.28735243277E+03  0.74966825215E+03  0.00000000000E+00 0.  1.
         22    1    1    2    0    0  0.76672045647E+03 -0.79000144823E+03 -0.12494491167E+04  0.16652584310E+04  0.00000000000E+00 0.  1.
<mgrwt>
<rscale>  0 0.26994512E+04</rscale>
<asrwt>0</asrwt>
<pdfrwt beam="1">  1        2 0.28461791E+00 0.26994512E+04</pdfrwt>
<pdfrwt beam="2">  1       -2 0.15149630E+00 0.26994512E+04</pdfrwt>
<totfact> 0.20726098E+00</totfact>
</mgrwt>
</event>
<event>
 6    1  0.6091287E-004  0.4166051E+04  0.7818608E-02  0.7971862E-01
         -2   -1    0    0    0  501 -0.00000000000E+00  0.00000000000E+00  0.12378609960E+04  0.12378609960E+04  0.00000000000E+00 0. -1.
          2   -1    0    0  501    0  0.00000000000E+00 -0.00000000000E+00 -0.35052359643E+04  0.35052359643E+04  0.00000000000E+00 0.  1.
         23    2    1    2    0    0  0.17952543921E+04 -0.49223392430E+03 -0.72739279695E+02  0.18653098984E+04  0.94114004183E+02 0.  0.
         11    1    3    3    0    0  0.17262665762E+04 -0.45625255217E+03 -0.78686320442E+02  0.17872756420E+04  0.00000000000E+00 0. -1.
        -11    1    3    3    0    0  0.68987815900E+02 -0.35981372120E+02  0.59470407467E+01  0.78034256426E+02  0.00000000000E+00 0.  1.
         22    1    1    2    0    0 -0.17952543921E+04  0.49223392430E+03 -0.21946356886E+04  0.28777870620E+04  0.00000000000E+00 0.  1.
<mgrwt>
<rscale>  0 0.41660508E+04</rscale>
<asrwt>0</asrwt>
<pdfrwt beam="1">  1        2 0.53926706E+00 0.41660508E+04</pdfrwt>
<pdfrwt beam="2">  1       -2 0.19044016E+00 0.41660508E+04</pdfrwt>
<totfact> 0.96422081E-02</totfact>
</mgrwt>
</event>
<event>
 6    1  0.6091287E-004  0.1622458E+04  0.7818608E-02  0.8806869E-01
          2   -1    0    0  501    0  0.00000000000E+00  0.00000000000E+00  0.16766295168E+04  0.16766295168E+04  0.00000000000E+00 0.  1.
         -2   -1    0    0    0  501 -0.00000000000E+00 -0.00000000000E+00 -0.39250898080E+03  0.39250898080E+03  0.00000000000E+00 0. -1.
         23    2    1    2    0    0  0.63225372534E+03  0.47643514263E+03  0.43579919146E+03  0.90880047704E+03  0.96240082376E+02 0.  0.
         13    1    3    3    0    0  0.16580148175E+03  0.15867687182E+03  0.16593392086E+03  0.28320054219E+03  0.00000000000E+00 0.  1.
        -13    1    3    3    0    0  0.46645224359E+03  0.31775827081E+03  0.26986527059E+03  0.62559993485E+03  0.00000000000E+00 0. -1.
         22    1    1    2    0    0 -0.63225372534E+03 -0.47643514263E+03  0.84832134450E+03  0.11603380205E+04  0.00000000000E+00 0.  1.
<mgrwt>
<rscale>  0 0.16224576E+04</rscale>
<asrwt>0</asrwt>
<pdfrwt beam="1">  1        2 0.25794300E+00 0.16224576E+04</pdfrwt>
<pdfrwt beam="2">  1       -2 0.60385998E-01 0.16224576E+04</pdfrwt>
<totfact> 0.24713183E+01</totfact>
</mgrwt>
</event>
<event>
 6    1  0.6091287E-004  0.5579273E+04  0.7818608E-02  0.7744874E-01
          2   -1    0    0  501    0  0.00000000000E+00  0.00000000000E+00  0.30904254580E+04  0.30904254580E+04  0.00000000000E+00 0.  1.
         -2   -1    0    0    0  501 -0.00000000000E+00 -0.00000000000E+00 -0.25181231113E+04  0.25181231113E+04  0.00000000000E+00 0. -1.
         23    2    1    2    0    0 -0.17496332875E+04 -0.21705314379E+04  0.21699750853E+03  0.27980922199E+04  0.99039328922E+02 0.  0.
         11    1    3    3    0    0 -0.11184197560E+04 -0.14556596134E+04  0.16223618620E+03  0.18428587143E+04  0.00000000000E+00 0. -1.
        -11    1    3    3    0    0 -0.63121353151E+03 -0.71487182445E+03  0.54761322331E+02  0.95523350558E+03  0.00000000000E+00 0.  1.
         22    1    1    2    0    0  0.17496332875E+04  0.21705314379E+04  0.35530483821E+03  0.28104563494E+04  0.00000000000E+00 0.  1.
<mgrwt>
<rscale>  0 0.55792730E+04</rscale>
<asrwt>0</asrwt>
<pdfrwt beam="1">  1        2 0.47545007E+00 0.55792730E+04</pdfrwt>
<pdfrwt beam="2">  1       -2 0.38740356E+00 0.55792730E+04</pdfrwt>
<totfact> 0.95173607E-03</totfact>
</mgrwt>
</event>
<event>
 6    1  0.6091287E-004  0.3171308E+04  0.7818608E-02  0.8196436E-01
         -2   -1    0    0    0  501 -0.00000000000E+00  0.00000000000E+00  0.10942352971E+04  0.10942352971E+04  0.00000000000E+00 0.  1.
          2   -1    0    0  501    0  0.00000000000E+00 -0.00000000000E+00 -0.22977673730E+04  0.22977673730E+04  0.00000000000E+00 0. -1.
         23    2    1    2    0    0 -0.30531123992E+03 -0.75193350686E+03  0.85323947734E+03  0.11809105928E+04  0.88956565296E+02 0.  0.
         13    1    3    3    0    0 -0.21343211382E+03 -0.60290203357E+03  0.63684548940E+03  0.90256097115E+03  0.00000000000E+00 0. -1.
        -13    1    3    3    0    0 -0.91879126106E+02 -0.14903147329E+03  0.21639398795E+03  0.27834962164E+03  0.00000000000E+00 0.  1.
         22    1    1    2    0    0  0.30531123992E+03  0.75193350686E+03 -0.20567715532E+04  0.22110920773E+04  0.00000000000E+00 0. -1.
<mgrwt>
<rscale>  0 0.31713077E+04</rscale>
<asrwt>0</asrwt>
<pdfrwt beam="1">  1        2 0.35350267E+00 0.31713077E+04</pdfrwt>
<pdfrwt beam="2">  1       -2 0.16834389E+00 0.31713077E+04</pdfrwt>
<totfact> 0.84049743E-01</totfact>
</mgrwt>
</event>
<event>
 6    1  0.6091287E-004  0.2594016E+04  0.7818608E-02  0.8370237E-01
         -2   -1    0    0    0  501 -0.00000000000E+00  0.00000000000E+00  0.17565548187E+04  0.17565548187E+04  0.00000000000E+00 0. -1.
          2   -1    0    0  501    0  0.00000000000E+00 -0.00000000000E+00 -0.95768733199E+03  0.95768733199E+03  0.00000000000E+00 0.  1.
         23    2    1    2    0    0 -0.15378007691E+02 -0.40856895272E+03 -0.88680462205E+03  0.97969450634E+03  0.78827760416E+02 0.  0.
         11    1    3    3    0    0  0.32381577290E+02 -0.17812530233E+03 -0.38391155873E+03  0.42445880225E+03  0.00000000000E+00 0. -1.
        -11    1    3    3    0    0 -0.47759584981E+02 -0.23044365039E+03 -0.50289306333E+03  0.55523570410E+03  0.00000000000E+00 0.  1.
         22    1    1    2    0    0  0.15378007691E+02  0.40856895272E+03  0.16856721088E+04  0.17345476444E+04  0.00000000000E+00 0. -1.
<mgrwt>
<rscale>  0 0.25940164E+04</rscale>
<asrwt>0</asrwt>
<pdfrwt beam="1">  1        2 0.14733651E+00 0.25940164E+04</pdfrwt>
<pdfrwt beam="2">  1       -2 0.27023920E+00 0.25940164E+04</pdfrwt>
<totfact> 0.11471423E+00</totfact>
</mgrwt>
</event>
<event>
 6    1  0.6091287E-004  0.1918695E+04  0.7818608E-02  0.8645606E-01
          2   -1    0    0  501    0  0.00000000000E+00  0.00000000000E+00  0.20832101406E+04  0.20832101406E+04  0.00000000000E+00 0.  1.
         -2   -1    0    0    0  501 -0.00000000000E+00 -0.00000000000E+00 -0.44179294042E+03  0.44179294042E+03  0.00000000000E+00 0. -1.
         23    2    1    2    0    0  0.86127219233E+03  0.32585736386E+02  0.27436405758E+03  0.90893194577E+03  0.89610414930E+02 0.  0.
         13    1    3    3    0    0  0.56994957097E+03  0.30834664873E+02  0.22460773738E+03  0.61338562560E+03  0.00000000000E+00 0. -1.
        -13    1    3    3    0    0  0.29132262136E+03  0.17510715135E+01  0.49756320199E+02  0.29554632017E+03  0.00000000000E+00 0.  1.
         22    1    1    2    0    0 -0.86127219233E+03 -0.32585736386E+02  0.13670531426E+04  0.16160711352E+04  0.00000000000E+00 0.  1.
<mgrwt>
<rscale>  0 0.19186949E+04</rscale>
<asrwt>0</asrwt>
<pdfrwt beam="1">  1        2 0.32049386E+00 0.19186949E+04</pdfrwt>
<pdfrwt beam="2">  1       -2 0.67968146E-01 0.19186949E+04</pdfrwt>
<totfact> 0.11129682E+01</totfact>
</mgrwt>
</event>
<event>
 6    1  0.6091287E-004  0.2467894E+04  0.7818608E-02  0.8414514E-01
          2   -1    0    0  501    0  0.00000000000E+00  0.00000000000E+00  0.20019090231E+04  0.20019090231E+04  0.00000000000E+00 0.  1.
         -2   -1    0    0    0  501 -0.00000000000E+00 -0.00000000000E+00 -0.76058643923E+03  0.76058643923E+03  0.00000000000E+00 0. -1.
         23    2    1    2    0    0  0.77197887578E+03  0.40880857678E+03  0.15944020552E+04  0.18202954039E+04  0.91003332925E+02 0.  0.
         11    1    3    3    0    0  0.40508764476E+03  0.18002231280E+03  0.87707453267E+03  0.98273280646E+03  0.00000000000E+00 0. -1.
        -11    1    3    3    0    0  0.36689123102E+03  0.22878626397E+03  0.71732752254E+03  0.83756259741E+03  0.00000000000E+00 0.  1.
         22    1    1    2    0    0 -0.77197887578E+03 -0.40880857678E+03 -0.35307947133E+03  0.94220005846E+03  0.00000000000E+00 0. -1.
<mgrwt>
<rscale>  0 0.24678937E+04</rscale>
<asrwt>0</asrwt>
<pdfrwt beam="1">  1        2 0.30798600E+00 0.24678937E+04</pdfrwt>
<pdfrwt beam="2">  1       -2 0.11701330E+00 0.24678937E+04</pdfrwt>
<totfact> 0.33680866E+00</totfact>
</mgrwt>
</event>
<event>
 6    1  0.6091287E-004  0.1237633E+04  0.7818608E-02  0.9080540E-01
         -2   -1    0    0    0  501 -0.00000000000E+00  0.00000000000E+00  0.47762115412E+03  0.47762115412E+03  0.00000000000E+00 0. -1.
          2   -1    0    0  501    0  0.00000000000E+00 -0.00000000000E+00 -0.80175205995E+03  0.80175205995E+03  0.00000000000E+00 0.  1.
         23    2    1    2    0    0  0.42040052225E+03 -0.44614787892E+03 -0.21955311576E+03  0.65750422211E+03  0.91234327318E+02 0.  0.
         13    1    3    3    0    0  0.10333636280E+03 -0.14686542721E+03 -0.29946552035E+02  0.18205673172E+03  0.00000000000E+00 0. -1.
        -13    1    3    3    0    0  0.31706415946E+03 -0.29928245171E+03 -0.18960656373E+03  0.47544749039E+03  0.00000000000E+00 0.  1.
         22    1    1    2    0    0 -0.42040052225E+03  0.44614787892E+03 -0.10457779007E+03  0.62186899195E+03  0.00000000000E+00 0.  1.
<mgrwt>
<rscale>  0 0.12376328E+04</rscale>
<asrwt>0</asrwt>
<pdfrwt beam="1">  1        2 0.12334647E+00 0.12376328E+04</pdfrwt>
<pdfrwt beam="2">  1       -2 0.73480179E-01 0.12376328E+04</pdfrwt>
<totfact> 0.56512105E+01</totfact>
</mgrwt>
</event>
<event>
 6    1  0.6091287E-004  0.4782864E+04  0.7818608E-02  0.7862904E-01
          2   -1    0    0  501    0  0.00000000000E+00  0.00000000000E+00  0.26021723742E+04  0.26021723742E+04  0.00000000000E+00 0.  1.
         -2   -1    0    0    0  501 -0.00000000000E+00 -0.00000000000E+00 -0.21977591314E+04  0.21977591314E+04  0.00000000000E+00 0. -1.
         23    2    1    2    0    0  0.73036591336E+03  0.22762657085E+04  0.21053551790E+03  0.24015135863E+04  0.90124123952E+02 0.  0.
         13    1    3    3    0    0  0.23502607244E+03  0.81157604085E+03  0.38620252197E+02  0.84580402499E+03  0.00000000000E+00 0. -1.
        -13    1    3    3    0    0  0.49533984092E+03  0.14646896677E+04  0.17191526570E+03  0.15557095613E+04  0.00000000000E+00 0.  1.
         22    1    1    2    0    0 -0.73036591336E+03 -0.22762657085E+04  0.19387772496E+03  0.23984179193E+04  0.00000000000E+00 0.  1.
<mgrwt>
<rscale>  0 0.47828645E+04</rscale>
<asrwt>0</asrwt>
<pdfrwt beam="1">  1        2 0.40033421E+00 0.47828645E+04</pdfrwt>
<pdfrwt beam="2">  1       -2 0.33811679E+00 0.47828645E+04</pdfrwt>
<totfact> 0.41521731E-02</totfact>
</mgrwt>
</event>
<event>
 6    1  0.6091287E-004  0.9549299E+03  0.7818608E-02  0.9359407E-01
         -2   -1    0    0    0  501 -0.00000000000E+00  0.00000000000E+00  0.37553834112E+03  0.37553834112E+03  0.00000000000E+00 0. -1.
          2   -1    0    0  501    0  0.00000000000E+00 -0.00000000000E+00 -0.60705594598E+03  0.60705594598E+03  0.00000000000E+00 0.  1.
         23    2    1    2    0    0 -0.68835177174E+02  0.21017562847E+03 -0.54681197484E+03  0.59746753374E+03  0.95142217883E+02 0.  0.
         13    1    3    3    0    0 -0.26529446507E+02  0.10460629942E+03 -0.15072694043E+03  0.18537772246E+03  0.00000000000E+00 0. -1.
        -13    1    3    3    0    0 -0.42305730667E+02  0.10556932906E+03 -0.39608503440E+03  0.41208981128E+03  0.00000000000E+00 0.  1.
         22    1    1    2    0    0  0.68835177174E+02 -0.21017562847E+03  0.31529436998E+03  0.38512675337E+03  0.00000000000E+00 0. -1.
<mgrwt>
<rscale>  0 0.95492991E+03</rscale>
<asrwt>0</asrwt>
<pdfrwt beam="1">  1        2 0.93393222E-01 0.95492991E+03</pdfrwt>
<pdfrwt beam="2">  1       -2 0.57775130E-01 0.95492991E+03</pdfrwt>
<totfact> 0.13731245E+02</totfact>
</mgrwt>
</event>
<event>
 6    1  0.6091287E-004  0.3387798E+04  0.7818608E-02  0.8140907E-01
          2   -1    0    0  501    0  0.00000000000E+00  0.00000000000E+00  0.23674204071E+04  0.23674204071E+04  0.00000000000E+00 0.  1.
         -2   -1    0    0    0  501 -0.00000000000E+00 -0.00000000000E+00 -0.12119919649E+04  0.12119919649E+04  0.00000000000E+00 0. -1.
         23    2    1    2    0    0 -0.89645291577E+03 -0.24300046432E+03 -0.91683367264E+03  0.13085210650E+04  0.94690751035E+02 0.  0.
         11    1    3    3    0    0 -0.21423564842E+03 -0.17032034438E+02 -0.21617145107E+03  0.30482306263E+03  0.00000000000E+00 0.  1.
        -11    1    3    3    0    0 -0.68221726735E+03 -0.22596842988E+03 -0.70066222156E+03  0.10036980023E+04  0.00000000000E+00 0. -1.
         22    1    1    2    0    0  0.89645291577E+03  0.24300046432E+03  0.20722621149E+04  0.22708913071E+04  0.00000000000E+00 0.  1.
<mgrwt>
<rscale>  0 0.33877984E+04</rscale>
<asrwt>0</asrwt>
<pdfrwt beam="1">  1        2 0.36421852E+00 0.33877984E+04</pdfrwt>
<pdfrwt beam="2">  1       -2 0.18646030E+00 0.33877984E+04</pdfrwt>
<totfact> 0.56355024E-01</totfact>
</mgrwt>
</event>
<event>
 6    1  0.6091287E-004  0.5956661E+03  0.7818608E-02  0.9914439E-01
         -2   -1    0    0    0  501 -0.00000000000E+00  0.00000000000E+00  0.35234311688E+02  0.35234311688E+02  0.00000000000E+00 0. -1.
          2   -1    0    0  501    0  0.00000000000E+00 -0.00000000000E+00 -0.25175607334E+04  0.25175607334E+04  0.00000000000E+00 0.  1.
         23    2    1    2    0    0  0.15006468795E+03  0.19171838003E+03 -0.19527724898E+04  0.19699548314E+04  0.90145955428E+02 0.  0.
         11    1    3    3    0    0  0.24773043156E+02  0.10265795570E+03 -0.74960285408E+03  0.75700515082E+03  0.00000000000E+00 0. -1.
        -11    1    3    3    0    0  0.12529164479E+03  0.89060424329E+02 -0.12031696357E+04  0.12129496806E+04  0.00000000000E+00 0.  1.
         22    1    1    2    0    0 -0.15006468795E+03 -0.19171838003E+03 -0.52955393189E+03  0.58284021360E+03  0.00000000000E+00 0. -1.
<mgrwt>
<rscale>  0 0.59566608E+03</rscale>
<asrwt>0</asrwt>
<pdfrwt beam="1">  1        2 0.38731691E+00 0.59566608E+03</pdfrwt>
<pdfrwt beam="2">  1       -2 0.54206651E-02 0.59566608E+03</pdfrwt>
<totfact> 0.65125923E+02</totfact>
</mgrwt>
</event>
<event>
 6    1  0.6091287E-004  0.2144105E+04  0.7818608E-02  0.8542060E-01
          2   -1    0    0  501    0  0.00000000000E+00  0.00000000000E+00  0.82248785057E+03  0.82248785057E+03  0.00000000000E+00 0.  1.
         -2   -1    0    0    0  501 -0.00000000000E+00 -0.00000000000E+00 -0.13973419875E+04  0.13973419875E+04  0.00000000000E+00 0. -1.
         23    2    1    2    0    0  0.46928176911E+03 -0.96159504042E+03 -0.29444739767E+03  0.11137022053E+04  0.93503644512E+02 0.  0.
         11    1    3    3    0    0  0.25410357233E+03 -0.54161384640E+03 -0.11729204966E+03  0.60964875871E+03  0.00000000000E+00 0.  1.
        -11    1    3    3    0    0  0.21517819678E+03 -0.41998119402E+03 -0.17715534801E+03  0.50405344660E+03  0.00000000000E+00 0. -1.
         22    1    1    2    0    0 -0.46928176911E+03  0.96159504042E+03 -0.28040673928E+03  0.11061276328E+04  0.00000000000E+00 0. -1.
<mgrwt>
<rscale>  0 0.21441052E+04</rscale>
<asrwt>0</asrwt>
<pdfrwt beam="1">  1        2 0.12653659E+00 0.21441052E+04</pdfrwt>
<pdfrwt beam="2">  1       -2 0.21497569E+00 0.21441052E+04</pdfrwt>
<totfact> 0.32409217E+00</totfact>
</mgrwt>
</event>
<event>
 6    1  0.6091287E-004  0.5331166E+04  0.7818608E-02  0.7779358E-01
          2   -1    0    0  501    0  0.00000000000E+00  0.00000000000E+00  0.39097197669E+04  0.39097197669E+04  0.00000000000E+00 0.  1.
         -2   -1    0    0    0  501 -0.00000000000E+00 -0.00000000000E+00 -0.18173511935E+04  0.18173511935E+04  0.00000000000E+00 0. -1.
         23    2    1    2    0    0  0.14195508819E+04 -0.17523377095E+04  0.25715398525E+04  0.34215520884E+04  0.91593265442E+02 0.  0.
         11    1    3    3    0    0  0.81527356270E+03 -0.93913284271E+03  0.13915799763E+04  0.18663162403E+04  0.00000000000E+00 0. -1.
        -11    1    3    3    0    0  0.60427731921E+03 -0.81320486678E+03  0.11799598762E+04  0.15552358481E+04  0.00000000000E+00 0.  1.
         22    1    1    2    0    0 -0.14195508819E+04  0.17523377095E+04 -0.47917127910E+03  0.23055188720E+04  0.00000000000E+00 0. -1.
<mgrwt>
<rscale>  0 0.53311664E+04</rscale>
<asrwt>0</asrwt>
<pdfrwt beam="1">  1        2 0.60149535E+00 0.53311664E+04</pdfrwt>
<pdfrwt beam="2">  1       -2 0.27959249E+00 0.53311664E+04</pdfrwt>
<totfact> 0.12080255E-02</totfact>
</mgrwt>
</event>
<event>
 6    1  0.6091287E-004  0.1445210E+04  0.7818608E-02  0.8921728E-01
          2   -1    0    0  501    0  0.00000000000E+00  0.00000000000E+00  0.10599603387E+04  0.10599603387E+04  0.00000000000E+00 0.  1.
         -2   -1    0    0    0  501 -0.00000000000E+00 -0.00000000000E+00 -0.49262015792E+03  0.49262015792E+03  0.00000000000E+00 0. -1.
         23    2    1    2    0    0  0.25577886472E+03  0.68094477042E+02 -0.43428866274E+03  0.51656890132E+03  0.90427328742E+02 0.  0.
         13    1    3    3    0    0  0.11797005648E+03  0.32515337286E+02 -0.11921682044E+03  0.17084153962E+03  0.00000000000E+00 0.  1.
        -13    1    3    3    0    0  0.13780880824E+03  0.35579139757E+02 -0.31507184231E+03  0.34572736170E+03  0.00000000000E+00 0. -1.
         22    1    1    2    0    0 -0.25577886472E+03 -0.68094477042E+02  0.10016288435E+04  0.10360115953E+04  0.00000000000E+00 0.  1.
<mgrwt>
<rscale>  0 0.14452098E+04</rscale>
<asrwt>0</asrwt>
<pdfrwt beam="1">  1        2 0.16307082E+00 0.14452098E+04</pdfrwt>
<pdfrwt beam="2">  1       -2 0.75787717E-01 0.14452098E+04</pdfrwt>
<totfact> 0.34929776E+01</totfact>
</mgrwt>
</event>
<event>
 6    1  0.6091287E-004  0.3498372E+04  0.7818608E-02  0.8114176E-01
          2   -1    0    0  501    0  0.00000000000E+00  0.00000000000E+00  0.39366395307E+04  0.39366395307E+04  0.00000000000E+00 0.  1.
         -2   -1    0    0    0  501 -0.00000000000E+00 -0.00000000000E+00 -0.77722420911E+03  0.77722420911E+03  0.00000000000E+00 0. -1.
         23    2    1    2    0    0 -0.11544651801E+04 -0.92697237759E+03  0.28328204823E+04  0.31977068120E+04  0.91593285183E+02 0.  0.
         11    1    3    3    0    0 -0.26221220807E+03 -0.22712787296E+03  0.74504704030E+03  0.82184998935E+03  0.00000000000E+00 0. -1.
        -11    1    3    3    0    0 -0.89225297198E+03 -0.69984450463E+03  0.20877734420E+04  0.23758568226E+04  0.00000000000E+00 0.  1.
         22    1    1    2    0    0  0.11544651801E+04  0.92697237759E+03  0.32659483935E+03  0.15161569278E+04  0.00000000000E+00 0. -1.
<mgrwt>
<rscale>  0 0.34983719E+04</rscale>
<asrwt>0</asrwt>
<pdfrwt beam="1">  1        2 0.60563684E+00 0.34983719E+04</pdfrwt>
<pdfrwt beam="2">  1       -2 0.11957296E+00 0.34983719E+04</pdfrwt>
<totfact> 0.16890019E-01</totfact>
</mgrwt>
</event>
<event>
 6    1  0.6091287E-004  0.5065473E+03  0.7818608E-02  0.1012084E+00
         -2   -1    0    0    0  501 -0.00000000000E+00  0.00000000000E+00  0.64044366349E+02  0.64044366349E+02  0.00000000000E+00 0. -1.
          2   -1    0    0  501    0  0.00000000000E+00 -0.00000000000E+00 -0.10016110718E+04  0.10016110718E+04  0.00000000000E+00 0.  1.
         23    2    1    2    0    0  0.43352968159E+02  0.28203292776E+02 -0.98799791967E+03  0.99341823897E+03  0.89805359929E+02 0.  0.
         13    1    3    3    0    0  0.46231825418E+02 -0.18859329593E+02 -0.33265788997E+03  0.33638419665E+03  0.00000000000E+00 0.  1.
        -13    1    3    3    0    0 -0.28788572583E+01  0.47062622369E+02 -0.65534002970E+03  0.65703404232E+03  0.00000000000E+00 0. -1.
         22    1    1    2    0    0 -0.43352968159E+02 -0.28203292776E+02  0.50431214244E+02  0.72237199155E+02  0.00000000000E+00 0. -1.
<mgrwt>
<rscale>  0 0.50654732E+03</rscale>
<asrwt>0</asrwt>
<pdfrwt beam="1">  1        2 0.15409400E+00 0.50654732E+03</pdfrwt>
<pdfrwt beam="2">  1       -2 0.98529801E-02 0.50654732E+03</pdfrwt>
<totfact> 0.17784699E+03</totfact>
</mgrwt>
</event>
<event>
 6    1  0.6091287E-004  0.2293365E+04  0.7818608E-02  0.8480542E-01
          2   -1    0    0  501    0  0.00000000000E+00  0.00000000000E+00  0.16089963595E+04  0.16089963595E+04  0.00000000000E+00 0.  1.
         -2   -1    0    0    0  501 -0.00000000000E+00 -0.00000000000E+00 -0.81720581463E+03  0.81720581463E+03  0.00000000000E+00 0. -1.
         23    2    1    2    0    0 -0.11221782012E+04 -0.67097751801E+02  0.16723037030E+03  0.11401767330E+04  0.90834807779E+02 0.  0.
         11    1    3    3    0    0 -0.48549685233E+03 -0.17765114913E+02  0.11637154526E+03  0.49956494020E+03  0.00000000000E+00 0.  1.
        -11    1    3    3    0    0 -0.63668134885E+03 -0.49332636888E+02  0.50858825040E+02  0.64061179284E+03  0.00000000000E+00 0. -1.
         22    1    1    2    0    0  0.11221782012E+04  0.67097751801E+02  0.62456017458E+03  0.12860254411E+04  0.00000000000E+00 0.  1.
<mgrwt>
<rscale>  0 0.22933654E+04</rscale>
<asrwt>0</asrwt>
<pdfrwt beam="1">  1        2 0.24753790E+00 0.22933654E+04</pdfrwt>
<pdfrwt beam="2">  1       -2 0.12572397E+00 0.22933654E+04</pdfrwt>
<totfact> 0.47261018E+00</totfact>
</mgrwt>
</event>
<event>
 6    1  0.6091287E-004  0.4279589E+04  0.7818608E-02  0.7950403E-01
         -2   -1    0    0    0  501 -0.00000000000E+00  0.00000000000E+00  0.12494842219E+04  0.12494842219E+04  0.00000000000E+00 0. -1.
          2   -1    0    0  501    0  0.00000000000E+00 -0.00000000000E+00 -0.36644882476E+04  0.36644882476E+04  0.00000000000E+00 0.  1.
         23    2    1    2    0    0  0.13732103208E+03  0.68640855361E+03  0.11127201272E+04  0.13174670174E+04  0.86945340443E+02 0.  0.
         11    1    3    3    0    0  0.14799798572E+02  0.29168991077E+03  0.46640002569E+03  0.55030084685E+03  0.00000000000E+00 0. -1.
        -11    1    3    3    0    0  0.12252123351E+03  0.39471864284E+03  0.64632010150E+03  0.76716617057E+03  0.00000000000E+00 0.  1.
         22    1    1    2    0    0 -0.13732103208E+03 -0.68640855361E+03 -0.35277241528E+04  0.35965054521E+04  0.00000000000E+00 0.  1.
<mgrwt>
<rscale>  0 0.42795889E+04</rscale>
<asrwt>0</asrwt>
<pdfrwt beam="1">  1        2 0.56376742E+00 0.42795889E+04</pdfrwt>
<pdfrwt beam="2">  1       -2 0.19222834E+00 0.42795889E+04</pdfrwt>
<totfact> 0.71428159E-02</totfact>
</mgrwt>
</event>
<event>
 6    1  0.6091287E-004  0.2127286E+04  0.7818608E-02  0.8549318E-01
         -2   -1    0    0    0  501 -0.00000000000E+00  0.00000000000E+00  0.50977755168E+03  0.50977755168E+03  0.00000000000E+00 0. -1.
          2   -1    0    0  501    0  0.00000000000E+00 -0.00000000000E+00 -0.22192747384E+04  0.22192747384E+04  0.00000000000E+00 0.  1.
         23    2    1    2    0    0  0.52425437074E+03  0.27958787916E+03 -0.19850230571E+04  0.20741274603E+04  0.93145890395E+02 0.  0.
         11    1    3    3    0    0  0.26096379173E+03  0.13854906411E+03 -0.11478613262E+04  0.11852778442E+04  0.00000000000E+00 0. -1.
        -11    1    3    3    0    0  0.26329057902E+03  0.14103881504E+03 -0.83716173095E+03  0.88884961614E+03  0.00000000000E+00 0.  1.
         22    1    1    2    0    0 -0.52425437074E+03 -0.27958787916E+03  0.27552587038E+03  0.65492482978E+03  0.00000000000E+00 0. -1.
<mgrwt>
<rscale>  0 0.21272860E+04</rscale>
<asrwt>0</asrwt>
<pdfrwt beam="1">  1        2 0.34142688E+00 0.21272860E+04</pdfrwt>
<pdfrwt beam="2">  1       -2 0.78427316E-01 0.21272860E+04</pdfrwt>
<totfact> 0.66927515E+00</totfact>
</mgrwt>
</event>
<event>
 6    1  0.6091287E-004  0.1712014E+04  0.7818608E-02  0.8754542E-01
          2   -1    0    0  501    0  0.00000000000E+00  0.00000000000E+00  0.97504279107E+03  0.97504279107E+03  0.00000000000E+00 0. -1.
         -2   -1    0    0    0  501 -0.00000000000E+00 -0.00000000000E+00 -0.75150313345E+03  0.75150313345E+03  0.00000000000E+00 0.  1.
         23    2    1    2    0    0  0.63265455581E+03 -0.45372254812E+03  0.46533977697E+03  0.91132617784E+03  0.88647372963E+02 0.  0.
         11    1    3    3    0    0  0.32093633070E+03 -0.26808414288E+03  0.21217936814E+03  0.46892357617E+03  0.00000000000E+00 0. -1.
        -11    1    3    3    0    0  0.31171822510E+03 -0.18563840525E+03  0.25316040884E+03  0.44240260167E+03  0.00000000000E+00 0.  1.
         22    1    1    2    0    0 -0.63265455581E+03  0.45372254812E+03 -0.24180011935E+03  0.81521974668E+03  0.00000000000E+00 0. -1.
<mgrwt>
<rscale>  0 0.17120137E+04</rscale>
<asrwt>0</asrwt>
<pdfrwt beam="1">  1        2 0.15000658E+00 0.17120137E+04</pdfrwt>
<pdfrwt beam="2">  1       -2 0.11561587E+00 0.17120137E+04</pdfrwt>
<totfact> 0.14465700E+01</totfact>
</mgrwt>
</event>
<event>
 6    1  0.6091287E-004  0.1692220E+04  0.7818608E-02  0.8765814E-01
         -2   -1    0    0    0  501 -0.00000000000E+00  0.00000000000E+00  0.22722820116E+03  0.22722820116E+03  0.00000000000E+00 0. -1.
          2   -1    0    0  501    0  0.00000000000E+00 -0.00000000000E+00 -0.31505875983E+04  0.31505875983E+04  0.00000000000E+00 0.  1.
         23    2    1    2    0    0  0.74120811888E+03 -0.73154724731E+02 -0.22564555779E+04  0.23780649338E+04  0.94127387770E+02 0.  0.
         13    1    3    3    0    0  0.62135669824E+03 -0.31058015779E+02 -0.18129201863E+04  0.19166972501E+04  0.00000000000E+00 0.  1.
        -13    1    3    3    0    0  0.11985142064E+03 -0.42096708952E+02 -0.44353539158E+03  0.46136768365E+03  0.00000000000E+00 0. -1.
         22    1    1    2    0    0 -0.74120811888E+03  0.73154724731E+02 -0.66690381924E+03  0.99975086564E+03  0.00000000000E+00 0. -1.
<mgrwt>
<rscale>  0 0.16922203E+04</rscale>
<asrwt>0</asrwt>
<pdfrwt beam="1">  1        2 0.48470580E+00 0.16922203E+04</pdfrwt>
<pdfrwt beam="2">  1       -2 0.34958184E-01 0.16922203E+04</pdfrwt>
<totfact> 0.10271978E+01</totfact>
</mgrwt>
</event>
<event>
 6    1  0.6091287E-004  0.1464361E+04  0.7818608E-02  0.8908505E-01
          2   -1    0    0  501    0  0.00000000000E+00  0.00000000000E+00  0.22193854945E+04  0.22193854945E+04  0.00000000000E+00 0.  1.
         -2   -1    0    0    0  501 -0.00000000000E+00 -0.00000000000E+00 -0.24154796640E+03  0.24154796640E+03  0.00000000000E+00 0. -1.
         23    2    1    2    0    0 -0.29801708132E+03  0.22426242686E+02  0.21108868717E+04  0.21337955007E+04  0.89009754868E+02 0.  0.
         11    1    3    3    0    0 -0.27930613887E+02 -0.25039491899E+02  0.27174297033E+03  0.27431977193E+03  0.00000000000E+00 0. -1.
        -11    1    3    3    0    0 -0.27008646744E+03  0.47465734585E+02  0.18391439014E+04  0.18594757288E+04  0.00000000000E+00 0.  1.
         22    1    1    2    0    0  0.29801708132E+03 -0.22426242686E+02 -0.13304934367E+03  0.32713796015E+03  0.00000000000E+00 0. -1.
<mgrwt>
<rscale>  0 0.14643607E+04</rscale>
<asrwt>0</asrwt>
<pdfrwt beam="1">  1        2 0.34144391E+00 0.14643607E+04</pdfrwt>
<pdfrwt beam="2">  1       -2 0.37161227E-01 0.14643607E+04</pdfrwt>
<totfact> 0.33343651E+01</totfact>
</mgrwt>
</event>
<event>
 6    1  0.7090273E-004  0.5208135E+04  0.7818608E-02  0.7797179E-01
         -2   -1    0    0    0  501 -0.00000000000E+00  0.00000000000E+00  0.40396504315E+04  0.40396504315E+04  0.00000000000E+00 0. -1.
          2   -1    0    0  501    0  0.00000000000E+00 -0.00000000000E+00 -0.16786517699E+04  0.16786517699E+04  0.00000000000E+00 0.  1.
         23    2    1    2    0    0  0.66114130263E+03  0.28304462706E+03  0.39279291849E+04  0.39942101656E+04  0.88685298879E+02 0.  0.
         11    1    3    3    0    0  0.31480377593E+03  0.15727873928E+03  0.21354579139E+04  0.21642593470E+04  0.00000000000E+00 0.  1.
        -11    1    3    3    0    0  0.34633752670E+03  0.12576588778E+03  0.17924712710E+04  0.18299508185E+04  0.00000000000E+00 0. -1.
         22    1    1    2    0    0 -0.66114130263E+03 -0.28304462706E+03 -0.15669305233E+04  0.17240920358E+04  0.00000000000E+00 0.  1.
<mgrwt>
<rscale>  0 0.52081345E+04</rscale>
<asrwt>0</asrwt>
<pdfrwt beam="1">  1        2 0.25825412E+00 0.52081345E+04</pdfrwt>
<pdfrwt beam="2">  1       -2 0.62148468E+00 0.52081345E+04</pdfrwt>
<totfact> 0.30817551E-03</totfact>
</mgrwt>
</event>
<event>
 6    1  0.1445316E-003  0.3629382E+04  0.7818608E-02  0.8083794E-01
          2   -1    0    0  501    0  0.00000000000E+00  0.00000000000E+00  0.18744360261E+04  0.18744360261E+04  0.00000000000E+00 0.  1.
         -2   -1    0    0    0  501 -0.00000000000E+00 -0.00000000000E+00 -0.17568506584E+04  0.17568506584E+04  0.00000000000E+00 0. -1.
         23    2    1    2    0    0 -0.11708267462E+04 -0.22222204052E+03  0.14264593052E+04  0.18611542349E+04  0.94292267086E+02 0.  0.
         11    1    3    3    0    0 -0.60936612228E+03 -0.10951189420E+03  0.66812780463E+03  0.91088675985E+03  0.00000000000E+00 0. -1.
        -11    1    3    3    0    0 -0.56146062390E+03 -0.11271014632E+03  0.75833150060E+03  0.95026747502E+03  0.00000000000E+00 0.  1.
         22    1    1    2    0    0  0.11708267462E+04  0.22222204052E+03 -0.13088739376E+04  0.17701324497E+04  0.00000000000E+00 0. -1.
<mgrwt>
<rscale>  0 0.36293824E+04</rscale>
<asrwt>0</asrwt>
<pdfrwt beam="1">  1        2 0.28837478E+00 0.36293824E+04</pdfrwt>
<pdfrwt beam="2">  1       -2 0.27028471E+00 0.36293824E+04</pdfrwt>
<totfact> 0.30795510E-01</totfact>
</mgrwt>
</event>
<event>
 6    1  0.6091287E-004  0.3751773E+04  0.7818608E-02  0.8056584E-01
         -2   -1    0    0    0  501 -0.00000000000E+00  0.00000000000E+00  0.16146472767E+04  0.16146472767E+04  0.00000000000E+00 0. -1.
          2   -1    0    0  501    0  0.00000000000E+00 -0.00000000000E+00 -0.21793923221E+04  0.21793923221E+04  0.00000000000E+00 0.  1.
         23    2    1    2    0    0 -0.58924339268E+03 -0.59277170204E+03 -0.19795532020E+04  0.21507903218E+04  0.93177585992E+02 0.  0.
         13    1    3    3    0    0 -0.31971188670E+03 -0.38252691285E+03 -0.11335577767E+04  0.12383439598E+04  0.00000000000E+00 0. -1.
        -13    1    3    3    0    0 -0.26953150598E+03 -0.21024478919E+03 -0.84599542527E+03  0.91244636209E+03  0.00000000000E+00 0.  1.
         22    1    1    2    0    0  0.58924339268E+03  0.59277170204E+03  0.14148081566E+04  0.16432492770E+04  0.00000000000E+00 0. -1.
<mgrwt>
<rscale>  0 0.37517728E+04</rscale>
<asrwt>0</asrwt>
<pdfrwt beam="1">  1        2 0.33529112E+00 0.37517728E+04</pdfrwt>
<pdfrwt beam="2">  1       -2 0.24840727E+00 0.37517728E+04</pdfrwt>
<totfact> 0.28063483E-01</totfact>
</mgrwt>
</event>
<event>
 6    1  0.6091287E-004  0.6797649E+04  0.7818608E-02  0.7598672E-01
          2   -1    0    0  501    0  0.00000000000E+00  0.00000000000E+00  0.49286523461E+04  0.49286523461E+04  0.00000000000E+00 0.  1.
         -2   -1    0    0    0  501 -0.00000000000E+00 -0.00000000000E+00 -0.23438469596E+04  0.23438469596E+04  0.00000000000E+00 0. -1.
         23    2    1    2    0    0 -0.23277161862E+04  0.24603218519E+03  0.39285328129E+04  0.45735369354E+04  0.71242945476E+02 0.  0.
         13    1    3    3    0    0 -0.63263123060E+03  0.56154919769E+02  0.10083755878E+04  0.11917201748E+04  0.00000000000E+00 0. -1.
        -13    1    3    3    0    0 -0.16950849556E+04  0.18987726542E+03  0.29201572251E+04  0.33818167605E+04  0.00000000000E+00 0.  1.
         22    1    1    2    0    0  0.23277161862E+04 -0.24603218519E+03 -0.13437274264E+04  0.26989623703E+04  0.00000000000E+00 0. -1.
<mgrwt>
<rscale>  0 0.67976487E+04</rscale>
<asrwt>0</asrwt>
<pdfrwt beam="1">  1        2 0.75825421E+00 0.67976487E+04</pdfrwt>
<pdfrwt beam="2">  1       -2 0.36059184E+00 0.67976487E+04</pdfrwt>
<totfact> 0.34750866E-04</totfact>
</mgrwt>
</event>
<event>
 6    1  0.6091287E-004  0.2764562E+04  0.7818608E-02  0.8314356E-01
          2   -1    0    0  501    0  0.00000000000E+00  0.00000000000E+00  0.43170941786E+04  0.43170941786E+04  0.00000000000E+00 0.  1.
         -2   -1    0    0    0  501 -0.00000000000E+00 -0.00000000000E+00 -0.44258967199E+03  0.44258967199E+03  0.00000000000E+00 0. -1.
         23    2    1    2    0    0  0.11546445472E+04 -0.31080424994E+03  0.75122109109E+03  0.14153300108E+04  0.94987365490E+02 0.  0.
         11    1    3    3    0    0  0.27229322179E+03 -0.54174718689E+02  0.13326241833E+03  0.30795676794E+03  0.00000000000E+00 0. -1.
        -11    1    3    3    0    0  0.88235132539E+03 -0.25662953125E+03  0.61795867277E+03  0.11073732428E+04  0.00000000000E+00 0.  1.
         22    1    1    2    0    0 -0.11546445472E+04  0.31080424994E+03  0.31232834156E+04  0.33443538398E+04  0.00000000000E+00 0.  1.
<mgrwt>
<rscale>  0 0.27645624E+04</rscale>
<asrwt>0</asrwt>
<pdfrwt beam="1">  1        2 0.66416831E+00 0.27645624E+04</pdfrwt>
<pdfrwt beam="2">  1       -2 0.68090722E-01 0.27645624E+04</pdfrwt>
<totfact> 0.31589441E-01</totfact>
</mgrwt>
</event>
<event>
 6    1  0.6091287E-004  0.1258721E+04  0.7818608E-02  0.9062956E-01
          2   -1    0    0  501    0  0.00000000000E+00  0.00000000000E+00  0.34189601877E+04  0.34189601877E+04  0.00000000000E+00 0.  1.
         -2   -1    0    0    0  501 -0.00000000000E+00 -0.00000000000E+00 -0.11585234238E+03  0.11585234238E+03  0.00000000000E+00 0. -1.
         23    2    1    2    0    0  0.54872735526E+03  0.24012148505E+02  0.81646204050E+03  0.98822939727E+03  0.91152533512E+02 0.  0.
         13    1    3    3    0    0  0.24020599432E+03  0.55811445204E+02  0.35968135779E+03  0.43610149766E+03  0.00000000000E+00 0. -1.
        -13    1    3    3    0    0  0.30852136094E+03 -0.31799296700E+02  0.45678068271E+03  0.55212789961E+03  0.00000000000E+00 0.  1.
         22    1    1    2    0    0 -0.54872735526E+03 -0.24012148505E+02  0.24866458048E+04  0.25465831328E+04  0.00000000000E+00 0.  1.
<mgrwt>
<rscale>  0 0.12587209E+04</rscale>
<asrwt>0</asrwt>
<pdfrwt beam="1">  1        2 0.52599380E+00 0.12587209E+04</pdfrwt>
<pdfrwt beam="2">  1       -2 0.17823440E-01 0.12587209E+04</pdfrwt>
<totfact> 0.24271140E+01</totfact>
</mgrwt>
</event>
<event>
 6    1  0.6091287E-004  0.3725822E+04  0.7818608E-02  0.8062263E-01
         -2   -1    0    0    0  501 -0.00000000000E+00  0.00000000000E+00  0.14126247551E+04  0.14126247551E+04  0.00000000000E+00 0.  1.
          2   -1    0    0  501    0  0.00000000000E+00 -0.00000000000E+00 -0.24567294411E+04  0.24567294411E+04  0.00000000000E+00 0. -1.
         23    2    1    2    0    0  0.14587049178E+04  0.11568393061E+04 -0.53476110772E+03  0.19391914834E+04  0.91634871840E+02 0.  0.
         11    1    3    3    0    0  0.12155773325E+04  0.95412064166E+03 -0.40851616769E+03  0.15983929146E+04  0.00000000000E+00 0.  1.
        -11    1    3    3    0    0  0.24312758531E+03  0.20271866440E+03 -0.12624494003E+03  0.34079856883E+03  0.00000000000E+00 0. -1.
         22    1    1    2    0    0 -0.14587049178E+04 -0.11568393061E+04 -0.50934357823E+03  0.19301627128E+04  0.00000000000E+00 0.  1.
<mgrwt>
<rscale>  0 0.37258217E+04</rscale>
<asrwt>0</asrwt>
<pdfrwt beam="1">  1        2 0.37795837E+00 0.37258217E+04</pdfrwt>
<pdfrwt beam="2">  1       -2 0.21732689E+00 0.37258217E+04</pdfrwt>
<totfact> 0.30573678E-01</totfact>
</mgrwt>
</event>
<event>
 6    1  0.6091287E-004  0.2442051E+03  0.7818608E-02  0.1117023E+00
          4   -1    0    0  501    0  0.00000000000E+00  0.00000000000E+00  0.32115921387E+02  0.32115921387E+02  0.00000000000E+00 0.  1.
         -4   -1    0    0    0  501 -0.00000000000E+00 -0.00000000000E+00 -0.46422563408E+03  0.46422563408E+03  0.00000000000E+00 0. -1.
         23    2    1    2    0    0  0.74964948590E+02 -0.40673804004E+02 -0.12085516516E+03  0.17361334907E+03  0.90892915993E+02 0.  0.
         11    1    3    3    0    0 -0.15651045969E+02  0.78707207353E+01 -0.37045503822E+02  0.40978931638E+02  0.00000000000E+00 0.  1.
        -11    1    3    3    0    0  0.90615994558E+02 -0.48544524739E+02 -0.83809661342E+02  0.13263441743E+03  0.00000000000E+00 0. -1.
         22    1    1    2    0    0 -0.74964948590E+02  0.40673804004E+02 -0.31125454753E+03  0.32272820640E+03  0.00000000000E+00 0. -1.
<mgrwt>
<rscale>  0 0.24420511E+03</rscale>
<asrwt>0</asrwt>
<pdfrwt beam="1">  1        4 0.49409112E-02 0.24420511E+03</pdfrwt>
<pdfrwt beam="2">  1       -4 0.71419325E-01 0.24420511E+03</pdfrwt>
<totfact> 0.81896049E+02</totfact>
</mgrwt>
</event>
<event>
 6    1  0.6091287E-004  0.2979413E+04  0.7818608E-02  0.8249634E-01
          2   -1    0    0  501    0  0.00000000000E+00  0.00000000000E+00  0.21537474088E+04  0.21537474088E+04  0.00000000000E+00 0.  1.
         -2   -1    0    0    0  501 -0.00000000000E+00 -0.00000000000E+00 -0.10304019341E+04  0.10304019341E+04  0.00000000000E+00 0. -1.
         23    2    1    2    0    0 -0.88042639967E+03 -0.45527342750E+03  0.17486587612E+04  0.20122102468E+04  0.93584588536E+02 0.  0.
         13    1    3    3    0    0 -0.22205507390E+03 -0.14912224517E+03  0.52938492145E+03  0.59312249570E+03  0.00000000000E+00 0. -1.
        -13    1    3    3    0    0 -0.65837132576E+03 -0.30615118233E+03  0.12192738397E+04  0.14190877511E+04  0.00000000000E+00 0.  1.
         22    1    1    2    0    0  0.88042639967E+03  0.45527342750E+03 -0.62531328644E+03  0.11719390962E+04  0.00000000000E+00 0. -1.
<mgrwt>
<rscale>  0 0.29794130E+04</rscale>
<asrwt>0</asrwt>
<pdfrwt beam="1">  1        2 0.33134575E+00 0.29794130E+04</pdfrwt>
<pdfrwt beam="2">  1       -2 0.15852338E+00 0.29794130E+04</pdfrwt>
<totfact> 0.12143862E+00</totfact>
</mgrwt>
</event>
<event>
 6    1  0.6091287E-004  0.5459715E+03  0.7818608E-02  0.1002431E+00
          4   -1    0    0  501    0  0.00000000000E+00  0.00000000000E+00  0.86772793092E+02  0.86772793092E+02  0.00000000000E+00 0.  1.
         -4   -1    0    0    0  501 -0.00000000000E+00 -0.00000000000E+00 -0.85880864921E+03  0.85880864921E+03  0.00000000000E+00 0. -1.
         23    2    1    2    0    0  0.14875693121E+03  0.11902508537E+03 -0.71665414413E+03  0.74718101500E+03  0.91600826187E+02 0.  0.
         13    1    3    3    0    0  0.50284044034E+02  0.91003643373E+02 -0.27988907349E+03  0.29857669308E+03  0.00000000000E+00 0.  1.
        -13    1    3    3    0    0  0.98472887175E+02  0.28021441993E+02 -0.43676507063E+03  0.44860432192E+03  0.00000000000E+00 0. -1.
         22    1    1    2    0    0 -0.14875693121E+03 -0.11902508537E+03 -0.55381711990E+02  0.19840042730E+03  0.00000000000E+00 0.  1.
<mgrwt>
<rscale>  0 0.54597152E+03</rscale>
<asrwt>0</asrwt>
<pdfrwt beam="1">  1        4 0.13349661E-01 0.54597152E+03</pdfrwt>
<pdfrwt beam="2">  1       -4 0.13212441E+00 0.54597152E+03</pdfrwt>
<totfact> 0.39169358E+01</totfact>
</mgrwt>
</event>
<event>
 6    1  0.6091287E-004  0.5603352E+04  0.7818608E-02  0.7741626E-01
         -2   -1    0    0    0  501 -0.00000000000E+00  0.00000000000E+00  0.24704545376E+04  0.24704545376E+04  0.00000000000E+00 0. -1.
          2   -1    0    0  501    0  0.00000000000E+00 -0.00000000000E+00 -0.31773058628E+04  0.31773058628E+04  0.00000000000E+00 0.  1.
         23    2    1    2    0    0 -0.33903983153E+03  0.78607483907E+03 -0.30415626202E+04  0.31610480144E+04  0.90882982178E+02 0.  0.
         13    1    3    3    0    0 -0.10380993310E+03  0.20110282885E+03 -0.94573198683E+03  0.97243397765E+03  0.00000000000E+00 0.  1.
        -13    1    3    3    0    0 -0.23522989843E+03  0.58497201022E+03 -0.20958306334E+04  0.21886140367E+04  0.00000000000E+00 0. -1.
         22    1    1    2    0    0  0.33903983153E+03 -0.78607483907E+03  0.23347112950E+04  0.24867123861E+04  0.00000000000E+00 0. -1.
<mgrwt>
<rscale>  0 0.56033525E+04</rscale>
<asrwt>0</asrwt>
<pdfrwt beam="1">  1        2 0.48881629E+00 0.56033525E+04</pdfrwt>
<pdfrwt beam="2">  1       -2 0.38006993E+00 0.56033525E+04</pdfrwt>
<totfact> 0.93114934E-03</totfact>
</mgrwt>
</event>
<event>
 6    1  0.6091287E-004  0.1550131E+04  0.7818608E-02  0.8851784E-01
          2   -1    0    0  501    0  0.00000000000E+00  0.00000000000E+00  0.18853560975E+04  0.18853560975E+04  0.00000000000E+00 0.  1.
         -2   -1    0    0    0  501 -0.00000000000E+00 -0.00000000000E+00 -0.31862752639E+03  0.31862752639E+03  0.00000000000E+00 0. -1.
         23    2    1    2    0    0  0.27331618426E+03 -0.10068145068E+03  0.18031629790E+04  0.18288306946E+04  0.91577779852E+02 0.  0.
         13    1    3    3    0    0  0.19336805102E+03 -0.97445193591E+02  0.14878499520E+04  0.15035239435E+04  0.00000000000E+00 0.  1.
        -13    1    3    3    0    0  0.79948133242E+02 -0.32362570909E+01  0.31531302697E+03  0.32530675115E+03  0.00000000000E+00 0. -1.
         22    1    1    2    0    0 -0.27331618426E+03  0.10068145068E+03 -0.23643440789E+03  0.37515292925E+03  0.00000000000E+00 0. -1.
<mgrwt>
<rscale>  0 0.15501308E+04</rscale>
<asrwt>0</asrwt>
<pdfrwt beam="1">  1        2 0.29005478E+00 0.15501308E+04</pdfrwt>
<pdfrwt beam="2">  1       -2 0.49019620E-01 0.15501308E+04</pdfrwt>
<totfact> 0.29345781E+01</totfact>
</mgrwt>
</event>
<event>
 6    1  0.6091287E-004  0.3942597E+04  0.7818608E-02  0.8016228E-01
          2   -1    0    0  501    0  0.00000000000E+00  0.00000000000E+00  0.15168333876E+04  0.15168333876E+04  0.00000000000E+00 0.  1.
         -2   -1    0    0    0  501 -0.00000000000E+00 -0.00000000000E+00 -0.25619282280E+04  0.25619282280E+04  0.00000000000E+00 0. -1.
         23    2    1    2    0    0 -0.47299120976E+03 -0.16039483629E+04  0.55514732045E+03  0.17642106854E+04  0.88768010502E+02 0.  0.
         11    1    3    3    0    0 -0.19981289451E+03 -0.54462340794E+03  0.17216458652E+03  0.60512849391E+03  0.00000000000E+00 0.  1.
        -11    1    3    3    0    0 -0.27317831524E+03 -0.10593249550E+04  0.38298273393E+03  0.11590821915E+04  0.00000000000E+00 0. -1.
         22    1    1    2    0    0  0.47299120976E+03  0.16039483629E+04 -0.16002421608E+04  0.23145509303E+04  0.00000000000E+00 0. -1.
<mgrwt>
<rscale>  0 0.39425973E+04</rscale>
<asrwt>0</asrwt>
<pdfrwt beam="1">  1        2 0.23335898E+00 0.39425973E+04</pdfrwt>
<pdfrwt beam="2">  1       -2 0.39414280E+00 0.39425973E+04</pdfrwt>
<totfact> 0.79740018E-02</totfact>
</mgrwt>
</event>
<event>
 6    1  0.6091287E-004  0.8084971E+03  0.7818608E-02  0.9547799E-01
          3   -1    0    0  501    0  0.00000000000E+00  0.00000000000E+00  0.22310827059E+03  0.22310827059E+03  0.00000000000E+00 0. -1.
         -3   -1    0    0    0  501 -0.00000000000E+00 -0.00000000000E+00 -0.73245550211E+03  0.73245550211E+03  0.00000000000E+00 0.  1.
         23    2    1    2    0    0 -0.15573182361E+02  0.33375107530E+03 -0.51554841922E+03  0.62139202195E+03  0.93303633987E+02 0.  0.
         13    1    3    3    0    0 -0.50680207247E+02  0.12256928925E+03 -0.18745674676E+03  0.22963393908E+03  0.00000000000E+00 0. -1.
        -13    1    3    3    0    0  0.35107024886E+02  0.21118178605E+03 -0.32809167246E+03  0.39175808287E+03  0.00000000000E+00 0.  1.
         22    1    1    2    0    0  0.15573182361E+02 -0.33375107530E+03  0.62011876964E+01  0.33417175075E+03  0.00000000000E+00 0. -1.
<mgrwt>
<rscale>  0 0.80849708E+03</rscale>
<asrwt>0</asrwt>
<pdfrwt beam="1">  1        3 0.34324349E-01 0.80849708E+03</pdfrwt>
<pdfrwt beam="2">  1       -3 0.11268546E+00 0.80849708E+03</pdfrwt>
<totfact> 0.14526540E+01</totfact>
</mgrwt>
</event>
<event>
 6    1  0.6091287E-004  0.1468637E+04  0.7818608E-02  0.8905581E-01
         -2   -1    0    0    0  501 -0.00000000000E+00  0.00000000000E+00  0.61907577182E+03  0.61907577182E+03  0.00000000000E+00 0. -1.
          2   -1    0    0  501    0  0.00000000000E+00 -0.00000000000E+00 -0.87101400688E+03  0.87101400688E+03  0.00000000000E+00 0.  1.
         23    2    1    2    0    0  0.22386770925E+03 -0.22750728116E+03  0.54138262728E+03  0.63496738697E+03  0.90620743663E+02 0.  0.
         13    1    3    3    0    0  0.36624191586E+02 -0.45489782252E+02  0.43713902446E+02  0.72949002500E+02  0.00000000000E+00 0.  1.
        -13    1    3    3    0    0  0.18724351766E+03 -0.18201749891E+03  0.49766872483E+03  0.56201838447E+03  0.00000000000E+00 0. -1.
         22    1    1    2    0    0 -0.22386770925E+03  0.22750728116E+03 -0.79332086233E+03  0.85512239173E+03  0.00000000000E+00 0.  1.
<mgrwt>
<rscale>  0 0.14686370E+04</rscale>
<asrwt>0</asrwt>
<pdfrwt beam="1">  1        2 0.13400215E+00 0.14686370E+04</pdfrwt>
<pdfrwt beam="2">  1       -2 0.95242427E-01 0.14686370E+04</pdfrwt>
<totfact> 0.27543438E+01</totfact>
</mgrwt>
</event>
<event>
 6    1  0.6091287E-004  0.2261749E+04  0.7818608E-02  0.8493157E-01
         -2   -1    0    0    0  501 -0.00000000000E+00  0.00000000000E+00  0.72252923211E+03  0.72252923211E+03  0.00000000000E+00 0. -1.
          2   -1    0    0  501    0  0.00000000000E+00 -0.00000000000E+00 -0.17700005032E+04  0.17700005032E+04  0.00000000000E+00 0.  1.
         23    2    1    2    0    0  0.52680978863E+03  0.86462915568E+03 -0.10751775218E+04  0.14796725062E+04  0.91169577950E+02 0.  0.
         11    1    3    3    0    0  0.17255729395E+03  0.29635975174E+03 -0.42753168363E+03  0.54807705905E+03  0.00000000000E+00 0. -1.
        -11    1    3    3    0    0  0.35425249467E+03  0.56826940393E+03 -0.64764583821E+03  0.93159544717E+03  0.00000000000E+00 0.  1.
         22    1    1    2    0    0 -0.52680978863E+03 -0.86462915568E+03  0.27706250739E+02  0.10128572291E+04  0.00000000000E+00 0. -1.
<mgrwt>
<rscale>  0 0.22617490E+04</rscale>
<asrwt>0</asrwt>
<pdfrwt beam="1">  1        2 0.27230777E+00 0.22617490E+04</pdfrwt>
<pdfrwt beam="2">  1       -2 0.11115834E+00 0.22617490E+04</pdfrwt>
<totfact> 0.52233773E+00</totfact>
</mgrwt>
</event>
<event>
 6    1  0.6091287E-004  0.3390823E+04  0.7818608E-02  0.8140162E-01
          2   -1    0    0  501    0  0.00000000000E+00  0.00000000000E+00  0.29017440057E+04  0.29017440057E+04  0.00000000000E+00 0.  1.
         -2   -1    0    0    0  501 -0.00000000000E+00 -0.00000000000E+00 -0.99058392357E+03  0.99058392357E+03  0.00000000000E+00 0. -1.
         23    2    1    2    0    0  0.86554989490E+03 -0.12404706957E+04  0.80219320498E+02  0.15173988272E+04  0.90110454549E+02 0.  0.
         13    1    3    3    0    0  0.28690044963E+03 -0.43060385995E+03 -0.13861949720E+02  0.51761347147E+03  0.00000000000E+00 0. -1.
        -13    1    3    3    0    0  0.57864944527E+03 -0.80986683571E+03  0.94081270218E+02  0.99978535572E+03  0.00000000000E+00 0.  1.
         22    1    1    2    0    0 -0.86554989490E+03  0.12404706957E+04  0.18309407617E+04  0.23749291021E+04  0.00000000000E+00 0.  1.
<mgrwt>
<rscale>  0 0.33908235E+04</rscale>
<asrwt>0</asrwt>
<pdfrwt beam="1">  1        2 0.44642215E+00 0.33908235E+04</pdfrwt>
<pdfrwt beam="2">  1       -2 0.15239753E+00 0.33908235E+04</pdfrwt>
<totfact> 0.47697494E-01</totfact>
</mgrwt>
</event>
<event>
 6    1  0.6468713E-004  0.4267464E+04  0.7818608E-02  0.7952662E-01
         -2   -1    0    0    0  501 -0.00000000000E+00  0.00000000000E+00  0.19138607548E+04  0.19138607548E+04  0.00000000000E+00 0. -1.
          2   -1    0    0  501    0  0.00000000000E+00 -0.00000000000E+00 -0.23788627152E+04  0.23788627152E+04  0.00000000000E+00 0.  1.
         23    2    1    2    0    0  0.17551686610E+04  0.80815300620E+03 -0.11406749546E+04  0.22457104497E+04  0.91366088148E+02 0.  0.
         13    1    3    3    0    0  0.89793029819E+03  0.44122316660E+03 -0.63454461071E+03  0.11847377626E+04  0.00000000000E+00 0. -1.
        -13    1    3    3    0    0  0.85723836281E+03  0.36692983960E+03 -0.50613034388E+03  0.10609726871E+04  0.00000000000E+00 0.  1.
         22    1    1    2    0    0 -0.17551686610E+04 -0.80815300620E+03  0.67567299415E+03  0.20470130202E+04  0.00000000000E+00 0. -1.
<mgrwt>
<rscale>  0 0.42674639E+04</rscale>
<asrwt>0</asrwt>
<pdfrwt beam="1">  1        2 0.36597888E+00 0.42674639E+04</pdfrwt>
<pdfrwt beam="2">  1       -2 0.29444012E+00 0.42674639E+04</pdfrwt>
<totfact> 0.10848854E-01</totfact>
</mgrwt>
</event>
<event>
 6    1  0.7257046E-004  0.3580073E+04  0.7818608E-02  0.8095072E-01
          2   -1    0    0  501    0  0.00000000000E+00  0.00000000000E+00  0.17105257403E+04  0.17105257403E+04  0.00000000000E+00 0.  1.
         -2   -1    0    0    0  501 -0.00000000000E+00 -0.00000000000E+00 -0.18732428112E+04  0.18732428112E+04  0.00000000000E+00 0. -1.
         23    2    1    2    0    0  0.17043753345E+04 -0.46528362504E+03 -0.36197686515E+03  0.18058235023E+04  0.92666811963E+02 0.  0.
         13    1    3    3    0    0  0.83877368214E+03 -0.26516350459E+03 -0.14899547433E+03  0.89221781274E+03  0.00000000000E+00 0. -1.
        -13    1    3    3    0    0  0.86560165235E+03 -0.20012012046E+03 -0.21298139083E+03  0.91360568956E+03  0.00000000000E+00 0.  1.
         22    1    1    2    0    0 -0.17043753345E+04  0.46528362504E+03  0.19925979422E+03  0.17779450492E+04  0.00000000000E+00 0.  1.
<mgrwt>
<rscale>  0 0.35800727E+04</rscale>
<asrwt>0</asrwt>
<pdfrwt beam="1">  1        2 0.26315781E+00 0.35800727E+04</pdfrwt>
<pdfrwt beam="2">  1       -2 0.28819120E+00 0.35800727E+04</pdfrwt>
<totfact> 0.29645166E-01</totfact>
</mgrwt>
</event>
<event>
 6    1  0.6091287E-004  0.1451089E+04  0.7818608E-02  0.8917646E-01
          2   -1    0    0  501    0  0.00000000000E+00  0.00000000000E+00  0.10817488232E+04  0.10817488232E+04  0.00000000000E+00 0. -1.
         -2   -1    0    0    0  501 -0.00000000000E+00 -0.00000000000E+00 -0.48663303595E+03  0.48663303595E+03  0.00000000000E+00 0.  1.
         23    2    1    2    0    0 -0.28911503510E+03 -0.39246586659E+03 -0.27916999012E+03  0.56738606471E+03  0.79837980211E+02 0.  0.
         11    1    3    3    0    0 -0.10978377362E+03 -0.11600819522E+03 -0.12874680888E+03  0.20514901683E+03  0.00000000000E+00 0. -1.
        -11    1    3    3    0    0 -0.17933126149E+03 -0.27645767137E+03 -0.15042318124E+03  0.36223704789E+03  0.00000000000E+00 0.  1.
         22    1    1    2    0    0  0.28911503510E+03  0.39246586659E+03  0.87428577736E+03  0.10009957944E+04  0.00000000000E+00 0. -1.
<mgrwt>
<rscale>  0 0.14510889E+04</rscale>
<asrwt>0</asrwt>
<pdfrwt beam="1">  1        2 0.16642290E+00 0.14510889E+04</pdfrwt>
<pdfrwt beam="2">  1       -2 0.74866621E-01 0.14510889E+04</pdfrwt>
<totfact> 0.34768540E+01</totfact>
</mgrwt>
</event>
<event>
 6    1  0.6091287E-004  0.1105462E+04  0.7818608E-02  0.9199885E-01
          2   -1    0    0  501    0  0.00000000000E+00  0.00000000000E+00  0.10124788312E+04  0.10124788312E+04  0.00000000000E+00 0.  1.
         -2   -1    0    0    0  501 -0.00000000000E+00 -0.00000000000E+00 -0.30174600435E+03  0.30174600435E+03  0.00000000000E+00 0. -1.
         23    2    1    2    0    0  0.30222781194E+03 -0.34002451634E+03  0.72319887094E+03  0.85912734681E+03  0.90138055719E+02 0.  0.
         13    1    3    3    0    0  0.36952958953E+01 -0.40526352313E+02  0.70966480938E+02  0.81806368091E+02  0.00000000000E+00 0. -1.
        -13    1    3    3    0    0  0.29853251604E+03 -0.29949816403E+03  0.65223239000E+03  0.77732097872E+03  0.00000000000E+00 0.  1.
         22    1    1    2    0    0 -0.30222781194E+03  0.34002451634E+03 -0.12466044067E+02  0.45509748876E+03  0.00000000000E+00 0. -1.
<mgrwt>
<rscale>  0 0.11054618E+04</rscale>
<asrwt>0</asrwt>
<pdfrwt beam="1">  1        2 0.15576597E+00 0.11054618E+04</pdfrwt>
<pdfrwt beam="2">  1       -2 0.46422463E-01 0.11054618E+04</pdfrwt>
<totfact> 0.10793620E+02</totfact>
</mgrwt>
</event>
<event>
 6    1  0.6091287E-004  0.1792354E+04  0.7818608E-02  0.8710376E-01
         -2   -1    0    0    0  501 -0.00000000000E+00  0.00000000000E+00  0.19916747521E+04  0.19916747521E+04  0.00000000000E+00 0. -1.
          2   -1    0    0  501    0  0.00000000000E+00 -0.00000000000E+00 -0.40324536386E+03  0.40324536386E+03  0.00000000000E+00 0.  1.
         23    2    1    2    0    0 -0.14995201351E+02  0.62583733769E+03 -0.54009750250E+02  0.63722174794E+03  0.10600600740E+03 0.  0.
         13    1    3    3    0    0 -0.54794200012E+02  0.35833708847E+03 -0.60201303162E+01  0.36255222423E+03  0.00000000000E+00 0.  1.
        -13    1    3    3    0    0  0.39798998660E+02  0.26750024923E+03 -0.47989619933E+02  0.27466952370E+03  0.00000000000E+00 0. -1.
         22    1    1    2    0    0  0.14995201351E+02 -0.62583733769E+03  0.16424391385E+04  0.17576983680E+04  0.00000000000E+00 0. -1.
<mgrwt>
<rscale>  0 0.17923544E+04</rscale>
<asrwt>0</asrwt>
<pdfrwt beam="1">  1        2 0.62037749E-01 0.17923544E+04</pdfrwt>
<pdfrwt beam="2">  1       -2 0.30641150E+00 0.17923544E+04</pdfrwt>
<totfact> 0.21653978E+00</totfact>
</mgrwt>
</event>
<event>
 6    1  0.6091287E-004  0.4358944E+04  0.7818608E-02  0.7935808E-01
         -2   -1    0    0    0  501 -0.00000000000E+00  0.00000000000E+00  0.16976491643E+04  0.16976491643E+04  0.00000000000E+00 0.  1.
          2   -1    0    0  501    0  0.00000000000E+00 -0.00000000000E+00 -0.27980445264E+04  0.27980445264E+04  0.00000000000E+00 0. -1.
         23    2    1    2    0    0 -0.17285616672E+04  0.35862638017E+03 -0.18669476956E+04  0.25710792364E+04  0.91741069968E+02 0.  0.
         13    1    3    3    0    0 -0.60836152350E+03  0.11132189732E+03 -0.59459637113E+03  0.85792840765E+03  0.00000000000E+00 0. -1.
        -13    1    3    3    0    0 -0.11202001437E+04  0.24730448285E+03 -0.12723513245E+04  0.17131508287E+04  0.00000000000E+00 0.  1.
         22    1    1    2    0    0  0.17285616672E+04 -0.35862638017E+03  0.76655233348E+03  0.19246144543E+04  0.00000000000E+00 0.  1.
<mgrwt>
<rscale>  0 0.43589439E+04</rscale>
<asrwt>0</asrwt>
<pdfrwt beam="1">  1        2 0.43046838E+00 0.43589439E+04</pdfrwt>
<pdfrwt beam="2">  1       -2 0.26117680E+00 0.43589439E+04</pdfrwt>
<totfact> 0.97492359E-02</totfact>
</mgrwt>
</event>
<event>
 6    1  0.6091287E-004  0.2300500E+04  0.7818608E-02  0.8477724E-01
         -2   -1    0    0    0  501 -0.00000000000E+00  0.00000000000E+00  0.44728713934E+03  0.44728713934E+03  0.00000000000E+00 0. -1.
          2   -1    0    0  501    0  0.00000000000E+00 -0.00000000000E+00 -0.29579993515E+04  0.29579993515E+04  0.00000000000E+00 0.  1.
         23    2    1    2    0    0  0.10219521798E+03  0.10707116661E+03 -0.29431494200E+04  0.29482197166E+04  0.89235034217E+02 0.  0.
         13    1    3    3    0    0  0.57399886538E+02  0.10182959889E+01 -0.89943182125E+03  0.90126210670E+03  0.00000000000E+00 0. -1.
        -13    1    3    3    0    0  0.44795331447E+02  0.10605287062E+03 -0.20437175988E+04  0.20469576099E+04  0.00000000000E+00 0.  1.
         22    1    1    2    0    0 -0.10219521798E+03 -0.10707116661E+03  0.43243720791E+03  0.45706677421E+03  0.00000000000E+00 0. -1.
<mgrwt>
<rscale>  0 0.23005000E+04</rscale>
<asrwt>0</asrwt>
<pdfrwt beam="1">  1        2 0.45507680E+00 0.23005000E+04</pdfrwt>
<pdfrwt beam="2">  1       -2 0.68813409E-01 0.23005000E+04</pdfrwt>
<totfact> 0.32378567E+00</totfact>
</mgrwt>
</event>
<event>
 6    1  0.6091287E-004  0.3432227E+04  0.7818608E-02  0.8130042E-01
         -2   -1    0    0    0  501 -0.00000000000E+00  0.00000000000E+00  0.23998139635E+04  0.23998139635E+04  0.00000000000E+00 0. -1.
          2   -1    0    0  501    0  0.00000000000E+00 -0.00000000000E+00 -0.12271971866E+04  0.12271971866E+04  0.00000000000E+00 0.  1.
         23    2    1    2    0    0 -0.11992509150E+04 -0.38722972193E+03 -0.64232934273E+03  0.14174458011E+04  0.91738757680E+02 0.  0.
         11    1    3    3    0    0 -0.95395282056E+03 -0.27675526158E+03 -0.47937089632E+03  0.11029124693E+04  0.00000000000E+00 0. -1.
        -11    1    3    3    0    0 -0.24529809447E+03 -0.11047446035E+03 -0.16295844641E+03  0.31453333177E+03  0.00000000000E+00 0.  1.
         22    1    1    2    0    0  0.11992509150E+04  0.38722972193E+03  0.18149461196E+04  0.22095653490E+04  0.00000000000E+00 0. -1.
<mgrwt>
<rscale>  0 0.34322267E+04</rscale>
<asrwt>0</asrwt>
<pdfrwt beam="1">  1        2 0.18879957E+00 0.34322267E+04</pdfrwt>
<pdfrwt beam="2">  1       -2 0.36920215E+00 0.34322267E+04</pdfrwt>
<totfact> 0.17700105E-01</totfact>
</mgrwt>
</event>
<event>
 6    1  0.6091287E-004  0.2451172E+04  0.7818608E-02  0.8420590E-01
         -4   -1    0    0    0  501 -0.00000000000E+00  0.00000000000E+00  0.43873626736E+03  0.43873626736E+03  0.00000000000E+00 0. -1.
          4   -1    0    0  501    0  0.00000000000E+00 -0.00000000000E+00 -0.34236093545E+04  0.34236093545E+04  0.00000000000E+00 0.  1.
         23    2    1    2    0    0  0.10336284717E+03  0.96770729995E+03 -0.26639388504E+04  0.28375821951E+04  0.90339463505E+02 0.  0.
         13    1    3    3    0    0 -0.68818704391E+01  0.13302416249E+03 -0.30194087129E+03  0.33001678397E+03  0.00000000000E+00 0. -1.
        -13    1    3    3    0    0  0.11024471761E+03  0.83468313746E+03 -0.23619979791E+04  0.25075654111E+04  0.00000000000E+00 0.  1.
         22    1    1    2    0    0 -0.10336284717E+03 -0.96770729995E+03 -0.32093423674E+03  0.10247634268E+04  0.00000000000E+00 0. -1.
<mgrwt>
<rscale>  0 0.24511724E+04</rscale>
<asrwt>0</asrwt>
<pdfrwt beam="1">  1        4 0.52670914E+00 0.24511724E+04</pdfrwt>
<pdfrwt beam="2">  1       -4 0.67497887E-01 0.24511724E+04</pdfrwt>
<totfact> 0.26497860E-03</totfact>
</mgrwt>
</event>
<event>
 6    1  0.6091287E-004  0.1523100E+04  0.7818608E-02  0.8869236E-01
         -2   -1    0    0    0  501 -0.00000000000E+00  0.00000000000E+00  0.68370935600E+03  0.68370935600E+03  0.00000000000E+00 0. -1.
          2   -1    0    0  501    0  0.00000000000E+00 -0.00000000000E+00 -0.84825243761E+03  0.84825243761E+03  0.00000000000E+00 0.  1.
         23    2    1    2    0    0 -0.45366250548E+03 -0.26568346816E+03 -0.63295991499E+03  0.82782281307E+03  0.90856929976E+02 0.  0.
         13    1    3    3    0    0 -0.10183459273E+03 -0.19806584479E+02 -0.13856843357E+03  0.17310053682E+03  0.00000000000E+00 0. -1.
        -13    1    3    3    0    0 -0.35182791275E+03 -0.24587688368E+03 -0.49439148141E+03  0.65472227624E+03  0.00000000000E+00 0.  1.
         22    1    1    2    0    0  0.45366250548E+03  0.26568346816E+03  0.46841683337E+03  0.70413898054E+03  0.00000000000E+00 0. -1.
<mgrwt>
<rscale>  0 0.15230996E+04</rscale>
<asrwt>0</asrwt>
<pdfrwt beam="1">  1        2 0.13050037E+00 0.15230996E+04</pdfrwt>
<pdfrwt beam="2">  1       -2 0.10518605E+00 0.15230996E+04</pdfrwt>
<totfact> 0.22474110E+01</totfact>
</mgrwt>
</event>
<event>
 6    1  0.6091287E-004  0.4412355E+04  0.7818608E-02  0.7926163E-01
         -1   -1    0    0    0  501 -0.00000000000E+00  0.00000000000E+00  0.16789787698E+04  0.16789787698E+04  0.00000000000E+00 0.  1.
          1   -1    0    0  501    0  0.00000000000E+00 -0.00000000000E+00 -0.28989160867E+04  0.28989160867E+04  0.00000000000E+00 0. -1.
         23    2    1    2    0    0  0.10099124729E+04  0.87763484995E+03  0.12084817267E+04  0.18052814352E+04  0.91906711618E+02 0.  0.
         13    1    3    3    0    0  0.91004416650E+03  0.76348791884E+03  0.10429296818E+04  0.15807582068E+04  0.00000000000E+00 0.  1.
        -13    1    3    3    0    0  0.99868306391E+02  0.11414693112E+03  0.16555204493E+03  0.22452322839E+03  0.00000000000E+00 0. -1.
         22    1    1    2    0    0 -0.10099124729E+04 -0.87763484995E+03 -0.24284190436E+04  0.27726134213E+04  0.00000000000E+00 0. -1.
<mgrwt>
<rscale>  0 0.44123547E+04</rscale>
<asrwt>0</asrwt>
<pdfrwt beam="1">  1        1 0.44598709E+00 0.44123547E+04</pdfrwt>
<pdfrwt beam="2">  1       -1 0.25830443E+00 0.44123547E+04</pdfrwt>
<totfact> 0.32959653E-02</totfact>
</mgrwt>
</event>
<event>
 6    1  0.6091287E-004  0.3596346E+04  0.7818608E-02  0.8091329E-01
         -2   -1    0    0    0  501 -0.00000000000E+00  0.00000000000E+00  0.14015281223E+04  0.14015281223E+04  0.00000000000E+00 0. -1.
          2   -1    0    0  501    0  0.00000000000E+00 -0.00000000000E+00 -0.23070715320E+04  0.23070715320E+04  0.00000000000E+00 0.  1.
         23    2    1    2    0    0  0.12108308440E+04 -0.87632974022E+03 -0.14817732771E+04  0.21066926637E+04  0.91851991268E+02 0.  0.
         11    1    3    3    0    0  0.19393323489E+03 -0.14623482411E+03 -0.28989556839E+03  0.37819857740E+03  0.00000000000E+00 0.  1.
        -11    1    3    3    0    0  0.10168976091E+04 -0.73009491611E+03 -0.11918777087E+04  0.17284940863E+04  0.00000000000E+00 0. -1.
         22    1    1    2    0    0 -0.12108308440E+04  0.87632974022E+03  0.57622986744E+03  0.16019069906E+04  0.00000000000E+00 0. -1.
<mgrwt>
<rscale>  0 0.35963457E+04</rscale>
<asrwt>0</asrwt>
<pdfrwt beam="1">  1        2 0.35493408E+00 0.35963457E+04</pdfrwt>
<pdfrwt beam="2">  1       -2 0.21561971E+00 0.35963457E+04</pdfrwt>
<totfact> 0.38593893E-01</totfact>
</mgrwt>
</event>
<event>
 6    1  0.6091287E-004  0.3694725E+04  0.7818608E-02  0.8069132E-01
         -2   -1    0    0    0  501 -0.00000000000E+00  0.00000000000E+00  0.26853945821E+04  0.26853945821E+04  0.00000000000E+00 0. -1.
          2   -1    0    0  501    0  0.00000000000E+00 -0.00000000000E+00 -0.12708550951E+04  0.12708550951E+04  0.00000000000E+00 0.  1.
         23    2    1    2    0    0 -0.10215023047E+04 -0.11878382318E+03 -0.93430572450E+03  0.13921415705E+04  0.86916110604E+02 0.  0.
         11    1    3    3    0    0 -0.54010411402E+03 -0.31155293149E+02 -0.53087788969E+03  0.75796730803E+03  0.00000000000E+00 0. -1.
        -11    1    3    3    0    0 -0.48139819073E+03 -0.87628530036E+02 -0.40342783480E+03  0.63417426249E+03  0.00000000000E+00 0.  1.
         22    1    1    2    0    0  0.10215023047E+04  0.11878382318E+03  0.23488452115E+04  0.25641081067E+04  0.00000000000E+00 0. -1.
<mgrwt>
<rscale>  0 0.36947246E+04</rscale>
<asrwt>0</asrwt>
<pdfrwt beam="1">  1        2 0.19551617E+00 0.36947246E+04</pdfrwt>
<pdfrwt beam="2">  1       -2 0.41313763E+00 0.36947246E+04</pdfrwt>
<totfact> 0.84555779E-02</totfact>
</mgrwt>
</event>
<event>
 6    1  0.6091287E-004  0.2451509E+04  0.7818608E-02  0.8420467E-01
          2   -1    0    0  501    0  0.00000000000E+00  0.00000000000E+00  0.27599224526E+04  0.27599224526E+04  0.00000000000E+00 0.  1.
         -2   -1    0    0    0  501 -0.00000000000E+00 -0.00000000000E+00 -0.54438985499E+03  0.54438985499E+03  0.00000000000E+00 0. -1.
         23    2    1    2    0    0 -0.77186910900E+03  0.45599284726E+03  0.22326844097E+04  0.24076487236E+04  0.90450565730E+02 0.  0.
         11    1    3    3    0    0 -0.47778493737E+03  0.32998282639E+03  0.14029344141E+04  0.15183517650E+04  0.00000000000E+00 0.  1.
        -11    1    3    3    0    0 -0.29408417163E+03  0.12601002087E+03  0.82974999563E+03  0.88929695862E+03  0.00000000000E+00 0. -1.
         22    1    1    2    0    0  0.77186910900E+03 -0.45599284726E+03 -0.17151812076E+02  0.89666358399E+03  0.00000000000E+00 0. -1.
<mgrwt>
<rscale>  0 0.24515087E+04</rscale>
<asrwt>0</asrwt>
<pdfrwt beam="1">  1        2 0.42460345E+00 0.24515087E+04</pdfrwt>
<pdfrwt beam="2">  1       -2 0.83752287E-01 0.24515087E+04</pdfrwt>
<totfact> 0.27281291E+00</totfact>
</mgrwt>
</event>
<event>
 6    1  0.6091287E-004  0.1912856E+04  0.7818608E-02  0.8648484E-01
         -2   -1    0    0    0  501 -0.00000000000E+00  0.00000000000E+00  0.39510812790E+03  0.39510812790E+03  0.00000000000E+00 0. -1.
          2   -1    0    0  501    0  0.00000000000E+00 -0.00000000000E+00 -0.23151996701E+04  0.23151996701E+04  0.00000000000E+00 0.  1.
         23    2    1    2    0    0 -0.19010585337E+03  0.86232241137E+03 -0.44931018124E+03  0.99480845717E+03  0.89577066533E+02 0.  0.
         11    1    3    3    0    0 -0.36547174475E+02  0.36759464561E+03 -0.17826230279E+03  0.41016943821E+03  0.00000000000E+00 0. -1.
        -11    1    3    3    0    0 -0.15355867889E+03  0.49472776576E+03 -0.27104787845E+03  0.58463901896E+03  0.00000000000E+00 0.  1.
         22    1    1    2    0    0  0.19010585337E+03 -0.86232241137E+03 -0.14707813610E+04  0.17154993408E+04  0.00000000000E+00 0.  1.
<mgrwt>
<rscale>  0 0.19128557E+04</rscale>
<asrwt>0</asrwt>
<pdfrwt beam="1">  1        2 0.35618456E+00 0.19128557E+04</pdfrwt>
<pdfrwt beam="2">  1       -2 0.60785867E-01 0.19128557E+04</pdfrwt>
<totfact> 0.10479666E+01</totfact>
</mgrwt>
</event>
<event>
 6    1  0.6091287E-004  0.2492029E+04  0.7818608E-02  0.8405831E-01
         -2   -1    0    0    0  501 -0.00000000000E+00  0.00000000000E+00  0.47285412545E+03  0.47285412545E+03  0.00000000000E+00 0. -1.
          2   -1    0    0  501    0  0.00000000000E+00 -0.00000000000E+00 -0.32833648955E+04  0.32833648955E+04  0.00000000000E+00 0.  1.
         23    2    1    2    0    0 -0.11541394113E+04  0.15874782601E+03 -0.20664681319E+04  0.23738883440E+04  0.88411972125E+02 0.  0.
         13    1    3    3    0    0 -0.37364969161E+03  0.80092455825E+02 -0.73940771014E+03  0.83231764089E+03  0.00000000000E+00 0. -1.
        -13    1    3    3    0    0 -0.78048971970E+03  0.78655370187E+02 -0.13270604218E+04  0.15415707032E+04  0.00000000000E+00 0.  1.
         22    1    1    2    0    0  0.11541394113E+04 -0.15874782601E+03 -0.74404263820E+03  0.13823306770E+04  0.00000000000E+00 0. -1.
<mgrwt>
<rscale>  0 0.24920294E+04</rscale>
<asrwt>0</asrwt>
<pdfrwt beam="1">  1        2 0.50513304E+00 0.24920294E+04</pdfrwt>
<pdfrwt beam="2">  1       -2 0.72746791E-01 0.24920294E+04</pdfrwt>
<totfact> 0.17433428E+00</totfact>
</mgrwt>
</event>
<event>
 6    1  0.6091287E-004  0.7937643E+03  0.7818608E-02  0.9569087E-01
         -2   -1    0    0    0  501 -0.00000000000E+00  0.00000000000E+00  0.15490590964E+03  0.15490590964E+03  0.00000000000E+00 0. -1.
          2   -1    0    0  501    0  0.00000000000E+00 -0.00000000000E+00 -0.10168459550E+04  0.10168459550E+04  0.00000000000E+00 0.  1.
         23    2    1    2    0    0 -0.28199874243E+02  0.26624045509E+03 -0.13823698109E+02  0.28238099077E+03  0.88705786068E+02 0.  0.
         11    1    3    3    0    0 -0.14459978276E+02  0.56578029847E+02  0.33054778577E+02  0.67102778035E+02  0.00000000000E+00 0.  1.
        -11    1    3    3    0    0 -0.13739895967E+02  0.20966242525E+03 -0.46878476686E+02  0.21527821273E+03  0.00000000000E+00 0. -1.
         22    1    1    2    0    0  0.28199874243E+02 -0.26624045509E+03 -0.84811634725E+03  0.88937087388E+03  0.00000000000E+00 0.  1.
<mgrwt>
<rscale>  0 0.79376432E+03</rscale>
<asrwt>0</asrwt>
<pdfrwt beam="1">  1        2 0.15643784E+00 0.79376432E+03</pdfrwt>
<pdfrwt beam="2">  1       -2 0.23831678E-01 0.79376432E+03</pdfrwt>
<totfact> 0.38586215E+02</totfact>
</mgrwt>
</event>
<event>
 6    1  0.6091287E-004  0.2069792E+04  0.7818608E-02  0.8574668E-01
          2   -1    0    0  501    0  0.00000000000E+00  0.00000000000E+00  0.26123662127E+04  0.26123662127E+04  0.00000000000E+00 0. -1.
         -2   -1    0    0    0  501 -0.00000000000E+00 -0.00000000000E+00 -0.40997700216E+03  0.40997700216E+03  0.00000000000E+00 0.  1.
         23    2    1    2    0    0 -0.41137787287E+03  0.41742639442E+03  0.23452617145E+04  0.24191110030E+04  0.91482163517E+02 0.  0.
         13    1    3    3    0    0 -0.18932794828E+03  0.22481531013E+03  0.13339230763E+04  0.13659201182E+04  0.00000000000E+00 0. -1.
        -13    1    3    3    0    0 -0.22204992460E+03  0.19261108429E+03  0.10113386382E+04  0.10531908848E+04  0.00000000000E+00 0.  1.
         22    1    1    2    0    0  0.41137787287E+03 -0.41742639442E+03 -0.14287250396E+03  0.60323221187E+03  0.00000000000E+00 0.  1.
<mgrwt>
<rscale>  0 0.20697923E+04</rscale>
<asrwt>0</asrwt>
<pdfrwt beam="1">  1        2 0.40190248E+00 0.20697923E+04</pdfrwt>
<pdfrwt beam="2">  1       -2 0.63073387E-01 0.20697923E+04</pdfrwt>
<totfact> 0.64423558E+00</totfact>
</mgrwt>
</event>
<event>
 6    1  0.6091287E-004  0.1148306E+04  0.7818608E-02  0.9159348E-01
         -2   -1    0    0    0  501 -0.00000000000E+00  0.00000000000E+00  0.13708635154E+03  0.13708635154E+03  0.00000000000E+00 0. -1.
          2   -1    0    0  501    0  0.00000000000E+00 -0.00000000000E+00 -0.24046994289E+04  0.24046994289E+04  0.00000000000E+00 0.  1.
         23    2    1    2    0    0 -0.51516066019E+03  0.24483522628E+03 -0.11780662635E+04  0.13119699188E+04  0.89945277442E+02 0.  0.
         13    1    3    3    0    0 -0.33143784270E+03  0.10885780778E+03 -0.70950663608E+03  0.79063312132E+03  0.00000000000E+00 0.  1.
        -13    1    3    3    0    0 -0.18372281748E+03  0.13597741850E+03 -0.46855962741E+03  0.52133679751E+03  0.00000000000E+00 0. -1.
         22    1    1    2    0    0  0.51516066019E+03 -0.24483522628E+03 -0.10895468139E+04  0.12298158616E+04  0.00000000000E+00 0. -1.
<mgrwt>
<rscale>  0 0.11483057E+04</rscale>
<asrwt>0</asrwt>
<pdfrwt beam="1">  1        2 0.36995375E+00 0.11483057E+04</pdfrwt>
<pdfrwt beam="2">  1       -2 0.21090208E-01 0.11483057E+04</pdfrwt>
<totfact> 0.76595967E+01</totfact>
</mgrwt>
</event>
<event>
 6    1  0.6091287E-004  0.3416983E+04  0.7818608E-02  0.8133751E-01
         -2   -1    0    0    0  501 -0.00000000000E+00  0.00000000000E+00  0.11125768274E+04  0.11125768274E+04  0.00000000000E+00 0. -1.
          2   -1    0    0  501    0  0.00000000000E+00 -0.00000000000E+00 -0.26235884247E+04  0.26235884247E+04  0.00000000000E+00 0.  1.
         23    2    1    2    0    0  0.81494211658E+03  0.79255771079E+03  0.63670672562E+03  0.13061503607E+04  0.91405316760E+02 0.  0.
         13    1    3    3    0    0  0.23661502084E+03  0.28604580076E+03  0.22463438647E+03  0.43390030629E+03  0.00000000000E+00 0. -1.
        -13    1    3    3    0    0  0.57832709575E+03  0.50651191003E+03  0.41207233915E+03  0.87225005438E+03  0.00000000000E+00 0.  1.
         22    1    1    2    0    0 -0.81494211658E+03 -0.79255771079E+03 -0.21477183229E+04  0.24300148915E+04  0.00000000000E+00 0.  1.
<mgrwt>
<rscale>  0 0.34169833E+04</rscale>
<asrwt>0</asrwt>
<pdfrwt beam="1">  1        2 0.40362899E+00 0.34169833E+04</pdfrwt>
<pdfrwt beam="2">  1       -2 0.17116567E+00 0.34169833E+04</pdfrwt>
<totfact> 0.50976356E-01</totfact>
</mgrwt>
</event>
<event>
 6    1  0.6091287E-004  0.3968168E+04  0.7818608E-02  0.8010999E-01
         -2   -1    0    0    0  501 -0.00000000000E+00  0.00000000000E+00  0.16699314511E+04  0.16699314511E+04  0.00000000000E+00 0. -1.
          2   -1    0    0  501    0  0.00000000000E+00 -0.00000000000E+00 -0.23573353490E+04  0.23573353490E+04  0.00000000000E+00 0.  1.
         23    2    1    2    0    0  0.19058419261E+04  0.54246390177E+03 -0.26869414223E+03  0.20019721569E+04  0.95892871499E+02 0.  0.
         13    1    3    3    0    0  0.38618770672E+03  0.11252043083E+03 -0.15863519744E+02  0.40255862112E+03  0.00000000000E+00 0. -1.
        -13    1    3    3    0    0  0.15196542194E+04  0.42994347094E+03 -0.25283062249E+03  0.15994135358E+04  0.00000000000E+00 0.  1.
         22    1    1    2    0    0 -0.19058419261E+04 -0.54246390177E+03 -0.41870975570E+03  0.20252946432E+04  0.00000000000E+00 0.  1.
<mgrwt>
<rscale>  0 0.39681676E+04</rscale>
<asrwt>0</asrwt>
<pdfrwt beam="1">  1        2 0.36266698E+00 0.39681676E+04</pdfrwt>
<pdfrwt beam="2">  1       -2 0.25691253E+00 0.39681676E+04</pdfrwt>
<totfact> 0.19384064E-01</totfact>
</mgrwt>
</event>
<event>
 6    1  0.6091287E-004  0.1819891E+04  0.7818608E-02  0.8695793E-01
          2   -1    0    0  501    0  0.00000000000E+00  0.00000000000E+00  0.67079473254E+03  0.67079473254E+03  0.00000000000E+00 0.  1.
         -2   -1    0    0    0  501 -0.00000000000E+00 -0.00000000000E+00 -0.12343579267E+04  0.12343579267E+04  0.00000000000E+00 0. -1.
         23    2    1    2    0    0 -0.58406937967E+03 -0.19403343459E+03  0.41540001755E+03  0.74879848172E+03  0.96726302763E+02 0.  0.
         13    1    3    3    0    0 -0.24217514209E+03 -0.62485491125E+02  0.11606271129E+03  0.27572411755E+03  0.00000000000E+00 0.  1.
        -13    1    3    3    0    0 -0.34189423758E+03 -0.13154794346E+03  0.29933730626E+03  0.47307436417E+03  0.00000000000E+00 0. -1.
         22    1    1    2    0    0  0.58406937967E+03  0.19403343459E+03 -0.97896321175E+03  0.11563541776E+04  0.00000000000E+00 0. -1.
<mgrwt>
<rscale>  0 0.18198910E+04</rscale>
<asrwt>0</asrwt>
<pdfrwt beam="1">  1        2 0.10319919E+00 0.18198910E+04</pdfrwt>
<pdfrwt beam="2">  1       -2 0.18990122E+00 0.18198910E+04</pdfrwt>
<totfact> 0.63211220E+00</totfact>
</mgrwt>
</event>
<event>
 6    1  0.6091287E-004  0.5848769E+04  0.7818608E-02  0.7709441E-01
         -2   -1    0    0    0  501 -0.00000000000E+00  0.00000000000E+00  0.19052474256E+04  0.19052474256E+04  0.00000000000E+00 0. -1.
          2   -1    0    0  501    0  0.00000000000E+00 -0.00000000000E+00 -0.44886688941E+04  0.44886688941E+04  0.00000000000E+00 0.  1.
         23    2    1    2    0    0  0.31726943865E+02  0.28273944542E+04 -0.47929336414E+03  0.28693566198E+04  0.91210106828E+02 0.  0.
         13    1    3    3    0    0  0.51100845902E+02  0.26277746948E+04 -0.45434012375E+03  0.26672525360E+04  0.00000000000E+00 0.  1.
        -13    1    3    3    0    0 -0.19373902037E+02  0.19961975947E+03 -0.24953240388E+02  0.20210408372E+03  0.00000000000E+00 0. -1.
         22    1    1    2    0    0 -0.31726943865E+02 -0.28273944542E+04 -0.21041281043E+04  0.35245596999E+04  0.00000000000E+00 0.  1.
<mgrwt>
<rscale>  0 0.58487691E+04</rscale>
<asrwt>0</asrwt>
<pdfrwt beam="1">  1        2 0.69056444E+00 0.58487691E+04</pdfrwt>
<pdfrwt beam="2">  1       -2 0.29311499E+00 0.58487691E+04</pdfrwt>
<totfact> 0.29770091E-03</totfact>
</mgrwt>
</event>
<event>
 6    1  0.6091287E-004  0.1992810E+04  0.7818608E-02  0.8609990E-01
          2   -1    0    0  501    0  0.00000000000E+00  0.00000000000E+00  0.15952082609E+04  0.15952082609E+04  0.00000000000E+00 0.  1.
         -2   -1    0    0    0  501 -0.00000000000E+00 -0.00000000000E+00 -0.62237823077E+03  0.62237823077E+03  0.00000000000E+00 0. -1.
         23    2    1    2    0    0  0.24327049619E+03 -0.21093844790E+03 -0.55929828500E+03  0.65198988427E+03  0.92739821349E+02 0.  0.
         11    1    3    3    0    0  0.20228777762E+03 -0.17007008968E+03 -0.37464887986E+03  0.45848223908E+03  0.00000000000E+00 0. -1.
        -11    1    3    3    0    0  0.40982718572E+02 -0.40868358228E+02 -0.18464940514E+03  0.19350764518E+03  0.00000000000E+00 0.  1.
         22    1    1    2    0    0 -0.24327049619E+03  0.21093844790E+03  0.15321283152E+04  0.15655966074E+04  0.00000000000E+00 0.  1.
<mgrwt>
<rscale>  0 0.19928100E+04</rscale>
<asrwt>0</asrwt>
<pdfrwt beam="1">  1        2 0.24541665E+00 0.19928100E+04</pdfrwt>
<pdfrwt beam="2">  1       -2 0.95750498E-01 0.19928100E+04</pdfrwt>
<totfact> 0.95449154E+00</totfact>
</mgrwt>
</event>
<event>
 6    1  0.6091287E-004  0.3106430E+04  0.7818608E-02  0.8213976E-01
          2   -1    0    0  501    0  0.00000000000E+00  0.00000000000E+00  0.17290099059E+04  0.17290099059E+04  0.00000000000E+00 0. -1.
         -2   -1    0    0    0  501 -0.00000000000E+00 -0.00000000000E+00 -0.13952934832E+04  0.13952934832E+04  0.00000000000E+00 0.  1.
         23    2    1    2    0    0  0.14218247264E+03 -0.11050140752E+04  0.12535626403E+04  0.16795234660E+04  0.90043422191E+02 0.  0.
         11    1    3    3    0    0 -0.33827210814E+01 -0.27526377738E+03  0.31562137124E+03  0.41880596930E+03  0.00000000000E+00 0.  1.
        -11    1    3    3    0    0  0.14556519372E+03 -0.82975029784E+03  0.93794126906E+03  0.12607174967E+04  0.00000000000E+00 0. -1.
         22    1    1    2    0    0 -0.14218247264E+03  0.11050140752E+04 -0.91984621764E+03  0.14447799231E+04  0.00000000000E+00 0.  1.
<mgrwt>
<rscale>  0 0.31064296E+04</rscale>
<asrwt>0</asrwt>
<pdfrwt beam="1">  1        2 0.26600152E+00 0.31064296E+04</pdfrwt>
<pdfrwt beam="2">  1       -2 0.21466054E+00 0.31064296E+04</pdfrwt>
<totfact> 0.85709629E-01</totfact>
</mgrwt>
</event>
<event>
 6    1  0.6091287E-004  0.2947629E+04  0.7818608E-02  0.8258846E-01
         -2   -1    0    0    0  501 -0.00000000000E+00  0.00000000000E+00  0.11495887190E+04  0.11495887190E+04  0.00000000000E+00 0. -1.
          2   -1    0    0  501    0  0.00000000000E+00 -0.00000000000E+00 -0.18894834480E+04  0.18894834480E+04  0.00000000000E+00 0.  1.
         23    2    1    2    0    0 -0.99183716319E+02 -0.14650141083E+04 -0.25665803131E+03  0.14932321193E+04  0.88119635401E+02 0.  0.
         13    1    3    3    0    0 -0.19943071974E+02 -0.49817802897E+03 -0.12726008854E+03  0.51456214863E+03  0.00000000000E+00 0.  1.
        -13    1    3    3    0    0 -0.79240644345E+02 -0.96683607930E+03 -0.12939794278E+03  0.97866997070E+03  0.00000000000E+00 0. -1.
         22    1    1    2    0    0  0.99183716319E+02  0.14650141083E+04 -0.48323669775E+03  0.15458400477E+04  0.00000000000E+00 0.  1.
<mgrwt>
<rscale>  0 0.29476288E+04</rscale>
<asrwt>0</asrwt>
<pdfrwt beam="1">  1        2 0.29068976E+00 0.29476288E+04</pdfrwt>
<pdfrwt beam="2">  1       -2 0.17685980E+00 0.29476288E+04</pdfrwt>
<totfact> 0.12617224E+00</totfact>
</mgrwt>
</event>
<event>
 6    1  0.6091287E-004  0.2276095E+04  0.7818608E-02  0.8487406E-01
          4   -1    0    0  501    0  0.00000000000E+00  0.00000000000E+00  0.15616207146E+04  0.15616207146E+04  0.00000000000E+00 0.  1.
         -4   -1    0    0    0  501 -0.00000000000E+00 -0.00000000000E+00 -0.82936432901E+03  0.82936432901E+03  0.00000000000E+00 0. -1.
         23    2    1    2    0    0 -0.42638213131E+03 -0.41751181692E+03  0.13824982599E+04  0.15084136107E+04  0.88838861817E+02 0.  0.
         11    1    3    3    0    0 -0.13104925904E+02 -0.43829728909E+02  0.90827576010E+02  0.10169775210E+03  0.00000000000E+00 0. -1.
        -11    1    3    3    0    0 -0.41327720540E+03 -0.37368208801E+03  0.12916706839E+04  0.14067158586E+04  0.00000000000E+00 0.  1.
         22    1    1    2    0    0  0.42638213131E+03  0.41751181692E+03 -0.65024187424E+03  0.88257143290E+03  0.00000000000E+00 0. -1.
<mgrwt>
<rscale>  0 0.22760954E+04</rscale>
<asrwt>0</asrwt>
<pdfrwt beam="1">  1        4 0.24024934E+00 0.22760954E+04</pdfrwt>
<pdfrwt beam="2">  1       -4 0.12759451E+00 0.22760954E+04</pdfrwt>
<totfact> 0.59806831E-02</totfact>
</mgrwt>
</event>
<event>
 6    1  0.6091287E-004  0.5367657E+04  0.7818608E-02  0.7774167E-01
         -4   -1    0    0    0  501 -0.00000000000E+00  0.00000000000E+00  0.22577611251E+04  0.22577611251E+04  0.00000000000E+00 0. -1.
          4   -1    0    0  501    0  0.00000000000E+00 -0.00000000000E+00 -0.31903001978E+04  0.31903001978E+04  0.00000000000E+00 0.  1.
         23    2    1    2    0    0 -0.94960422739E+03  0.11036311018E+04 -0.27538068864E+04  0.31163738982E+04  0.92650463817E+02 0.  0.
         13    1    3    3    0    0 -0.26712612719E+03  0.27287973940E+03 -0.65387638533E+03  0.75721466395E+03  0.00000000000E+00 0. -1.
        -13    1    3    3    0    0 -0.68247810020E+03  0.83075136240E+03 -0.20999305011E+04  0.23591592343E+04  0.00000000000E+00 0.  1.
         22    1    1    2    0    0  0.94960422739E+03 -0.11036311018E+04  0.18212678137E+04  0.23316874247E+04  0.00000000000E+00 0. -1.
<mgrwt>
<rscale>  0 0.53676571E+04</rscale>
<asrwt>0</asrwt>
<pdfrwt beam="1">  1        4 0.49081541E+00 0.53676571E+04</pdfrwt>
<pdfrwt beam="2">  1       -4 0.34734787E+00 0.53676571E+04</pdfrwt>
<totfact> 0.29866134E-05</totfact>
</mgrwt>
</event>
<event>
 6    1  0.6091287E-004  0.5291021E+04  0.7818608E-02  0.7785118E-01
         -2   -1    0    0    0  501 -0.00000000000E+00  0.00000000000E+00  0.15507515903E+04  0.15507515903E+04  0.00000000000E+00 0. -1.
          2   -1    0    0  501    0  0.00000000000E+00 -0.00000000000E+00 -0.45131193864E+04  0.45131193864E+04  0.00000000000E+00 0.  1.
         23    2    1    2    0    0 -0.14358923735E+04  0.17621490881E+04  0.67810313912E+02  0.22758720728E+04  0.89661229732E+02 0.  0.
         13    1    3    3    0    0 -0.96936558840E+03  0.12126401530E+04  0.71630610208E+01  0.15524873894E+04  0.00000000000E+00 0.  1.
        -13    1    3    3    0    0 -0.46652678514E+03  0.54950893509E+03  0.60647252891E+02  0.72338468347E+03  0.00000000000E+00 0. -1.
         22    1    1    2    0    0  0.14358923735E+04 -0.17621490881E+04 -0.30301781100E+04  0.37879989038E+04  0.00000000000E+00 0. -1.
<mgrwt>
<rscale>  0 0.52910215E+04</rscale>
<asrwt>0</asrwt>
<pdfrwt beam="1">  1        2 0.69432606E+00 0.52910215E+04</pdfrwt>
<pdfrwt beam="2">  1       -2 0.23857717E+00 0.52910215E+04</pdfrwt>
<totfact> 0.63582908E-03</totfact>
</mgrwt>
</event>
<event>
 6    1  0.6091287E-004  0.1901242E+04  0.7818608E-02  0.8654239E-01
          2   -1    0    0  501    0  0.00000000000E+00  0.00000000000E+00  0.32730587537E+04  0.32730587537E+04  0.00000000000E+00 0.  1.
         -2   -1    0    0    0  501 -0.00000000000E+00 -0.00000000000E+00 -0.27609647014E+03  0.27609647014E+03  0.00000000000E+00 0. -1.
         23    2    1    2    0    0  0.43764026029E+03 -0.77451128390E+03  0.88828193579E+03  0.12605028834E+04  0.91793220319E+02 0.  0.
         13    1    3    3    0    0  0.24276048541E+03 -0.51856450408E+03  0.57570931974E+03  0.81196244926E+03  0.00000000000E+00 0.  1.
        -13    1    3    3    0    0  0.19487977488E+03 -0.25594677982E+03  0.31257261605E+03  0.44854043414E+03  0.00000000000E+00 0. -1.
         22    1    1    2    0    0 -0.43764026029E+03  0.77451128390E+03  0.21086803478E+04  0.22886523404E+04  0.00000000000E+00 0.  1.
<mgrwt>
<rscale>  0 0.19012417E+04</rscale>
<asrwt>0</asrwt>
<pdfrwt beam="1">  1        2 0.50354747E+00 0.19012417E+04</pdfrwt>
<pdfrwt beam="2">  1       -2 0.42476382E-01 0.19012417E+04</pdfrwt>
<totfact> 0.57394053E+00</totfact>
</mgrwt>
</event>
<event>
 6    1  0.6091287E-004  0.1654575E+04  0.7818608E-02  0.8787705E-01
          2   -1    0    0  501    0  0.00000000000E+00  0.00000000000E+00  0.76954349971E+03  0.76954349971E+03  0.00000000000E+00 0.  1.
         -2   -1    0    0    0  501 -0.00000000000E+00 -0.00000000000E+00 -0.88936428316E+03  0.88936428316E+03  0.00000000000E+00 0. -1.
         23    2    1    2    0    0  0.55170375153E+02 -0.77035362843E+03 -0.34998373827E+03  0.85301481920E+03  0.93043976709E+02 0.  0.
         11    1    3    3    0    0  0.55662130761E+02 -0.20986188470E+03 -0.87134164004E+02  0.23395009294E+03  0.00000000000E+00 0. -1.
        -11    1    3    3    0    0 -0.49175560767E+00 -0.56049174373E+03 -0.26284957427E+03  0.61906472626E+03  0.00000000000E+00 0.  1.
         22    1    1    2    0    0 -0.55170375153E+02  0.77035362843E+03  0.23016295481E+03  0.80589296367E+03  0.00000000000E+00 0.  1.
<mgrwt>
<rscale>  0 0.16545749E+04</rscale>
<asrwt>0</asrwt>
<pdfrwt beam="1">  1        2 0.11839131E+00 0.16545749E+04</pdfrwt>
<pdfrwt beam="2">  1       -2 0.13682527E+00 0.16545749E+04</pdfrwt>
<totfact> 0.13194252E+01</totfact>
</mgrwt>
</event>
<event>
 6    1  0.6091287E-004  0.1285863E+04  0.7818608E-02  0.9040851E-01
          2   -1    0    0  501    0  0.00000000000E+00  0.00000000000E+00  0.22162355807E+04  0.22162355807E+04  0.00000000000E+00 0.  1.
         -2   -1    0    0    0  501 -0.00000000000E+00 -0.00000000000E+00 -0.18651496642E+03  0.18651496642E+03  0.00000000000E+00 0. -1.
         23    2    1    2    0    0  0.39341630051E+02  0.60268689811E+03  0.14139653426E+04  0.15402345672E+04  0.90803474220E+02 0.  0.
         11    1    3    3    0    0  0.25890646608E+02  0.19183722127E+03  0.55928783408E+03  0.59184011895E+03  0.00000000000E+00 0. -1.
        -11    1    3    3    0    0  0.13450983444E+02  0.41084967684E+03  0.85467750853E+03  0.94839444826E+03  0.00000000000E+00 0.  1.
         22    1    1    2    0    0 -0.39341630051E+02 -0.60268689811E+03  0.61575527171E+03  0.86251597994E+03  0.00000000000E+00 0. -1.
<mgrwt>
<rscale>  0 0.12858633E+04</rscale>
<asrwt>0</asrwt>
<pdfrwt beam="1">  1        2 0.34095930E+00 0.12858633E+04</pdfrwt>
<pdfrwt beam="2">  1       -2 0.28694612E-01 0.12858633E+04</pdfrwt>
<totfact> 0.55391441E+01</totfact>
</mgrwt>
</event>
<event>
 6    1  0.6091287E-004  0.2475340E+04  0.7818608E-02  0.8411824E-01
          2   -1    0    0  501    0  0.00000000000E+00  0.00000000000E+00  0.15043739553E+04  0.15043739553E+04  0.00000000000E+00 0.  1.
         -2   -1    0    0    0  501 -0.00000000000E+00 -0.00000000000E+00 -0.10182486814E+04  0.10182486814E+04  0.00000000000E+00 0. -1.
         23    2    1    2    0    0 -0.24146158807E+03  0.18729939015E+03 -0.97711253238E+03  0.10278150778E+04  0.90940492768E+02 0.  0.
         13    1    3    3    0    0 -0.21462675840E+03  0.17498407557E+03 -0.76342123485E+03  0.81209362388E+03  0.00000000000E+00 0. -1.
        -13    1    3    3    0    0 -0.26834829673E+02  0.12315314581E+02 -0.21369129753E+03  0.21572145396E+03  0.00000000000E+00 0.  1.
         22    1    1    2    0    0  0.24146158807E+03 -0.18729939015E+03  0.14632378064E+04  0.14948075589E+04  0.00000000000E+00 0.  1.
<mgrwt>
<rscale>  0 0.24753398E+04</rscale>
<asrwt>0</asrwt>
<pdfrwt beam="1">  1        2 0.23144215E+00 0.24753398E+04</pdfrwt>
<pdfrwt beam="2">  1       -2 0.15665364E+00 0.24753398E+04</pdfrwt>
<totfact> 0.30096708E+00</totfact>
</mgrwt>
</event>
<event>
 6    1  0.6091287E-004  0.8576284E+03  0.7818608E-02  0.9480155E-01
         -2   -1    0    0    0  501 -0.00000000000E+00  0.00000000000E+00  0.57216487561E+02  0.57216487561E+02  0.00000000000E+00 0. -1.
          2   -1    0    0  501    0  0.00000000000E+00 -0.00000000000E+00 -0.32137869037E+04  0.32137869037E+04  0.00000000000E+00 0.  1.
         23    2    1    2    0    0  0.22889165819E+03 -0.48841094055E+01 -0.29573107903E+04  0.29674912099E+04  0.88891648212E+02 0.  0.
         11    1    3    3    0    0  0.52380014231E+02  0.59598792297E+01 -0.32511280364E+03  0.32935925848E+03  0.00000000000E+00 0. -1.
        -11    1    3    3    0    0  0.17651164396E+03 -0.10843988635E+02 -0.26321979866E+04  0.26381319515E+04  0.00000000000E+00 0.  1.
         22    1    1    2    0    0 -0.22889165819E+03  0.48841094055E+01 -0.19925962591E+03  0.30351218136E+03  0.00000000000E+00 0. -1.
<mgrwt>
<rscale>  0 0.85762835E+03</rscale>
<asrwt>0</asrwt>
<pdfrwt beam="1">  1        2 0.49442871E+00 0.85762835E+03</pdfrwt>
<pdfrwt beam="2">  1       -2 0.88025373E-02 0.85762835E+03</pdfrwt>
<totfact> 0.11252373E+02</totfact>
</mgrwt>
</event>
<event>
 6    1  0.6091287E-004  0.4120465E+04  0.7818608E-02  0.7980676E-01
         -2   -1    0    0    0  501 -0.00000000000E+00  0.00000000000E+00  0.13233894423E+04  0.13233894423E+04  0.00000000000E+00 0. -1.
          2   -1    0    0  501    0  0.00000000000E+00 -0.00000000000E+00 -0.32073388300E+04  0.32073388300E+04  0.00000000000E+00 0.  1.
         23    2    1    2    0    0 -0.15468667445E+03 -0.20408013209E+04 -0.11932513256E+04  0.23706676686E+04  0.86130541693E+02 0.  0.
         11    1    3    3    0    0 -0.26453278537E+02 -0.64584024663E+03 -0.41539397964E+03  0.76834989324E+03  0.00000000000E+00 0.  1.
        -11    1    3    3    0    0 -0.12823339591E+03 -0.13949610743E+04 -0.77785734597E+03  0.16023177754E+04  0.00000000000E+00 0. -1.
         22    1    1    2    0    0  0.15468667445E+03  0.20408013209E+04 -0.69069806211E+03  0.21600606037E+04  0.00000000000E+00 0.  1.
<mgrwt>
<rscale>  0 0.41204652E+04</rscale>
<asrwt>0</asrwt>
<pdfrwt beam="1">  1        2 0.49343674E+00 0.41204652E+04</pdfrwt>
<pdfrwt beam="2">  1       -2 0.20359838E+00 0.41204652E+04</pdfrwt>
<totfact> 0.12609988E-01</totfact>
</mgrwt>
</event>
<event>
 6    1  0.6091287E-004  0.2472878E+04  0.7818608E-02  0.8412712E-01
          2   -1    0    0  501    0  0.00000000000E+00  0.00000000000E+00  0.42372107601E+04  0.42372107601E+04  0.00000000000E+00 0.  1.
         -2   -1    0    0    0  501 -0.00000000000E+00 -0.00000000000E+00 -0.36079888233E+03  0.36079888233E+03  0.00000000000E+00 0. -1.
         23    2    1    2    0    0  0.31954055935E+03 -0.10009452908E+04  0.73388672887E+03  0.12844825253E+04  0.85486741318E+02 0.  0.
         13    1    3    3    0    0  0.15855998354E+03 -0.39364317540E+03  0.33002547948E+03  0.53759932573E+03  0.00000000000E+00 0.  1.
        -13    1    3    3    0    0  0.16098057581E+03 -0.60730211536E+03  0.40386124939E+03  0.74688319962E+03  0.00000000000E+00 0. -1.
         22    1    1    2    0    0 -0.31954055935E+03  0.10009452908E+04  0.31425251489E+04  0.33135271170E+04  0.00000000000E+00 0.  1.
<mgrwt>
<rscale>  0 0.24728776E+04</rscale>
<asrwt>0</asrwt>
<pdfrwt beam="1">  1        2 0.65187854E+00 0.24728776E+04</pdfrwt>
<pdfrwt beam="2">  1       -2 0.55507524E-01 0.24728776E+04</pdfrwt>
<totfact> 0.59113474E-01</totfact>
</mgrwt>
</event>
<event>
 6    1  0.6091287E-004  0.1590792E+04  0.7818608E-02  0.8826225E-01
         -2   -1    0    0    0  501 -0.00000000000E+00  0.00000000000E+00  0.20248980926E+04  0.20248980926E+04  0.00000000000E+00 0. -1.
          2   -1    0    0  501    0  0.00000000000E+00 -0.00000000000E+00 -0.31243773356E+03  0.31243773356E+03  0.00000000000E+00 0.  1.
         23    2    1    2    0    0 -0.33134781561E+03 -0.21394027335E+03  0.18695088315E+04  0.19128054525E+04  0.90551710499E+02 0.  0.
         13    1    3    3    0    0 -0.18908156510E+03 -0.69156743454E+02  0.89061095087E+03  0.91308398257E+03  0.00000000000E+00 0.  1.
        -13    1    3    3    0    0 -0.14226625051E+03 -0.14478352990E+03  0.97889788067E+03  0.99972146988E+03  0.00000000000E+00 0. -1.
         22    1    1    2    0    0  0.33134781561E+03  0.21394027335E+03 -0.15704847252E+03  0.42453037370E+03  0.00000000000E+00 0.  1.
<mgrwt>
<rscale>  0 0.15907917E+04</rscale>
<asrwt>0</asrwt>
<pdfrwt beam="1">  1        2 0.48067345E-01 0.15907917E+04</pdfrwt>
<pdfrwt beam="2">  1       -2 0.31152278E+00 0.15907917E+04</pdfrwt>
<totfact> 0.27290617E+00</totfact>
</mgrwt>
</event>
<event>
 6    1  0.6091287E-004  0.2563797E+04  0.7818608E-02  0.8380604E-01
          2   -1    0    0  501    0  0.00000000000E+00  0.00000000000E+00  0.28832417567E+04  0.28832417567E+04  0.00000000000E+00 0.  1.
         -2   -1    0    0    0  501 -0.00000000000E+00 -0.00000000000E+00 -0.56993613249E+03  0.56993613249E+03  0.00000000000E+00 0. -1.
         23    2    1    2    0    0  0.80731408879E+03  0.93347853582E+02  0.24905528718E+04  0.26213807706E+04  0.91179368899E+02 0.  0.
         13    1    3    3    0    0  0.17076063350E+03  0.42446455268E+02  0.44736473614E+03  0.48072456008E+03  0.00000000000E+00 0.  1.
        -13    1    3    3    0    0  0.63655345529E+03  0.50901398314E+02  0.20431881357E+04  0.21406562105E+04  0.00000000000E+00 0. -1.
         22    1    1    2    0    0 -0.80731408879E+03 -0.93347853582E+02 -0.17724724761E+03  0.83179711861E+03  0.00000000000E+00 0. -1.
<mgrwt>
<rscale>  0 0.25637969E+04</rscale>
<asrwt>0</asrwt>
<pdfrwt beam="1">  1        2 0.44357565E+00 0.25637969E+04</pdfrwt>
<pdfrwt beam="2">  1       -2 0.87682483E-01 0.25637969E+04</pdfrwt>
<totfact> 0.20481821E+00</totfact>
</mgrwt>
</event>
<event>
 6    1  0.6091287E-004  0.3335363E+04  0.7818608E-02  0.8153955E-01
          1   -1    0    0  501    0  0.00000000000E+00  0.00000000000E+00  0.31997954844E+04  0.31997954844E+04  0.00000000000E+00 0.  1.
         -1   -1    0    0    0  501 -0.00000000000E+00 -0.00000000000E+00 -0.86916832426E+03  0.86916832426E+03  0.00000000000E+00 0. -1.
         23    2    1    2    0    0  0.23646892559E+03 -0.16441340945E+04  0.13293710696E+04  0.21294772188E+04  0.91385507843E+02 0.  0.
         13    1    3    3    0    0  0.12763850601E+03 -0.64895209359E+03  0.56630319221E+03  0.87070644508E+03  0.00000000000E+00 0.  1.
        -13    1    3    3    0    0  0.10883041958E+03 -0.99518200093E+03  0.76306787736E+03  0.12587707737E+04  0.00000000000E+00 0. -1.
         22    1    1    2    0    0 -0.23646892559E+03  0.16441340945E+04  0.10012560906E+04  0.19394865899E+04  0.00000000000E+00 0.  1.
<mgrwt>
<rscale>  0 0.33353626E+04</rscale>
<asrwt>0</asrwt>
<pdfrwt beam="1">  1        1 0.49227622E+00 0.33353626E+04</pdfrwt>
<pdfrwt beam="2">  1       -1 0.13371821E+00 0.33353626E+04</pdfrwt>
<totfact> 0.16585664E-01</totfact>
</mgrwt>
</event>
<event>
 6    1  0.6091287E-004  0.2127276E+04  0.7818608E-02  0.8549322E-01
          2   -1    0    0  501    0  0.00000000000E+00  0.00000000000E+00  0.83531395151E+03  0.83531395151E+03  0.00000000000E+00 0.  1.
         -2   -1    0    0    0  501 -0.00000000000E+00 -0.00000000000E+00 -0.13543717879E+04  0.13543717879E+04  0.00000000000E+00 0. -1.
         23    2    1    2    0    0 -0.17603277386E+03  0.78059138237E+03  0.45829901226E+03  0.92654012099E+03  0.90156350183E+02 0.  0.
         13    1    3    3    0    0 -0.61148824265E+02  0.46780452263E+03  0.25708031512E+03  0.53728068877E+03  0.00000000000E+00 0.  1.
        -13    1    3    3    0    0 -0.11488394960E+03  0.31278685974E+03  0.20121869714E+03  0.38925943223E+03  0.00000000000E+00 0. -1.
         22    1    1    2    0    0  0.17603277386E+03 -0.78059138237E+03 -0.97735684862E+03  0.12631456184E+04  0.00000000000E+00 0. -1.
<mgrwt>
<rscale>  0 0.21272759E+04</rscale>
<asrwt>0</asrwt>
<pdfrwt beam="1">  1        2 0.12850984E+00 0.21272759E+04</pdfrwt>
<pdfrwt beam="2">  1       -2 0.20836489E+00 0.21272759E+04</pdfrwt>
<totfact> 0.35047006E+00</totfact>
</mgrwt>
</event>
<event>
 6    1  0.6560417E-004  0.3584740E+04  0.7818608E-02  0.8093996E-01
         -2   -1    0    0    0  501 -0.00000000000E+00  0.00000000000E+00  0.20932046998E+04  0.20932046998E+04  0.00000000000E+00 0. -1.
          2   -1    0    0  501    0  0.00000000000E+00 -0.00000000000E+00 -0.15347714642E+04  0.15347714642E+04  0.00000000000E+00 0.  1.
         23    2    1    2    0    0 -0.99716201532E+03 -0.14176362542E+04  0.73676327366E+03  0.18856139065E+04  0.93247247320E+02 0.  0.
         11    1    3    3    0    0 -0.24571098061E+03 -0.40504904914E+03  0.23010428826E+03  0.52667504371E+03  0.00000000000E+00 0.  1.
        -11    1    3    3    0    0 -0.75145103471E+03 -0.10125872050E+04  0.50665898541E+03  0.13589388628E+04  0.00000000000E+00 0. -1.
         22    1    1    2    0    0  0.99716201532E+03  0.14176362542E+04 -0.17833003812E+03  0.17423622575E+04  0.00000000000E+00 0.  1.
<mgrwt>
<rscale>  0 0.35847403E+04</rscale>
<asrwt>0</asrwt>
<pdfrwt beam="1">  1        2 0.23611869E+00 0.35847403E+04</pdfrwt>
<pdfrwt beam="2">  1       -2 0.32203149E+00 0.35847403E+04</pdfrwt>
<totfact> 0.23026928E-01</totfact>
</mgrwt>
</event>
<event>
 6    1  0.6091287E-004  0.3504308E+04  0.7818608E-02  0.8112770E-01
          2   -1    0    0  501    0  0.00000000000E+00  0.00000000000E+00  0.34230838502E+04  0.34230838502E+04  0.00000000000E+00 0.  1.
         -2   -1    0    0    0  501 -0.00000000000E+00 -0.00000000000E+00 -0.89686478949E+03  0.89686478949E+03  0.00000000000E+00 0. -1.
         23    2    1    2    0    0 -0.30052869658E+03 -0.13964736286E+04  0.25123051006E+04  0.28914355347E+04  0.90919965891E+02 0.  0.
         11    1    3    3    0    0 -0.20686711697E+03 -0.81287650291E+03  0.14084941661E+04  0.16393346300E+04  0.00000000000E+00 0. -1.
        -11    1    3    3    0    0 -0.93661579606E+02 -0.58359712569E+03  0.11038109345E+04  0.12521009047E+04  0.00000000000E+00 0.  1.
         22    1    1    2    0    0  0.30052869658E+03  0.13964736286E+04  0.13913960133E+02  0.14285131050E+04  0.00000000000E+00 0. -1.
<mgrwt>
<rscale>  0 0.35043078E+04</rscale>
<asrwt>0</asrwt>
<pdfrwt beam="1">  1        2 0.52662828E+00 0.35043078E+04</pdfrwt>
<pdfrwt beam="2">  1       -2 0.13797920E+00 0.35043078E+04</pdfrwt>
<totfact> 0.28123336E-01</totfact>
</mgrwt>
</event>
<event>
 6    1  0.6091287E-004  0.3087449E+03  0.7818608E-02  0.1080949E+00
         -2   -1    0    0    0  501 -0.00000000000E+00  0.00000000000E+00  0.33456897275E+02  0.33456897275E+02  0.00000000000E+00 0. -1.
          2   -1    0    0  501    0  0.00000000000E+00 -0.00000000000E+00 -0.71228535823E+03  0.71228535823E+03  0.00000000000E+00 0.  1.
         23    2    1    2    0    0 -0.26985132762E+02 -0.99122093449E+02 -0.13554356274E+03  0.19283008578E+03  0.90873526300E+02 0.  0.
         11    1    3    3    0    0 -0.45545908500E+01 -0.21892743583E+02  0.11564470769E+02  0.25174858561E+02  0.00000000000E+00 0. -1.
        -11    1    3    3    0    0 -0.22430541912E+02 -0.77229349866E+02 -0.14710803351E+03  0.16765522722E+03  0.00000000000E+00 0.  1.
         22    1    1    2    0    0  0.26985132762E+02  0.99122093449E+02 -0.54328489821E+03  0.55291216972E+03  0.00000000000E+00 0.  1.
<mgrwt>
<rscale>  0 0.30874493E+03</rscale>
<asrwt>0</asrwt>
<pdfrwt beam="1">  1        2 0.10958236E+00 0.30874493E+03</pdfrwt>
<pdfrwt beam="2">  1       -2 0.51472150E-02 0.30874493E+03</pdfrwt>
<totfact> 0.76968915E+03</totfact>
</mgrwt>
</event>
<event>
 6    1  0.6091287E-004  0.2243267E+04  0.7818608E-02  0.8500632E-01
         -2   -1    0    0    0  501 -0.00000000000E+00  0.00000000000E+00  0.16190152162E+04  0.16190152162E+04  0.00000000000E+00 0. -1.
          2   -1    0    0  501    0  0.00000000000E+00 -0.00000000000E+00 -0.77705366371E+03  0.77705366371E+03  0.00000000000E+00 0.  1.
         23    2    1    2    0    0 -0.94409922031E+02 -0.52200274690E+03  0.14749377562E+04  0.15702002610E+04  0.93206083771E+02 0.  0.
         11    1    3    3    0    0 -0.86164650160E+01 -0.15869970464E+03  0.55785850717E+03  0.58005685389E+03  0.00000000000E+00 0. -1.
        -11    1    3    3    0    0 -0.85793457015E+02 -0.36330304226E+03  0.91707924900E+03  0.99014340716E+03  0.00000000000E+00 0.  1.
         22    1    1    2    0    0  0.94409922031E+02  0.52200274690E+03 -0.63297620370E+03  0.82586861884E+03  0.00000000000E+00 0.  1.
<mgrwt>
<rscale>  0 0.22432670E+04</rscale>
<asrwt>0</asrwt>
<pdfrwt beam="1">  1        2 0.11954672E+00 0.22432670E+04</pdfrwt>
<pdfrwt beam="2">  1       -2 0.24907926E+00 0.22432670E+04</pdfrwt>
<totfact> 0.21225450E+00</totfact>
</mgrwt>
</event>
<event>
 6    1  0.6091287E-004  0.3108506E+04  0.7818608E-02  0.8213407E-01
          2   -1    0    0  501    0  0.00000000000E+00  0.00000000000E+00  0.18175424607E+04  0.18175424607E+04  0.00000000000E+00 0.  1.
         -2   -1    0    0    0  501 -0.00000000000E+00 -0.00000000000E+00 -0.13291034312E+04  0.13291034312E+04  0.00000000000E+00 0. -1.
         23    2    1    2    0    0 -0.29815396649E+03  0.52552723084E+03 -0.12036755713E+04  0.13498914622E+04  0.91090179532E+02 0.  0.
         13    1    3    3    0    0 -0.17361251753E+03  0.22968688705E+03 -0.62569436213E+03  0.68876034085E+03  0.00000000000E+00 0.  1.
        -13    1    3    3    0    0 -0.12454144896E+03  0.29584034379E+03 -0.57798120915E+03  0.66113112138E+03  0.00000000000E+00 0. -1.
         22    1    1    2    0    0  0.29815396649E+03 -0.52552723084E+03  0.16921146008E+04  0.17967544296E+04  0.00000000000E+00 0.  1.
<mgrwt>
<rscale>  0 0.31085057E+04</rscale>
<asrwt>0</asrwt>
<pdfrwt beam="1">  1        2 0.27962192E+00 0.31085057E+04</pdfrwt>
<pdfrwt beam="2">  1       -2 0.20447745E+00 0.31085057E+04</pdfrwt>
<totfact> 0.89010317E-01</totfact>
</mgrwt>
</event>
<event>
 6    1  0.6091287E-004  0.3957291E+04  0.7818608E-02  0.8013218E-01
          2   -1    0    0  501    0  0.00000000000E+00  0.00000000000E+00  0.19803003256E+04  0.19803003256E+04  0.00000000000E+00 0.  1.
         -2   -1    0    0    0  501 -0.00000000000E+00 -0.00000000000E+00 -0.19769919900E+04  0.19769919900E+04  0.00000000000E+00 0. -1.
         23    2    1    2    0    0  0.18669410232E+02 -0.34870277369E+03  0.19482009009E+04  0.19812990814E+04  0.90095109232E+02 0.  0.
         13    1    3    3    0    0  0.29874032477E+02 -0.33653213754E+03  0.17436565231E+04  0.17760868244E+04  0.00000000000E+00 0. -1.
        -13    1    3    3    0    0 -0.11204622246E+02 -0.12170636145E+02  0.20454437777E+03  0.20521225700E+03  0.00000000000E+00 0.  1.
         22    1    1    2    0    0 -0.18669410232E+02  0.34870277369E+03 -0.19448925653E+04  0.19759932342E+04  0.00000000000E+00 0. -1.
<mgrwt>
<rscale>  0 0.39572909E+04</rscale>
<asrwt>0</asrwt>
<pdfrwt beam="1">  1        2 0.30466159E+00 0.39572909E+04</pdfrwt>
<pdfrwt beam="2">  1       -2 0.30415261E+00 0.39572909E+04</pdfrwt>
<totfact> 0.16258406E-01</totfact>
</mgrwt>
</event>
<event>
 6    1  0.6091287E-004  0.1169962E+04  0.7818608E-02  0.9139563E-01
          4   -1    0    0  501    0  0.00000000000E+00  0.00000000000E+00  0.78982961125E+03  0.78982961125E+03  0.00000000000E+00 0.  1.
         -4   -1    0    0    0  501 -0.00000000000E+00 -0.00000000000E+00 -0.43326122538E+03  0.43326122538E+03  0.00000000000E+00 0. -1.
         23    2    1    2    0    0 -0.44014856107E+03  0.37985619824E+03  0.19583770955E+03  0.61988619684E+03  0.88797530354E+02 0.  0.
         11    1    3    3    0    0 -0.22729448560E+03  0.25069882581E+03  0.97157022955E+02  0.35206841885E+03  0.00000000000E+00 0.  1.
        -11    1    3    3    0    0 -0.21285407547E+03  0.12915737244E+03  0.98680686598E+02  0.26781777799E+03  0.00000000000E+00 0. -1.
         22    1    1    2    0    0  0.44014856107E+03 -0.37985619824E+03  0.16073067632E+03  0.60320463979E+03  0.00000000000E+00 0.  1.
<mgrwt>
<rscale>  0 0.11699616E+04</rscale>
<asrwt>0</asrwt>
<pdfrwt beam="1">  1        4 0.12151225E+00 0.11699616E+04</pdfrwt>
<pdfrwt beam="2">  1       -4 0.66655573E-01 0.11699616E+04</pdfrwt>
<totfact> 0.21087665E+00</totfact>
</mgrwt>
</event>
<event>
 6    1  0.6091287E-004  0.1451976E+04  0.7818608E-02  0.8917032E-01
         -2   -1    0    0    0  501 -0.00000000000E+00  0.00000000000E+00  0.41331105915E+03  0.41331105915E+03  0.00000000000E+00 0. -1.
          2   -1    0    0  501    0  0.00000000000E+00 -0.00000000000E+00 -0.12752107006E+04  0.12752107006E+04  0.00000000000E+00 0.  1.
         23    2    1    2    0    0 -0.69430627539E+03  0.22886544654E+02 -0.19738333111E+03  0.72718574947E+03  0.85170046730E+02 0.  0.
         13    1    3    3    0    0 -0.53706054049E+03 -0.18127972590E+02 -0.15334017208E+03  0.55881647785E+03  0.00000000000E+00 0. -1.
        -13    1    3    3    0    0 -0.15724573490E+03  0.41014517243E+02 -0.44043159029E+02  0.16836927162E+03  0.00000000000E+00 0.  1.
         22    1    1    2    0    0  0.69430627539E+03 -0.22886544654E+02 -0.66451631035E+03  0.96133601029E+03  0.00000000000E+00 0. -1.
<mgrwt>
<rscale>  0 0.14519762E+04</rscale>
<asrwt>0</asrwt>
<pdfrwt beam="1">  1        2 0.19618626E+00 0.14519762E+04</pdfrwt>
<pdfrwt beam="2">  1       -2 0.63586317E-01 0.14519762E+04</pdfrwt>
<totfact> 0.37933282E+01</totfact>
</mgrwt>
</event>
<event>
 6    1  0.6091287E-004  0.3500014E+04  0.7818608E-02  0.8113787E-01
         -1   -1    0    0    0  501 -0.00000000000E+00  0.00000000000E+00  0.21722435126E+04  0.21722435126E+04  0.00000000000E+00 0. -1.
          1   -1    0    0  501    0  0.00000000000E+00 -0.00000000000E+00 -0.14098444029E+04  0.14098444029E+04  0.00000000000E+00 0.  1.
         23    2    1    2    0    0 -0.17311890006E+04 -0.17034239755E+03  0.56495048176E+03  0.18313686780E+04  0.93328986958E+02 0.  0.
         13    1    3    3    0    0 -0.74576201558E+03 -0.72778732964E+02  0.29204417487E+03  0.80420614766E+03  0.00000000000E+00 0. -1.
        -13    1    3    3    0    0 -0.98542698498E+03 -0.97563664585E+02  0.27290630690E+03  0.10271625303E+04  0.00000000000E+00 0.  1.
         22    1    1    2    0    0  0.17311890006E+04  0.17034239755E+03  0.19744862789E+03  0.17507192375E+04  0.00000000000E+00 0. -1.
<mgrwt>
<rscale>  0 0.35000145E+04</rscale>
<asrwt>0</asrwt>
<pdfrwt beam="1">  1        1 0.21689914E+00 0.35000145E+04</pdfrwt>
<pdfrwt beam="2">  1       -1 0.33419131E+00 0.35000145E+04</pdfrwt>
<totfact> 0.12185072E-01</totfact>
</mgrwt>
</event>
<event>
 6    1  0.6091287E-004  0.1674776E+04  0.7818608E-02  0.8775883E-01
         -2   -1    0    0    0  501 -0.00000000000E+00  0.00000000000E+00  0.28739476441E+03  0.28739476441E+03  0.00000000000E+00 0. -1.
          2   -1    0    0  501    0  0.00000000000E+00 -0.00000000000E+00 -0.24399151252E+04  0.24399151252E+04  0.00000000000E+00 0.  1.
         23    2    1    2    0    0 -0.45413278364E+03  0.37518059738E+03 -0.11788575332E+03  0.60911843185E+03  0.10065360083E+03 0.  0.
         13    1    3    3    0    0 -0.29472484232E+03  0.28610066166E+03 -0.11476517614E+03  0.42648255174E+03  0.00000000000E+00 0. -1.
        -13    1    3    3    0    0 -0.15940794131E+03  0.89079935715E+02 -0.31205771847E+01  0.18263588011E+03  0.00000000000E+00 0.  1.
         22    1    1    2    0    0  0.45413278364E+03 -0.37518059738E+03 -0.20346346074E+04  0.21181914577E+04  0.00000000000E+00 0.  1.
<mgrwt>
<rscale>  0 0.16747762E+04</rscale>
<asrwt>0</asrwt>
<pdfrwt beam="1">  1        2 0.37537155E+00 0.16747762E+04</pdfrwt>
<pdfrwt beam="2">  1       -2 0.44214580E-01 0.16747762E+04</pdfrwt>
<totfact> 0.17466550E+01</totfact>
</mgrwt>
</event>
<event>
 6    1  0.6091287E-004  0.1455094E+04  0.7818608E-02  0.8914877E-01
         -2   -1    0    0    0  501 -0.00000000000E+00  0.00000000000E+00  0.65716394295E+03  0.65716394295E+03  0.00000000000E+00 0. -1.
          2   -1    0    0  501    0  0.00000000000E+00 -0.00000000000E+00 -0.80546816654E+03  0.80546816654E+03  0.00000000000E+00 0.  1.
         23    2    1    2    0    0 -0.30065902896E+03 -0.29202207506E+03  0.51986056980E+03  0.67388821244E+03  0.90540415341E+02 0.  0.
         11    1    3    3    0    0 -0.19480553663E+03 -0.13738425892E+03  0.33029326782E+03  0.40732944219E+03  0.00000000000E+00 0.  1.
        -11    1    3    3    0    0 -0.10585349233E+03 -0.15463781614E+03  0.18956730197E+03  0.26655877025E+03  0.00000000000E+00 0. -1.
         22    1    1    2    0    0  0.30065902896E+03  0.29202207506E+03 -0.66816479338E+03  0.78874389705E+03  0.00000000000E+00 0.  1.
<mgrwt>
<rscale>  0 0.14550940E+04</rscale>
<asrwt>0</asrwt>
<pdfrwt beam="1">  1        2 0.12391818E+00 0.14550940E+04</pdfrwt>
<pdfrwt beam="2">  1       -2 0.10110215E+00 0.14550940E+04</pdfrwt>
<totfact> 0.26634677E+01</totfact>
</mgrwt>
</event>
<event>
 6    1  0.6091287E-004  0.4769503E+04  0.7818608E-02  0.7865082E-01
         -2   -1    0    0    0  501 -0.00000000000E+00  0.00000000000E+00  0.17913581296E+04  0.17913581296E+04  0.00000000000E+00 0. -1.
          2   -1    0    0  501    0  0.00000000000E+00 -0.00000000000E+00 -0.31747083459E+04  0.31747083459E+04  0.00000000000E+00 0.  1.
         23    2    1    2    0    0  0.62849004795E+03  0.38170923505E+03 -0.30530185844E+04  0.31416503661E+04  0.91339285963E+02 0.  0.
         11    1    3    3    0    0  0.20853275606E+03  0.10043242584E+03 -0.11178456746E+04  0.11415566280E+04  0.00000000000E+00 0. -1.
        -11    1    3    3    0    0  0.41995729189E+03  0.28127680921E+03 -0.19351729098E+04  0.20000937381E+04  0.00000000000E+00 0.  1.
         22    1    1    2    0    0 -0.62849004795E+03 -0.38170923505E+03  0.16696683681E+04  0.18244161094E+04  0.00000000000E+00 0. -1.
<mgrwt>
<rscale>  0 0.47695030E+04</rscale>
<asrwt>0</asrwt>
<pdfrwt beam="1">  1        2 0.48841666E+00 0.47695030E+04</pdfrwt>
<pdfrwt beam="2">  1       -2 0.27559356E+00 0.47695030E+04</pdfrwt>
<totfact> 0.44701648E-02</totfact>
</mgrwt>
</event>
<event>
 6    1  0.6091287E-004  0.2987687E+04  0.7818608E-02  0.8247256E-01
         -2   -1    0    0    0  501 -0.00000000000E+00  0.00000000000E+00  0.77094431676E+03  0.77094431676E+03  0.00000000000E+00 0. -1.
          2   -1    0    0  501    0  0.00000000000E+00 -0.00000000000E+00 -0.28945909723E+04  0.28945909723E+04  0.00000000000E+00 0.  1.
         23    2    1    2    0    0 -0.33572567971E+03 -0.14503645405E+04 -0.93636045385E+03  0.17613510656E+04  0.96527945673E+02 0.  0.
         13    1    3    3    0    0 -0.21870730231E+03 -0.73851430771E+03 -0.49852630608E+03  0.91747738099E+03  0.00000000000E+00 0. -1.
        -13    1    3    3    0    0 -0.11701837740E+03 -0.71185023277E+03 -0.43783414777E+03  0.84387368456E+03  0.00000000000E+00 0.  1.
         22    1    1    2    0    0  0.33572567971E+03  0.14503645405E+04 -0.11872862017E+04  0.19041842235E+04  0.00000000000E+00 0.  1.
<mgrwt>
<rscale>  0 0.29876870E+04</rscale>
<asrwt>0</asrwt>
<pdfrwt beam="1">  1        2 0.44532169E+00 0.29876870E+04</pdfrwt>
<pdfrwt beam="2">  1       -2 0.11860682E+00 0.29876870E+04</pdfrwt>
<totfact> 0.94780600E-01</totfact>
</mgrwt>
</event>
<event>
 6    1  0.6091287E-004  0.1593776E+04  0.7818608E-02  0.8824381E-01
         -2   -1    0    0    0  501 -0.00000000000E+00  0.00000000000E+00  0.39217711279E+03  0.39217711279E+03  0.00000000000E+00 0. -1.
          2   -1    0    0  501    0  0.00000000000E+00 -0.00000000000E+00 -0.16192448329E+04  0.16192448329E+04  0.00000000000E+00 0.  1.
         23    2    1    2    0    0 -0.57913205891E+03 -0.35679375057E+03 -0.97810895930E+02  0.69312126031E+03  0.90301650192E+02 0.  0.
         13    1    3    3    0    0 -0.33176080667E+03 -0.24484932717E+03 -0.86852368496E+02  0.42137840450E+03  0.00000000000E+00 0. -1.
        -13    1    3    3    0    0 -0.24737125224E+03 -0.11194442340E+03 -0.10958527434E+02  0.27174285581E+03  0.00000000000E+00 0.  1.
         22    1    1    2    0    0  0.57913205891E+03  0.35679375057E+03 -0.11292568242E+04  0.13183006854E+04  0.00000000000E+00 0.  1.
<mgrwt>
<rscale>  0 0.15937764E+04</rscale>
<asrwt>0</asrwt>
<pdfrwt beam="1">  1        2 0.24911459E+00 0.15937764E+04</pdfrwt>
<pdfrwt beam="2">  1       -2 0.60334941E-01 0.15937764E+04</pdfrwt>
<totfact> 0.26710807E+01</totfact>
</mgrwt>
</event>
<event>
 6    1  0.6091287E-004  0.2006341E+04  0.7818608E-02  0.8603662E-01
          1   -1    0    0  501    0  0.00000000000E+00  0.00000000000E+00  0.32050505873E+04  0.32050505873E+04  0.00000000000E+00 0.  1.
         -1   -1    0    0    0  501 -0.00000000000E+00 -0.00000000000E+00 -0.31398916320E+03  0.31398916320E+03  0.00000000000E+00 0. -1.
         23    2    1    2    0    0  0.53082380752E+03 -0.51867855710E+03  0.26268494527E+04  0.27312521357E+04  0.92729828791E+02 0.  0.
         13    1    3    3    0    0  0.40019653971E+03 -0.33476834036E+03  0.18831848930E+04  0.19541270310E+04  0.00000000000E+00 0.  1.
        -13    1    3    3    0    0  0.13062726781E+03 -0.18391021673E+03  0.74366455976E+03  0.77712510471E+03  0.00000000000E+00 0. -1.
         22    1    1    2    0    0 -0.53082380752E+03  0.51867855710E+03  0.26421197136E+03  0.78778761481E+03  0.00000000000E+00 0. -1.
<mgrwt>
<rscale>  0 0.20063411E+04</rscale>
<asrwt>0</asrwt>
<pdfrwt beam="1">  1        1 0.49308468E+00 0.20063411E+04</pdfrwt>
<pdfrwt beam="2">  1       -1 0.48306027E-01 0.20063411E+04</pdfrwt>
<totfact> 0.16789119E+00</totfact>
</mgrwt>
</event>
<event>
 6    1  0.6091287E-004  0.3645103E+04  0.7818608E-02  0.8080238E-01
         -1   -1    0    0    0  501 -0.00000000000E+00  0.00000000000E+00  0.30345402166E+04  0.30345402166E+04  0.00000000000E+00 0. -1.
          1   -1    0    0  501    0  0.00000000000E+00 -0.00000000000E+00 -0.10946287062E+04  0.10946287062E+04  0.00000000000E+00 0.  1.
         23    2    1    2    0    0 -0.13649816709E+04 -0.76350111502E+03  0.20282508371E+04  0.25626719547E+04  0.85890478979E+02 0.  0.
         11    1    3    3    0    0 -0.99825332841E+03 -0.52110401595E+03  0.14244088725E+04  0.18157642300E+04  0.00000000000E+00 0. -1.
        -11    1    3    3    0    0 -0.36672834252E+03 -0.24239709907E+03  0.60384196465E+03  0.74690772463E+03  0.00000000000E+00 0.  1.
         22    1    1    2    0    0  0.13649816709E+04  0.76350111502E+03 -0.88339326732E+02  0.15664969682E+04  0.00000000000E+00 0.  1.
<mgrwt>
<rscale>  0 0.36451035E+04</rscale>
<asrwt>0</asrwt>
<pdfrwt beam="1">  1        1 0.16840442E+00 0.36451035E+04</pdfrwt>
<pdfrwt beam="2">  1       -1 0.46685234E+00 0.36451035E+04</pdfrwt>
<totfact> 0.25560799E-02</totfact>
</mgrwt>
</event>
<event>
 6    1  0.6091287E-004  0.2029024E+04  0.7818608E-02  0.8593170E-01
         -2   -1    0    0    0  501 -0.00000000000E+00  0.00000000000E+00  0.35859633715E+03  0.35859633715E+03  0.00000000000E+00 0. -1.
          2   -1    0    0  501    0  0.00000000000E+00 -0.00000000000E+00 -0.28701767796E+04  0.28701767796E+04  0.00000000000E+00 0.  1.
         23    2    1    2    0    0  0.23056183883E+03  0.74564015623E+03 -0.23152102242E+03  0.81883349862E+03  0.88024488318E+02 0.  0.
         11    1    3    3    0    0  0.13487060354E+03  0.29829623623E+03 -0.80985233537E+02  0.33723779785E+03  0.00000000000E+00 0. -1.
        -11    1    3    3    0    0  0.95691235295E+02  0.44734392000E+03 -0.15053578888E+03  0.48159570077E+03  0.00000000000E+00 0.  1.
         22    1    1    2    0    0 -0.23056183883E+03 -0.74564015623E+03 -0.22800594200E+04  0.24099396181E+04  0.00000000000E+00 0.  1.
<mgrwt>
<rscale>  0 0.20290243E+04</rscale>
<asrwt>0</asrwt>
<pdfrwt beam="1">  1        2 0.44156565E+00 0.20290243E+04</pdfrwt>
<pdfrwt beam="2">  1       -2 0.55168668E-01 0.20290243E+04</pdfrwt>
<totfact> 0.60103879E+00</totfact>
</mgrwt>
</event>
<event>
 6    1  0.6091287E-004  0.3001094E+04  0.7818608E-02  0.8243419E-01
          2   -1    0    0  501    0  0.00000000000E+00  0.00000000000E+00  0.20703732292E+04  0.20703732292E+04  0.00000000000E+00 0.  1.
         -2   -1    0    0    0  501 -0.00000000000E+00 -0.00000000000E+00 -0.10875534018E+04  0.10875534018E+04  0.00000000000E+00 0. -1.
         23    2    1    2    0    0 -0.13714989313E+03 -0.38263182169E+03 -0.10265377437E+04  0.11078693019E+04  0.91528393091E+02 0.  0.
         11    1    3    3    0    0 -0.85783375185E+02 -0.12201356657E+03 -0.42066416808E+03  0.44632324630E+03  0.00000000000E+00 0. -1.
        -11    1    3    3    0    0 -0.51366517947E+02 -0.26061825512E+03 -0.60587357565E+03  0.66154605564E+03  0.00000000000E+00 0.  1.
         22    1    1    2    0    0  0.13714989313E+03  0.38263182169E+03  0.20093575710E+04  0.20500573291E+04  0.00000000000E+00 0.  1.
<mgrwt>
<rscale>  0 0.30010941E+04</rscale>
<asrwt>0</asrwt>
<pdfrwt beam="1">  1        2 0.31851896E+00 0.30010941E+04</pdfrwt>
<pdfrwt beam="2">  1       -2 0.16731591E+00 0.30010941E+04</pdfrwt>
<totfact> 0.11639937E+00</totfact>
</mgrwt>
</event>
<event>
 6    1  0.6091287E-004  0.5635423E+04  0.7818608E-02  0.7737325E-01
         -2   -1    0    0    0  501 -0.00000000000E+00  0.00000000000E+00  0.23734668321E+04  0.23734668321E+04  0.00000000000E+00 0. -1.
          2   -1    0    0  501    0  0.00000000000E+00 -0.00000000000E+00 -0.33451062178E+04  0.33451062178E+04  0.00000000000E+00 0.  1.
         23    2    1    2    0    0  0.72460783933E+03 -0.85038337609E+03  0.21381379339E+04  0.24141936248E+04  0.92133743720E+02 0.  0.
         11    1    3    3    0    0  0.42959765020E+03 -0.57219130515E+03  0.13571834495E+04  0.15342437702E+04  0.00000000000E+00 0.  1.
        -11    1    3    3    0    0  0.29501018913E+03 -0.27819207094E+03  0.78095448440E+03  0.87994985467E+03  0.00000000000E+00 0. -1.
         22    1    1    2    0    0 -0.72460783933E+03  0.85038337609E+03 -0.31097773196E+04  0.33043794251E+04  0.00000000000E+00 0.  1.
<mgrwt>
<rscale>  0 0.56354232E+04</rscale>
<asrwt>0</asrwt>
<pdfrwt beam="1">  1        2 0.51463172E+00 0.56354232E+04</pdfrwt>
<pdfrwt beam="2">  1       -2 0.36514875E+00 0.56354232E+04</pdfrwt>
<totfact> 0.89586705E-03</totfact>
</mgrwt>
</event>
<event>
 6    1  0.6091287E-004  0.2880096E+04  0.7818608E-02  0.8278824E-01
         -2   -1    0    0    0  501 -0.00000000000E+00  0.00000000000E+00  0.78217976864E+03  0.78217976864E+03  0.00000000000E+00 0. -1.
          2   -1    0    0  501    0  0.00000000000E+00 -0.00000000000E+00 -0.26512298062E+04  0.26512298062E+04  0.00000000000E+00 0.  1.
         23    2    1    2    0    0 -0.79667866313E+03  0.46523823359E+03 -0.22512877552E+04  0.24347859324E+04  0.93501197084E+02 0.  0.
         13    1    3    3    0    0 -0.34299756786E+03  0.17957160314E+03 -0.83393080693E+03  0.91942040600E+03  0.00000000000E+00 0.  1.
        -13    1    3    3    0    0 -0.45368109528E+03  0.28566663045E+03 -0.14173569483E+04  0.15153655264E+04  0.00000000000E+00 0. -1.
         22    1    1    2    0    0  0.79667866313E+03 -0.46523823359E+03  0.38223771766E+03  0.99862364237E+03  0.00000000000E+00 0. -1.
<mgrwt>
<rscale>  0 0.28800961E+04</rscale>
<asrwt>0</asrwt>
<pdfrwt beam="1">  1        2 0.40788151E+00 0.28800961E+04</pdfrwt>
<pdfrwt beam="2">  1       -2 0.12033535E+00 0.28800961E+04</pdfrwt>
<totfact> 0.12936357E+00</totfact>
</mgrwt>
</event>
<event>
 6    1  0.6091287E-004  0.1618842E+04  0.7818608E-02  0.8809056E-01
          2   -1    0    0  501    0  0.00000000000E+00  0.00000000000E+00  0.11100623329E+04  0.11100623329E+04  0.00000000000E+00 0.  1.
         -2   -1    0    0    0  501 -0.00000000000E+00 -0.00000000000E+00 -0.59020297045E+03  0.59020297045E+03  0.00000000000E+00 0. -1.
         23    2    1    2    0    0 -0.66246214345E+03  0.40215996797E+03  0.49602506597E+03  0.92492227924E+03  0.94083076129E+02 0.  0.
         13    1    3    3    0    0 -0.44637553757E+03  0.23677805378E+03  0.36212357272E+03  0.62164978019E+03  0.00000000000E+00 0.  1.
        -13    1    3    3    0    0 -0.21608660587E+03  0.16538191419E+03  0.13390149326E+03  0.30327249904E+03  0.00000000000E+00 0. -1.
         22    1    1    2    0    0  0.66246214345E+03 -0.40215996797E+03  0.23834296469E+02  0.77534302410E+03  0.00000000000E+00 0. -1.
<mgrwt>
<rscale>  0 0.16188417E+04</rscale>
<asrwt>0</asrwt>
<pdfrwt beam="1">  1        2 0.17077882E+00 0.16188417E+04</pdfrwt>
<pdfrwt beam="2">  1       -2 0.90800457E-01 0.16188417E+04</pdfrwt>
<totfact> 0.21297281E+01</totfact>
</mgrwt>
</event>
<event>
 6    1  0.6091287E-004  0.2018431E+04  0.7818608E-02  0.8598052E-01
         -2   -1    0    0    0  501 -0.00000000000E+00  0.00000000000E+00  0.10590554694E+04  0.10590554694E+04  0.00000000000E+00 0. -1.
          2   -1    0    0  501    0  0.00000000000E+00 -0.00000000000E+00 -0.96172073884E+03  0.96172073884E+03  0.00000000000E+00 0.  1.
         23    2    1    2    0    0 -0.71777348233E+03 -0.70619366765E+03  0.67023401453E+02  0.10133899642E+04  0.92513863605E+02 0.  0.
         11    1    3    3    0    0 -0.27229925493E+03 -0.32726997593E+03  0.45474923167E+02  0.42815942126E+03  0.00000000000E+00 0.  1.
        -11    1    3    3    0    0 -0.44547422741E+03 -0.37892369172E+03  0.21548478286E+02  0.58523054291E+03  0.00000000000E+00 0. -1.
         22    1    1    2    0    0  0.71777348233E+03  0.70619366765E+03  0.30311329150E+02  0.10073862441E+04  0.00000000000E+00 0.  1.
<mgrwt>
<rscale>  0 0.20184307E+04</rscale>
<asrwt>0</asrwt>
<pdfrwt beam="1">  1        2 0.14795704E+00 0.20184307E+04</pdfrwt>
<pdfrwt beam="2">  1       -2 0.16293161E+00 0.20184307E+04</pdfrwt>
<totfact> 0.59294814E+00</totfact>
</mgrwt>
</event>
<event>
 6    1  0.6091287E-004  0.1913580E+04  0.7818608E-02  0.8648126E-01
         -2   -1    0    0    0  501 -0.00000000000E+00  0.00000000000E+00  0.57090513855E+03  0.57090513855E+03  0.00000000000E+00 0. -1.
          2   -1    0    0  501    0  0.00000000000E+00 -0.00000000000E+00 -0.16035009983E+04  0.16035009983E+04  0.00000000000E+00 0.  1.
         23    2    1    2    0    0  0.95306978025E+03  0.17126374889E+02 -0.47038318033E+03  0.10677361699E+04  0.10082099746E+03 0.  0.
         13    1    3    3    0    0  0.23708185892E+03  0.47954951328E+02 -0.12036105865E+03  0.27017451698E+03  0.00000000000E+00 0.  1.
        -13    1    3    3    0    0  0.71598792133E+03 -0.30828576439E+02 -0.35002212168E+03  0.79756165297E+03  0.00000000000E+00 0. -1.
         22    1    1    2    0    0 -0.95306978025E+03 -0.17126374889E+02 -0.56221267944E+03  0.11066699669E+04  0.00000000000E+00 0.  1.
<mgrwt>
<rscale>  0 0.19135798E+04</rscale>
<asrwt>0</asrwt>
<pdfrwt beam="1">  1        2 0.24669246E+00 0.19135798E+04</pdfrwt>
<pdfrwt beam="2">  1       -2 0.87831561E-01 0.19135798E+04</pdfrwt>
<totfact> 0.11610415E+01</totfact>
</mgrwt>
</event>
<event>
 6    1  0.6091287E-004  0.2773174E+04  0.7818608E-02  0.8311646E-01
         -2   -1    0    0    0  501 -0.00000000000E+00  0.00000000000E+00  0.65723768787E+03  0.65723768787E+03  0.00000000000E+00 0. -1.
          2   -1    0    0  501    0  0.00000000000E+00 -0.00000000000E+00 -0.29253084488E+04  0.29253084488E+04  0.00000000000E+00 0.  1.
         23    2    1    2    0    0  0.11416641902E+04  0.42635587991E+02 -0.21469408455E+04  0.24336826231E+04  0.90781051694E+02 0.  0.
         11    1    3    3    0    0  0.62129807200E+03  0.19111259883E+02 -0.10718713724E+04  0.12390660892E+04  0.00000000000E+00 0. -1.
        -11    1    3    3    0    0  0.52036611818E+03  0.23524328109E+02 -0.10750694731E+04  0.11946165338E+04  0.00000000000E+00 0.  1.
         22    1    1    2    0    0 -0.11416641902E+04 -0.42635587991E+02 -0.12112991546E+03  0.11488635136E+04  0.00000000000E+00 0. -1.
<mgrwt>
<rscale>  0 0.27731736E+04</rscale>
<asrwt>0</asrwt>
<pdfrwt beam="1">  1        2 0.45004745E+00 0.27731736E+04</pdfrwt>
<pdfrwt beam="2">  1       -2 0.10111349E+00 0.27731736E+04</pdfrwt>
<totfact> 0.13592359E+00</totfact>
</mgrwt>
</event>
<event>
 6    1  0.6091287E-004  0.5164021E+04  0.7818608E-02  0.7803692E-01
         -2   -1    0    0    0  501 -0.00000000000E+00  0.00000000000E+00  0.33160697580E+04  0.33160697580E+04  0.00000000000E+00 0. -1.
          2   -1    0    0  501    0  0.00000000000E+00 -0.00000000000E+00 -0.20104460011E+04  0.20104460011E+04  0.00000000000E+00 0.  1.
         23    2    1    2    0    0  0.10693727839E+04  0.13036787418E+04  0.26688660676E+04  0.31582062769E+04  0.91018614427E+02 0.  0.
         11    1    3    3    0    0  0.64130580562E+03  0.85104119463E+03  0.16861913678E+04  0.19946893443E+04  0.00000000000E+00 0. -1.
        -11    1    3    3    0    0  0.42806697827E+03  0.45263754713E+03  0.98267469977E+03  0.11635169326E+04  0.00000000000E+00 0.  1.
         22    1    1    2    0    0 -0.10693727839E+04 -0.13036787418E+04 -0.13632423107E+04  0.21683094822E+04  0.00000000000E+00 0.  1.
<mgrwt>
<rscale>  0 0.51640214E+04</rscale>
<asrwt>0</asrwt>
<pdfrwt beam="1">  1        2 0.30929938E+00 0.51640214E+04</pdfrwt>
<pdfrwt beam="2">  1       -2 0.51016458E+00 0.51640214E+04</pdfrwt>
<totfact> 0.68299276E-03</totfact>
</mgrwt>
</event>
<event>
 6    1  0.6091287E-004  0.1274671E+04  0.7818608E-02  0.9049896E-01
          1   -1    0    0  501    0  0.00000000000E+00  0.00000000000E+00  0.17981584708E+04  0.17981584708E+04  0.00000000000E+00 0.  1.
         -1   -1    0    0    0  501 -0.00000000000E+00 -0.00000000000E+00 -0.22589573508E+03  0.22589573508E+03  0.00000000000E+00 0. -1.
         23    2    1    2    0    0  0.56275055271E+03 -0.16821605800E+03  0.11700596128E+04  0.13121889245E+04  0.88405029624E+02 0.  0.
         13    1    3    3    0    0  0.97820062390E+02 -0.34182864054E+02  0.28887131838E+03  0.30689390900E+03  0.00000000000E+00 0.  1.
        -13    1    3    3    0    0  0.46493049032E+03 -0.13403319395E+03  0.88118829446E+03  0.10052950155E+04  0.00000000000E+00 0. -1.
         22    1    1    2    0    0 -0.56275055271E+03  0.16821605800E+03  0.40220312285E+03  0.71186528134E+03  0.00000000000E+00 0. -1.
<mgrwt>
<rscale>  0 0.12746707E+04</rscale>
<asrwt>0</asrwt>
<pdfrwt beam="1">  1        1 0.27663976E+00 0.12746707E+04</pdfrwt>
<pdfrwt beam="2">  1       -1 0.34753191E-01 0.12746707E+04</pdfrwt>
<totfact> 0.31624781E+01</totfact>
</mgrwt>
</event>
<event>
 6    1  0.6091287E-004  0.3651761E+03  0.7818608E-02  0.1056553E+00
          2   -1    0    0  501    0  0.00000000000E+00  0.00000000000E+00  0.88517384514E+03  0.88517384514E+03  0.00000000000E+00 0.  1.
         -2   -1    0    0    0  501 -0.00000000000E+00 -0.00000000000E+00 -0.37663096466E+02  0.37663096466E+02  0.00000000000E+00 0. -1.
         23    2    1    2    0    0  0.17128534003E+03  0.99746224516E+01  0.42596687785E+03  0.46771344647E+03  0.88712604388E+02 0.  0.
         11    1    3    3    0    0  0.63297544145E+02  0.13513759724E+02  0.68355676855E+02  0.94136599444E+02  0.00000000000E+00 0. -1.
        -11    1    3    3    0    0  0.10798779588E+03 -0.35391372726E+01  0.35761120100E+03  0.37357684702E+03  0.00000000000E+00 0.  1.
         22    1    1    2    0    0 -0.17128534003E+03 -0.99746224516E+01  0.42154387083E+03  0.45512349514E+03  0.00000000000E+00 0.  1.
<mgrwt>
<rscale>  0 0.36517606E+03</rscale>
<asrwt>0</asrwt>
<pdfrwt beam="1">  1        2 0.13618058E+00 0.36517606E+03</pdfrwt>
<pdfrwt beam="2">  1       -2 0.57943232E-02 0.36517606E+03</pdfrwt>
<totfact> 0.48742372E+03</totfact>
</mgrwt>
</event>
<event>
 6    1  0.6091287E-004  0.1241196E+04  0.7818608E-02  0.9077542E-01
          2   -1    0    0  501    0  0.00000000000E+00  0.00000000000E+00  0.91924717586E+03  0.91924717586E+03  0.00000000000E+00 0.  1.
         -2   -1    0    0    0  501 -0.00000000000E+00 -0.00000000000E+00 -0.41897562781E+03  0.41897562781E+03  0.00000000000E+00 0. -1.
         23    2    1    2    0    0 -0.25201496688E+03 -0.52812135408E+03  0.40936362809E+02  0.59430579178E+03  0.95393292066E+02 0.  0.
         13    1    3    3    0    0 -0.18234963360E+03 -0.28290456760E+03  0.43445578198E+02  0.33937280608E+03  0.00000000000E+00 0. -1.
        -13    1    3    3    0    0 -0.69665333282E+02 -0.24521678648E+03 -0.25092153892E+01  0.25493298570E+03  0.00000000000E+00 0.  1.
         22    1    1    2    0    0  0.25201496688E+03  0.52812135408E+03  0.45933518524E+03  0.74391701189E+03  0.00000000000E+00 0.  1.
<mgrwt>
<rscale>  0 0.12411965E+04</rscale>
<asrwt>0</asrwt>
<pdfrwt beam="1">  1        2 0.14142264E+00 0.12411965E+04</pdfrwt>
<pdfrwt beam="2">  1       -2 0.64457789E-01 0.12411965E+04</pdfrwt>
<totfact> 0.62268377E+01</totfact>
</mgrwt>
</event>
<event>
 6    1  0.6091287E-004  0.6757072E+04  0.7818608E-02  0.7603021E-01
          2   -1    0    0  501    0  0.00000000000E+00  0.00000000000E+00  0.41633472361E+04  0.41633472361E+04  0.00000000000E+00 0. -1.
         -2   -1    0    0    0  501 -0.00000000000E+00 -0.00000000000E+00 -0.27416653589E+04  0.27416653589E+04  0.00000000000E+00 0.  1.
         23    2    1    2    0    0  0.13200073013E+04  0.21851117863E+04 -0.15495135621E+04  0.29877258896E+04  0.91547355291E+02 0.  0.
         11    1    3    3    0    0  0.62593203862E+03  0.10926127966E+04 -0.72287798119E+03  0.14519456656E+04  0.00000000000E+00 0. -1.
        -11    1    3    3    0    0  0.69407526267E+03  0.10924989897E+04 -0.82663558090E+03  0.15357802240E+04  0.00000000000E+00 0.  1.
         22    1    1    2    0    0 -0.13200073013E+04 -0.21851117863E+04  0.29711954393E+04  0.39172867054E+04  0.00000000000E+00 0. -1.
<mgrwt>
<rscale>  0 0.67570718E+04</rscale>
<asrwt>0</asrwt>
<pdfrwt beam="1">  1        2 0.64051496E+00 0.67570718E+04</pdfrwt>
<pdfrwt beam="2">  1       -2 0.42179467E+00 0.67570718E+04</pdfrwt>
<totfact> 0.84353061E-04</totfact>
</mgrwt>
</event>
<event>
 6    1  0.6091287E-004  0.3061222E+04  0.7818608E-02  0.8226461E-01
         -2   -1    0    0    0  501 -0.00000000000E+00  0.00000000000E+00  0.72282928589E+03  0.72282928589E+03  0.00000000000E+00 0. -1.
          2   -1    0    0  501    0  0.00000000000E+00 -0.00000000000E+00 -0.32411120901E+04  0.32411120901E+04  0.00000000000E+00 0.  1.
         23    2    1    2    0    0 -0.68830877252E+03  0.12435468581E+04 -0.53003492058E+03  0.15199063105E+04  0.94870548538E+02 0.  0.
         11    1    3    3    0    0 -0.46555039660E+03  0.74939608572E+03 -0.34133135126E+03  0.94595917271E+03  0.00000000000E+00 0.  1.
        -11    1    3    3    0    0 -0.22275837592E+03  0.49415077240E+03 -0.18870356932E+03  0.57394713779E+03  0.00000000000E+00 0. -1.
         22    1    1    2    0    0  0.68830877252E+03 -0.12435468581E+04 -0.19882478837E+04  0.24440350655E+04  0.00000000000E+00 0.  1.
<mgrwt>
<rscale>  0 0.30612225E+04</rscale>
<asrwt>0</asrwt>
<pdfrwt beam="1">  1        2 0.49863263E+00 0.30612225E+04</pdfrwt>
<pdfrwt beam="2">  1       -2 0.11120450E+00 0.30612225E+04</pdfrwt>
<totfact> 0.66363711E-01</totfact>
</mgrwt>
</event>
<event>
 6    1  0.6091287E-004  0.2990747E+04  0.7818608E-02  0.8246378E-01
         -2   -1    0    0    0  501 -0.00000000000E+00  0.00000000000E+00  0.13659463107E+04  0.13659463107E+04  0.00000000000E+00 0. -1.
          2   -1    0    0  501    0  0.00000000000E+00 -0.00000000000E+00 -0.16370643813E+04  0.16370643813E+04  0.00000000000E+00 0.  1.
         23    2    1    2    0    0  0.66244225631E+03  0.11409916129E+04  0.56573487847E+03  0.14406360691E+04  0.12118055558E+03 0.  0.
         13    1    3    3    0    0  0.59133956818E+02  0.11830584632E+03  0.97300787224E+02  0.16419665440E+03  0.00000000000E+00 0.  1.
        -13    1    3    3    0    0  0.60330829949E+03  0.10226857666E+04  0.46843409125E+03  0.12764394147E+04  0.00000000000E+00 0. -1.
         22    1    1    2    0    0 -0.66244225631E+03 -0.11409916129E+04 -0.83685294908E+03  0.15623746228E+04  0.00000000000E+00 0. -1.
<mgrwt>
<rscale>  0 0.29907471E+04</rscale>
<asrwt>0</asrwt>
<pdfrwt beam="1">  1        2 0.25185606E+00 0.29907471E+04</pdfrwt>
<pdfrwt beam="2">  1       -2 0.21014559E+00 0.29907471E+04</pdfrwt>
<totfact> 0.10408369E+00</totfact>
</mgrwt>
</event>
<event>
 6    1  0.6091287E-004  0.2064020E+04  0.7818608E-02  0.8577260E-01
         -1   -1    0    0    0  501 -0.00000000000E+00  0.00000000000E+00  0.44329946873E+03  0.44329946873E+03  0.00000000000E+00 0. -1.
          1   -1    0    0  501    0  0.00000000000E+00 -0.00000000000E+00 -0.24025409411E+04  0.24025409411E+04  0.00000000000E+00 0.  1.
         23    2    1    2    0    0  0.45099215760E+03 -0.48352425480E+02  0.29380358030E+03  0.54759240480E+03  0.88345994395E+02 0.  0.
         13    1    3    3    0    0  0.61490680823E+02 -0.38111285357E+02  0.41506056474E+02  0.83404595939E+02  0.00000000000E+00 0. -1.
        -13    1    3    3    0    0  0.38950147678E+03 -0.10241140123E+02  0.25229752383E+03  0.46418780886E+03  0.00000000000E+00 0.  1.
         22    1    1    2    0    0 -0.45099215760E+03  0.48352425480E+02 -0.22530450527E+04  0.22982480050E+04  0.00000000000E+00 0.  1.
<mgrwt>
<rscale>  0 0.20640205E+04</rscale>
<asrwt>0</asrwt>
<pdfrwt beam="1">  1        1 0.36962168E+00 0.20640205E+04</pdfrwt>
<pdfrwt beam="2">  1       -1 0.68199918E-01 0.20640205E+04</pdfrwt>
<totfact> 0.31776537E+00</totfact>
</mgrwt>
</event>
<event>
 6    1  0.6343220E-004  0.4815620E+04  0.7818608E-02  0.7857596E-01
         -2   -1    0    0    0  501 -0.00000000000E+00  0.00000000000E+00  0.33884243823E+04  0.33884243823E+04  0.00000000000E+00 0. -1.
          2   -1    0    0  501    0  0.00000000000E+00 -0.00000000000E+00 -0.17109866970E+04  0.17109866970E+04  0.00000000000E+00 0.  1.
         23    2    1    2    0    0 -0.17953657605E+04  0.11607448238E+04 -0.33191020882E+03  0.21654469147E+04  0.91264415680E+02 0.  0.
         13    1    3    3    0    0 -0.11584286307E+04  0.76937089464E+03 -0.17530998683E+03  0.14016497628E+04  0.00000000000E+00 0. -1.
        -13    1    3    3    0    0 -0.63693712981E+03  0.39137392915E+03 -0.15660022199E+03  0.76379715191E+03  0.00000000000E+00 0.  1.
         22    1    1    2    0    0  0.17953657605E+04 -0.11607448238E+04  0.20093478940E+04  0.29339641646E+04  0.00000000000E+00 0. -1.
<mgrwt>
<rscale>  0 0.48156200E+04</rscale>
<asrwt>0</asrwt>
<pdfrwt beam="1">  1        2 0.26322872E+00 0.48156200E+04</pdfrwt>
<pdfrwt beam="2">  1       -2 0.52129606E+00 0.48156200E+04</pdfrwt>
<totfact> 0.88336781E-03</totfact>
</mgrwt>
</event>
<event>
 6    1  0.6091287E-004  0.5368764E+04  0.7818608E-02  0.7774010E-01
         -2   -1    0    0    0  501 -0.00000000000E+00  0.00000000000E+00  0.29722739149E+04  0.29722739149E+04  0.00000000000E+00 0. -1.
          2   -1    0    0  501    0  0.00000000000E+00 -0.00000000000E+00 -0.24243748908E+04  0.24243748908E+04  0.00000000000E+00 0.  1.
         23    2    1    2    0    0  0.14520482804E+04  0.10748023184E+04 -0.17207244116E+04  0.24965976811E+04  0.91995915810E+02 0.  0.
         13    1    3    3    0    0  0.85120074042E+02  0.90112505613E+02 -0.12906280366E+03  0.17894942850E+03  0.00000000000E+00 0. -1.
        -13    1    3    3    0    0  0.13669282064E+04  0.98468981274E+03 -0.15916616079E+04  0.23176482526E+04  0.00000000000E+00 0.  1.
         22    1    1    2    0    0 -0.14520482804E+04 -0.10748023184E+04  0.22686234356E+04  0.29000511245E+04  0.00000000000E+00 0. -1.
<mgrwt>
<rscale>  0 0.53687638E+04</rscale>
<asrwt>0</asrwt>
<pdfrwt beam="1">  1        2 0.37298075E+00 0.53687638E+04</pdfrwt>
<pdfrwt beam="2">  1       -2 0.45727291E+00 0.53687638E+04</pdfrwt>
<totfact> 0.84943781E-03</totfact>
</mgrwt>
</event>
<event>
 6    1  0.6091287E-004  0.2403661E+04  0.7818608E-02  0.8438134E-01
          2   -1    0    0  501    0  0.00000000000E+00  0.00000000000E+00  0.89117435439E+03  0.89117435439E+03  0.00000000000E+00 0.  1.
         -2   -1    0    0    0  501 -0.00000000000E+00 -0.00000000000E+00 -0.16207785655E+04  0.16207785655E+04  0.00000000000E+00 0. -1.
         23    2    1    2    0    0  0.83162343408E+03  0.60396925306E+03  0.28221029321E+03  0.10696821458E+04  0.90558536972E+02 0.  0.
         13    1    3    3    0    0  0.27643893916E+03  0.23328359097E+03  0.63808954743E+02  0.36730274108E+03  0.00000000000E+00 0.  1.
        -13    1    3    3    0    0  0.55518449492E+03  0.37068566209E+03  0.21840133847E+03  0.70237940468E+03  0.00000000000E+00 0. -1.
         22    1    1    2    0    0 -0.83162343408E+03 -0.60396925306E+03 -0.10118145043E+04  0.14422707741E+04  0.00000000000E+00 0. -1.
<mgrwt>
<rscale>  0 0.24036608E+04</rscale>
<asrwt>0</asrwt>
<pdfrwt beam="1">  1        2 0.13710375E+00 0.24036608E+04</pdfrwt>
<pdfrwt beam="2">  1       -2 0.24935055E+00 0.24036608E+04</pdfrwt>
<totfact> 0.17330404E+00</totfact>
</mgrwt>
</event>
<event>
 6    1  0.6091287E-004  0.4125607E+04  0.7818608E-02  0.7979676E-01
         -2   -1    0    0    0  501 -0.00000000000E+00  0.00000000000E+00  0.12440905543E+04  0.12440905543E+04  0.00000000000E+00 0. -1.
          2   -1    0    0  501    0  0.00000000000E+00 -0.00000000000E+00 -0.34202969940E+04  0.34202969940E+04  0.00000000000E+00 0.  1.
         23    2    1    2    0    0 -0.89758482673E+03  0.14648134137E+04 -0.23774609214E+04  0.29346938689E+04  0.93652620826E+02 0.  0.
         13    1    3    3    0    0 -0.48342584706E+03  0.70429015709E+03 -0.12068864796E+04  0.14786142667E+04  0.00000000000E+00 0. -1.
        -13    1    3    3    0    0 -0.41415897967E+03  0.76052325662E+03 -0.11705744418E+04  0.14560796023E+04  0.00000000000E+00 0.  1.
         22    1    1    2    0    0  0.89758482673E+03 -0.14648134137E+04  0.20125448170E+03  0.17296936794E+04  0.00000000000E+00 0. -1.
<mgrwt>
<rscale>  0 0.41256074E+04</rscale>
<asrwt>0</asrwt>
<pdfrwt beam="1">  1        2 0.52619953E+00 0.41256074E+04</pdfrwt>
<pdfrwt beam="2">  1       -2 0.19139855E+00 0.41256074E+04</pdfrwt>
<totfact> 0.10920692E-01</totfact>
</mgrwt>
</event>
<event>
 6    1  0.6091287E-004  0.3248906E+04  0.7818608E-02  0.8176019E-01
         -2   -1    0    0    0  501 -0.00000000000E+00  0.00000000000E+00  0.57394586397E+03  0.57394586397E+03  0.00000000000E+00 0. -1.
          2   -1    0    0  501    0  0.00000000000E+00 -0.00000000000E+00 -0.45977278300E+04  0.45977278300E+04  0.00000000000E+00 0.  1.
         23    2    1    2    0    0  0.51487050163E+03 -0.94657883553E+03 -0.39457816825E+04  0.40913093251E+04  0.92280993769E+02 0.  0.
         13    1    3    3    0    0  0.23399941600E+03 -0.47520885918E+03 -0.20927168588E+04  0.21587132828E+04  0.00000000000E+00 0. -1.
        -13    1    3    3    0    0  0.28087108563E+03 -0.47136997635E+03 -0.18530648238E+04  0.19325960422E+04  0.00000000000E+00 0.  1.
         22    1    1    2    0    0 -0.51487050163E+03  0.94657883553E+03 -0.78000283465E+02  0.10803643689E+04  0.00000000000E+00 0. -1.
<mgrwt>
<rscale>  0 0.32489056E+04</rscale>
<asrwt>0</asrwt>
<pdfrwt beam="1">  1        2 0.70734275E+00 0.32489056E+04</pdfrwt>
<pdfrwt beam="2">  1       -2 0.88299363E-01 0.32489056E+04</pdfrwt>
<totfact> 0.90684438E-02</totfact>
</mgrwt>
</event>
<event>
 6    1  0.6091287E-004  0.4128027E+03  0.7818608E-02  0.1039435E+00
         -2   -1    0    0    0  501 -0.00000000000E+00  0.00000000000E+00  0.22284163929E+04  0.22284163929E+04  0.00000000000E+00 0. -1.
          2   -1    0    0  501    0  0.00000000000E+00 -0.00000000000E+00 -0.19117397677E+02  0.19117397677E+02  0.00000000000E+00 0.  1.
         23    2    1    2    0    0 -0.91345576134E+02  0.17362832947E+03  0.12036616323E+04  0.12229376180E+04  0.91018028283E+02 0.  0.
         13    1    3    3    0    0 -0.94267802189E+02  0.96241313581E+02  0.64369325143E+03  0.65763957523E+03  0.00000000000E+00 0. -1.
        -13    1    3    3    0    0  0.29222260549E+01  0.77387015884E+02  0.55996838084E+03  0.56529804279E+03  0.00000000000E+00 0.  1.
         22    1    1    2    0    0  0.91345576134E+02 -0.17362832947E+03  0.10056373629E+04  0.10245961726E+04  0.00000000000E+00 0. -1.
<mgrwt>
<rscale>  0 0.41280272E+03</rscale>
<asrwt>0</asrwt>
<pdfrwt beam="1">  1        2 0.29411399E-02 0.41280272E+03</pdfrwt>
<pdfrwt beam="2">  1       -2 0.34283309E+00 0.41280272E+03</pdfrwt>
<totfact> 0.64474943E+01</totfact>
</mgrwt>
</event>
<event>
 6    1  0.6091287E-004  0.2115309E+04  0.7818608E-02  0.8554530E-01
          2   -1    0    0  501    0  0.00000000000E+00  0.00000000000E+00  0.18192699227E+04  0.18192699227E+04  0.00000000000E+00 0.  1.
         -2   -1    0    0    0  501 -0.00000000000E+00 -0.00000000000E+00 -0.61487995055E+03  0.61487995055E+03  0.00000000000E+00 0. -1.
         23    2    1    2    0    0 -0.25170475106E+03 -0.98462401237E+03  0.27464407885E+03  0.10567366623E+04  0.91778407268E+02 0.  0.
         13    1    3    3    0    0 -0.22757940769E+03 -0.74512838408E+03  0.19424611780E+03  0.80295719054E+03  0.00000000000E+00 0. -1.
        -13    1    3    3    0    0 -0.24125343368E+02 -0.23949562829E+03  0.80397961053E+02  0.25377947179E+03  0.00000000000E+00 0.  1.
         22    1    1    2    0    0  0.25170475106E+03  0.98462401237E+03  0.92974589327E+03  0.13774132109E+04  0.00000000000E+00 0.  1.
<mgrwt>
<rscale>  0 0.21153086E+04</rscale>
<asrwt>0</asrwt>
<pdfrwt beam="1">  1        2 0.27988768E+00 0.21153086E+04</pdfrwt>
<pdfrwt beam="2">  1       -2 0.94596916E-01 0.21153086E+04</pdfrwt>
<totfact> 0.72938370E+00</totfact>
</mgrwt>
</event>
<event>
 6    1  0.6091287E-004  0.1162273E+04  0.7818608E-02  0.9146535E-01
         -2   -1    0    0    0  501 -0.00000000000E+00  0.00000000000E+00  0.50352083231E+03  0.50352083231E+03  0.00000000000E+00 0. -1.
          2   -1    0    0  501    0  0.00000000000E+00 -0.00000000000E+00 -0.67071657615E+03  0.67071657615E+03  0.00000000000E+00 0.  1.
         23    2    1    2    0    0 -0.49597513251E+03 -0.15474539948E+03 -0.33937423444E+03  0.62689573879E+03  0.88802734113E+02 0.  0.
         11    1    3    3    0    0 -0.19342254878E+03 -0.38439199480E+02 -0.17407042921E+03  0.26304062188E+03  0.00000000000E+00 0. -1.
        -11    1    3    3    0    0 -0.30255258373E+03 -0.11630620000E+03 -0.16530380523E+03  0.36385511691E+03  0.00000000000E+00 0.  1.
         22    1    1    2    0    0  0.49597513251E+03  0.15474539948E+03  0.17217849061E+03  0.54734166967E+03  0.00000000000E+00 0. -1.
<mgrwt>
<rscale>  0 0.11622732E+04</rscale>
<asrwt>0</asrwt>
<pdfrwt beam="1">  1        2 0.10318717E+00 0.11622732E+04</pdfrwt>
<pdfrwt beam="2">  1       -2 0.77464744E-01 0.11622732E+04</pdfrwt>
<totfact> 0.63583621E+01</totfact>
</mgrwt>
</event>
<event>
 6    1  0.6091287E-004  0.1255631E+04  0.7818608E-02  0.9065510E-01
         -2   -1    0    0    0  501 -0.00000000000E+00  0.00000000000E+00  0.14035661064E+03  0.14035661064E+03  0.00000000000E+00 0. -1.
          2   -1    0    0  501    0  0.00000000000E+00 -0.00000000000E+00 -0.28082195624E+04  0.28082195624E+04  0.00000000000E+00 0.  1.
         23    2    1    2    0    0  0.38959966294E+03 -0.20184057870E+03 -0.29695112819E+03  0.53740417757E+03  0.89976446712E+02 0.  0.
         13    1    3    3    0    0  0.27841121677E+03 -0.15231883335E+03 -0.16426767695E+03  0.35734815280E+03  0.00000000000E+00 0.  1.
        -13    1    3    3    0    0  0.11118844616E+03 -0.49521745348E+02 -0.13268345124E+03  0.18005602477E+03  0.00000000000E+00 0. -1.
         22    1    1    2    0    0 -0.38959966294E+03  0.20184057870E+03 -0.23709118235E+04  0.24111719954E+04  0.00000000000E+00 0.  1.
<mgrwt>
<rscale>  0 0.12556308E+04</rscale>
<asrwt>0</asrwt>
<pdfrwt beam="1">  1        2 0.43203374E+00 0.12556308E+04</pdfrwt>
<pdfrwt beam="2">  1       -2 0.21593327E-01 0.12556308E+04</pdfrwt>
<totfact> 0.42351646E+01</totfact>
</mgrwt>
</event>
<event>
 6    1  0.6091287E-004  0.1001506E+04  0.7818608E-02  0.9306894E-01
          2   -1    0    0  501    0  0.00000000000E+00  0.00000000000E+00  0.12531301699E+04  0.12531301699E+04  0.00000000000E+00 0.  1.
         -2   -1    0    0    0  501 -0.00000000000E+00 -0.00000000000E+00 -0.20010194838E+03  0.20010194838E+03  0.00000000000E+00 0. -1.
         23    2    1    2    0    0 -0.10822727986E+03 -0.46868058790E+03  0.35116766372E+03  0.60236028294E+03  0.90247132042E+02 0.  0.
         13    1    3    3    0    0 -0.61216595976E+02 -0.17729299073E+03  0.18591603644E+03  0.26409287910E+03  0.00000000000E+00 0.  1.
        -13    1    3    3    0    0 -0.47010683884E+02 -0.29138759717E+03  0.16525162728E+03  0.33826740384E+03  0.00000000000E+00 0. -1.
         22    1    1    2    0    0  0.10822727986E+03  0.46868058790E+03  0.70186055781E+03  0.85087183535E+03  0.00000000000E+00 0. -1.
<mgrwt>
<rscale>  0 0.10015064E+04</rscale>
<asrwt>0</asrwt>
<pdfrwt beam="1">  1        2 0.19278925E+00 0.10015064E+04</pdfrwt>
<pdfrwt beam="2">  1       -2 0.30784916E-01 0.10015064E+04</pdfrwt>
<totfact> 0.17154860E+02</totfact>
</mgrwt>
</event>
<event>
 6    1  0.6091287E-004  0.8009970E+03  0.7818608E-02  0.9558575E-01
         -2   -1    0    0    0  501 -0.00000000000E+00  0.00000000000E+00  0.21110902174E+03  0.21110902174E+03  0.00000000000E+00 0. -1.
          2   -1    0    0  501    0  0.00000000000E+00 -0.00000000000E+00 -0.75979251705E+03  0.75979251705E+03  0.00000000000E+00 0.  1.
         23    2    1    2    0    0  0.12077109577E+03 -0.64205298890E+02 -0.72729921814E+03  0.74593141984E+03  0.93496269544E+02 0.  0.
         11    1    3    3    0    0  0.60164583189E+02 -0.82626988739E+02 -0.46292282501E+03  0.47407229223E+03  0.00000000000E+00 0.  1.
        -11    1    3    3    0    0  0.60606512585E+02  0.18421689849E+02 -0.26437639313E+03  0.27185912762E+03  0.00000000000E+00 0. -1.
         22    1    1    2    0    0 -0.12077109577E+03  0.64205298890E+02  0.17861572283E+03  0.22497011895E+03  0.00000000000E+00 0. -1.
<mgrwt>
<rscale>  0 0.80099702E+03</rscale>
<asrwt>0</asrwt>
<pdfrwt beam="1">  1        2 0.11689116E+00 0.80099702E+03</pdfrwt>
<pdfrwt beam="2">  1       -2 0.32478311E-01 0.80099702E+03</pdfrwt>
<totfact> 0.32720230E+02</totfact>
</mgrwt>
</event>
<event>
 6    1  0.6091287E-004  0.1612073E+04  0.7818608E-02  0.8813166E-01
         -2   -1    0    0    0  501 -0.00000000000E+00  0.00000000000E+00  0.77596298196E+03  0.77596298196E+03  0.00000000000E+00 0. -1.
          2   -1    0    0  501    0  0.00000000000E+00 -0.00000000000E+00 -0.83727512729E+03  0.83727512729E+03  0.00000000000E+00 0.  1.
         23    2    1    2    0    0  0.13211967829E+03 -0.48759864508E+03 -0.65586036459E+03  0.83304862387E+03  0.92785471934E+02 0.  0.
         13    1    3    3    0    0  0.13671166235E+03 -0.40539150107E+03 -0.58279983698E+03  0.72297164380E+03  0.00000000000E+00 0. -1.
        -13    1    3    3    0    0 -0.45919840592E+01 -0.82207144011E+02 -0.73060527617E+02  0.11007698006E+03  0.00000000000E+00 0.  1.
         22    1    1    2    0    0 -0.13211967829E+03  0.48759864508E+03  0.59454821927E+03  0.78018948539E+03  0.00000000000E+00 0. -1.
<mgrwt>
<rscale>  0 0.16120726E+04</rscale>
<asrwt>0</asrwt>
<pdfrwt beam="1">  1        2 0.12881156E+00 0.16120726E+04</pdfrwt>
<pdfrwt beam="2">  1       -2 0.11937892E+00 0.16120726E+04</pdfrwt>
<totfact> 0.16695319E+01</totfact>
</mgrwt>
</event>
<event>
 6    1  0.6091287E-004  0.2909462E+03  0.7818608E-02  0.1089856E+00
          1   -1    0    0  501    0  0.00000000000E+00  0.00000000000E+00  0.11046524124E+02  0.11046524124E+02  0.00000000000E+00 0.  1.
         -1   -1    0    0    0  501 -0.00000000000E+00 -0.00000000000E+00 -0.19157542060E+04  0.19157542060E+04  0.00000000000E+00 0. -1.
         23    2    1    2    0    0  0.40016952797E+02 -0.98412891879E+02 -0.15530819652E+04  0.15594764886E+04  0.92827118891E+02 0.  0.
         11    1    3    3    0    0  0.17797452887E+02 -0.12788161616E+02 -0.91818366857E+03  0.91844517291E+03  0.00000000000E+00 0.  1.
        -11    1    3    3    0    0  0.22219499910E+02 -0.85624730262E+02 -0.63489829662E+03  0.64103131566E+03  0.00000000000E+00 0. -1.
         22    1    1    2    0    0 -0.40016952797E+02  0.98412891879E+02 -0.35162571667E+03  0.36732424154E+03  0.00000000000E+00 0.  1.
<mgrwt>
<rscale>  0 0.29094622E+03</rscale>
<asrwt>0</asrwt>
<pdfrwt beam="1">  1        1 0.16994656E-02 0.29094622E+03</pdfrwt>
<pdfrwt beam="2">  1       -1 0.29473135E+00 0.29094622E+03</pdfrwt>
<totfact> 0.31724545E+02</totfact>
</mgrwt>
</event>
<event>
 6    1  0.6091287E-004  0.1234754E+04  0.7818608E-02  0.9082969E-01
          2   -1    0    0  501    0  0.00000000000E+00  0.00000000000E+00  0.99456173646E+03  0.99456173646E+03  0.00000000000E+00 0.  1.
         -2   -1    0    0    0  501 -0.00000000000E+00 -0.00000000000E+00 -0.38323832944E+03  0.38323832944E+03  0.00000000000E+00 0. -1.
         23    2    1    2    0    0  0.88193965780E+02  0.40823958768E+03 -0.19496071706E+03  0.46976271795E+03  0.90717106587E+02 0.  0.
         13    1    3    3    0    0 -0.12571095433E+02  0.13755009176E+03 -0.53211556099E+02  0.14801868087E+03  0.00000000000E+00 0. -1.
        -13    1    3    3    0    0  0.10076506121E+03  0.27068949592E+03 -0.14174916096E+03  0.32174403708E+03  0.00000000000E+00 0.  1.
         22    1    1    2    0    0 -0.88193965780E+02 -0.40823958768E+03  0.80628412407E+03  0.90803734795E+03  0.00000000000E+00 0.  1.
<mgrwt>
<rscale>  0 0.12347537E+04</rscale>
<asrwt>0</asrwt>
<pdfrwt beam="1">  1        2 0.15300950E+00 0.12347537E+04</pdfrwt>
<pdfrwt beam="2">  1       -2 0.58959743E-01 0.12347537E+04</pdfrwt>
<totfact> 0.67190771E+01</totfact>
</mgrwt>
</event>
<event>
 6    1  0.6091287E-004  0.2610605E+04  0.7818608E-02  0.8364608E-01
         -2   -1    0    0    0  501 -0.00000000000E+00  0.00000000000E+00  0.90243226531E+03  0.90243226531E+03  0.00000000000E+00 0. -1.
          2   -1    0    0  501    0  0.00000000000E+00 -0.00000000000E+00 -0.18880246716E+04  0.18880246716E+04  0.00000000000E+00 0.  1.
         23    2    1    2    0    0 -0.96991951003E+02  0.95199321329E+03 -0.14399229597E+04  0.17311577495E+04  0.88490151981E+02 0.  0.
         13    1    3    3    0    0 -0.72125297143E+01  0.52681479663E+02 -0.48452749226E+02  0.71937666017E+02  0.00000000000E+00 0. -1.
        -13    1    3    3    0    0 -0.89779421289E+02  0.89931173363E+03 -0.13914702105E+04  0.16592200835E+04  0.00000000000E+00 0.  1.
         22    1    1    2    0    0  0.96991951003E+02 -0.95199321329E+03  0.45433055341E+03  0.10592991874E+04  0.00000000000E+00 0. -1.
<mgrwt>
<rscale>  0 0.26106048E+04</rscale>
<asrwt>0</asrwt>
<pdfrwt beam="1">  1        2 0.29046533E+00 0.26106048E+04</pdfrwt>
<pdfrwt beam="2">  1       -2 0.13883573E+00 0.26106048E+04</pdfrwt>
<totfact> 0.25014336E+00</totfact>
</mgrwt>
</event>
<event>
 6    1  0.6091287E-004  0.2754588E+04  0.7818608E-02  0.8317507E-01
         -2   -1    0    0    0  501 -0.00000000000E+00  0.00000000000E+00  0.88677311306E+03  0.88677311306E+03  0.00000000000E+00 0. -1.
          2   -1    0    0  501    0  0.00000000000E+00 -0.00000000000E+00 -0.21391475506E+04  0.21391475506E+04  0.00000000000E+00 0.  1.
         23    2    1    2    0    0  0.11698686126E+04 -0.24310132484E+03 -0.13760208250E+04  0.18246799492E+04  0.91284069837E+02 0.  0.
         11    1    3    3    0    0  0.41690873959E+03 -0.12941799767E+03 -0.48137201721E+03  0.64983146601E+03  0.00000000000E+00 0. -1.
        -11    1    3    3    0    0  0.75295987305E+03 -0.11368332716E+03 -0.89464880775E+03  0.11748484832E+04  0.00000000000E+00 0.  1.
         22    1    1    2    0    0 -0.11698686126E+04  0.24310132484E+03  0.12364638738E+03  0.12012407145E+04  0.00000000000E+00 0. -1.
<mgrwt>
<rscale>  0 0.27545878E+04</rscale>
<asrwt>0</asrwt>
<pdfrwt beam="1">  1        2 0.32909962E+00 0.27545878E+04</pdfrwt>
<pdfrwt beam="2">  1       -2 0.13642663E+00 0.27545878E+04</pdfrwt>
<totfact> 0.18738109E+00</totfact>
</mgrwt>
</event>
<event>
 6    1  0.6091287E-004  0.3121157E+04  0.7818608E-02  0.8209955E-01
         -2   -1    0    0    0  501 -0.00000000000E+00  0.00000000000E+00  0.19380976599E+04  0.19380976599E+04  0.00000000000E+00 0. -1.
          2   -1    0    0  501    0  0.00000000000E+00 -0.00000000000E+00 -0.12565956487E+04  0.12565956487E+04  0.00000000000E+00 0.  1.
         23    2    1    2    0    0  0.13335840095E+03 -0.14944913139E+04  0.77524814587E+03  0.16913380318E+04  0.91246369269E+02 0.  0.
         13    1    3    3    0    0  0.82329318526E+02 -0.66943212381E+03  0.39279191208E+03  0.78051455545E+03  0.00000000000E+00 0. -1.
        -13    1    3    3    0    0  0.51029082423E+02 -0.82505919008E+03  0.38245623379E+03  0.91082347639E+03  0.00000000000E+00 0.  1.
         22    1    1    2    0    0 -0.13335840095E+03  0.14944913139E+04 -0.93746134637E+02  0.15033552767E+04  0.00000000000E+00 0.  1.
<mgrwt>
<rscale>  0 0.31211569E+04</rscale>
<asrwt>0</asrwt>
<pdfrwt beam="1">  1        2 0.19332241E+00 0.31211569E+04</pdfrwt>
<pdfrwt beam="2">  1       -2 0.29816887E+00 0.31211569E+04</pdfrwt>
<totfact> 0.48452053E-01</totfact>
</mgrwt>
</event>
<event>
 6    1  0.6091287E-004  0.3563235E+04  0.7818608E-02  0.8098966E-01
          2   -1    0    0  501    0  0.00000000000E+00  0.00000000000E+00  0.15077592634E+04  0.15077592634E+04  0.00000000000E+00 0.  1.
         -2   -1    0    0    0  501 -0.00000000000E+00 -0.00000000000E+00 -0.21052167719E+04  0.21052167719E+04  0.00000000000E+00 0. -1.
         23    2    1    2    0    0  0.13608274322E+04  0.44467087636E+03 -0.13722469469E+04  0.19851301697E+04  0.89981213880E+02 0.  0.
         11    1    3    3    0    0  0.10479149288E+04  0.30715167043E+03 -0.10704905016E+04  0.15291885955E+04  0.00000000000E+00 0. -1.
        -11    1    3    3    0    0  0.31291250342E+03  0.13751920593E+03 -0.30175644531E+03  0.45594157420E+03  0.00000000000E+00 0.  1.
         22    1    1    2    0    0 -0.13608274322E+04 -0.44467087636E+03  0.77478943841E+03  0.16278458657E+04  0.00000000000E+00 0.  1.
<mgrwt>
<rscale>  0 0.35632345E+04</rscale>
<asrwt>0</asrwt>
<pdfrwt beam="1">  1        2 0.23196296E+00 0.35632345E+04</pdfrwt>
<pdfrwt beam="2">  1       -2 0.32387950E+00 0.35632345E+04</pdfrwt>
<totfact> 0.23269120E-01</totfact>
</mgrwt>
</event>
<event>
 6    1  0.6091287E-004  0.2156484E+04  0.7818608E-02  0.8536762E-01
         -2   -1    0    0    0  501 -0.00000000000E+00  0.00000000000E+00  0.53098490413E+03  0.53098490413E+03  0.00000000000E+00 0. -1.
          2   -1    0    0  501    0  0.00000000000E+00 -0.00000000000E+00 -0.21895269864E+04  0.21895269864E+04  0.00000000000E+00 0.  1.
         23    2    1    2    0    0 -0.72920092955E+03 -0.78495346358E+03 -0.70177685599E+03  0.12840977323E+04  0.92359595951E+02 0.  0.
         13    1    3    3    0    0 -0.63220214475E+02 -0.10864952264E+03 -0.94875535286E+02  0.15748930593E+03  0.00000000000E+00 0. -1.
        -13    1    3    3    0    0 -0.66598071507E+03 -0.67630394094E+03 -0.60690132071E+03  0.11266084264E+04  0.00000000000E+00 0.  1.
         22    1    1    2    0    0  0.72920092955E+03  0.78495346358E+03 -0.95676522630E+03  0.14364141582E+04  0.00000000000E+00 0. -1.
<mgrwt>
<rscale>  0 0.21564840E+04</rscale>
<asrwt>0</asrwt>
<pdfrwt beam="1">  1        2 0.33685030E+00 0.21564840E+04</pdfrwt>
<pdfrwt beam="2">  1       -2 0.81689987E-01 0.21564840E+04</pdfrwt>
<totfact> 0.63307405E+00</totfact>
</mgrwt>
</event>
<event>
 6    1  0.6091287E-004  0.1142243E+04  0.7818608E-02  0.9164969E-01
         -2   -1    0    0    0  501 -0.00000000000E+00  0.00000000000E+00  0.90898316304E+02  0.90898316304E+02  0.00000000000E+00 0. -1.
          2   -1    0    0  501    0  0.00000000000E+00 -0.00000000000E+00 -0.35884042917E+04  0.35884042917E+04  0.00000000000E+00 0.  1.
         23    2    1    2    0    0 -0.45103910942E+03 -0.30054429705E+03 -0.12190145668E+04  0.13372338106E+04  0.91840064473E+02 0.  0.
         13    1    3    3    0    0 -0.40150675283E+03 -0.22954459267E+03 -0.10497660514E+04  0.11471299644E+04  0.00000000000E+00 0.  1.
        -13    1    3    3    0    0 -0.49532356589E+02 -0.70999704379E+02 -0.16924851548E+03  0.19010384626E+03  0.00000000000E+00 0. -1.
         22    1    1    2    0    0  0.45103910942E+03  0.30054429705E+03 -0.22784914085E+04  0.23420687973E+04  0.00000000000E+00 0. -1.
<mgrwt>
<rscale>  0 0.11422432E+04</rscale>
<asrwt>0</asrwt>
<pdfrwt beam="1">  1        2 0.55206207E+00 0.11422432E+04</pdfrwt>
<pdfrwt beam="2">  1       -2 0.13984360E-01 0.11422432E+04</pdfrwt>
<totfact> 0.28433618E+01</totfact>
</mgrwt>
</event>
<event>
 6    1  0.6091287E-004  0.2474560E+04  0.7818608E-02  0.8412105E-01
         -1   -1    0    0    0  501 -0.00000000000E+00  0.00000000000E+00  0.10487598748E+04  0.10487598748E+04  0.00000000000E+00 0. -1.
          1   -1    0    0  501    0  0.00000000000E+00 -0.00000000000E+00 -0.14596878214E+04  0.14596878214E+04  0.00000000000E+00 0.  1.
         23    2    1    2    0    0  0.41558554786E+03  0.66272893719E+03  0.76394119947E+03  0.10969809052E+04  0.88543539280E+02 0.  0.
         11    1    3    3    0    0  0.35520638041E+03  0.49898979987E+03  0.58347409153E+03  0.84593404503E+03  0.00000000000E+00 0.  1.
        -11    1    3    3    0    0  0.60379167450E+02  0.16373913732E+03  0.18046710793E+03  0.25104686016E+03  0.00000000000E+00 0. -1.
         22    1    1    2    0    0 -0.41558554786E+03 -0.66272893719E+03 -0.11748691460E+04  0.14114667910E+04  0.00000000000E+00 0.  1.
<mgrwt>
<rscale>  0 0.24745602E+04</rscale>
<asrwt>0</asrwt>
<pdfrwt beam="1">  1        1 0.22456736E+00 0.24745602E+04</pdfrwt>
<pdfrwt beam="2">  1       -1 0.16134767E+00 0.24745602E+04</pdfrwt>
<totfact> 0.17736210E+00</totfact>
</mgrwt>
</event>
<event>
 6    1  0.6091287E-004  0.1719538E+04  0.7818608E-02  0.8750299E-01
          2   -1    0    0  501    0  0.00000000000E+00  0.00000000000E+00  0.38104196529E+04  0.38104196529E+04  0.00000000000E+00 0.  1.
         -2   -1    0    0    0  501 -0.00000000000E+00 -0.00000000000E+00 -0.19399517421E+03  0.19399517421E+03  0.00000000000E+00 0. -1.
         23    2    1    2    0    0  0.61476910590E+03  0.37193366874E+02  0.32021846495E+04  0.32621756230E+04  0.92080753235E+02 0.  0.
         13    1    3    3    0    0  0.39232625255E+03  0.59101323036E+02  0.19054169607E+04  0.19462853462E+04  0.00000000000E+00 0.  1.
        -13    1    3    3    0    0  0.22244285335E+03 -0.21907956161E+02  0.12967676889E+04  0.13158902768E+04  0.00000000000E+00 0. -1.
         22    1    1    2    0    0 -0.61476910590E+03 -0.37193366874E+02  0.41423982912E+03  0.74223920413E+03  0.00000000000E+00 0. -1.
<mgrwt>
<rscale>  0 0.17195383E+04</rscale>
<asrwt>0</asrwt>
<pdfrwt beam="1">  1        2 0.58621835E+00 0.17195383E+04</pdfrwt>
<pdfrwt beam="2">  1       -2 0.29845414E-01 0.17195383E+04</pdfrwt>
<totfact> 0.48094360E+00</totfact>
</mgrwt>
</event>
<event>
 6    1  0.6091287E-004  0.6806355E+03  0.7818608E-02  0.9750933E-01
         -2   -1    0    0    0  501 -0.00000000000E+00  0.00000000000E+00  0.65225594656E+03  0.65225594656E+03  0.00000000000E+00 0. -1.
          2   -1    0    0  501    0  0.00000000000E+00 -0.00000000000E+00 -0.17756247958E+03  0.17756247958E+03  0.00000000000E+00 0.  1.
         23    2    1    2    0    0 -0.29201866033E+03  0.14458712416E+03  0.15264511115E+03  0.37167491375E+03  0.93066519762E+02 0.  0.
         11    1    3    3    0    0 -0.21761729871E+03  0.59362546854E+02  0.10738718152E+03  0.24982635454E+03  0.00000000000E+00 0. -1.
        -11    1    3    3    0    0 -0.74401361616E+02  0.85224577308E+02  0.45257929636E+02  0.12184855921E+03  0.00000000000E+00 0.  1.
         22    1    1    2    0    0  0.29201866033E+03 -0.14458712416E+03  0.32204835583E+03  0.45814351239E+03  0.00000000000E+00 0. -1.
<mgrwt>
<rscale>  0 0.68063554E+03</rscale>
<asrwt>0</asrwt>
<pdfrwt beam="1">  1        2 0.27317305E-01 0.68063554E+03</pdfrwt>
<pdfrwt beam="2">  1       -2 0.10034707E+00 0.68063554E+03</pdfrwt>
<totfact> 0.16393746E+02</totfact>
</mgrwt>
</event>
<event>
 6    1  0.6091287E-004  0.2127574E+03  0.7818608E-02  0.1139401E+00
          2   -1    0    0  501    0  0.00000000000E+00  0.00000000000E+00  0.31520778803E+02  0.31520778803E+02  0.00000000000E+00 0.  1.
         -2   -1    0    0    0  501 -0.00000000000E+00 -0.00000000000E+00 -0.35901481639E+03  0.35901481639E+03  0.00000000000E+00 0. -1.
         23    2    1    2    0    0  0.66975943461E+02  0.16139116630E+02 -0.95593932223E+02  0.14861844624E+03  0.90570384773E+02 0.  0.
         11    1    3    3    0    0 -0.68023376565E+01  0.73376173680E+01  0.13390502061E+02  0.16715800061E+02  0.00000000000E+00 0.  1.
        -11    1    3    3    0    0  0.73778281117E+02  0.88014992617E+01 -0.10898443428E+03  0.13190264618E+03  0.00000000000E+00 0. -1.
         22    1    1    2    0    0 -0.66975943461E+02 -0.16139116630E+02 -0.23190010536E+03  0.24191714895E+03  0.00000000000E+00 0. -1.
<mgrwt>
<rscale>  0 0.21275739E+03</rscale>
<asrwt>0</asrwt>
<pdfrwt beam="1">  1        2 0.48493506E-02 0.21275739E+03</pdfrwt>
<pdfrwt beam="2">  1       -2 0.55233048E-01 0.21275739E+03</pdfrwt>
<totfact> 0.50353834E+03</totfact>
</mgrwt>
</event>
<event>
 6    1  0.6091287E-004  0.4204123E+04  0.7818608E-02  0.7964588E-01
         -2   -1    0    0    0  501 -0.00000000000E+00  0.00000000000E+00  0.13235645445E+04  0.13235645445E+04  0.00000000000E+00 0. -1.
          2   -1    0    0  501    0  0.00000000000E+00 -0.00000000000E+00 -0.33384558376E+04  0.33384558376E+04  0.00000000000E+00 0.  1.
         23    2    1    2    0    0 -0.10149530446E+04  0.17667048048E+04 -0.43835783627E+03  0.20858151709E+04  0.84212733675E+02 0.  0.
         11    1    3    3    0    0 -0.26035242693E+03  0.47830707539E+03 -0.15321811991E+03  0.56571798349E+03  0.00000000000E+00 0.  1.
        -11    1    3    3    0    0 -0.75460061771E+03  0.12883977294E+04 -0.28513971636E+03  0.15200971874E+04  0.00000000000E+00 0. -1.
         22    1    1    2    0    0  0.10149530446E+04 -0.17667048048E+04 -0.15765334568E+04  0.25762052112E+04  0.00000000000E+00 0. -1.
<mgrwt>
<rscale>  0 0.42041226E+04</rscale>
<asrwt>0</asrwt>
<pdfrwt beam="1">  1        2 0.51360858E+00 0.42041226E+04</pdfrwt>
<pdfrwt beam="2">  1       -2 0.20362532E+00 0.42041226E+04</pdfrwt>
<totfact> 0.10243195E-01</totfact>
</mgrwt>
</event>
<event>
 6    1  0.6091287E-004  0.3598067E+04  0.7818608E-02  0.8090935E-01
          2   -1    0    0  501    0  0.00000000000E+00  0.00000000000E+00  0.27315827990E+04  0.27315827990E+04  0.00000000000E+00 0.  1.
         -2   -1    0    0    0  501 -0.00000000000E+00 -0.00000000000E+00 -0.11848522071E+04  0.11848522071E+04  0.00000000000E+00 0. -1.
         23    2    1    2    0    0  0.76783229619E+03  0.50828021515E+02 -0.99486248477E+03  0.12609039312E+04  0.89316499991E+02 0.  0.
         11    1    3    3    0    0  0.34916600334E+03  0.41421435762E+02 -0.52057504498E+03  0.62819663377E+03  0.00000000000E+00 0. -1.
        -11    1    3    3    0    0  0.41866629285E+03  0.94065857527E+01 -0.47428743979E+03  0.63270729739E+03  0.00000000000E+00 0.  1.
         22    1    1    2    0    0 -0.76783229619E+03 -0.50828021515E+02  0.25415930767E+04  0.26555310750E+04  0.00000000000E+00 0.  1.
<mgrwt>
<rscale>  0 0.35980672E+04</rscale>
<asrwt>0</asrwt>
<pdfrwt beam="1">  1        2 0.42024351E+00 0.35980672E+04</pdfrwt>
<pdfrwt beam="2">  1       -2 0.18228496E+00 0.35980672E+04</pdfrwt>
<totfact> 0.36232649E-01</totfact>
</mgrwt>
</event>
<event>
 6    1  0.6091287E-004  0.2459764E+04  0.7818608E-02  0.8417462E-01
          2   -1    0    0  501    0  0.00000000000E+00  0.00000000000E+00  0.13378485092E+04  0.13378485092E+04  0.00000000000E+00 0.  1.
         -2   -1    0    0    0  501 -0.00000000000E+00 -0.00000000000E+00 -0.11306284492E+04  0.11306284492E+04  0.00000000000E+00 0. -1.
         23    2    1    2    0    0  0.34428027331E+02  0.12274812478E+04  0.12334987174E+03  0.12376521490E+04  0.93124369887E+02 0.  0.
         13    1    3    3    0    0 -0.98899974830E+01  0.66244481755E+03  0.29603818115E+02  0.66317971501E+03  0.00000000000E+00 0.  1.
        -13    1    3    3    0    0  0.44318024814E+02  0.56503643026E+03  0.93746053625E+02  0.57447243399E+03  0.00000000000E+00 0. -1.
         22    1    1    2    0    0 -0.34428027331E+02 -0.12274812478E+04  0.83870188271E+02  0.12308248093E+04  0.00000000000E+00 0. -1.
<mgrwt>
<rscale>  0 0.24597639E+04</rscale>
<asrwt>0</asrwt>
<pdfrwt beam="1">  1        2 0.20582285E+00 0.24597639E+04</pdfrwt>
<pdfrwt beam="2">  1       -2 0.17394284E+00 0.24597639E+04</pdfrwt>
<totfact> 0.28108389E+00</totfact>
</mgrwt>
</event>
<event>
 6    1  0.6091287E-004  0.4816741E+04  0.7818608E-02  0.7857416E-01
         -2   -1    0    0    0  501 -0.00000000000E+00  0.00000000000E+00  0.18293553456E+04  0.18293553456E+04  0.00000000000E+00 0. -1.
          2   -1    0    0  501    0  0.00000000000E+00 -0.00000000000E+00 -0.31706520244E+04  0.31706520244E+04  0.00000000000E+00 0.  1.
         23    2    1    2    0    0 -0.60869481826E+03 -0.19776393392E+04 -0.19484758908E+04  0.28435674027E+04  0.88037144438E+02 0.  0.
         13    1    3    3    0    0 -0.40428661439E+03 -0.12475326503E+04 -0.12860753982E+04  0.18367839584E+04  0.00000000000E+00 0. -1.
        -13    1    3    3    0    0 -0.20440820387E+03 -0.73010668891E+03 -0.66240049266E+03  0.10067834443E+04  0.00000000000E+00 0.  1.
         22    1    1    2    0    0  0.60869481826E+03  0.19776393392E+04  0.60717921203E+03  0.21564399674E+04  0.00000000000E+00 0. -1.
<mgrwt>
<rscale>  0 0.48167413E+04</rscale>
<asrwt>0</asrwt>
<pdfrwt beam="1">  1        2 0.48779261E+00 0.48167413E+04</pdfrwt>
<pdfrwt beam="2">  1       -2 0.28143929E+00 0.48167413E+04</pdfrwt>
<totfact> 0.41273512E-02</totfact>
</mgrwt>
</event>
<event>
 6    1  0.6091287E-004  0.4929063E+03  0.7818608E-02  0.1015647E+00
          2   -1    0    0  501    0  0.00000000000E+00  0.00000000000E+00  0.62286486405E+03  0.62286486405E+03  0.00000000000E+00 0.  1.
         -2   -1    0    0    0  501 -0.00000000000E+00 -0.00000000000E+00 -0.97515773345E+02  0.97515773345E+02  0.00000000000E+00 0. -1.
         23    2    1    2    0    0 -0.16974001113E+03 -0.72040779437E+02  0.49129918464E+03  0.53286812746E+03  0.92585134626E+02 0.  0.
         11    1    3    3    0    0 -0.14642000725E+03 -0.77873826545E+02  0.47674689195E+03  0.50476801639E+03  0.00000000000E+00 0.  1.
        -11    1    3    3    0    0 -0.23320003885E+02  0.58330471074E+01  0.14552292688E+02  0.28100111071E+02  0.00000000000E+00 0. -1.
         22    1    1    2    0    0  0.16974001113E+03  0.72040779437E+02  0.34049906068E+02  0.18751250994E+03  0.00000000000E+00 0. -1.
<mgrwt>
<rscale>  0 0.49290627E+03</rscale>
<asrwt>0</asrwt>
<pdfrwt beam="1">  1        2 0.95825361E-01 0.49290627E+03</pdfrwt>
<pdfrwt beam="2">  1       -2 0.15002427E-01 0.49290627E+03</pdfrwt>
<totfact> 0.16590378E+03</totfact>
</mgrwt>
</event>
<event>
 6    1  0.6091287E-004  0.2698523E+04  0.7818608E-02  0.8335484E-01
          2   -1    0    0  501    0  0.00000000000E+00  0.00000000000E+00  0.25881147264E+04  0.25881147264E+04  0.00000000000E+00 0.  1.
         -2   -1    0    0    0  501 -0.00000000000E+00 -0.00000000000E+00 -0.70341009275E+03  0.70341009275E+03  0.00000000000E+00 0. -1.
         23    2    1    2    0    0  0.33240261423E+03  0.68888756310E+03 -0.40995655410E+03  0.87273844184E+03  0.92468584298E+02 0.  0.
         13    1    3    3    0    0  0.24726908276E+03  0.49824025564E+03 -0.25054219803E+03  0.61004651022E+03  0.00000000000E+00 0. -1.
        -13    1    3    3    0    0  0.85133531470E+02  0.19064730745E+03 -0.15941435607E+03  0.26269193163E+03  0.00000000000E+00 0.  1.
         22    1    1    2    0    0 -0.33240261423E+03 -0.68888756310E+03  0.22946611878E+04  0.24187863773E+04  0.00000000000E+00 0.  1.
<mgrwt>
<rscale>  0 0.26985226E+04</rscale>
<asrwt>0</asrwt>
<pdfrwt beam="1">  1        2 0.39817149E+00 0.26985226E+04</pdfrwt>
<pdfrwt beam="2">  1       -2 0.10821694E+00 0.26985226E+04</pdfrwt>
<totfact> 0.18541643E+00</totfact>
</mgrwt>
</event>
<event>
 6    1  0.6091287E-004  0.3981324E+04  0.7818608E-02  0.8008325E-01
         -2   -1    0    0    0  501 -0.00000000000E+00  0.00000000000E+00  0.23611291066E+04  0.23611291066E+04  0.00000000000E+00 0. -1.
          2   -1    0    0  501    0  0.00000000000E+00 -0.00000000000E+00 -0.16783224522E+04  0.16783224522E+04  0.00000000000E+00 0.  1.
         23    2    1    2    0    0  0.65617688868E+03 -0.17936150267E+04 -0.22396406656E+03  0.19252481359E+04  0.93795035415E+02 0.  0.
         11    1    3    3    0    0  0.32898990743E+03 -0.82814844522E+03 -0.14465233984E+03  0.90276713826E+03  0.00000000000E+00 0.  1.
        -11    1    3    3    0    0  0.32718698125E+03 -0.96546658144E+03 -0.79311726724E+02  0.10224809977E+04  0.00000000000E+00 0. -1.
         22    1    1    2    0    0 -0.65617688868E+03  0.17936150267E+04  0.90677072088E+03  0.21142034229E+04  0.00000000000E+00 0.  1.
<mgrwt>
<rscale>  0 0.39813244E+04</rscale>
<asrwt>0</asrwt>
<pdfrwt beam="1">  1        2 0.25820345E+00 0.39813244E+04</pdfrwt>
<pdfrwt beam="2">  1       -2 0.36325063E+00 0.39813244E+04</pdfrwt>
<totfact> 0.10211072E-01</totfact>
</mgrwt>
</event>
<event>
 6    1  0.6091287E-004  0.2672086E+04  0.7818608E-02  0.8344119E-01
          2   -1    0    0  501    0  0.00000000000E+00  0.00000000000E+00  0.13711424272E+04  0.13711424272E+04  0.00000000000E+00 0.  1.
         -2   -1    0    0    0  501 -0.00000000000E+00 -0.00000000000E+00 -0.13018419999E+04  0.13018419999E+04  0.00000000000E+00 0. -1.
         23    2    1    2    0    0 -0.10491853810E+04  0.81783200692E+03  0.14118597584E+03  0.13407657185E+04  0.89889247920E+02 0.  0.
         13    1    3    3    0    0 -0.38708017196E+03  0.27161663032E+03  0.14141069428E+02  0.47308204704E+03  0.00000000000E+00 0. -1.
        -13    1    3    3    0    0 -0.66210520906E+03  0.54621537660E+03  0.12704490641E+03  0.86768367148E+03  0.00000000000E+00 0.  1.
         22    1    1    2    0    0  0.10491853810E+04 -0.81783200692E+03 -0.71885548567E+02  0.13322187085E+04  0.00000000000E+00 0. -1.
<mgrwt>
<rscale>  0 0.26720859E+04</rscale>
<asrwt>0</asrwt>
<pdfrwt beam="1">  1        2 0.21094499E+00 0.26720859E+04</pdfrwt>
<pdfrwt beam="2">  1       -2 0.20028338E+00 0.26720859E+04</pdfrwt>
<totfact> 0.17507639E+00</totfact>
</mgrwt>
</event>
<event>
 6    1  0.6091287E-004  0.3051576E+04  0.7818608E-02  0.8229155E-01
          2   -1    0    0  501    0  0.00000000000E+00  0.00000000000E+00  0.11297507333E+04  0.11297507333E+04  0.00000000000E+00 0. -1.
         -2   -1    0    0    0  501 -0.00000000000E+00 -0.00000000000E+00 -0.20606571002E+04  0.20606571002E+04  0.00000000000E+00 0.  1.
         23    2    1    2    0    0  0.54508402686E+03  0.14235926013E+04 -0.48409347840E+03  0.16018946140E+04  0.89372074309E+02 0.  0.
         11    1    3    3    0    0  0.13063836311E+03  0.38295076435E+03 -0.16712841287E+03  0.43777799879E+03  0.00000000000E+00 0. -1.
        -11    1    3    3    0    0  0.41444566375E+03  0.10406418370E+04 -0.31696506553E+03  0.11641166152E+04  0.00000000000E+00 0.  1.
         22    1    1    2    0    0 -0.54508402686E+03 -0.14235926013E+04 -0.44681288854E+03  0.15885132194E+04  0.00000000000E+00 0.  1.
<mgrwt>
<rscale>  0 0.30515759E+04</rscale>
<asrwt>0</asrwt>
<pdfrwt beam="1">  1        2 0.17380781E+00 0.30515759E+04</pdfrwt>
<pdfrwt beam="2">  1       -2 0.31702416E+00 0.30515759E+04</pdfrwt>
<totfact> 0.44467938E-01</totfact>
</mgrwt>
</event>
<event>
 6    1  0.6091287E-004  0.3068103E+04  0.7818608E-02  0.8224547E-01
         -2   -1    0    0    0  501 -0.00000000000E+00  0.00000000000E+00  0.55901195877E+03  0.55901195877E+03  0.00000000000E+00 0. -1.
          2   -1    0    0  501    0  0.00000000000E+00 -0.00000000000E+00 -0.42097742318E+04  0.42097742318E+04  0.00000000000E+00 0.  1.
         23    2    1    2    0    0  0.10151146844E+04 -0.11127423729E+04 -0.13837904621E+04  0.20470561153E+04  0.83122110204E+02 0.  0.
         13    1    3    3    0    0  0.48277964579E+03 -0.52837944598E+03 -0.71398344761E+03  0.10109566701E+04  0.00000000000E+00 0.  1.
        -13    1    3    3    0    0  0.53233503865E+03 -0.58436292691E+03 -0.66980701445E+03  0.10360994452E+04  0.00000000000E+00 0. -1.
         22    1    1    2    0    0 -0.10151146844E+04  0.11127423729E+04 -0.22669718109E+04  0.27217300753E+04  0.00000000000E+00 0.  1.
<mgrwt>
<rscale>  0 0.30681031E+04</rscale>
<asrwt>0</asrwt>
<pdfrwt beam="1">  1        2 0.64765759E+00 0.30681031E+04</pdfrwt>
<pdfrwt beam="2">  1       -2 0.86001838E-01 0.30681031E+04</pdfrwt>
<totfact> 0.22745325E-01</totfact>
</mgrwt>
</event>
<event>
 6    1  0.6091287E-004  0.2237722E+04  0.7818608E-02  0.8502889E-01
         -2   -1    0    0    0  501 -0.00000000000E+00  0.00000000000E+00  0.39219613375E+03  0.39219613375E+03  0.00000000000E+00 0. -1.
          2   -1    0    0  501    0  0.00000000000E+00 -0.00000000000E+00 -0.31918990142E+04  0.31918990142E+04  0.00000000000E+00 0.  1.
         23    2    1    2    0    0 -0.60913950383E+03  0.27016194340E+03  0.34465676792E+02  0.67264365055E+03  0.84989334393E+02 0.  0.
         13    1    3    3    0    0 -0.46494333723E+03  0.24195730029E+03  0.39583995337E+02  0.52562585047E+03  0.00000000000E+00 0.  1.
        -13    1    3    3    0    0 -0.14419616660E+03  0.28204643114E+02 -0.51183185444E+01  0.14701780008E+03  0.00000000000E+00 0. -1.
         22    1    1    2    0    0  0.60913950383E+03 -0.27016194340E+03 -0.28341685573E+04  0.29114514974E+04  0.00000000000E+00 0.  1.
<mgrwt>
<rscale>  0 0.22377225E+04</rscale>
<asrwt>0</asrwt>
<pdfrwt beam="1">  1        2 0.49106138E+00 0.22377225E+04</pdfrwt>
<pdfrwt beam="2">  1       -2 0.60337867E-01 0.22377225E+04</pdfrwt>
<totfact> 0.30665293E+00</totfact>
</mgrwt>
</event>
<event>
 6    1  0.6091287E-004  0.2108528E+04  0.7818608E-02  0.8557496E-01
          2   -1    0    0  501    0  0.00000000000E+00  0.00000000000E+00  0.38505259154E+04  0.38505259154E+04  0.00000000000E+00 0.  1.
         -2   -1    0    0    0  501 -0.00000000000E+00 -0.00000000000E+00 -0.28865483161E+03  0.28865483161E+03  0.00000000000E+00 0. -1.
         23    2    1    2    0    0  0.76062065808E+03 -0.52745648996E+03  0.80135087130E+03  0.12276131318E+04  0.90092442263E+02 0.  0.
         11    1    3    3    0    0  0.58184193226E+03 -0.37183881082E+03  0.63444451480E+03  0.93772276165E+03  0.00000000000E+00 0. -1.
        -11    1    3    3    0    0  0.17877872582E+03 -0.15561767914E+03  0.16690635651E+03  0.28989037015E+03  0.00000000000E+00 0.  1.
         22    1    1    2    0    0 -0.76062065808E+03  0.52745648996E+03  0.27605202124E+04  0.29115676152E+04  0.00000000000E+00 0.  1.
<mgrwt>
<rscale>  0 0.21085283E+04</rscale>
<asrwt>0</asrwt>
<pdfrwt beam="1">  1        2 0.59238857E+00 0.21085283E+04</pdfrwt>
<pdfrwt beam="2">  1       -2 0.44408438E-01 0.21085283E+04</pdfrwt>
<totfact> 0.20037395E+00</totfact>
</mgrwt>
</event>
<event>
 6    1  0.6091287E-004  0.1375912E+04  0.7818608E-02  0.8971442E-01
          2   -1    0    0  501    0  0.00000000000E+00  0.00000000000E+00  0.60926237673E+03  0.60926237673E+03  0.00000000000E+00 0.  1.
         -2   -1    0    0    0  501 -0.00000000000E+00 -0.00000000000E+00 -0.77681386943E+03  0.77681386943E+03  0.00000000000E+00 0. -1.
         23    2    1    2    0    0  0.28208676496E+03 -0.20098021074E+03  0.51112081034E+03  0.62412999938E+03  0.91256699981E+02 0.  0.
         11    1    3    3    0    0  0.20732469201E+03 -0.17864295377E+03  0.34312672753E+03  0.43889951469E+03  0.00000000000E+00 0. -1.
        -11    1    3    3    0    0  0.74762072948E+02 -0.22337256974E+02  0.16799408281E+03  0.18523048469E+03  0.00000000000E+00 0.  1.
         22    1    1    2    0    0 -0.28208676496E+03  0.20098021074E+03 -0.67867230304E+03  0.76194624678E+03  0.00000000000E+00 0. -1.
<mgrwt>
<rscale>  0 0.13759120E+04</rscale>
<asrwt>0</asrwt>
<pdfrwt beam="1">  1        2 0.93732674E-01 0.13759120E+04</pdfrwt>
<pdfrwt beam="2">  1       -2 0.11950983E+00 0.13759120E+04</pdfrwt>
<totfact> 0.25456542E+01</totfact>
</mgrwt>
</event>
<event>
 6    1  0.6091287E-004  0.1449178E+04  0.7818608E-02  0.8918971E-01
         -2   -1    0    0    0  501 -0.00000000000E+00  0.00000000000E+00  0.19177739615E+03  0.19177739615E+03  0.00000000000E+00 0. -1.
          2   -1    0    0  501    0  0.00000000000E+00 -0.00000000000E+00 -0.27377012429E+04  0.27377012429E+04  0.00000000000E+00 0.  1.
         23    2    1    2    0    0 -0.29485639588E+02  0.69213762039E+03 -0.86888390334E+03  0.11149850843E+04  0.91151589159E+02 0.  0.
         13    1    3    3    0    0 -0.61509204299E+02  0.37838031043E+03 -0.47798660887E+03  0.61272036020E+03  0.00000000000E+00 0. -1.
        -13    1    3    3    0    0  0.32023564710E+02  0.31375730996E+03 -0.39089729447E+03  0.50226472410E+03  0.00000000000E+00 0.  1.
         22    1    1    2    0    0  0.29485639588E+02 -0.69213762039E+03 -0.16770399434E+04  0.18144935548E+04  0.00000000000E+00 0.  1.
<mgrwt>
<rscale>  0 0.14491780E+04</rscale>
<asrwt>0</asrwt>
<pdfrwt beam="1">  1        2 0.42118479E+00 0.14491780E+04</pdfrwt>
<pdfrwt beam="2">  1       -2 0.29504216E-01 0.14491780E+04</pdfrwt>
<totfact> 0.26003201E+01</totfact>
</mgrwt>
</event>
<event>
 6    1  0.6091287E-004  0.1356485E+04  0.7818608E-02  0.8985934E-01
          2   -1    0    0  501    0  0.00000000000E+00  0.00000000000E+00  0.12619363442E+04  0.12619363442E+04  0.00000000000E+00 0. -1.
         -2   -1    0    0    0  501 -0.00000000000E+00 -0.00000000000E+00 -0.36452929696E+03  0.36452929696E+03  0.00000000000E+00 0.  1.
         23    2    1    2    0    0 -0.50755704112E+03  0.25736903339E+03  0.16756480631E+02  0.57794363861E+03  0.99423842333E+02 0.  0.
         11    1    3    3    0    0 -0.33474271749E+03  0.19176700631E+03 -0.31006880537E+02  0.38702544912E+03  0.00000000000E+00 0.  1.
        -11    1    3    3    0    0 -0.17281432363E+03  0.65602027077E+02  0.47763361168E+02  0.19091818949E+03  0.00000000000E+00 0. -1.
         22    1    1    2    0    0  0.50755704112E+03 -0.25736903339E+03  0.88065056657E+03  0.10485220025E+04  0.00000000000E+00 0. -1.
<mgrwt>
<rscale>  0 0.13564848E+04</rscale>
<asrwt>0</asrwt>
<pdfrwt beam="1">  1        2 0.19414405E+00 0.13564848E+04</pdfrwt>
<pdfrwt beam="2">  1       -2 0.56081431E-01 0.13564848E+04</pdfrwt>
<totfact> 0.50717625E+01</totfact>
</mgrwt>
</event>
<event>
 6    1  0.6091287E-004  0.4878053E+04  0.7818608E-02  0.7847599E-01
         -2   -1    0    0    0  501 -0.00000000000E+00  0.00000000000E+00  0.16776553273E+04  0.16776553273E+04  0.00000000000E+00 0. -1.
          2   -1    0    0  501    0  0.00000000000E+00 -0.00000000000E+00 -0.35459308707E+04  0.35459308707E+04  0.00000000000E+00 0.  1.
         23    2    1    2    0    0  0.19893390523E+04  0.20244295986E+03  0.55943539058E+03  0.20783940901E+04  0.91109935934E+02 0.  0.
         11    1    3    3    0    0  0.12502908378E+04  0.13848340381E+03  0.39597082232E+03  0.13187864589E+04  0.00000000000E+00 0. -1.
        -11    1    3    3    0    0  0.73904821452E+03  0.63959556042E+02  0.16346456826E+03  0.75960763113E+03  0.00000000000E+00 0.  1.
         22    1    1    2    0    0 -0.19893390523E+04 -0.20244295986E+03 -0.24277109339E+04  0.31451921079E+04  0.00000000000E+00 0.  1.
<mgrwt>
<rscale>  0 0.48780528E+04</rscale>
<asrwt>0</asrwt>
<pdfrwt beam="1">  1        2 0.54552782E+00 0.48780528E+04</pdfrwt>
<pdfrwt beam="2">  1       -2 0.25810082E+00 0.48780528E+04</pdfrwt>
<totfact> 0.31719384E-02</totfact>
</mgrwt>
</event>
<event>
 6    1  0.6091287E-004  0.1404795E+04  0.7818608E-02  0.8950355E-01
          2   -1    0    0  501    0  0.00000000000E+00  0.00000000000E+00  0.62947194764E+03  0.62947194764E+03  0.00000000000E+00 0.  1.
         -2   -1    0    0    0  501 -0.00000000000E+00 -0.00000000000E+00 -0.78377121928E+03  0.78377121928E+03  0.00000000000E+00 0. -1.
         23    2    1    2    0    0  0.40846578108E+03  0.55884729221E+03 -0.17765795474E+03  0.72063922642E+03  0.92757508843E+02 0.  0.
         13    1    3    3    0    0  0.25145876149E+03  0.41292115827E+03 -0.13664528563E+03  0.50240155829E+03  0.00000000000E+00 0. -1.
        -13    1    3    3    0    0  0.15700701958E+03  0.14592613394E+03 -0.41012669106E+02  0.21823766813E+03  0.00000000000E+00 0.  1.
         22    1    1    2    0    0 -0.40846578108E+03 -0.55884729221E+03  0.23358683093E+02  0.69260394050E+03  0.00000000000E+00 0. -1.
<mgrwt>
<rscale>  0 0.14047946E+04</rscale>
<asrwt>0</asrwt>
<pdfrwt beam="1">  1        2 0.96841839E-01 0.14047946E+04</pdfrwt>
<pdfrwt beam="2">  1       -2 0.12058019E+00 0.14047946E+04</pdfrwt>
<totfact> 0.23874762E+01</totfact>
</mgrwt>
</event>
<event>
 6    1  0.6091287E-004  0.1733111E+04  0.7818608E-02  0.8742702E-01
          2   -1    0    0  501    0  0.00000000000E+00  0.00000000000E+00  0.29386206352E+04  0.29386206352E+04  0.00000000000E+00 0.  1.
         -2   -1    0    0    0  501 -0.00000000000E+00 -0.00000000000E+00 -0.25553437473E+03  0.25553437473E+03  0.00000000000E+00 0. -1.
         23    2    1    2    0    0  0.67381270572E+03  0.28987487049E+02  0.23412736632E+04  0.24380467581E+04  0.87440219594E+02 0.  0.
         13    1    3    3    0    0  0.45063416548E+03 -0.12231002315E+02  0.14594770672E+04  0.15275123758E+04  0.00000000000E+00 0. -1.
        -13    1    3    3    0    0  0.22317854024E+03  0.41218489363E+02  0.88179659597E+03  0.91053438231E+03  0.00000000000E+00 0.  1.
         22    1    1    2    0    0 -0.67381270572E+03 -0.28987487049E+02  0.34181259727E+03  0.75610825181E+03  0.00000000000E+00 0. -1.
<mgrwt>
<rscale>  0 0.17331112E+04</rscale>
<asrwt>0</asrwt>
<pdfrwt beam="1">  1        2 0.45209546E+00 0.17331112E+04</pdfrwt>
<pdfrwt beam="2">  1       -2 0.39312983E-01 0.17331112E+04</pdfrwt>
<totfact> 0.11086934E+01</totfact>
</mgrwt>
</event>
<event>
 6    1  0.6091287E-004  0.1943643E+04  0.7818608E-02  0.8633432E-01
          2   -1    0    0  501    0  0.00000000000E+00  0.00000000000E+00  0.99913701888E+03  0.99913701888E+03  0.00000000000E+00 0.  1.
         -2   -1    0    0    0  501 -0.00000000000E+00 -0.00000000000E+00 -0.94525252932E+03  0.94525252932E+03  0.00000000000E+00 0. -1.
         23    2    1    2    0    0  0.82989193414E+03  0.28934051012E+03 -0.38347809572E+03  0.96269479719E+03  0.85365505280E+02 0.  0.
         11    1    3    3    0    0  0.30012347224E+03  0.97897859689E+02 -0.94094059462E+02  0.32941126506E+03  0.00000000000E+00 0.  1.
        -11    1    3    3    0    0  0.52976846190E+03  0.19144265044E+03 -0.28938403626E+03  0.63328353213E+03  0.00000000000E+00 0. -1.
         22    1    1    2    0    0 -0.82989193414E+03 -0.28934051012E+03  0.43736258528E+03  0.98169475101E+03  0.00000000000E+00 0. -1.
<mgrwt>
<rscale>  0 0.19436428E+04</rscale>
<asrwt>0</asrwt>
<pdfrwt beam="1">  1        2 0.15371339E+00 0.19436428E+04</pdfrwt>
<pdfrwt beam="2">  1       -2 0.14542347E+00 0.19436428E+04</pdfrwt>
<totfact> 0.76534037E+00</totfact>
</mgrwt>
</event>
<event>
 6    1  0.6091287E-004  0.1246616E+04  0.7818608E-02  0.9073004E-01
          2   -1    0    0  501    0  0.00000000000E+00  0.00000000000E+00  0.26263094011E+04  0.26263094011E+04  0.00000000000E+00 0.  1.
         -2   -1    0    0    0  501 -0.00000000000E+00 -0.00000000000E+00 -0.14793111019E+03  0.14793111019E+03  0.00000000000E+00 0. -1.
         23    2    1    2    0    0  0.87592579745E+02  0.51280633641E+03  0.19962870134E+04  0.20649769506E+04  0.91242357724E+02 0.  0.
         11    1    3    3    0    0  0.91967700345E+02  0.45327401199E+03  0.16506446337E+04  0.17142179251E+04  0.00000000000E+00 0.  1.
        -11    1    3    3    0    0 -0.43751205995E+01  0.59532324421E+02  0.34564237970E+03  0.35075902551E+03  0.00000000000E+00 0. -1.
         22    1    1    2    0    0 -0.87592579745E+02 -0.51280633641E+03  0.48209127748E+03  0.70926356068E+03  0.00000000000E+00 0. -1.
<mgrwt>
<rscale>  0 0.12466160E+04</rscale>
<asrwt>0</asrwt>
<pdfrwt beam="1">  1        2 0.40404757E+00 0.12466160E+04</pdfrwt>
<pdfrwt beam="2">  1       -2 0.22758634E-01 0.12466160E+04</pdfrwt>
<totfact> 0.49445115E+01</totfact>
</mgrwt>
</event>
<event>
 6    1  0.6091287E-004  0.3492290E+04  0.7818608E-02  0.8115620E-01
          2   -1    0    0  501    0  0.00000000000E+00  0.00000000000E+00  0.14000798823E+04  0.14000798823E+04  0.00000000000E+00 0.  1.
         -2   -1    0    0    0  501 -0.00000000000E+00 -0.00000000000E+00 -0.21777488480E+04  0.21777488480E+04  0.00000000000E+00 0. -1.
         23    2    1    2    0    0 -0.14438466071E+03 -0.60516174152E+03  0.12810386481E+04  0.14271672733E+04  0.93159777877E+02 0.  0.
         11    1    3    3    0    0 -0.11965828116E+02 -0.22840695644E+03  0.50608017631E+03  0.55536480231E+03  0.00000000000E+00 0.  1.
        -11    1    3    3    0    0 -0.13241883260E+03 -0.37675478508E+03  0.77495847183E+03  0.87180247096E+03  0.00000000000E+00 0. -1.
         22    1    1    2    0    0  0.14438466071E+03  0.60516174152E+03 -0.20587076138E+04  0.21506614570E+04  0.00000000000E+00 0. -1.
<mgrwt>
<rscale>  0 0.34922900E+04</rscale>
<asrwt>0</asrwt>
<pdfrwt beam="1">  1        2 0.21539691E+00 0.34922900E+04</pdfrwt>
<pdfrwt beam="2">  1       -2 0.33503828E+00 0.34922900E+04</pdfrwt>
<totfact> 0.22967707E-01</totfact>
</mgrwt>
</event>
<event>
 6    1  0.6091287E-004  0.2740495E+04  0.7818608E-02  0.8321984E-01
         -2   -1    0    0    0  501 -0.00000000000E+00  0.00000000000E+00  0.80985426557E+03  0.80985426557E+03  0.00000000000E+00 0. -1.
          2   -1    0    0  501    0  0.00000000000E+00 -0.00000000000E+00 -0.23184150296E+04  0.23184150296E+04  0.00000000000E+00 0.  1.
         23    2    1    2    0    0  0.31942749109E+03 -0.37140838160E+03 -0.22140161520E+04  0.22694064351E+04  0.91432699167E+02 0.  0.
         13    1    3    3    0    0  0.16968499282E+03 -0.24687574620E+03 -0.11975366157E+04  0.12344369473E+04  0.00000000000E+00 0.  1.
        -13    1    3    3    0    0  0.14974249827E+03 -0.12453263541E+03 -0.10164795362E+04  0.10349694878E+04  0.00000000000E+00 0. -1.
         22    1    1    2    0    0 -0.31942749109E+03  0.37140838160E+03  0.70545538795E+03  0.85886286005E+03  0.00000000000E+00 0. -1.
<mgrwt>
<rscale>  0 0.27404951E+04</rscale>
<asrwt>0</asrwt>
<pdfrwt beam="1">  1        2 0.35667923E+00 0.27404951E+04</pdfrwt>
<pdfrwt beam="2">  1       -2 0.12459297E+00 0.27404951E+04</pdfrwt>
<totfact> 0.18705037E+00</totfact>
</mgrwt>
</event>
<event>
 6    1  0.6091287E-004  0.4886811E+04  0.7818608E-02  0.7846209E-01
          2   -1    0    0  501    0  0.00000000000E+00  0.00000000000E+00  0.38125677441E+04  0.38125677441E+04  0.00000000000E+00 0.  1.
         -2   -1    0    0    0  501 -0.00000000000E+00 -0.00000000000E+00 -0.15659342517E+04  0.15659342517E+04  0.00000000000E+00 0. -1.
         23    2    1    2    0    0  0.21604680191E+04  0.62402015150E+03  0.73856488923E+02  0.22515253221E+04  0.82995687180E+02 0.  0.
         13    1    3    3    0    0  0.10783175955E+04  0.28191031045E+03  0.66878524393E+02  0.11165639242E+04  0.00000000000E+00 0. -1.
        -13    1    3    3    0    0  0.10821504236E+04  0.34210984105E+03  0.69779645297E+01  0.11349613979E+04  0.00000000000E+00 0.  1.
         22    1    1    2    0    0 -0.21604680191E+04 -0.62402015150E+03  0.21727770035E+04  0.31269766737E+04  0.00000000000E+00 0.  1.
<mgrwt>
<rscale>  0 0.48868110E+04</rscale>
<asrwt>0</asrwt>
<pdfrwt beam="1">  1        2 0.58654888E+00 0.48868110E+04</pdfrwt>
<pdfrwt beam="2">  1       -2 0.24091296E+00 0.48868110E+04</pdfrwt>
<totfact> 0.25714658E-02</totfact>
</mgrwt>
</event>
<event>
 6    1  0.6091287E-004  0.8611248E+03  0.7818608E-02  0.9475526E-01
         -2   -1    0    0    0  501 -0.00000000000E+00  0.00000000000E+00  0.23234071036E+03  0.23234071036E+03  0.00000000000E+00 0. -1.
          2   -1    0    0  501    0  0.00000000000E+00 -0.00000000000E+00 -0.79789714646E+03  0.79789714646E+03  0.00000000000E+00 0.  1.
         23    2    1    2    0    0 -0.14506654953E+03  0.29879331837E+03 -0.60461760583E+03  0.69580172560E+03  0.90861659508E+02 0.  0.
         11    1    3    3    0    0 -0.12742138954E+03  0.18091254676E+03 -0.34121664797E+03  0.40668705529E+03  0.00000000000E+00 0. -1.
        -11    1    3    3    0    0 -0.17645159993E+02  0.11788077161E+03 -0.26340095786E+03  0.28911467031E+03  0.00000000000E+00 0.  1.
         22    1    1    2    0    0  0.14506654953E+03 -0.29879331837E+03  0.39061169730E+02  0.33443613123E+03  0.00000000000E+00 0. -1.
<mgrwt>
<rscale>  0 0.86112482E+03</rscale>
<asrwt>0</asrwt>
<pdfrwt beam="1">  1        2 0.12275341E+00 0.86112482E+03</pdfrwt>
<pdfrwt beam="2">  1       -2 0.35744724E-01 0.86112482E+03</pdfrwt>
<totfact> 0.25515241E+02</totfact>
</mgrwt>
</event>
<event>
 6    1  0.6091287E-004  0.2776120E+04  0.7818608E-02  0.8310721E-01
          2   -1    0    0  501    0  0.00000000000E+00  0.00000000000E+00  0.13667032850E+04  0.13667032850E+04  0.00000000000E+00 0.  1.
         -2   -1    0    0    0  501 -0.00000000000E+00 -0.00000000000E+00 -0.14097504880E+04  0.14097504880E+04  0.00000000000E+00 0. -1.
         23    2    1    2    0    0  0.12151402114E+04 -0.58502462601E+03  0.30070633750E+03  0.13846973134E+04  0.90237475589E+02 0.  0.
         13    1    3    3    0    0  0.83536669457E+03 -0.44788762768E+03  0.20786577881E+03  0.97038601774E+03  0.00000000000E+00 0. -1.
        -13    1    3    3    0    0  0.37977351679E+03 -0.13713699832E+03  0.92840558682E+02  0.41431129565E+03  0.00000000000E+00 0.  1.
         22    1    1    2    0    0 -0.12151402114E+04  0.58502462601E+03 -0.34375354056E+03  0.13917564596E+04  0.00000000000E+00 0. -1.
<mgrwt>
<rscale>  0 0.27761200E+04</rscale>
<asrwt>0</asrwt>
<pdfrwt beam="1">  1        2 0.21026204E+00 0.27761200E+04</pdfrwt>
<pdfrwt beam="2">  1       -2 0.21688469E+00 0.27761200E+04</pdfrwt>
<totfact> 0.13639561E+00</totfact>
</mgrwt>
</event>
<event>
 6    1  0.6091287E-004  0.2076409E+04  0.7818608E-02  0.8571707E-01
          2   -1    0    0  501    0  0.00000000000E+00  0.00000000000E+00  0.22729754033E+04  0.22729754033E+04  0.00000000000E+00 0.  1.
         -2   -1    0    0    0  501 -0.00000000000E+00 -0.00000000000E+00 -0.47421018758E+03  0.47421018758E+03  0.00000000000E+00 0. -1.
         23    2    1    2    0    0 -0.21819560602E+03 -0.10077566653E+04  0.10368786178E+04  0.14651348871E+04  0.91214858933E+02 0.  0.
         11    1    3    3    0    0 -0.25150618009E+02 -0.31360461378E+03  0.32007173358E+03  0.44880543893E+03  0.00000000000E+00 0. -1.
        -11    1    3    3    0    0 -0.19304498801E+03 -0.69415205150E+03  0.71680688421E+03  0.10163294482E+04  0.00000000000E+00 0.  1.
         22    1    1    2    0    0  0.21819560602E+03  0.10077566653E+04  0.76188659791E+03  0.12820507037E+04  0.00000000000E+00 0. -1.
<mgrwt>
<rscale>  0 0.20764085E+04</rscale>
<asrwt>0</asrwt>
<pdfrwt beam="1">  1        2 0.34968852E+00 0.20764085E+04</pdfrwt>
<pdfrwt beam="2">  1       -2 0.72955414E-01 0.20764085E+04</pdfrwt>
<totfact> 0.73611389E+00</totfact>
</mgrwt>
</event>
<event>
 6    1  0.6091287E-004  0.5445955E+04  0.7818608E-02  0.7763170E-01
         -2   -1    0    0    0  501 -0.00000000000E+00  0.00000000000E+00  0.35704552530E+04  0.35704552530E+04  0.00000000000E+00 0. -1.
          2   -1    0    0  501    0  0.00000000000E+00 -0.00000000000E+00 -0.20766555669E+04  0.20766555669E+04  0.00000000000E+00 0.  1.
         23    2    1    2    0    0  0.26003245650E+04 -0.80542874910E+03  0.75632800127E+03  0.28267796692E+04  0.90818167338E+02 0.  0.
         13    1    3    3    0    0  0.10850852652E+04 -0.36324254052E+03  0.27995481890E+03  0.11780194721E+04  0.00000000000E+00 0.  1.
        -13    1    3    3    0    0  0.15152392998E+04 -0.44218620859E+03  0.47637318238E+03  0.16487601971E+04  0.00000000000E+00 0. -1.
         22    1    1    2    0    0 -0.26003245650E+04  0.80542874910E+03  0.73747168482E+03  0.28203311506E+04  0.00000000000E+00 0.  1.
<mgrwt>
<rscale>  0 0.54459547E+04</rscale>
<asrwt>0</asrwt>
<pdfrwt beam="1">  1        2 0.31948547E+00 0.54459547E+04</pdfrwt>
<pdfrwt beam="2">  1       -2 0.54930081E+00 0.54459547E+04</pdfrwt>
<totfact> 0.37142949E-03</totfact>
</mgrwt>
</event>
<event>
 6    1  0.6091287E-004  0.2604684E+04  0.7818608E-02  0.8366612E-01
         -2   -1    0    0    0  501 -0.00000000000E+00  0.00000000000E+00  0.79482526883E+03  0.79482526883E+03  0.00000000000E+00 0. -1.
          2   -1    0    0  501    0  0.00000000000E+00 -0.00000000000E+00 -0.21339215200E+04  0.21339215200E+04  0.00000000000E+00 0.  1.
         23    2    1    2    0    0  0.81137570927E+03 -0.83217591212E+03 -0.12022050870E+02  0.11646682125E+04  0.73893336775E+02 0.  0.
         11    1    3    3    0    0  0.54077194463E+03 -0.50850525380E+03  0.73143503557E+01  0.74233778629E+03  0.00000000000E+00 0. -1.
        -11    1    3    3    0    0  0.27060376464E+03 -0.32367065832E+03 -0.19336401226E+02  0.42233042621E+03  0.00000000000E+00 0.  1.
         22    1    1    2    0    0 -0.81137570927E+03  0.83217591212E+03 -0.13270742003E+04  0.17640785763E+04  0.00000000000E+00 0.  1.
<mgrwt>
<rscale>  0 0.26046840E+04</rscale>
<asrwt>0</asrwt>
<pdfrwt beam="1">  1        2 0.32829562E+00 0.26046840E+04</pdfrwt>
<pdfrwt beam="2">  1       -2 0.12228081E+00 0.26046840E+04</pdfrwt>
<totfact> 0.25195626E+00</totfact>
</mgrwt>
</event>
<event>
 6    1  0.6091287E-004  0.1007973E+04  0.7818608E-02  0.9299843E-01
          2   -1    0    0  501    0  0.00000000000E+00  0.00000000000E+00  0.11257061229E+04  0.11257061229E+04  0.00000000000E+00 0.  1.
         -2   -1    0    0    0  501 -0.00000000000E+00 -0.00000000000E+00 -0.22563814832E+03  0.22563814832E+03  0.00000000000E+00 0. -1.
         23    2    1    2    0    0  0.33240016990E+03  0.37339776112E+03  0.47662557844E+03  0.69619602552E+03  0.87184878085E+02 0.  0.
         13    1    3    3    0    0  0.21748909550E+03  0.29953905646E+03  0.36398261007E+03  0.51914207443E+03  0.00000000000E+00 0. -1.
        -13    1    3    3    0    0  0.11491107441E+03  0.73858704661E+02  0.11264296836E+03  0.17705395109E+03  0.00000000000E+00 0.  1.
         22    1    1    2    0    0 -0.33240016990E+03 -0.37339776112E+03  0.42344239611E+03  0.65514824565E+03  0.00000000000E+00 0. -1.
<mgrwt>
<rscale>  0 0.10079727E+04</rscale>
<asrwt>0</asrwt>
<pdfrwt beam="1">  1        2 0.17318555E+00 0.10079727E+04</pdfrwt>
<pdfrwt beam="2">  1       -2 0.34713562E-01 0.10079727E+04</pdfrwt>
<totfact> 0.16294397E+02</totfact>
</mgrwt>
</event>
<event>
 6    1  0.6091287E-004  0.3956369E+04  0.7818608E-02  0.8013407E-01
         -2   -1    0    0    0  501 -0.00000000000E+00  0.00000000000E+00  0.11140075013E+04  0.11140075013E+04  0.00000000000E+00 0.  1.
          2   -1    0    0  501    0  0.00000000000E+00 -0.00000000000E+00 -0.35127357379E+04  0.35127357379E+04  0.00000000000E+00 0. -1.
         23    2    1    2    0    0  0.28175710993E+03  0.18503995986E+04 -0.19448834830E+04  0.27007783371E+04  0.90918208121E+02 0.  0.
         11    1    3    3    0    0  0.18585385394E+03  0.13747271629E+04 -0.13934716564E+04  0.19662603298E+04  0.00000000000E+00 0. -1.
        -11    1    3    3    0    0  0.95903255991E+02  0.47567243564E+03 -0.55141182662E+03  0.73451800732E+03  0.00000000000E+00 0.  1.
         22    1    1    2    0    0 -0.28175710993E+03 -0.18503995986E+04 -0.45384475361E+03  0.19259649020E+04  0.00000000000E+00 0.  1.
<mgrwt>
<rscale>  0 0.39563690E+04</rscale>
<asrwt>0</asrwt>
<pdfrwt beam="1">  1        2 0.54042088E+00 0.39563690E+04</pdfrwt>
<pdfrwt beam="2">  1       -2 0.17138577E+00 0.39563690E+04</pdfrwt>
<totfact> 0.13112388E-01</totfact>
</mgrwt>
</event>
<event>
 6    1  0.6091287E-004  0.2834570E+04  0.7818608E-02  0.8292615E-01
          2   -1    0    0  501    0  0.00000000000E+00  0.00000000000E+00  0.30795831455E+04  0.30795831455E+04  0.00000000000E+00 0.  1.
         -2   -1    0    0    0  501 -0.00000000000E+00 -0.00000000000E+00 -0.65226257887E+03  0.65226257887E+03  0.00000000000E+00 0. -1.
         23    2    1    2    0    0  0.11540450916E+04 -0.13138240927E+03  0.22808179807E+04  0.25611431923E+04  0.90787553412E+02 0.  0.
         11    1    3    3    0    0  0.46590367657E+03 -0.85386800527E+02  0.99726588342E+03  0.11040364051E+04  0.00000000000E+00 0. -1.
        -11    1    3    3    0    0  0.68814141499E+03 -0.45995608747E+02  0.12835520973E+04  0.14571067872E+04  0.00000000000E+00 0.  1.
         22    1    1    2    0    0 -0.11540450916E+04  0.13138240927E+03  0.14650258593E+03  0.11707025320E+04  0.00000000000E+00 0. -1.
<mgrwt>
<rscale>  0 0.28345701E+04</rscale>
<asrwt>0</asrwt>
<pdfrwt beam="1">  1        2 0.47378201E+00 0.28345701E+04</pdfrwt>
<pdfrwt beam="2">  1       -2 0.10034809E+00 0.28345701E+04</pdfrwt>
<totfact> 0.11017915E+00</totfact>
</mgrwt>
</event>
<event>
 6    1  0.6091287E-004  0.2233977E+04  0.7818608E-02  0.8504418E-01
          2   -1    0    0  501    0  0.00000000000E+00  0.00000000000E+00  0.98819302027E+03  0.98819302027E+03  0.00000000000E+00 0.  1.
         -2   -1    0    0    0  501 -0.00000000000E+00 -0.00000000000E+00 -0.12625702140E+04  0.12625702140E+04  0.00000000000E+00 0. -1.
         23    2    1    2    0    0 -0.99789935995E+03 -0.48692073686E+03 -0.24042145946E+03  0.11398861356E+04  0.92967668390E+02 0.  0.
         11    1    3    3    0    0 -0.35447930821E+03 -0.22095381444E+03 -0.10330924977E+03  0.43028940163E+03  0.00000000000E+00 0. -1.
        -11    1    3    3    0    0 -0.64342005174E+03 -0.26596692242E+03 -0.13711220970E+03  0.70959673396E+03  0.00000000000E+00 0.  1.
         22    1    1    2    0    0  0.99789935995E+03  0.48692073686E+03 -0.33955734318E+02  0.11108770987E+04  0.00000000000E+00 0. -1.
<mgrwt>
<rscale>  0 0.22339768E+04</rscale>
<asrwt>0</asrwt>
<pdfrwt beam="1">  1        2 0.15202970E+00 0.22339768E+04</pdfrwt>
<pdfrwt beam="2">  1       -2 0.19424157E+00 0.22339768E+04</pdfrwt>
<totfact> 0.33918033E+00</totfact>
</mgrwt>
</event>
<event>
 6    1  0.6091287E-004  0.7107118E+04  0.7818608E-02  0.7566488E-01
          2   -1    0    0  501    0  0.00000000000E+00  0.00000000000E+00  0.36222262269E+04  0.36222262269E+04  0.00000000000E+00 0.  1.
         -2   -1    0    0    0  501 -0.00000000000E+00 -0.00000000000E+00 -0.34861938927E+04  0.34861938927E+04  0.00000000000E+00 0. -1.
         23    2    1    2    0    0  0.14679697082E+03  0.91524909917E+03 -0.33625042083E+04  0.34891676825E+04  0.92877886572E+02 0.  0.
         13    1    3    3    0    0  0.24168417656E+02  0.41558190677E+03 -0.14318713754E+04  0.14911566213E+04  0.00000000000E+00 0. -1.
        -13    1    3    3    0    0  0.12262855317E+03  0.49966719240E+03 -0.19306328329E+04  0.19980110612E+04  0.00000000000E+00 0.  1.
         22    1    1    2    0    0 -0.14679697082E+03 -0.91524909917E+03  0.34985365425E+04  0.36192524371E+04  0.00000000000E+00 0.  1.
<mgrwt>
<rscale>  0 0.71071184E+04</rscale>
<asrwt>0</asrwt>
<pdfrwt beam="1">  1        2 0.55726557E+00 0.71071184E+04</pdfrwt>
<pdfrwt beam="2">  1       -2 0.53633752E+00 0.71071184E+04</pdfrwt>
<totfact> 0.42366744E-04</totfact>
</mgrwt>
</event>
<event>
 6    1  0.6091287E-004  0.1102692E+04  0.7818608E-02  0.9202572E-01
          4   -1    0    0  501    0  0.00000000000E+00  0.00000000000E+00  0.30511651379E+03  0.30511651379E+03  0.00000000000E+00 0.  1.
         -4   -1    0    0    0  501 -0.00000000000E+00 -0.00000000000E+00 -0.99628229819E+03  0.99628229819E+03  0.00000000000E+00 0. -1.
         23    2    1    2    0    0 -0.40541299717E+03 -0.63185998898E+01  0.86194027812E+02  0.42465033001E+03  0.92189312662E+02 0.  0.
         13    1    3    3    0    0 -0.24615070656E+03  0.34941839706E+02  0.75292856072E+02  0.25976935285E+03  0.00000000000E+00 0. -1.
        -13    1    3    3    0    0 -0.15926229061E+03 -0.41260439596E+02  0.10901171740E+02  0.16488097716E+03  0.00000000000E+00 0.  1.
         22    1    1    2    0    0  0.40541299717E+03  0.63185998898E+01 -0.77735981222E+03  0.87674848197E+03  0.00000000000E+00 0. -1.
<mgrwt>
<rscale>  0 0.11026916E+04</rscale>
<asrwt>0</asrwt>
<pdfrwt beam="1">  1        4 0.46941003E-01 0.11026916E+04</pdfrwt>
<pdfrwt beam="2">  1       -4 0.15327420E+00 0.11026916E+04</pdfrwt>
<totfact> 0.24462182E+00</totfact>
</mgrwt>
</event>
<event>
 6    1  0.6091287E-004  0.2362122E+04  0.7818608E-02  0.8453822E-01
          2   -1    0    0  501    0  0.00000000000E+00  0.00000000000E+00  0.15564270691E+04  0.15564270691E+04  0.00000000000E+00 0.  1.
         -2   -1    0    0    0  501 -0.00000000000E+00 -0.00000000000E+00 -0.89622246106E+03  0.89622246106E+03  0.00000000000E+00 0. -1.
         23    2    1    2    0    0 -0.85288455373E+03  0.58976917239E+03  0.91383234394E+03  0.13851446042E+04  0.91083933227E+02 0.  0.
         13    1    3    3    0    0 -0.71384087902E+03  0.47575811854E+03  0.79520207009E+03  0.11697268571E+04  0.00000000000E+00 0. -1.
        -13    1    3    3    0    0 -0.13904367472E+03  0.11401105385E+03  0.11863027385E+03  0.21541774707E+03  0.00000000000E+00 0.  1.
         22    1    1    2    0    0  0.85288455373E+03 -0.58976917239E+03 -0.25362773587E+03  0.10675049260E+04  0.00000000000E+00 0. -1.
<mgrwt>
<rscale>  0 0.23621218E+04</rscale>
<asrwt>0</asrwt>
<pdfrwt beam="1">  1        2 0.23945032E+00 0.23621218E+04</pdfrwt>
<pdfrwt beam="2">  1       -2 0.13788038E+00 0.23621218E+04</pdfrwt>
<totfact> 0.39771208E+00</totfact>
</mgrwt>
</event>
<event>
 6    1  0.6091287E-004  0.5815741E+04  0.7818608E-02  0.7713677E-01
          2   -1    0    0  501    0  0.00000000000E+00  0.00000000000E+00  0.15149467261E+04  0.15149467261E+04  0.00000000000E+00 0.  1.
         -2   -1    0    0    0  501 -0.00000000000E+00 -0.00000000000E+00 -0.55815227083E+04  0.55815227083E+04  0.00000000000E+00 0. -1.
         23    2    1    2    0    0  0.17770576581E+03 -0.20617849320E+04  0.45768080356E+03  0.21213879368E+04  0.90986897087E+02 0.  0.
         11    1    3    3    0    0  0.48101113119E+02 -0.26824646058E+03  0.41854784231E+02  0.27572033596E+03  0.00000000000E+00 0. -1.
        -11    1    3    3    0    0  0.12960465269E+03 -0.17935384714E+04  0.41582601933E+03  0.18456676008E+04  0.00000000000E+00 0.  1.
         22    1    1    2    0    0 -0.17770576581E+03  0.20617849320E+04 -0.45242567857E+04  0.49750814976E+04  0.00000000000E+00 0. -1.
<mgrwt>
<rscale>  0 0.58157406E+04</rscale>
<asrwt>0</asrwt>
<pdfrwt beam="1">  1        2 0.23306873E+00 0.58157406E+04</pdfrwt>
<pdfrwt beam="2">  1       -2 0.85869578E+00 0.58157406E+04</pdfrwt>
<totfact> 0.22917796E-04</totfact>
</mgrwt>
</event>
<event>
 6    1  0.6091287E-004  0.5931927E+03  0.7818608E-02  0.9919631E-01
         -2   -1    0    0    0  501 -0.00000000000E+00  0.00000000000E+00  0.11246107773E+03  0.11246107773E+03  0.00000000000E+00 0. -1.
          2   -1    0    0  501    0  0.00000000000E+00 -0.00000000000E+00 -0.78222084284E+03  0.78222084284E+03  0.00000000000E+00 0.  1.
         23    2    1    2    0    0  0.20876855415E+03 -0.19366725905E+03 -0.26328590764E+03  0.39838330760E+03  0.91095961391E+02 0.  0.
         13    1    3    3    0    0  0.72863084178E+02 -0.29179454312E+02 -0.11224218459E+03  0.13696268686E+03  0.00000000000E+00 0.  1.
        -13    1    3    3    0    0  0.13590546997E+03 -0.16448780474E+03 -0.15104372305E+03  0.26142062074E+03  0.00000000000E+00 0. -1.
         22    1    1    2    0    0 -0.20876855415E+03  0.19366725905E+03 -0.40647385747E+03  0.49629861297E+03  0.00000000000E+00 0.  1.
<mgrwt>
<rscale>  0 0.59319271E+03</rscale>
<asrwt>0</asrwt>
<pdfrwt beam="1">  1        2 0.12034167E+00 0.59319271E+03</pdfrwt>
<pdfrwt beam="2">  1       -2 0.17301704E-01 0.59319271E+03</pdfrwt>
<totfact> 0.97941584E+02</totfact>
</mgrwt>
</event>
<event>
 6    1  0.6091287E-004  0.2194778E+04  0.7818608E-02  0.8520605E-01
         -1   -1    0    0    0  501 -0.00000000000E+00  0.00000000000E+00  0.12427354598E+04  0.12427354598E+04  0.00000000000E+00 0. -1.
          1   -1    0    0  501    0  0.00000000000E+00 -0.00000000000E+00 -0.96904170706E+03  0.96904170706E+03  0.00000000000E+00 0.  1.
         23    2    1    2    0    0 -0.34800616333E+02 -0.94215682747E+03 -0.42392909746E+03  0.10389394920E+04  0.10396546519E+03 0.  0.
         11    1    3    3    0    0  0.18778509582E+02 -0.68138803223E+03 -0.28743379853E+03  0.73977055323E+03  0.00000000000E+00 0. -1.
        -11    1    3    3    0    0 -0.53579125915E+02 -0.26076879524E+03 -0.13649529892E+03  0.29916893878E+03  0.00000000000E+00 0.  1.
         22    1    1    2    0    0  0.34800616333E+02  0.94215682747E+03  0.69762285020E+03  0.11728376749E+04  0.00000000000E+00 0. -1.
<mgrwt>
<rscale>  0 0.21947779E+04</rscale>
<asrwt>0</asrwt>
<pdfrwt beam="1">  1        1 0.14908334E+00 0.21947779E+04</pdfrwt>
<pdfrwt beam="2">  1       -1 0.19119007E+00 0.21947779E+04</pdfrwt>
<totfact> 0.25304749E+00</totfact>
</mgrwt>
</event>
<event>
 6    1  0.6091287E-004  0.5622212E+04  0.7818608E-02  0.7739093E-01
         -2   -1    0    0    0  501 -0.00000000000E+00  0.00000000000E+00  0.17939428981E+04  0.17939428981E+04  0.00000000000E+00 0. -1.
          2   -1    0    0  501    0  0.00000000000E+00 -0.00000000000E+00 -0.44049985429E+04  0.44049985429E+04  0.00000000000E+00 0.  1.
         23    2    1    2    0    0  0.31322577311E+03 -0.80661857623E+03  0.16422740203E+04  0.18584855717E+04  0.90336870082E+02 0.  0.
         13    1    3    3    0    0  0.19707022804E+03 -0.48540256625E+03  0.10850925537E+04  0.12049390757E+04  0.00000000000E+00 0.  1.
        -13    1    3    3    0    0  0.11615554507E+03 -0.32121600999E+03  0.55718146662E+03  0.65354649602E+03  0.00000000000E+00 0. -1.
         22    1    1    2    0    0 -0.31322577311E+03  0.80661857623E+03 -0.42533296651E+04  0.43404558692E+04  0.00000000000E+00 0.  1.
<mgrwt>
<rscale>  0 0.56222116E+04</rscale>
<asrwt>0</asrwt>
<pdfrwt beam="1">  1        2 0.67769208E+00 0.56222116E+04</pdfrwt>
<pdfrwt beam="2">  1       -2 0.27599122E+00 0.56222116E+04</pdfrwt>
<totfact> 0.46428346E-03</totfact>
</mgrwt>
</event>
<event>
 6    1  0.6091287E-004  0.4376502E+04  0.7818608E-02  0.7932622E-01
          2   -1    0    0  501    0  0.00000000000E+00  0.00000000000E+00  0.19755018374E+04  0.19755018374E+04  0.00000000000E+00 0.  1.
         -2   -1    0    0    0  501 -0.00000000000E+00 -0.00000000000E+00 -0.24239118759E+04  0.24239118759E+04  0.00000000000E+00 0. -1.
         23    2    1    2    0    0  0.15729823252E+04 -0.12331858724E+04 -0.11187967341E+04  0.22912298711E+04  0.54839755130E+02 0.  0.
         11    1    3    3    0    0  0.10714920478E+04 -0.85251166778E+03 -0.79319627310E+03  0.15824132456E+04  0.00000000000E+00 0. -1.
        -11    1    3    3    0    0  0.50149027737E+03 -0.38067420459E+03 -0.32560046102E+03  0.70881662548E+03  0.00000000000E+00 0.  1.
         22    1    1    2    0    0 -0.15729823252E+04  0.12331858724E+04  0.67038669564E+03  0.21081838423E+04  0.00000000000E+00 0. -1.
<mgrwt>
<rscale>  0 0.43765020E+04</rscale>
<asrwt>0</asrwt>
<pdfrwt beam="1">  1        2 0.30392336E+00 0.43765020E+04</pdfrwt>
<pdfrwt beam="2">  1       -2 0.37290952E+00 0.43765020E+04</pdfrwt>
<totfact> 0.58673379E-02</totfact>
</mgrwt>
</event>
<event>
 6    1  0.6091287E-004  0.2718120E+04  0.7818608E-02  0.8329149E-01
         -2   -1    0    0    0  501 -0.00000000000E+00  0.00000000000E+00  0.23359774541E+04  0.23359774541E+04  0.00000000000E+00 0. -1.
          2   -1    0    0  501    0  0.00000000000E+00 -0.00000000000E+00 -0.79069445949E+03  0.79069445949E+03  0.00000000000E+00 0.  1.
         23    2    1    2    0    0 -0.26369581684E+03 -0.16034349051E+03  0.22942010659E+04  0.23166572246E+04  0.91085930819E+02 0.  0.
         13    1    3    3    0    0 -0.90602750664E+02 -0.10381552297E+03  0.86567109083E+03  0.87656885567E+03  0.00000000000E+00 0. -1.
        -13    1    3    3    0    0 -0.17309306617E+03 -0.56527967535E+02  0.14285299751E+04  0.14400883690E+04  0.00000000000E+00 0.  1.
         22    1    1    2    0    0  0.26369581684E+03  0.16034349051E+03 -0.74891807132E+03  0.81001468895E+03  0.00000000000E+00 0.  1.
<mgrwt>
<rscale>  0 0.27181203E+04</rscale>
<asrwt>0</asrwt>
<pdfrwt beam="1">  1        2 0.12164530E+00 0.27181203E+04</pdfrwt>
<pdfrwt beam="2">  1       -2 0.35938114E+00 0.27181203E+04</pdfrwt>
<totfact> 0.41590652E-01</totfact>
</mgrwt>
</event>
<event>
 6    1  0.6091287E-004  0.3137406E+04  0.7818608E-02  0.8205546E-01
          2   -1    0    0  501    0  0.00000000000E+00  0.00000000000E+00  0.37547783930E+04  0.37547783930E+04  0.00000000000E+00 0.  1.
         -2   -1    0    0    0  501 -0.00000000000E+00 -0.00000000000E+00 -0.65538615783E+03  0.65538615783E+03  0.00000000000E+00 0. -1.
         23    2    1    2    0    0  0.11161039125E+04 -0.11001541076E+04  0.15405794662E+04  0.21997518625E+04  0.97448247763E+02 0.  0.
         13    1    3    3    0    0  0.16131152531E+03 -0.17501092876E+03  0.18938164627E+03  0.30416383961E+03  0.00000000000E+00 0. -1.
        -13    1    3    3    0    0  0.95479238716E+03 -0.92514317886E+03  0.13511978199E+04  0.18955880229E+04  0.00000000000E+00 0.  1.
         22    1    1    2    0    0 -0.11161039125E+04  0.11001541076E+04  0.15588127689E+04  0.22104126883E+04  0.00000000000E+00 0.  1.
<mgrwt>
<rscale>  0 0.31374064E+04</rscale>
<asrwt>0</asrwt>
<pdfrwt beam="1">  1        2 0.57765820E+00 0.31374064E+04</pdfrwt>
<pdfrwt beam="2">  1       -2 0.10082864E+00 0.31374064E+04</pdfrwt>
<totfact> 0.36379977E-01</totfact>
</mgrwt>
</event>
<event>
 6    1  0.6091287E-004  0.2451390E+04  0.7818608E-02  0.8420511E-01
         -1   -1    0    0    0  501 -0.00000000000E+00  0.00000000000E+00  0.49156056608E+03  0.49156056608E+03  0.00000000000E+00 0.  1.
          1   -1    0    0  501    0  0.00000000000E+00 -0.00000000000E+00 -0.30562421530E+04  0.30562421530E+04  0.00000000000E+00 0. -1.
         23    2    1    2    0    0  0.66044037186E+03  0.10280566253E+04 -0.13949172845E+04  0.18562264031E+04  0.81855478863E+02 0.  0.
         11    1    3    3    0    0  0.31282943098E+03  0.55952027395E+03 -0.74776489806E+03  0.98492514062E+03  0.00000000000E+00 0. -1.
        -11    1    3    3    0    0  0.34761094088E+03  0.46853635134E+03 -0.64715238640E+03  0.87130126246E+03  0.00000000000E+00 0.  1.
         22    1    1    2    0    0 -0.66044037186E+03 -0.10280566253E+04 -0.11697643025E+04  0.16915763160E+04  0.00000000000E+00 0.  1.
<mgrwt>
<rscale>  0 0.24513899E+04</rscale>
<asrwt>0</asrwt>
<pdfrwt beam="1">  1        1 0.47019109E+00 0.24513899E+04</pdfrwt>
<pdfrwt beam="2">  1       -1 0.75624705E-01 0.24513899E+04</pdfrwt>
<totfact> 0.85230852E-01</totfact>
</mgrwt>
</event>
<event>
 6    1  0.6091287E-004  0.3502517E+04  0.7818608E-02  0.8113194E-01
         -2   -1    0    0    0  501 -0.00000000000E+00  0.00000000000E+00  0.12322036415E+04  0.12322036415E+04  0.00000000000E+00 0. -1.
          2   -1    0    0  501    0  0.00000000000E+00 -0.00000000000E+00 -0.24889599078E+04  0.24889599078E+04  0.00000000000E+00 0.  1.
         23    2    1    2    0    0  0.10898508230E+04  0.68378643323E+03  0.63167146408E+03  0.14361038137E+04  0.89702968001E+02 0.  0.
         13    1    3    3    0    0  0.64598954780E+03  0.42630166015E+03  0.42430044150E+03  0.88264741883E+03  0.00000000000E+00 0. -1.
        -13    1    3    3    0    0  0.44386127522E+03  0.25748477307E+03  0.20737102258E+03  0.55345639486E+03  0.00000000000E+00 0.  1.
         22    1    1    2    0    0 -0.10898508230E+04 -0.68378643323E+03 -0.18884277303E+04  0.22850597356E+04  0.00000000000E+00 0.  1.
<mgrwt>
<rscale>  0 0.35025165E+04</rscale>
<asrwt>0</asrwt>
<pdfrwt beam="1">  1        2 0.38291690E+00 0.35025165E+04</pdfrwt>
<pdfrwt beam="2">  1       -2 0.18956979E+00 0.35025165E+04</pdfrwt>
<totfact> 0.45282271E-01</totfact>
</mgrwt>
</event>
<event>
 6    1  0.6091287E-004  0.2329101E+04  0.7818608E-02  0.8466535E-01
         -2   -1    0    0    0  501 -0.00000000000E+00  0.00000000000E+00  0.32523519886E+03  0.32523519886E+03  0.00000000000E+00 0. -1.
          2   -1    0    0  501    0  0.00000000000E+00 -0.00000000000E+00 -0.41698369724E+04  0.41698369724E+04  0.00000000000E+00 0.  1.
         23    2    1    2    0    0 -0.48911625290E+03  0.95321066784E+03 -0.10531524951E+04  0.15050831478E+04  0.91103335880E+02 0.  0.
         11    1    3    3    0    0 -0.29369073014E+03  0.55541029439E+03 -0.67876214042E+03  0.92490695930E+03  0.00000000000E+00 0.  1.
        -11    1    3    3    0    0 -0.19542552276E+03  0.39780037345E+03 -0.37439035465E+03  0.58017618851E+03  0.00000000000E+00 0. -1.
         22    1    1    2    0    0  0.48911625290E+03 -0.95321066784E+03 -0.27914492785E+04  0.29899890235E+04  0.00000000000E+00 0.  1.
<mgrwt>
<rscale>  0 0.23291009E+04</rscale>
<asrwt>0</asrwt>
<pdfrwt beam="1">  1        2 0.64151333E+00 0.23291009E+04</pdfrwt>
<pdfrwt beam="2">  1       -2 0.50036188E-01 0.23291009E+04</pdfrwt>
<totfact> 0.84943190E-01</totfact>
</mgrwt>
</event>
<event>
 6    1  0.6091287E-004  0.2174171E+04  0.7818608E-02  0.8529256E-01
          2   -1    0    0  501    0  0.00000000000E+00  0.00000000000E+00  0.17457534539E+04  0.17457534539E+04  0.00000000000E+00 0.  1.
         -2   -1    0    0    0  501 -0.00000000000E+00 -0.00000000000E+00 -0.67693128915E+03  0.67693128915E+03  0.00000000000E+00 0. -1.
         23    2    1    2    0    0  0.20346293480E+03 -0.10595033832E+04  0.66544664900E+03  0.12708790339E+04  0.91486017689E+02 0.  0.
         11    1    3    3    0    0  0.10503603289E+02 -0.22948331098E+03  0.12091978367E+03  0.25960452574E+03  0.00000000000E+00 0.  1.
        -11    1    3    3    0    0  0.19295933151E+03 -0.83002007220E+03  0.54452686533E+03  0.10112745082E+04  0.00000000000E+00 0. -1.
         22    1    1    2    0    0 -0.20346293480E+03  0.10595033832E+04  0.40337551575E+03  0.11518057091E+04  0.00000000000E+00 0.  1.
<mgrwt>
<rscale>  0 0.21741712E+04</rscale>
<asrwt>0</asrwt>
<pdfrwt beam="1">  1        2 0.26857745E+00 0.21741712E+04</pdfrwt>
<pdfrwt beam="2">  1       -2 0.10414328E+00 0.21741712E+04</pdfrwt>
<totfact> 0.63513330E+00</totfact>
</mgrwt>
</event>
<event>
 6    1  0.6091287E-004  0.2233368E+04  0.7818608E-02  0.8504666E-01
         -2   -1    0    0    0  501 -0.00000000000E+00  0.00000000000E+00  0.79604020414E+03  0.79604020414E+03  0.00000000000E+00 0. -1.
          2   -1    0    0  501    0  0.00000000000E+00 -0.00000000000E+00 -0.15664830382E+04  0.15664830382E+04  0.00000000000E+00 0.  1.
         23    2    1    2    0    0  0.85305707828E+03 -0.66442435847E+03 -0.67188305803E+03  0.12767607746E+04  0.97596746341E+02 0.  0.
         13    1    3    3    0    0  0.31784857501E+03 -0.26964594994E+03 -0.20742515135E+03  0.46557689844E+03  0.00000000000E+00 0. -1.
        -13    1    3    3    0    0  0.53520850327E+03 -0.39477840853E+03 -0.46445790668E+03  0.81118387613E+03  0.00000000000E+00 0.  1.
         22    1    1    2    0    0 -0.85305707828E+03  0.66442435847E+03 -0.98559776007E+02  0.10857624677E+04  0.00000000000E+00 0. -1.
<mgrwt>
<rscale>  0 0.22333683E+04</rscale>
<asrwt>0</asrwt>
<pdfrwt beam="1">  1        2 0.24099739E+00 0.22333683E+04</pdfrwt>
<pdfrwt beam="2">  1       -2 0.12246773E+00 0.22333683E+04</pdfrwt>
<totfact> 0.53584266E+00</totfact>
</mgrwt>
</event>
<event>
 6    1  0.6091287E-004  0.3445163E+04  0.7818608E-02  0.8126910E-01
         -2   -1    0    0    0  501 -0.00000000000E+00  0.00000000000E+00  0.12429550946E+04  0.12429550946E+04  0.00000000000E+00 0. -1.
          2   -1    0    0  501    0  0.00000000000E+00 -0.00000000000E+00 -0.23872847490E+04  0.23872847490E+04  0.00000000000E+00 0.  1.
         23    2    1    2    0    0  0.16443509986E+04  0.36395752374E+02 -0.37286605332E+02  0.16476256174E+04  0.89805493256E+02 0.  0.
         11    1    3    3    0    0  0.59581899408E+03 -0.11304096217E+02  0.22042657739E+02  0.59633374469E+03  0.00000000000E+00 0.  1.
        -11    1    3    3    0    0  0.10485320045E+04  0.47699848591E+02 -0.59329263070E+02  0.10512918727E+04  0.00000000000E+00 0. -1.
         22    1    1    2    0    0 -0.16443509986E+04 -0.36395752374E+02 -0.11070430491E+04  0.19826142262E+04  0.00000000000E+00 0.  1.
<mgrwt>
<rscale>  0 0.34451634E+04</rscale>
<asrwt>0</asrwt>
<pdfrwt beam="1">  1        2 0.36727457E+00 0.34451634E+04</pdfrwt>
<pdfrwt beam="2">  1       -2 0.19122386E+00 0.34451634E+04</pdfrwt>
<totfact> 0.50750806E-01</totfact>
</mgrwt>
</event>
<event>
 6    1  0.6091287E-004  0.3434515E+04  0.7818608E-02  0.8129487E-01
          1   -1    0    0  501    0  0.00000000000E+00  0.00000000000E+00  0.10649948384E+04  0.10649948384E+04  0.00000000000E+00 0.  1.
         -1   -1    0    0    0  501 -0.00000000000E+00 -0.00000000000E+00 -0.27690027853E+04  0.27690027853E+04  0.00000000000E+00 0. -1.
         23    2    1    2    0    0 -0.10143555471E+04  0.46096768422E+03 -0.23095367174E+04  0.25658992545E+04  0.92036696616E+02 0.  0.
         13    1    3    3    0    0 -0.54516672546E+03  0.27260207651E+03 -0.13532891065E+04  0.14842203530E+04  0.00000000000E+00 0.  1.
        -13    1    3    3    0    0 -0.46918882169E+03  0.18836560771E+03 -0.95624761094E+03  0.10816789015E+04  0.00000000000E+00 0. -1.
         22    1    1    2    0    0  0.10143555471E+04 -0.46096768422E+03  0.60552877051E+03  0.12680983692E+04  0.00000000000E+00 0.  1.
<mgrwt>
<rscale>  0 0.34345152E+04</rscale>
<asrwt>0</asrwt>
<pdfrwt beam="1">  1        1 0.16384536E+00 0.34345152E+04</pdfrwt>
<pdfrwt beam="2">  1       -1 0.42600043E+00 0.34345152E+04</pdfrwt>
<totfact> 0.52355164E-02</totfact>
</mgrwt>
</event>
<event>
 6    1  0.6091287E-004  0.1675013E+04  0.7818608E-02  0.8775745E-01
         -2   -1    0    0    0  501 -0.00000000000E+00  0.00000000000E+00  0.99339532024E+03  0.99339532024E+03  0.00000000000E+00 0. -1.
          2   -1    0    0  501    0  0.00000000000E+00 -0.00000000000E+00 -0.70608087892E+03  0.70608087892E+03  0.00000000000E+00 0.  1.
         23    2    1    2    0    0  0.28565636572E+03 -0.42056508429E+03 -0.52760304754E+03  0.73897369366E+03  0.96138414564E+02 0.  0.
         11    1    3    3    0    0  0.13573777742E+03 -0.18847191964E+03 -0.30952473311E+03  0.38697799565E+03  0.00000000000E+00 0.  1.
        -11    1    3    3    0    0  0.14991858829E+03 -0.23209316465E+03 -0.21807831443E+03  0.35199569801E+03  0.00000000000E+00 0. -1.
         22    1    1    2    0    0 -0.28565636572E+03  0.42056508429E+03  0.81491748887E+03  0.96050250549E+03  0.00000000000E+00 0. -1.
<mgrwt>
<rscale>  0 0.16750134E+04</rscale>
<asrwt>0</asrwt>
<pdfrwt beam="1">  1        2 0.10862783E+00 0.16750134E+04</pdfrwt>
<pdfrwt beam="2">  1       -2 0.15283005E+00 0.16750134E+04</pdfrwt>
<totfact> 0.11008182E+01</totfact>
</mgrwt>
</event>
<event>
 6    1  0.6091287E-004  0.3352794E+04  0.7818608E-02  0.8149590E-01
          2   -1    0    0  501    0  0.00000000000E+00  0.00000000000E+00  0.14681999291E+04  0.14681999291E+04  0.00000000000E+00 0. -1.
         -2   -1    0    0    0  501 -0.00000000000E+00 -0.00000000000E+00 -0.19141171988E+04  0.19141171988E+04  0.00000000000E+00 0.  1.
         23    2    1    2    0    0  0.76296766542E+03 -0.13551393174E+04 -0.85108213614E+03  0.17752450085E+04  0.92907533062E+02 0.  0.
         11    1    3    3    0    0  0.60323332172E+03 -0.99228351384E+03 -0.62149416013E+03  0.13171074380E+04  0.00000000000E+00 0.  1.
        -11    1    3    3    0    0  0.15973434371E+03 -0.36285580356E+03 -0.22958797601E+03  0.45813757046E+03  0.00000000000E+00 0. -1.
         22    1    1    2    0    0 -0.76296766542E+03  0.13551393174E+04  0.40516486648E+03  0.16070721194E+04  0.00000000000E+00 0. -1.
<mgrwt>
<rscale>  0 0.33527939E+04</rscale>
<asrwt>0</asrwt>
<pdfrwt beam="1">  1        2 0.22587691E+00 0.33527939E+04</pdfrwt>
<pdfrwt beam="2">  1       -2 0.29447957E+00 0.33527939E+04</pdfrwt>
<totfact> 0.37798302E-01</totfact>
</mgrwt>
</event>
<event>
 6    1  0.6091287E-004  0.1323614E+04  0.7818608E-02  0.9011046E-01
         -2   -1    0    0    0  501 -0.00000000000E+00  0.00000000000E+00  0.85979420562E+03  0.85979420562E+03  0.00000000000E+00 0. -1.
          2   -1    0    0  501    0  0.00000000000E+00 -0.00000000000E+00 -0.50941063440E+03  0.50941063440E+03  0.00000000000E+00 0.  1.
         23    2    1    2    0    0 -0.26448884357E+03 -0.42027289227E+03 -0.27167941855E+03  0.57324880130E+03  0.90668789502E+02 0.  0.
         13    1    3    3    0    0 -0.12151034064E+03 -0.13882754246E+03 -0.63548755711E+02  0.19513147819E+03  0.00000000000E+00 0.  1.
        -13    1    3    3    0    0 -0.14297850292E+03 -0.28144534981E+03 -0.20813066283E+03  0.37811732311E+03  0.00000000000E+00 0. -1.
         22    1    1    2    0    0  0.26448884357E+03  0.42027289227E+03  0.62206298976E+03  0.79595603872E+03  0.00000000000E+00 0. -1.
<mgrwt>
<rscale>  0 0.13236137E+04</rscale>
<asrwt>0</asrwt>
<pdfrwt beam="1">  1        2 0.78370867E-01 0.13236137E+04</pdfrwt>
<pdfrwt beam="2">  1       -2 0.13227603E+00 0.13236137E+04</pdfrwt>
<totfact> 0.24489740E+01</totfact>
</mgrwt>
</event>
<event>
 6    1  0.6091287E-004  0.3878379E+04  0.7818608E-02  0.8029541E-01
          2   -1    0    0  501    0  0.00000000000E+00  0.00000000000E+00  0.45858108235E+04  0.45858108235E+04  0.00000000000E+00 0.  1.
         -2   -1    0    0    0  501 -0.00000000000E+00 -0.00000000000E+00 -0.82001979609E+03  0.82001979609E+03  0.00000000000E+00 0. -1.
         23    2    1    2    0    0  0.46257183252E+02  0.18606668346E+04  0.26371205446E+04  0.32291088057E+04  0.92293637474E+02 0.  0.
         11    1    3    3    0    0 -0.22229898391E+01  0.13911801574E+04  0.19410811895E+04  0.23881338648E+04  0.00000000000E+00 0. -1.
        -11    1    3    3    0    0  0.48480173091E+02  0.46948667722E+03  0.69603935515E+03  0.84097494087E+03  0.00000000000E+00 0.  1.
         22    1    1    2    0    0 -0.46257183252E+02 -0.18606668346E+04  0.11286704828E+04  0.21767218139E+04  0.00000000000E+00 0. -1.
<mgrwt>
<rscale>  0 0.38783789E+04</rscale>
<asrwt>0</asrwt>
<pdfrwt beam="1">  1        2 0.70550934E+00 0.38783789E+04</pdfrwt>
<pdfrwt beam="2">  1       -2 0.12615689E+00 0.38783789E+04</pdfrwt>
<totfact> 0.37435785E-02</totfact>
</mgrwt>
</event>
<event>
 6    1  0.6091287E-004  0.6734361E+03  0.7818608E-02  0.9763770E-01
         -2   -1    0    0    0  501 -0.00000000000E+00  0.00000000000E+00  0.42708140722E+03  0.42708140722E+03  0.00000000000E+00 0. -1.
          2   -1    0    0  501    0  0.00000000000E+00 -0.00000000000E+00 -0.26547409346E+03  0.26547409346E+03  0.00000000000E+00 0.  1.
         23    2    1    2    0    0 -0.26001984587E+02  0.31057381706E+03 -0.31165603127E+02  0.32609459345E+03  0.90742437775E+02 0.  0.
         11    1    3    3    0    0  0.10654553858E+02  0.18192159891E+03  0.19008768592E+02  0.18322205367E+03  0.00000000000E+00 0. -1.
        -11    1    3    3    0    0 -0.36656538445E+02  0.12865221815E+03 -0.50174371719E+02  0.14287253978E+03  0.00000000000E+00 0.  1.
         22    1    1    2    0    0  0.26001984587E+02 -0.31057381706E+03  0.19277291688E+03  0.36646090723E+03  0.00000000000E+00 0. -1.
<mgrwt>
<rscale>  0 0.67343611E+03</rscale>
<asrwt>0</asrwt>
<pdfrwt beam="1">  1        2 0.40842168E-01 0.67343611E+03</pdfrwt>
<pdfrwt beam="2">  1       -2 0.65704832E-01 0.67343611E+03</pdfrwt>
<totfact> 0.27111565E+02</totfact>
</mgrwt>
</event>
<event>
 6    1  0.6091287E-004  0.1847534E+04  0.7818608E-02  0.8681422E-01
          2   -1    0    0  501    0  0.00000000000E+00  0.00000000000E+00  0.32566104016E+04  0.32566104016E+04  0.00000000000E+00 0.  1.
         -2   -1    0    0    0  501 -0.00000000000E+00 -0.00000000000E+00 -0.26203499128E+03  0.26203499128E+03  0.00000000000E+00 0. -1.
         23    2    1    2    0    0  0.71652615260E+03  0.53636486911E+03  0.10824841958E+04  0.14074396206E+04  0.89539105023E+02 0.  0.
         13    1    3    3    0    0  0.64307777247E+03  0.46028319190E+03  0.91534459940E+03  0.12096550640E+04  0.00000000000E+00 0. -1.
        -13    1    3    3    0    0  0.73448380128E+02  0.76081677209E+02  0.16713959642E+03  0.19778455663E+03  0.00000000000E+00 0.  1.
         22    1    1    2    0    0 -0.71652615260E+03 -0.53636486911E+03  0.19120912145E+04  0.21112057722E+04  0.00000000000E+00 0.  1.
<mgrwt>
<rscale>  0 0.18475344E+04</rscale>
<asrwt>0</asrwt>
<pdfrwt beam="1">  1        2 0.50101696E+00 0.18475344E+04</pdfrwt>
<pdfrwt beam="2">  1       -2 0.40313078E-01 0.18475344E+04</pdfrwt>
<totfact> 0.65551012E+00</totfact>
</mgrwt>
</event>
<event>
 6    1  0.6091287E-004  0.2327584E+04  0.7818608E-02  0.8467124E-01
          2   -1    0    0  501    0  0.00000000000E+00  0.00000000000E+00  0.89620695152E+03  0.89620695152E+03  0.00000000000E+00 0. -1.
         -2   -1    0    0    0  501 -0.00000000000E+00 -0.00000000000E+00 -0.15112718857E+04  0.15112718857E+04  0.00000000000E+00 0.  1.
         23    2    1    2    0    0 -0.47285632049E+03  0.10319263458E+04 -0.50931059055E+02  0.11399173547E+04  0.91392120894E+02 0.  0.
         11    1    3    3    0    0 -0.10851750995E+03  0.26176052749E+03  0.25451260171E+02  0.28450376159E+03  0.00000000000E+00 0. -1.
        -11    1    3    3    0    0 -0.36433881055E+03  0.77016581829E+03 -0.76382319226E+02  0.85541359308E+03  0.00000000000E+00 0.  1.
         22    1    1    2    0    0  0.47285632049E+03 -0.10319263458E+04 -0.56413387511E+03  0.12675614825E+04  0.00000000000E+00 0.  1.
<mgrwt>
<rscale>  0 0.23275845E+04</rscale>
<asrwt>0</asrwt>
<pdfrwt beam="1">  1        2 0.13787799E+00 0.23275845E+04</pdfrwt>
<pdfrwt beam="2">  1       -2 0.23250337E+00 0.23275845E+04</pdfrwt>
<totfact> 0.21998863E+00</totfact>
</mgrwt>
</event>
<event>
 6    1  0.6091287E-004  0.1759833E+04  0.7818608E-02  0.8727956E-01
          2   -1    0    0  501    0  0.00000000000E+00  0.00000000000E+00  0.12421058216E+04  0.12421058216E+04  0.00000000000E+00 0.  1.
         -2   -1    0    0    0  501 -0.00000000000E+00 -0.00000000000E+00 -0.62333936261E+03  0.62333936261E+03  0.00000000000E+00 0. -1.
         23    2    1    2    0    0  0.48337309251E+02  0.94534877805E+02  0.12334324588E+04  0.12416762928E+04  0.95556511976E+02 0.  0.
         11    1    3    3    0    0  0.56677144526E+02  0.44056440990E+02  0.38061406418E+03  0.38732458553E+03  0.00000000000E+00 0.  1.
        -11    1    3    3    0    0 -0.83398352749E+01  0.50478436816E+02  0.85281839467E+03  0.85435170727E+03  0.00000000000E+00 0. -1.
         22    1    1    2    0    0 -0.48337309251E+02 -0.94534877805E+02 -0.61466599982E+03  0.62376889144E+03  0.00000000000E+00 0. -1.
<mgrwt>
<rscale>  0 0.17598335E+04</rscale>
<asrwt>0</asrwt>
<pdfrwt beam="1">  1        2 0.19109320E+00 0.17598335E+04</pdfrwt>
<pdfrwt beam="2">  1       -2 0.95898364E-01 0.17598335E+04</pdfrwt>
<totfact> 0.15439887E+01</totfact>
</mgrwt>
</event>
<event>
 6    1  0.6091287E-004  0.1933696E+04  0.7818608E-02  0.8638263E-01
          2   -1    0    0  501    0  0.00000000000E+00  0.00000000000E+00  0.73095667440E+03  0.73095667440E+03  0.00000000000E+00 0.  1.
         -2   -1    0    0    0  501 -0.00000000000E+00 -0.00000000000E+00 -0.12788647214E+04  0.12788647214E+04  0.00000000000E+00 0. -1.
         23    2    1    2    0    0 -0.29076329494E+03  0.89510091388E+03 -0.55249586501E+02  0.94753080544E+03  0.94937720274E+02 0.  0.
         13    1    3    3    0    0 -0.14717211344E+03  0.56386926265E+03 -0.65071514226E+02  0.58638083043E+03  0.00000000000E+00 0. -1.
        -13    1    3    3    0    0 -0.14359118150E+03  0.33123165123E+03  0.98219277242E+01  0.36114997501E+03  0.00000000000E+00 0.  1.
         22    1    1    2    0    0  0.29076329494E+03 -0.89510091388E+03 -0.49265846055E+03  0.10622905904E+04  0.00000000000E+00 0. -1.
<mgrwt>
<rscale>  0 0.19336956E+04</rscale>
<asrwt>0</asrwt>
<pdfrwt beam="1">  1        2 0.11245487E+00 0.19336956E+04</pdfrwt>
<pdfrwt beam="2">  1       -2 0.19674842E+00 0.19336956E+04</pdfrwt>
<totfact> 0.50567436E+00</totfact>
</mgrwt>
</event>
<event>
 6    1  0.6091287E-004  0.2748126E+04  0.7818608E-02  0.8319556E-01
         -2   -1    0    0    0  501 -0.00000000000E+00  0.00000000000E+00  0.96478185813E+03  0.96478185813E+03  0.00000000000E+00 0. -1.
          2   -1    0    0  501    0  0.00000000000E+00 -0.00000000000E+00 -0.19569706260E+04  0.19569706260E+04  0.00000000000E+00 0.  1.
         23    2    1    2    0    0  0.10451571672E+04  0.45941792483E+03  0.31339177410E+03  0.11874056661E+04  0.91101470528E+02 0.  0.
         11    1    3    3    0    0  0.14539343638E+03  0.31298646002E+02  0.47286634834E+02  0.15606050884E+03  0.00000000000E+00 0.  1.
        -11    1    3    3    0    0  0.89976373080E+03  0.42811927883E+03  0.26610513927E+03  0.10313451572E+04  0.00000000000E+00 0. -1.
         22    1    1    2    0    0 -0.10451571672E+04 -0.45941792483E+03 -0.13055805419E+04  0.17343468180E+04  0.00000000000E+00 0.  1.
<mgrwt>
<rscale>  0 0.27481265E+04</rscale>
<asrwt>0</asrwt>
<pdfrwt beam="1">  1        2 0.30107240E+00 0.27481265E+04</pdfrwt>
<pdfrwt beam="2">  1       -2 0.14842798E+00 0.27481265E+04</pdfrwt>
<totfact> 0.19008934E+00</totfact>
</mgrwt>
</event>
<event>
 6    1  0.6091287E-004  0.1251908E+04  0.7818608E-02  0.9068596E-01
          2   -1    0    0  501    0  0.00000000000E+00  0.00000000000E+00  0.24335997194E+03  0.24335997194E+03  0.00000000000E+00 0.  1.
         -2   -1    0    0    0  501 -0.00000000000E+00 -0.00000000000E+00 -0.16100371832E+04  0.16100371832E+04  0.00000000000E+00 0. -1.
         23    2    1    2    0    0 -0.61022728461E+03 -0.12050787795E+03 -0.73534360666E+03  0.96712315248E+03  0.87735310244E+02 0.  0.
         11    1    3    3    0    0 -0.14543540905E+03 -0.66059626065E+02 -0.17119870726E+03  0.23414595826E+03  0.00000000000E+00 0. -1.
        -11    1    3    3    0    0 -0.46479187557E+03 -0.54448251888E+02 -0.56414489940E+03  0.73297719422E+03  0.00000000000E+00 0.  1.
         22    1    1    2    0    0  0.61022728461E+03  0.12050787795E+03 -0.63133360464E+03  0.88627400272E+03  0.00000000000E+00 0. -1.
<mgrwt>
<rscale>  0 0.12519083E+04</rscale>
<asrwt>0</asrwt>
<pdfrwt beam="1">  1        2 0.37439994E-01 0.12519083E+04</pdfrwt>
<pdfrwt beam="2">  1       -2 0.24769804E+00 0.12519083E+04</pdfrwt>
<totfact> 0.90754377E+00</totfact>
</mgrwt>
</event>
<event>
 6    1  0.6091287E-004  0.2768963E+04  0.7818608E-02  0.8312969E-01
         -2   -1    0    0    0  501 -0.00000000000E+00  0.00000000000E+00  0.10276950368E+04  0.10276950368E+04  0.00000000000E+00 0. -1.
          2   -1    0    0  501    0  0.00000000000E+00 -0.00000000000E+00 -0.18651337508E+04  0.18651337508E+04  0.00000000000E+00 0.  1.
         23    2    1    2    0    0 -0.45462885243E+03  0.63173055922E+02 -0.17821183238E+04  0.18425441625E+04  0.91351203197E+02 0.  0.
         13    1    3    3    0    0 -0.17810515335E+03  0.61897402046E+02 -0.82549736631E+03  0.84675771967E+03  0.00000000000E+00 0. -1.
        -13    1    3    3    0    0 -0.27652369908E+03  0.12756538759E+01 -0.95662095751E+03  0.99578644287E+03  0.00000000000E+00 0.  1.
         22    1    1    2    0    0  0.45462885243E+03 -0.63173055922E+02  0.94467960979E+03  0.10502846250E+04  0.00000000000E+00 0. -1.
<mgrwt>
<rscale>  0 0.27689628E+04</rscale>
<asrwt>0</asrwt>
<pdfrwt beam="1">  1        2 0.28694365E+00 0.27689628E+04</pdfrwt>
<pdfrwt beam="2">  1       -2 0.15810693E+00 0.27689628E+04</pdfrwt>
<totfact> 0.18022841E+00</totfact>
</mgrwt>
</event>
<event>
 6    1  0.6091287E-004  0.2048436E+04  0.7818608E-02  0.8584304E-01
         -2   -1    0    0    0  501 -0.00000000000E+00  0.00000000000E+00  0.41956444301E+03  0.41956444301E+03  0.00000000000E+00 0. -1.
          2   -1    0    0  501    0  0.00000000000E+00 -0.00000000000E+00 -0.25002665338E+04  0.25002665338E+04  0.00000000000E+00 0.  1.
         23    2    1    2    0    0 -0.72428611263E+03 -0.65674981170E+03 -0.14672583673E+04  0.17656109414E+04  0.92866528051E+02 0.  0.
         11    1    3    3    0    0 -0.44941503030E+03 -0.40570579169E+03 -0.82598838433E+03  0.10241229760E+04  0.00000000000E+00 0.  1.
        -11    1    3    3    0    0 -0.27487108233E+03 -0.25104402002E+03 -0.64126998297E+03  0.74148796548E+03  0.00000000000E+00 0. -1.
         22    1    1    2    0    0  0.72428611263E+03  0.65674981170E+03 -0.61344372348E+03  0.11542200353E+04  0.00000000000E+00 0. -1.
<mgrwt>
<rscale>  0 0.20484364E+04</rscale>
<asrwt>0</asrwt>
<pdfrwt beam="1">  1        2 0.38465639E+00 0.20484364E+04</pdfrwt>
<pdfrwt beam="2">  1       -2 0.64548375E-01 0.20484364E+04</pdfrwt>
<totfact> 0.71398155E+00</totfact>
</mgrwt>
</event>
<event>
 6    1  0.6091287E-004  0.3468617E+04  0.7818608E-02  0.8121268E-01
          2   -1    0    0  501    0  0.00000000000E+00  0.00000000000E+00  0.26364728809E+04  0.26364728809E+04  0.00000000000E+00 0.  1.
         -2   -1    0    0    0  501 -0.00000000000E+00 -0.00000000000E+00 -0.11408519064E+04  0.11408519064E+04  0.00000000000E+00 0. -1.
         23    2    1    2    0    0  0.55509060208E+03  0.16327190580E+04  0.93641554670E+03  0.19644244014E+04  0.90509965960E+02 0.  0.
         11    1    3    3    0    0  0.22713615745E+03  0.79963918208E+03  0.43278500614E+03  0.93718542300E+03  0.00000000000E+00 0. -1.
        -11    1    3    3    0    0  0.32795444463E+03  0.83307987590E+03  0.50363054056E+03  0.10272389784E+04  0.00000000000E+00 0.  1.
         22    1    1    2    0    0 -0.55509060208E+03 -0.16327190580E+04  0.55920542782E+03  0.18129003859E+04  0.00000000000E+00 0. -1.
<mgrwt>
<rscale>  0 0.34686165E+04</rscale>
<asrwt>0</asrwt>
<pdfrwt beam="1">  1        2 0.40561121E+00 0.34686165E+04</pdfrwt>
<pdfrwt beam="2">  1       -2 0.17551568E+00 0.34686165E+04</pdfrwt>
<totfact> 0.46479975E-01</totfact>
</mgrwt>
</event>
<event>
 6    1  0.6091287E-004  0.2655356E+04  0.7818608E-02  0.8349638E-01
          2   -1    0    0  501    0  0.00000000000E+00  0.00000000000E+00  0.17414784143E+04  0.17414784143E+04  0.00000000000E+00 0.  1.
         -2   -1    0    0    0  501 -0.00000000000E+00 -0.00000000000E+00 -0.10122023812E+04  0.10122023812E+04  0.00000000000E+00 0. -1.
         23    2    1    2    0    0  0.91306816149E+03  0.25004984176E+03  0.13283097567E+04  0.16333862839E+04  0.85589436477E+02 0.  0.
         13    1    3    3    0    0  0.21170022965E+03  0.89037205338E+02  0.35851710484E+03  0.42576886409E+03  0.00000000000E+00 0. -1.
        -13    1    3    3    0    0  0.70136793184E+03  0.16101263642E+03  0.96979265191E+03  0.12076174198E+04  0.00000000000E+00 0.  1.
         22    1    1    2    0    0 -0.91306816149E+03 -0.25004984176E+03 -0.59903372363E+03  0.11202945117E+04  0.00000000000E+00 0. -1.
<mgrwt>
<rscale>  0 0.26553558E+04</rscale>
<asrwt>0</asrwt>
<pdfrwt beam="1">  1        2 0.26791976E+00 0.26553558E+04</pdfrwt>
<pdfrwt beam="2">  1       -2 0.15572344E+00 0.26553558E+04</pdfrwt>
<totfact> 0.22202379E+00</totfact>
</mgrwt>
</event>
<event>
 6    1  0.6091287E-004  0.1598374E+04  0.7818608E-02  0.8821548E-01
          2   -1    0    0  501    0  0.00000000000E+00  0.00000000000E+00  0.25666408253E+04  0.25666408253E+04  0.00000000000E+00 0.  1.
         -2   -1    0    0    0  501 -0.00000000000E+00 -0.00000000000E+00 -0.24884647936E+03  0.24884647936E+03  0.00000000000E+00 0. -1.
         23    2    1    2    0    0 -0.50281411713E+03 -0.37447723582E+03  0.20281862621E+04  0.21248875083E+04  0.92477957563E+02 0.  0.
         13    1    3    3    0    0 -0.15846835231E+03 -0.14359570003E+03  0.82549749597E+03  0.85274735977E+03  0.00000000000E+00 0. -1.
        -13    1    3    3    0    0 -0.34434576482E+03 -0.23088153579E+03  0.12026887661E+04  0.12721401485E+04  0.00000000000E+00 0.  1.
         22    1    1    2    0    0  0.50281411713E+03  0.37447723582E+03  0.28960808388E+03  0.69059979639E+03  0.00000000000E+00 0. -1.
<mgrwt>
<rscale>  0 0.15983736E+04</rscale>
<asrwt>0</asrwt>
<pdfrwt beam="1">  1        2 0.39486780E+00 0.15983736E+04</pdfrwt>
<pdfrwt beam="2">  1       -2 0.38284076E-01 0.15983736E+04</pdfrwt>
<totfact> 0.19721337E+01</totfact>
</mgrwt>
</event>
<event>
 6    1  0.6091287E-004  0.3759034E+04  0.7818608E-02  0.8055004E-01
          2   -1    0    0  501    0  0.00000000000E+00  0.00000000000E+00  0.28271742590E+04  0.28271742590E+04  0.00000000000E+00 0. -1.
         -2   -1    0    0    0  501 -0.00000000000E+00 -0.00000000000E+00 -0.12495104275E+04  0.12495104275E+04  0.00000000000E+00 0.  1.
         23    2    1    2    0    0 -0.16296243312E+04 -0.66437803963E+03  0.15016147289E+04  0.23151918235E+04  0.90513784030E+02 0.  0.
         13    1    3    3    0    0 -0.45447879616E+03 -0.22071207598E+03  0.39886770910E+03  0.64370819942E+03  0.00000000000E+00 0.  1.
        -13    1    3    3    0    0 -0.11751455351E+04 -0.44366596365E+03  0.11027470198E+04  0.16714836241E+04  0.00000000000E+00 0. -1.
         22    1    1    2    0    0  0.16296243312E+04  0.66437803963E+03  0.76049102517E+02  0.17614928630E+04  0.00000000000E+00 0.  1.
<mgrwt>
<rscale>  0 0.37590338E+04</rscale>
<asrwt>0</asrwt>
<pdfrwt beam="1">  1        2 0.43494989E+00 0.37590338E+04</pdfrwt>
<pdfrwt beam="2">  1       -2 0.19223237E+00 0.37590338E+04</pdfrwt>
<totfact> 0.26810916E-01</totfact>
</mgrwt>
</event>
<event>
 6    1  0.6091287E-004  0.1301465E+04  0.7818608E-02  0.9028404E-01
          2   -1    0    0  501    0  0.00000000000E+00  0.00000000000E+00  0.14880484504E+04  0.14880484504E+04  0.00000000000E+00 0.  1.
         -2   -1    0    0    0  501 -0.00000000000E+00 -0.00000000000E+00 -0.28456907517E+03  0.28456907517E+03  0.00000000000E+00 0. -1.
         23    2    1    2    0    0  0.17554304452E+03  0.62320929413E+03  0.61946709982E+03  0.90067972814E+03  0.90990659724E+02 0.  0.
         13    1    3    3    0    0  0.22604324798E+02  0.21260143635E+03  0.23561102619E+03  0.31815543670E+03  0.00000000000E+00 0.  1.
        -13    1    3    3    0    0  0.15293871972E+03  0.41060785778E+03  0.38385607363E+03  0.58252429145E+03  0.00000000000E+00 0. -1.
         22    1    1    2    0    0 -0.17554304452E+03 -0.62320929413E+03  0.58401227546E+03  0.87193779747E+03  0.00000000000E+00 0. -1.
<mgrwt>
<rscale>  0 0.13014647E+04</rscale>
<asrwt>0</asrwt>
<pdfrwt beam="1">  1        2 0.22893053E+00 0.13014647E+04</pdfrwt>
<pdfrwt beam="2">  1       -2 0.43779859E-01 0.13014647E+04</pdfrwt>
<totfact> 0.62494529E+01</totfact>
</mgrwt>
</event>
<event>
 6    1  0.6091287E-004  0.2898114E+04  0.7818608E-02  0.8273439E-01
         -2   -1    0    0    0  501 -0.00000000000E+00  0.00000000000E+00  0.67472476012E+03  0.67472476012E+03  0.00000000000E+00 0. -1.
          2   -1    0    0  501    0  0.00000000000E+00 -0.00000000000E+00 -0.31120346249E+04  0.31120346249E+04  0.00000000000E+00 0.  1.
         23    2    1    2    0    0  0.40169017264E+03  0.11628873593E+04 -0.22275956005E+03  0.12534029045E+04  0.87948930232E+02 0.  0.
         13    1    3    3    0    0  0.30467910389E+03  0.98092397799E+03 -0.17988477949E+03  0.10427846090E+04  0.00000000000E+00 0. -1.
        -13    1    3    3    0    0  0.97011068755E+02  0.18196338127E+03 -0.42874780559E+02  0.21061829548E+03  0.00000000000E+00 0.  1.
         22    1    1    2    0    0 -0.40169017264E+03 -0.11628873593E+04 -0.22145503047E+04  0.25333564805E+04  0.00000000000E+00 0.  1.
<mgrwt>
<rscale>  0 0.28981144E+04</rscale>
<asrwt>0</asrwt>
<pdfrwt beam="1">  1        2 0.47877455E+00 0.28981144E+04</pdfrwt>
<pdfrwt beam="2">  1       -2 0.10380381E+00 0.28981144E+04</pdfrwt>
<totfact> 0.96368546E-01</totfact>
</mgrwt>
</event>
<event>
 6    1  0.6091287E-004  0.2375074E+04  0.7818608E-02  0.8448895E-01
         -2   -1    0    0    0  501 -0.00000000000E+00  0.00000000000E+00  0.81587310621E+03  0.81587310621E+03  0.00000000000E+00 0. -1.
          2   -1    0    0  501    0  0.00000000000E+00 -0.00000000000E+00 -0.17285093148E+04  0.17285093148E+04  0.00000000000E+00 0.  1.
         23    2    1    2    0    0 -0.28045738406E+03 -0.10766019368E+03 -0.16858944083E+04  0.17148190992E+04  0.90097311126E+02 0.  0.
         13    1    3    3    0    0 -0.14325189258E+03 -0.22576543993E+02 -0.98179691270E+03  0.99244948630E+03  0.00000000000E+00 0.  1.
        -13    1    3    3    0    0 -0.13720549148E+03 -0.85083649682E+02 -0.70409749559E+03  0.72236961289E+03  0.00000000000E+00 0. -1.
         22    1    1    2    0    0  0.28045738406E+03  0.10766019368E+03  0.77325819968E+03  0.82956332184E+03  0.00000000000E+00 0. -1.
<mgrwt>
<rscale>  0 0.23750741E+04</rscale>
<asrwt>0</asrwt>
<pdfrwt beam="1">  1        2 0.26592451E+00 0.23750741E+04</pdfrwt>
<pdfrwt beam="2">  1       -2 0.12551894E+00 0.23750741E+04</pdfrwt>
<totfact> 0.40432256E+00</totfact>
</mgrwt>
</event>
<event>
 6    1  0.6091287E-004  0.2051409E+04  0.7818608E-02  0.8582955E-01
          2   -1    0    0  501    0  0.00000000000E+00  0.00000000000E+00  0.10859077114E+04  0.10859077114E+04  0.00000000000E+00 0.  1.
         -2   -1    0    0    0  501 -0.00000000000E+00 -0.00000000000E+00 -0.96883932284E+03  0.96883932284E+03  0.00000000000E+00 0. -1.
         23    2    1    2    0    0  0.15667248842E+03  0.14386825515E+03  0.10615638370E+04  0.10865962219E+04  0.92353807801E+02 0.  0.
         11    1    3    3    0    0  0.18926111086E+02  0.18893663371E+01  0.27070847862E+03  0.27137584229E+03  0.00000000000E+00 0. -1.
        -11    1    3    3    0    0  0.13774637733E+03  0.14197888882E+03  0.79085535840E+03  0.81522037956E+03  0.00000000000E+00 0.  1.
         22    1    1    2    0    0 -0.15667248842E+03 -0.14386825515E+03 -0.94449544843E+03  0.96815081241E+03  0.00000000000E+00 0. -1.
<mgrwt>
<rscale>  0 0.20514094E+04</rscale>
<asrwt>0</asrwt>
<pdfrwt beam="1">  1        2 0.16706272E+00 0.20514094E+04</pdfrwt>
<pdfrwt beam="2">  1       -2 0.14905220E+00 0.20514094E+04</pdfrwt>
<totfact> 0.62662818E+00</totfact>
</mgrwt>
</event>
<event>
 6    1  0.6091287E-004  0.7399007E+03  0.7818608E-02  0.9651329E-01
         -2   -1    0    0    0  501 -0.00000000000E+00  0.00000000000E+00  0.46979038167E+03  0.46979038167E+03  0.00000000000E+00 0. -1.
          2   -1    0    0  501    0  0.00000000000E+00 -0.00000000000E+00 -0.29132837149E+03  0.29132837149E+03  0.00000000000E+00 0.  1.
         23    2    1    2    0    0  0.24990476277E+03 -0.16218039533E+03 -0.12529259159E+03  0.33565226896E+03  0.90605414111E+02 0.  0.
         11    1    3    3    0    0  0.13856432312E+03 -0.78280578970E+02 -0.11403606781E+03  0.19578596846E+03  0.00000000000E+00 0. -1.
        -11    1    3    3    0    0  0.11134043965E+03 -0.83899816356E+02 -0.11256523776E+02  0.13986630049E+03  0.00000000000E+00 0.  1.
         22    1    1    2    0    0 -0.24990476277E+03  0.16218039533E+03  0.30375460177E+03  0.42546648420E+03  0.00000000000E+00 0. -1.
<mgrwt>
<rscale>  0 0.73990071E+03</rscale>
<asrwt>0</asrwt>
<pdfrwt beam="1">  1        2 0.44819749E-01 0.73990071E+03</pdfrwt>
<pdfrwt beam="2">  1       -2 0.72275443E-01 0.73990071E+03</pdfrwt>
<totfact> 0.19840134E+02</totfact>
</mgrwt>
</event>
<event>
 6    1  0.6091287E-004  0.6543577E+03  0.7818608E-02  0.9798636E-01
          2   -1    0    0  501    0  0.00000000000E+00  0.00000000000E+00  0.14774418101E+04  0.14774418101E+04  0.00000000000E+00 0.  1.
         -2   -1    0    0    0  501 -0.00000000000E+00 -0.00000000000E+00 -0.72453619349E+02  0.72453619349E+02  0.00000000000E+00 0. -1.
         23    2    1    2    0    0  0.44423113264E+02 -0.16558159604E+03  0.13578761384E+04  0.13721027878E+04  0.97199666478E+02 0.  0.
         11    1    3    3    0    0 -0.22578721500E+02 -0.10237180882E+03  0.74759240654E+03  0.75490674406E+03  0.00000000000E+00 0.  1.
        -11    1    3    3    0    0  0.67001834764E+02 -0.63209787216E+02  0.61028373182E+03  0.61719604373E+03  0.00000000000E+00 0. -1.
         22    1    1    2    0    0 -0.44423113264E+02  0.16558159604E+03  0.47112052337E+02  0.17779264162E+03  0.00000000000E+00 0. -1.
<mgrwt>
<rscale>  0 0.65435772E+03</rscale>
<asrwt>0</asrwt>
<pdfrwt beam="1">  1        2 0.22729872E+00 0.65435772E+03</pdfrwt>
<pdfrwt beam="2">  1       -2 0.11146712E-01 0.65435772E+03</pdfrwt>
<totfact> 0.76365152E+02</totfact>
</mgrwt>
</event>
<event>
 6    1  0.6091287E-004  0.2048963E+04  0.7818608E-02  0.8584065E-01
         -2   -1    0    0    0  501 -0.00000000000E+00  0.00000000000E+00  0.75274158111E+03  0.75274158111E+03  0.00000000000E+00 0. -1.
          2   -1    0    0  501    0  0.00000000000E+00 -0.00000000000E+00 -0.13943197386E+04  0.13943197386E+04  0.00000000000E+00 0.  1.
         23    2    1    2    0    0 -0.45859183566E+03  0.82583654208E+02  0.63220572339E+03  0.79072363799E+03  0.91832800854E+02 0.  0.
         13    1    3    3    0    0 -0.28601808684E+03  0.75414734441E+01  0.40112451133E+03  0.49271096335E+03  0.00000000000E+00 0. -1.
        -13    1    3    3    0    0 -0.17257374882E+03  0.75042180764E+02  0.23108121206E+03  0.29801267464E+03  0.00000000000E+00 0.  1.
         22    1    1    2    0    0  0.45859183566E+03 -0.82583654208E+02 -0.12737838808E+04  0.13563376817E+04  0.00000000000E+00 0.  1.
<mgrwt>
<rscale>  0 0.20489631E+04</rscale>
<asrwt>0</asrwt>
<pdfrwt beam="1">  1        2 0.21451073E+00 0.20489631E+04</pdfrwt>
<pdfrwt beam="2">  1       -2 0.11580640E+00 0.20489631E+04</pdfrwt>
<totfact> 0.78219263E+00</totfact>
</mgrwt>
</event>
<event>
 6    1  0.6091287E-004  0.2540787E+04  0.7818608E-02  0.8388597E-01
          2   -1    0    0  501    0  0.00000000000E+00  0.00000000000E+00  0.24942367151E+04  0.24942367151E+04  0.00000000000E+00 0.  1.
         -2   -1    0    0    0  501 -0.00000000000E+00 -0.00000000000E+00 -0.64705137031E+03  0.64705137031E+03  0.00000000000E+00 0. -1.
         23    2    1    2    0    0  0.27159866927E+03 -0.98379051643E+03  0.18565830994E+04  0.21206520410E+04  0.93030407650E+02 0.  0.
         11    1    3    3    0    0  0.15946269059E+02 -0.19428138619E+03  0.35839565154E+03  0.40797914599E+03  0.00000000000E+00 0. -1.
        -11    1    3    3    0    0  0.25565240021E+03 -0.78950913024E+03  0.14981874478E+04  0.17126728950E+04  0.00000000000E+00 0.  1.
         22    1    1    2    0    0 -0.27159866927E+03  0.98379051643E+03 -0.93977545787E+01  0.10206360444E+04  0.00000000000E+00 0. -1.
<mgrwt>
<rscale>  0 0.25407867E+04</rscale>
<asrwt>0</asrwt>
<pdfrwt beam="1">  1        2 0.38372872E+00 0.25407867E+04</pdfrwt>
<pdfrwt beam="2">  1       -2 0.99546366E-01 0.25407867E+04</pdfrwt>
<totfact> 0.26030952E+00</totfact>
</mgrwt>
</event>
<event>
 6    1  0.6091287E-004  0.3154720E+04  0.7818608E-02  0.8200879E-01
          2   -1    0    0  501    0  0.00000000000E+00  0.00000000000E+00  0.30680620301E+04  0.30680620301E+04  0.00000000000E+00 0.  1.
         -2   -1    0    0    0  501 -0.00000000000E+00 -0.00000000000E+00 -0.81095635451E+03  0.81095635451E+03  0.00000000000E+00 0. -1.
         23    2    1    2    0    0 -0.97967071128E+02  0.15349282254E+04  0.15522647460E+04  0.21871546370E+04  0.92289546145E+02 0.  0.
         13    1    3    3    0    0 -0.28793283094E+02  0.46555684090E+03  0.53207538026E+03  0.70758493168E+03  0.00000000000E+00 0. -1.
        -13    1    3    3    0    0 -0.69173788034E+02  0.10693713845E+04  0.10201893658E+04  0.14795697054E+04  0.00000000000E+00 0.  1.
         22    1    1    2    0    0  0.97967071128E+02 -0.15349282254E+04  0.70484092956E+03  0.16918637475E+04  0.00000000000E+00 0. -1.
<mgrwt>
<rscale>  0 0.31547199E+04</rscale>
<asrwt>0</asrwt>
<pdfrwt beam="1">  1        2 0.47200954E+00 0.31547199E+04</pdfrwt>
<pdfrwt beam="2">  1       -2 0.12476252E+00 0.31547199E+04</pdfrwt>
<totfact> 0.64170400E-01</totfact>
</mgrwt>
</event>
<event>
 6    1  0.6091287E-004  0.1439067E+04  0.7818608E-02  0.8926016E-01
          2   -1    0    0  501    0  0.00000000000E+00  0.00000000000E+00  0.13150816440E+04  0.13150816440E+04  0.00000000000E+00 0.  1.
         -2   -1    0    0    0  501 -0.00000000000E+00 -0.00000000000E+00 -0.39368522861E+03  0.39368522861E+03  0.00000000000E+00 0. -1.
         23    2    1    2    0    0  0.36289376340E+03 -0.55670270893E+03  0.14424617806E+03  0.68623458412E+03  0.92201707792E+02 0.  0.
         11    1    3    3    0    0  0.30724328351E+03 -0.40454189146E+03  0.12445522196E+03  0.52301212174E+03  0.00000000000E+00 0.  1.
        -11    1    3    3    0    0  0.55650479884E+02 -0.15216081747E+03  0.19790956098E+02  0.16322246239E+03  0.00000000000E+00 0. -1.
         22    1    1    2    0    0 -0.36289376340E+03  0.55670270893E+03  0.77715023737E+03  0.10225322885E+04  0.00000000000E+00 0.  1.
<mgrwt>
<rscale>  0 0.14390667E+04</rscale>
<asrwt>0</asrwt>
<pdfrwt beam="1">  1        2 0.20232025E+00 0.14390667E+04</pdfrwt>
<pdfrwt beam="2">  1       -2 0.60566959E-01 0.14390667E+04</pdfrwt>
<totfact> 0.39915661E+01</totfact>
</mgrwt>
</event>
<event>
 6    1  0.6091287E-004  0.2541226E+04  0.7818608E-02  0.8388444E-01
         -2   -1    0    0    0  501 -0.00000000000E+00  0.00000000000E+00  0.51448800942E+03  0.51448800942E+03  0.00000000000E+00 0. -1.
          2   -1    0    0  501    0  0.00000000000E+00 -0.00000000000E+00 -0.31379875780E+04  0.31379875780E+04  0.00000000000E+00 0.  1.
         23    2    1    2    0    0  0.83514714781E+03 -0.34035775819E+03 -0.30310723235E+02  0.90694420904E+03  0.91186053286E+02 0.  0.
         11    1    3    3    0    0  0.44643614270E+03 -0.15321138441E+03 -0.52820947606E+02  0.47494105985E+03  0.00000000000E+00 0.  1.
        -11    1    3    3    0    0  0.38871100510E+03 -0.18714637378E+03  0.22510224371E+02  0.43200314919E+03  0.00000000000E+00 0. -1.
         22    1    1    2    0    0 -0.83514714781E+03  0.34035775819E+03 -0.25931888454E+04  0.27455313784E+04  0.00000000000E+00 0.  1.
<mgrwt>
<rscale>  0 0.25412257E+04</rscale>
<asrwt>0</asrwt>
<pdfrwt beam="1">  1        2 0.48276730E+00 0.25412257E+04</pdfrwt>
<pdfrwt beam="2">  1       -2 0.79152004E-01 0.25412257E+04</pdfrwt>
<totfact> 0.17908010E+00</totfact>
</mgrwt>
</event>
<event>
 6    1  0.6091287E-004  0.3124339E+04  0.7818608E-02  0.8209090E-01
          2   -1    0    0  501    0  0.00000000000E+00  0.00000000000E+00  0.18424365955E+04  0.18424365955E+04  0.00000000000E+00 0.  1.
         -2   -1    0    0    0  501 -0.00000000000E+00 -0.00000000000E+00 -0.13245360730E+04  0.13245360730E+04  0.00000000000E+00 0. -1.
         23    2    1    2    0    0 -0.49797796157E+02  0.15075149761E+04 -0.14773309646E+03  0.15182915780E+04  0.91120931769E+02 0.  0.
         11    1    3    3    0    0  0.10015743748E+02  0.98103495065E+03 -0.10557661904E+03  0.98675037979E+03  0.00000000000E+00 0. -1.
        -11    1    3    3    0    0 -0.59813539905E+02  0.52648002546E+03 -0.42156477419E+02  0.53154119817E+03  0.00000000000E+00 0.  1.
         22    1    1    2    0    0  0.49797796157E+02 -0.15075149761E+04  0.66563361895E+03  0.16486810906E+04  0.00000000000E+00 0.  1.
<mgrwt>
<rscale>  0 0.31243391E+04</rscale>
<asrwt>0</asrwt>
<pdfrwt beam="1">  1        2 0.28345178E+00 0.31243391E+04</pdfrwt>
<pdfrwt beam="2">  1       -2 0.20377478E+00 0.31243391E+04</pdfrwt>
<totfact> 0.87022448E-01</totfact>
</mgrwt>
</event>
<event>
 6    1  0.6091287E-004  0.3162015E+04  0.7818608E-02  0.8198922E-01
         -2   -1    0    0    0  501 -0.00000000000E+00  0.00000000000E+00  0.63617469844E+03  0.63617469844E+03  0.00000000000E+00 0. -1.
          2   -1    0    0  501    0  0.00000000000E+00 -0.00000000000E+00 -0.39290851729E+04  0.39290851729E+04  0.00000000000E+00 0.  1.
         23    2    1    2    0    0 -0.54952255992E+03  0.12778341794E+04 -0.56670587401E+03  0.15046999949E+04  0.90173681783E+02 0.  0.
         11    1    3    3    0    0 -0.30829649142E+03  0.60281853143E+03 -0.27532674903E+03  0.73091841350E+03  0.00000000000E+00 0.  1.
        -11    1    3    3    0    0 -0.24122606851E+03  0.67501564801E+03 -0.29137912498E+03  0.77378158137E+03  0.00000000000E+00 0. -1.
         22    1    1    2    0    0  0.54952255992E+03 -0.12778341794E+04 -0.27262046005E+04  0.30605598765E+04  0.00000000000E+00 0.  1.
<mgrwt>
<rscale>  0 0.31620149E+04</rscale>
<asrwt>0</asrwt>
<pdfrwt beam="1">  1        2 0.60447465E+00 0.31620149E+04</pdfrwt>
<pdfrwt beam="2">  1       -2 0.97873029E-01 0.31620149E+04</pdfrwt>
<totfact> 0.28582834E-01</totfact>
</mgrwt>
</event>
<event>
 6    1  0.6091287E-004  0.1657086E+04  0.7818608E-02  0.8786226E-01
         -2   -1    0    0    0  501 -0.00000000000E+00  0.00000000000E+00  0.39761931046E+03  0.39761931046E+03  0.00000000000E+00 0. -1.
          2   -1    0    0  501    0  0.00000000000E+00 -0.00000000000E+00 -0.17264835088E+04  0.17264835088E+04  0.00000000000E+00 0.  1.
         23    2    1    2    0    0 -0.13876138922E+03  0.49402753307E+03  0.16360580009E+03  0.54588083781E+03  0.88888158365E+02 0.  0.
         11    1    3    3    0    0 -0.85062154140E+02  0.36044915059E+03  0.78298211655E+02  0.37853635252E+03  0.00000000000E+00 0.  1.
        -11    1    3    3    0    0 -0.53699235080E+02  0.13357838247E+03  0.85307588430E+02  0.16734448529E+03  0.00000000000E+00 0. -1.
         22    1    1    2    0    0  0.13876138922E+03 -0.49402753307E+03 -0.14924699984E+04  0.15782219815E+04  0.00000000000E+00 0.  1.
<mgrwt>
<rscale>  0 0.16570856E+04</rscale>
<asrwt>0</asrwt>
<pdfrwt beam="1">  1        2 0.26561285E+00 0.16570856E+04</pdfrwt>
<pdfrwt beam="2">  1       -2 0.61172202E-01 0.16570856E+04</pdfrwt>
<totfact> 0.22495482E+01</totfact>
</mgrwt>
</event>
<event>
 6    1  0.6091287E-004  0.1604216E+04  0.7818608E-02  0.8817962E-01
          2   -1    0    0  501    0  0.00000000000E+00  0.00000000000E+00  0.14376004038E+04  0.14376004038E+04  0.00000000000E+00 0.  1.
         -2   -1    0    0    0  501 -0.00000000000E+00 -0.00000000000E+00 -0.44753551703E+03  0.44753551703E+03  0.00000000000E+00 0. -1.
         23    2    1    2    0    0  0.52177822452E+03  0.30212662029E+03  0.11152528724E+04  0.12693396541E+04  0.62459409422E+02 0.  0.
         11    1    3    3    0    0  0.17858384224E+03  0.83349625212E+02  0.41458752541E+03  0.45904483981E+03  0.00000000000E+00 0.  1.
        -11    1    3    3    0    0  0.34319438228E+03  0.21877699508E+03  0.70066534700E+03  0.81029481431E+03  0.00000000000E+00 0. -1.
         22    1    1    2    0    0 -0.52177822452E+03 -0.30212662029E+03 -0.12518798569E+03  0.61579626666E+03  0.00000000000E+00 0. -1.
<mgrwt>
<rscale>  0 0.16042160E+04</rscale>
<asrwt>0</asrwt>
<pdfrwt beam="1">  1        2 0.22116929E+00 0.16042160E+04</pdfrwt>
<pdfrwt beam="2">  1       -2 0.68851619E-01 0.16042160E+04</pdfrwt>
<totfact> 0.25443041E+01</totfact>
</mgrwt>
</event>
<event>
 6    1  0.6091287E-004  0.1480048E+04  0.7818608E-02  0.8897830E-01
         -2   -1    0    0    0  501 -0.00000000000E+00  0.00000000000E+00  0.34444908844E+03  0.34444908844E+03  0.00000000000E+00 0. -1.
          2   -1    0    0  501    0  0.00000000000E+00 -0.00000000000E+00 -0.15898880837E+04  0.15898880837E+04  0.00000000000E+00 0.  1.
         23    2    1    2    0    0  0.84674201909E+02  0.32780000241E+03 -0.14809706163E+04  0.15219081400E+04  0.91147452577E+02 0.  0.
         13    1    3    3    0    0  0.58266966061E+01  0.98349555293E+02 -0.28421550632E+03  0.30080731283E+03  0.00000000000E+00 0. -1.
        -13    1    3    3    0    0  0.78847505303E+02  0.22945044712E+03 -0.11967551100E+04  0.12211008271E+04  0.00000000000E+00 0.  1.
         22    1    1    2    0    0 -0.84674201909E+02 -0.32780000241E+03  0.23553162106E+03  0.41242903216E+03  0.00000000000E+00 0. -1.
<mgrwt>
<rscale>  0 0.14800480E+04</rscale>
<asrwt>0</asrwt>
<pdfrwt beam="1">  1        2 0.24459816E+00 0.14800480E+04</pdfrwt>
<pdfrwt beam="2">  1       -2 0.52992169E-01 0.14800480E+04</pdfrwt>
<totfact> 0.36708215E+01</totfact>
</mgrwt>
</event>
<event>
 6    1  0.6091287E-004  0.3029664E+04  0.7818608E-02  0.8235310E-01
         -2   -1    0    0    0  501 -0.00000000000E+00  0.00000000000E+00  0.13786675901E+04  0.13786675901E+04  0.00000000000E+00 0. -1.
          2   -1    0    0  501    0  0.00000000000E+00 -0.00000000000E+00 -0.16644449002E+04  0.16644449002E+04  0.00000000000E+00 0.  1.
         23    2    1    2    0    0 -0.40437643248E+02 -0.46682907348E+03  0.13023420102E+04  0.13873082862E+04  0.94683592838E+02 0.  0.
         13    1    3    3    0    0 -0.55217159681E+02 -0.23405688958E+03  0.56786180859E+03  0.61668354602E+03  0.00000000000E+00 0. -1.
        -13    1    3    3    0    0  0.14779516433E+02 -0.23277218390E+03  0.73448020157E+03  0.77062474019E+03  0.00000000000E+00 0.  1.
         22    1    1    2    0    0  0.40437643248E+02  0.46682907348E+03 -0.15881193203E+04  0.16558042041E+04  0.00000000000E+00 0.  1.
<mgrwt>
<rscale>  0 0.30296642E+04</rscale>
<asrwt>0</asrwt>
<pdfrwt beam="1">  1        2 0.25606845E+00 0.30296642E+04</pdfrwt>
<pdfrwt beam="2">  1       -2 0.21210271E+00 0.30296642E+04</pdfrwt>
<totfact> 0.97301254E-01</totfact>
</mgrwt>
</event>
<event>
 6    1  0.6091287E-004  0.3272436E+04  0.7818608E-02  0.8169945E-01
          2   -1    0    0  501    0  0.00000000000E+00  0.00000000000E+00  0.27174527374E+04  0.27174527374E+04  0.00000000000E+00 0.  1.
         -2   -1    0    0    0  501 -0.00000000000E+00 -0.00000000000E+00 -0.98519053203E+03  0.98519053203E+03  0.00000000000E+00 0. -1.
         23    2    1    2    0    0 -0.39021574951E+03 -0.92540082339E+03  0.23263305351E+04  0.25357875819E+04  0.98842738334E+02 0.  0.
         11    1    3    3    0    0 -0.12129009203E+03 -0.29884683085E+03  0.63547053211E+03  0.71263139976E+03  0.00000000000E+00 0. -1.
        -11    1    3    3    0    0 -0.26892565748E+03 -0.62655399254E+03  0.16908600029E+04  0.18231561821E+04  0.00000000000E+00 0.  1.
         22    1    1    2    0    0  0.39021574951E+03  0.92540082339E+03 -0.59406832974E+03  0.11668556875E+04  0.00000000000E+00 0. -1.
<mgrwt>
<rscale>  0 0.32724356E+04</rscale>
<asrwt>0</asrwt>
<pdfrwt beam="1">  1        2 0.41806965E+00 0.32724356E+04</pdfrwt>
<pdfrwt beam="2">  1       -2 0.15156778E+00 0.32724356E+04</pdfrwt>
<totfact> 0.63225807E-01</totfact>
</mgrwt>
</event>
<event>
 6    1  0.6091287E-004  0.5090673E+04  0.7818608E-02  0.7814670E-01
         -2   -1    0    0    0  501 -0.00000000000E+00  0.00000000000E+00  0.33295298449E+04  0.33295298449E+04  0.00000000000E+00 0. -1.
          2   -1    0    0  501    0  0.00000000000E+00 -0.00000000000E+00 -0.19458420324E+04  0.19458420324E+04  0.00000000000E+00 0.  1.
         23    2    1    2    0    0  0.22604900667E+04 -0.10606407661E+04  0.11993297346E+04  0.27716222738E+04  0.93402571444E+02 0.  0.
         11    1    3    3    0    0  0.14804880649E+04 -0.64587120593E+03  0.76801466620E+03  0.17885304170E+04  0.00000000000E+00 0. -1.
        -11    1    3    3    0    0  0.78000200175E+03 -0.41476956015E+03  0.43131506836E+03  0.98309185682E+03  0.00000000000E+00 0.  1.
         22    1    1    2    0    0 -0.22604900667E+04  0.10606407661E+04  0.18435807800E+03  0.25037496035E+04  0.00000000000E+00 0.  1.
<mgrwt>
<rscale>  0 0.50906735E+04</rscale>
<asrwt>0</asrwt>
<pdfrwt beam="1">  1        2 0.29936031E+00 0.50906735E+04</pdfrwt>
<pdfrwt beam="2">  1       -2 0.51223536E+00 0.50906735E+04</pdfrwt>
<totfact> 0.72492403E-03</totfact>
</mgrwt>
</event>
<event>
 6    1  0.6091287E-004  0.2393044E+04  0.7818608E-02  0.8442112E-01
         -2   -1    0    0    0  501 -0.00000000000E+00  0.00000000000E+00  0.58582743527E+03  0.58582743527E+03  0.00000000000E+00 0. -1.
          2   -1    0    0  501    0  0.00000000000E+00 -0.00000000000E+00 -0.24438334517E+04  0.24438334517E+04  0.00000000000E+00 0.  1.
         23    2    1    2    0    0  0.62501540436E+03 -0.83378258049E+01  0.35889459082E+03  0.72632372592E+03  0.89593819440E+02 0.  0.
         13    1    3    3    0    0  0.29459032120E+03  0.34176048233E+02  0.19600920241E+03  0.35548708422E+03  0.00000000000E+00 0.  1.
        -13    1    3    3    0    0  0.33042508317E+03 -0.42513874038E+02  0.16288538841E+03  0.37083664170E+03  0.00000000000E+00 0. -1.
         22    1    1    2    0    0 -0.62501540436E+03  0.83378258049E+01 -0.22169006072E+04  0.23033371610E+04  0.00000000000E+00 0.  1.
<mgrwt>
<rscale>  0 0.23930438E+04</rscale>
<asrwt>0</asrwt>
<pdfrwt beam="1">  1        2 0.37597438E+00 0.23930438E+04</pdfrwt>
<pdfrwt beam="2">  1       -2 0.90127297E-01 0.23930438E+04</pdfrwt>
<totfact> 0.35549610E+00</totfact>
</mgrwt>
</event>
<event>
 6    1  0.6091287E-004  0.4004926E+04  0.7818608E-02  0.8003554E-01
          1   -1    0    0  501    0  0.00000000000E+00  0.00000000000E+00  0.27983518355E+04  0.27983518355E+04  0.00000000000E+00 0.  1.
         -1   -1    0    0    0  501 -0.00000000000E+00 -0.00000000000E+00 -0.14329352851E+04  0.14329352851E+04  0.00000000000E+00 0. -1.
         23    2    1    2    0    0 -0.13156241756E+04 -0.14502136741E+04  0.24535211956E+03  0.19755098708E+04  0.91950611041E+02 0.  0.
         13    1    3    3    0    0 -0.65321258183E+03 -0.78375731620E+03  0.11094431223E+03  0.10262898461E+04  0.00000000000E+00 0.  1.
        -13    1    3    3    0    0 -0.66241159379E+03 -0.66645635790E+03  0.13440780733E+03  0.94922002467E+03  0.00000000000E+00 0. -1.
         22    1    1    2    0    0  0.13156241756E+04  0.14502136741E+04  0.11200644308E+04  0.22557772499E+04  0.00000000000E+00 0. -1.
<mgrwt>
<rscale>  0 0.40049255E+04</rscale>
<asrwt>0</asrwt>
<pdfrwt beam="1">  1        1 0.43051567E+00 0.40049255E+04</pdfrwt>
<pdfrwt beam="2">  1       -1 0.22045158E+00 0.40049255E+04</pdfrwt>
<totfact> 0.71429957E-02</totfact>
</mgrwt>
</event>
<event>
 6    1  0.6765231E-004  0.2632848E+04  0.7818608E-02  0.8357128E-01
         -2   -1    0    0    0  501 -0.00000000000E+00  0.00000000000E+00  0.14034896164E+04  0.14034896164E+04  0.00000000000E+00 0. -1.
          2   -1    0    0  501    0  0.00000000000E+00 -0.00000000000E+00 -0.12347596860E+04  0.12347596860E+04  0.00000000000E+00 0.  1.
         23    2    1    2    0    0 -0.94420879635E+03  0.84223707461E+03  0.44284000875E+03  0.13436335771E+04  0.91380388086E+02 0.  0.
         11    1    3    3    0    0 -0.59400020703E+03  0.58461716956E+03  0.30633828472E+03  0.88795080133E+03  0.00000000000E+00 0.  1.
        -11    1    3    3    0    0 -0.35020858932E+03  0.25761990505E+03  0.13650172403E+03  0.45568277581E+03  0.00000000000E+00 0. -1.
         22    1    1    2    0    0  0.94420879635E+03 -0.84223707461E+03 -0.27411007836E+03  0.12946157252E+04  0.00000000000E+00 0.  1.
<mgrwt>
<rscale>  0 0.26328482E+04</rscale>
<asrwt>0</asrwt>
<pdfrwt beam="1">  1        2 0.18996303E+00 0.26328482E+04</pdfrwt>
<pdfrwt beam="2">  1       -2 0.21592148E+00 0.26328482E+04</pdfrwt>
<totfact> 0.16714456E+00</totfact>
</mgrwt>
</event>
<event>
 6    1  0.6091287E-004  0.1126536E+04  0.7818608E-02  0.9179707E-01
         -2   -1    0    0    0  501 -0.00000000000E+00  0.00000000000E+00  0.54857133505E+03  0.54857133505E+03  0.00000000000E+00 0. -1.
          2   -1    0    0  501    0  0.00000000000E+00 -0.00000000000E+00 -0.57835811160E+03  0.57835811160E+03  0.00000000000E+00 0.  1.
         23    2    1    2    0    0  0.48133637626E+03  0.10602326991E+03  0.25001926960E+03  0.56016929955E+03  0.91402232512E+02 0.  0.
         13    1    3    3    0    0  0.17696894463E+03  0.16260986801E+02  0.13292589453E+03  0.22192728649E+03  0.00000000000E+00 0.  1.
        -13    1    3    3    0    0  0.30436743163E+03  0.89762283110E+02  0.11709337507E+03  0.33824201305E+03  0.00000000000E+00 0. -1.
         22    1    1    2    0    0 -0.48133637626E+03 -0.10602326991E+03 -0.27980604615E+03  0.56676014710E+03  0.00000000000E+00 0.  1.
<mgrwt>
<rscale>  0 0.11265357E+04</rscale>
<asrwt>0</asrwt>
<pdfrwt beam="1">  1        2 0.88978170E-01 0.11265357E+04</pdfrwt>
<pdfrwt beam="2">  1       -2 0.84395591E-01 0.11265357E+04</pdfrwt>
<totfact> 0.62973232E+01</totfact>
</mgrwt>
</event>
<event>
 6    1  0.6091287E-004  0.2974749E+04  0.7818608E-02  0.8250979E-01
          2   -1    0    0  501    0  0.00000000000E+00  0.00000000000E+00  0.16702940869E+04  0.16702940869E+04  0.00000000000E+00 0.  1.
         -2   -1    0    0    0  501 -0.00000000000E+00 -0.00000000000E+00 -0.13244867935E+04  0.13244867935E+04  0.00000000000E+00 0. -1.
         23    2    1    2    0    0 -0.59523054227E+03  0.73912731868E+03  0.13239186051E+04  0.16319491484E+04  0.99443241694E+02 0.  0.
         11    1    3    3    0    0 -0.22960336873E+03  0.36165975957E+03  0.57428589187E+03  0.71646337954E+03  0.00000000000E+00 0. -1.
        -11    1    3    3    0    0 -0.36562717353E+03  0.37746755911E+03  0.74963271324E+03  0.91548576885E+03  0.00000000000E+00 0.  1.
         22    1    1    2    0    0  0.59523054227E+03 -0.73912731868E+03 -0.97811131176E+03  0.13628317320E+04  0.00000000000E+00 0. -1.
<mgrwt>
<rscale>  0 0.29747487E+04</rscale>
<asrwt>0</asrwt>
<pdfrwt beam="1">  1        2 0.25696832E+00 0.29747487E+04</pdfrwt>
<pdfrwt beam="2">  1       -2 0.20376720E+00 0.29747487E+04</pdfrwt>
<totfact> 0.10982678E+00</totfact>
</mgrwt>
</event>
<event>
 6    1  0.6091287E-004  0.2507816E+04  0.7818608E-02  0.8400206E-01
          2   -1    0    0  501    0  0.00000000000E+00  0.00000000000E+00  0.35354738784E+04  0.35354738784E+04  0.00000000000E+00 0.  1.
         -2   -1    0    0    0  501 -0.00000000000E+00 -0.00000000000E+00 -0.44471699721E+03  0.44471699721E+03  0.00000000000E+00 0. -1.
         23    2    1    2    0    0  0.25049422613E+03  0.72218113413E+03  0.31216269878E+04  0.32151772082E+04  0.92284783388E+02 0.  0.
         11    1    3    3    0    0  0.10370148478E+03  0.25292253717E+03  0.12947266288E+04  0.13232690018E+04  0.00000000000E+00 0. -1.
        -11    1    3    3    0    0  0.14679274135E+03  0.46925859697E+03  0.18269003590E+04  0.18919082064E+04  0.00000000000E+00 0.  1.
         22    1    1    2    0    0 -0.25049422613E+03 -0.72218113413E+03 -0.30870106641E+02  0.76501366740E+03  0.00000000000E+00 0. -1.
<mgrwt>
<rscale>  0 0.25078160E+04</rscale>
<asrwt>0</asrwt>
<pdfrwt beam="1">  1        2 0.54391904E+00 0.25078160E+04</pdfrwt>
<pdfrwt beam="2">  1       -2 0.68418002E-01 0.25078160E+04</pdfrwt>
<totfact> 0.13385926E+00</totfact>
</mgrwt>
</event>
<event>
 6    1  0.6091287E-004  0.2587235E+04  0.7818608E-02  0.8372550E-01
         -2   -1    0    0    0  501 -0.00000000000E+00  0.00000000000E+00  0.13761755136E+04  0.13761755136E+04  0.00000000000E+00 0. -1.
          2   -1    0    0  501    0  0.00000000000E+00 -0.00000000000E+00 -0.12160124837E+04  0.12160124837E+04  0.00000000000E+00 0.  1.
         23    2    1    2    0    0  0.57914537263E+03  0.68815426464E+03  0.10094383621E+04  0.13551616255E+04  0.92366496258E+02 0.  0.
         13    1    3    3    0    0  0.79597230003E+02  0.90312647857E+02  0.91694079814E+02  0.15132712136E+03  0.00000000000E+00 0.  1.
        -13    1    3    3    0    0  0.49954814263E+03  0.59784161678E+03  0.91774428230E+03  0.12038345041E+04  0.00000000000E+00 0. -1.
         22    1    1    2    0    0 -0.57914537263E+03 -0.68815426464E+03 -0.84927533229E+03  0.12370263718E+04  0.00000000000E+00 0.  1.
<mgrwt>
<rscale>  0 0.25872353E+04</rscale>
<asrwt>0</asrwt>
<pdfrwt beam="1">  1        2 0.18707884E+00 0.25872353E+04</pdfrwt>
<pdfrwt beam="2">  1       -2 0.21171931E+00 0.25872353E+04</pdfrwt>
<totfact> 0.18314065E+00</totfact>
</mgrwt>
</event>
<event>
 6    1  0.6091287E-004  0.1170279E+04  0.7818608E-02  0.9139276E-01
         -4   -1    0    0    0  501 -0.00000000000E+00  0.00000000000E+00  0.12068910661E+03  0.12068910661E+03  0.00000000000E+00 0. -1.
          4   -1    0    0  501    0  0.00000000000E+00 -0.00000000000E+00 -0.28369457586E+04  0.28369457586E+04  0.00000000000E+00 0.  1.
         23    2    1    2    0    0 -0.30439429707E+03 -0.24073611019E+03 -0.24608609119E+04  0.24930525293E+04  0.94152658187E+02 0.  0.
         11    1    3    3    0    0 -0.19352269267E+03 -0.19284717357E+03 -0.18820177099E+04  0.19017443901E+04  0.00000000000E+00 0. -1.
        -11    1    3    3    0    0 -0.11087160441E+03 -0.47888936626E+02 -0.57884320202E+03  0.59130813917E+03  0.00000000000E+00 0.  1.
         22    1    1    2    0    0  0.30439429707E+03  0.24073611019E+03 -0.25539574013E+03  0.46458233600E+03  0.00000000000E+00 0. -1.
<mgrwt>
<rscale>  0 0.11702794E+04</rscale>
<asrwt>0</asrwt>
<pdfrwt beam="1">  1        4 0.43645319E+00 0.11702794E+04</pdfrwt>
<pdfrwt beam="2">  1       -4 0.18567555E-01 0.11702794E+04</pdfrwt>
<totfact> 0.20222147E-01</totfact>
</mgrwt>
</event>
<event>
 6    1  0.6091287E-004  0.3472482E+04  0.7818608E-02  0.8120342E-01
          2   -1    0    0  501    0  0.00000000000E+00  0.00000000000E+00  0.23054021320E+04  0.23054021320E+04  0.00000000000E+00 0.  1.
         -2   -1    0    0    0  501 -0.00000000000E+00 -0.00000000000E+00 -0.13075951885E+04  0.13075951885E+04  0.00000000000E+00 0. -1.
         23    2    1    2    0    0  0.99050648089E+03  0.37165871280E+03 -0.93154910432E+03  0.14126227962E+04  0.92120264925E+02 0.  0.
         13    1    3    3    0    0  0.37905714860E+03  0.13432674510E+03 -0.29621525656E+03  0.49947119494E+03  0.00000000000E+00 0.  1.
        -13    1    3    3    0    0  0.61144933230E+03  0.23733196770E+03 -0.63533384776E+03  0.91315160131E+03  0.00000000000E+00 0. -1.
         22    1    1    2    0    0 -0.99050648089E+03 -0.37165871280E+03  0.19293560479E+04  0.22003745242E+04  0.00000000000E+00 0.  1.
<mgrwt>
<rscale>  0 0.34724820E+04</rscale>
<asrwt>0</asrwt>
<pdfrwt beam="1">  1        2 0.35467725E+00 0.34724820E+04</pdfrwt>
<pdfrwt beam="2">  1       -2 0.20116849E+00 0.34724820E+04</pdfrwt>
<totfact> 0.48444829E-01</totfact>
</mgrwt>
</event>
<event>
 6    1  0.6091287E-004  0.3774797E+04  0.7818608E-02  0.8051585E-01
          2   -1    0    0  501    0  0.00000000000E+00  0.00000000000E+00  0.22153644693E+04  0.22153644693E+04  0.00000000000E+00 0.  1.
         -2   -1    0    0    0  501 -0.00000000000E+00 -0.00000000000E+00 -0.16079854835E+04  0.16079854835E+04  0.00000000000E+00 0. -1.
         23    2    1    2    0    0  0.13065019016E+04 -0.21409263763E+03 -0.10570382957E+04  0.16965994354E+04  0.91306129545E+02 0.  0.
         13    1    3    3    0    0  0.10639756166E+04 -0.16469230721E+03 -0.81409904802E+03  0.13497869939E+04  0.00000000000E+00 0.  1.
        -13    1    3    3    0    0  0.24252628499E+03 -0.49400330422E+02 -0.24293924765E+03  0.34681244154E+03  0.00000000000E+00 0. -1.
         22    1    1    2    0    0 -0.13065019016E+04  0.21409263763E+03  0.16644172815E+04  0.21267505174E+04  0.00000000000E+00 0.  1.
<mgrwt>
<rscale>  0 0.37747974E+04</rscale>
<asrwt>0</asrwt>
<pdfrwt beam="1">  1        2 0.34082530E+00 0.37747974E+04</pdfrwt>
<pdfrwt beam="2">  1       -2 0.24738238E+00 0.37747974E+04</pdfrwt>
<totfact> 0.27126446E-01</totfact>
</mgrwt>
</event>
<event>
 6    1  0.6091287E-004  0.2238593E+04  0.7818608E-02  0.8502534E-01
         -2   -1    0    0    0  501 -0.00000000000E+00  0.00000000000E+00  0.41227375100E+03  0.41227375100E+03  0.00000000000E+00 0. -1.
          2   -1    0    0  501    0  0.00000000000E+00 -0.00000000000E+00 -0.30388181306E+04  0.30388181306E+04  0.00000000000E+00 0.  1.
         23    2    1    2    0    0 -0.75699796075E+03  0.74860017020E+03 -0.79182338441E+03  0.13298542104E+04  0.89887827137E+02 0.  0.
         11    1    3    3    0    0 -0.17091376997E+03  0.22228440298E+03 -0.22200248209E+03  0.35764084586E+03  0.00000000000E+00 0.  1.
        -11    1    3    3    0    0 -0.58608419078E+03  0.52631576722E+03 -0.56982090232E+03  0.97221336456E+03  0.00000000000E+00 0. -1.
         22    1    1    2    0    0  0.75699796075E+03 -0.74860017020E+03 -0.18347209952E+04  0.21212376711E+04  0.00000000000E+00 0.  1.
<mgrwt>
<rscale>  0 0.22385933E+04</rscale>
<asrwt>0</asrwt>
<pdfrwt beam="1">  1        2 0.46751046E+00 0.22385933E+04</pdfrwt>
<pdfrwt beam="2">  1       -2 0.63426734E-01 0.22385933E+04</pdfrwt>
<totfact> 0.34548378E+00</totfact>
</mgrwt>
</event>
<event>
 6    1  0.6091287E-004  0.3300157E+04  0.7818608E-02  0.8162855E-01
         -2   -1    0    0    0  501 -0.00000000000E+00  0.00000000000E+00  0.18674726660E+04  0.18674726660E+04  0.00000000000E+00 0. -1.
          2   -1    0    0  501    0  0.00000000000E+00 -0.00000000000E+00 -0.14579912328E+04  0.14579912328E+04  0.00000000000E+00 0.  1.
         23    2    1    2    0    0  0.16460923851E+04  0.76196325948E+02  0.26105254276E+03  0.16709376355E+04  0.91968100009E+02 0.  0.
         11    1    3    3    0    0  0.89571400808E+03 -0.43987713267E+01  0.14108927376E+03  0.90676850222E+03  0.00000000000E+00 0. -1.
        -11    1    3    3    0    0  0.75037837700E+03  0.80595097275E+02  0.11996326901E+03  0.76416913329E+03  0.00000000000E+00 0.  1.
         22    1    1    2    0    0 -0.16460923851E+04 -0.76196325948E+02  0.14842889046E+03  0.16545262633E+04  0.00000000000E+00 0.  1.
<mgrwt>
<rscale>  0 0.33001568E+04</rscale>
<asrwt>0</asrwt>
<pdfrwt beam="1">  1        2 0.22430635E+00 0.33001568E+04</pdfrwt>
<pdfrwt beam="2">  1       -2 0.28730349E+00 0.33001568E+04</pdfrwt>
<totfact> 0.42559240E-01</totfact>
</mgrwt>
</event>
<event>
 6    1  0.6091287E-004  0.6437741E+04  0.7818608E-02  0.7638376E-01
          2   -1    0    0  501    0  0.00000000000E+00  0.00000000000E+00  0.30132310703E+04  0.30132310703E+04  0.00000000000E+00 0.  1.
         -2   -1    0    0    0  501 -0.00000000000E+00 -0.00000000000E+00 -0.34385434733E+04  0.34385434733E+04  0.00000000000E+00 0. -1.
         23    2    1    2    0    0  0.21607058960E+04  0.36538665698E+03  0.21494473517E+04  0.30707177305E+04  0.83821743698E+02 0.  0.
         11    1    3    3    0    0  0.13479683640E+04  0.25555784417E+03  0.13871682293E+04  0.19510418290E+04  0.00000000000E+00 0. -1.
        -11    1    3    3    0    0  0.81273753197E+03  0.10982881281E+03  0.76227912237E+03  0.11196759015E+04  0.00000000000E+00 0.  1.
         22    1    1    2    0    0 -0.21607058960E+04 -0.36538665698E+03 -0.25747597548E+04  0.33810568131E+04  0.00000000000E+00 0. -1.
<mgrwt>
<rscale>  0 0.64377406E+04</rscale>
<asrwt>0</asrwt>
<pdfrwt beam="1">  1        2 0.46357401E+00 0.64377406E+04</pdfrwt>
<pdfrwt beam="2">  1       -2 0.52900669E+00 0.64377406E+04</pdfrwt>
<totfact> 0.12544355E-03</totfact>
</mgrwt>
</event>
<event>
 6    1  0.6091287E-004  0.1927195E+04  0.7818608E-02  0.8641437E-01
          2   -1    0    0  501    0  0.00000000000E+00  0.00000000000E+00  0.42846740286E+04  0.42846740286E+04  0.00000000000E+00 0.  1.
         -2   -1    0    0    0  501 -0.00000000000E+00 -0.00000000000E+00 -0.21670735099E+03  0.21670735099E+03  0.00000000000E+00 0. -1.
         23    2    1    2    0    0  0.40860561297E+03 -0.67848572142E+03  0.76555772699E+03  0.11053239157E+04  0.91437979321E+02 0.  0.
         13    1    3    3    0    0  0.10081317783E+03 -0.22752168435E+03  0.20048106027E+03  0.31956543806E+03  0.00000000000E+00 0. -1.
        -13    1    3    3    0    0  0.30779243514E+03 -0.45096403707E+03  0.56507666672E+03  0.78575847761E+03  0.00000000000E+00 0.  1.
         22    1    1    2    0    0 -0.40860561297E+03  0.67848572142E+03  0.33024089506E+04  0.33960574639E+04  0.00000000000E+00 0.  1.
<mgrwt>
<rscale>  0 0.19271952E+04</rscale>
<asrwt>0</asrwt>
<pdfrwt beam="1">  1        2 0.65918056E+00 0.19271952E+04</pdfrwt>
<pdfrwt beam="2">  1       -2 0.33339596E-01 0.19271952E+04</pdfrwt>
<totfact> 0.15620386E+00</totfact>
</mgrwt>
</event>
<event>
 6    1  0.6091287E-004  0.2715219E+04  0.7818608E-02  0.8330084E-01
         -2   -1    0    0    0  501 -0.00000000000E+00  0.00000000000E+00  0.10377271479E+04  0.10377271479E+04  0.00000000000E+00 0. -1.
          2   -1    0    0  501    0  0.00000000000E+00 -0.00000000000E+00 -0.17760960592E+04  0.17760960592E+04  0.00000000000E+00 0.  1.
         23    2    1    2    0    0 -0.12994910885E+04 -0.67263298454E+02  0.25913816341E+02  0.13047408606E+04  0.92063820358E+02 0.  0.
         13    1    3    3    0    0 -0.10085520935E+04 -0.76708061431E+02 -0.94439104632E+01  0.10115090901E+04  0.00000000000E+00 0. -1.
        -13    1    3    3    0    0 -0.29093899504E+03  0.94447629769E+01  0.35357726804E+02  0.29323177050E+03  0.00000000000E+00 0.  1.
         22    1    1    2    0    0  0.12994910885E+04  0.67263298454E+02 -0.76428272764E+03  0.15090823464E+04  0.00000000000E+00 0.  1.
<mgrwt>
<rscale>  0 0.27152187E+04</rscale>
<asrwt>0</asrwt>
<pdfrwt beam="1">  1        2 0.27324555E+00 0.27152187E+04</pdfrwt>
<pdfrwt beam="2">  1       -2 0.15965033E+00 0.27152187E+04</pdfrwt>
<totfact> 0.19756037E+00</totfact>
</mgrwt>
</event>
<event>
 6    1  0.6091287E-004  0.3330658E+04  0.7818608E-02  0.8155138E-01
         -2   -1    0    0    0  501 -0.00000000000E+00  0.00000000000E+00  0.52716440046E+03  0.52716440046E+03  0.00000000000E+00 0. -1.
          2   -1    0    0  501    0  0.00000000000E+00 -0.00000000000E+00 -0.52608257602E+04  0.52608257602E+04  0.00000000000E+00 0.  1.
         23    2    1    2    0    0 -0.12615410222E+04 -0.94077783077E+03 -0.33092471180E+04  0.36653727647E+04  0.85395190640E+02 0.  0.
         13    1    3    3    0    0 -0.60552439566E+03 -0.49265585599E+03 -0.17032699914E+04  0.18736323678E+04  0.00000000000E+00 0.  1.
        -13    1    3    3    0    0 -0.65601662656E+03 -0.44812197478E+03 -0.16059771266E+04  0.17917403969E+04  0.00000000000E+00 0. -1.
         22    1    1    2    0    0  0.12615410222E+04  0.94077783077E+03 -0.14244142418E+04  0.21226173960E+04  0.00000000000E+00 0. -1.
<mgrwt>
<rscale>  0 0.33306576E+04</rscale>
<asrwt>0</asrwt>
<pdfrwt beam="1">  1        2 0.80935783E+00 0.33306576E+04</pdfrwt>
<pdfrwt beam="2">  1       -2 0.81102214E-01 0.33306576E+04</pdfrwt>
<totfact> 0.16624374E-02</totfact>
</mgrwt>
</event>
<event>
 6    1  0.6091287E-004  0.3471189E+04  0.7818608E-02  0.8120652E-01
         -2   -1    0    0    0  501 -0.00000000000E+00  0.00000000000E+00  0.15986875158E+04  0.15986875158E+04  0.00000000000E+00 0. -1.
          2   -1    0    0  501    0  0.00000000000E+00 -0.00000000000E+00 -0.18842253759E+04  0.18842253759E+04  0.00000000000E+00 0.  1.
         23    2    1    2    0    0 -0.13905450459E+04  0.96280395214E+03  0.24223566254E+03  0.17111477080E+04  0.93495388275E+02 0.  0.
         11    1    3    3    0    0 -0.65356248294E+03  0.39686598379E+03  0.10084832341E+03  0.77124374392E+03  0.00000000000E+00 0. -1.
        -11    1    3    3    0    0 -0.73698256292E+03  0.56593796835E+03  0.14138733913E+03  0.93990396410E+03  0.00000000000E+00 0.  1.
         22    1    1    2    0    0  0.13905450459E+04 -0.96280395214E+03 -0.52777352267E+03  0.17717651837E+04  0.00000000000E+00 0.  1.
<mgrwt>
<rscale>  0 0.34711886E+04</rscale>
<asrwt>0</asrwt>
<pdfrwt beam="1">  1        2 0.28988082E+00 0.34711886E+04</pdfrwt>
<pdfrwt beam="2">  1       -2 0.24595193E+00 0.34711886E+04</pdfrwt>
<totfact> 0.43437000E-01</totfact>
</mgrwt>
</event>
<event>
 6    1  0.6091287E-004  0.1378773E+04  0.7818608E-02  0.8969329E-01
          2   -1    0    0  501    0  0.00000000000E+00  0.00000000000E+00  0.19763969828E+04  0.19763969828E+04  0.00000000000E+00 0.  1.
         -2   -1    0    0    0  501 -0.00000000000E+00 -0.00000000000E+00 -0.24046469011E+03  0.24046469011E+03  0.00000000000E+00 0. -1.
         23    2    1    2    0    0 -0.24180840627E+03 -0.60065353125E+03  0.12379816917E+04  0.14000319655E+04  0.90746158633E+02 0.  0.
         11    1    3    3    0    0 -0.88989649604E+02 -0.32010583115E+03  0.57482007514E+03  0.66393148717E+03  0.00000000000E+00 0. -1.
        -11    1    3    3    0    0 -0.15281875666E+03 -0.28054770010E+03  0.66316161659E+03  0.73610047829E+03  0.00000000000E+00 0.  1.
         22    1    1    2    0    0  0.24180840627E+03  0.60065353125E+03  0.49795060091E+03  0.81682970740E+03  0.00000000000E+00 0. -1.
<mgrwt>
<rscale>  0 0.13787729E+04</rscale>
<asrwt>0</asrwt>
<pdfrwt beam="1">  1        2 0.30406106E+00 0.13787729E+04</pdfrwt>
<pdfrwt beam="2">  1       -2 0.36994569E-01 0.13787729E+04</pdfrwt>
<totfact> 0.46248123E+01</totfact>
</mgrwt>
</event>
<event>
 6    1  0.6091287E-004  0.1959731E+04  0.7818608E-02  0.8625682E-01
         -2   -1    0    0    0  501 -0.00000000000E+00  0.00000000000E+00  0.13042190264E+04  0.13042190264E+04  0.00000000000E+00 0. -1.
          2   -1    0    0  501    0  0.00000000000E+00 -0.00000000000E+00 -0.73617762767E+03  0.73617762767E+03  0.00000000000E+00 0.  1.
         23    2    1    2    0    0  0.11917155140E+03 -0.62533805954E+03 -0.48801855065E+03  0.80730616101E+03  0.91277513367E+02 0.  0.
         11    1    3    3    0    0  0.12215545305E+03 -0.49870116124E+03 -0.35903448105E+03  0.62652259458E+03  0.00000000000E+00 0.  1.
        -11    1    3    3    0    0 -0.29839016547E+01 -0.12663689830E+03 -0.12898406960E+03  0.18078356643E+03  0.00000000000E+00 0. -1.
         22    1    1    2    0    0 -0.11917155140E+03  0.62533805954E+03  0.10560599494E+04  0.12330904931E+04  0.00000000000E+00 0. -1.
<mgrwt>
<rscale>  0 0.19597315E+04</rscale>
<asrwt>0</asrwt>
<pdfrwt beam="1">  1        2 0.11325810E+00 0.19597315E+04</pdfrwt>
<pdfrwt beam="2">  1       -2 0.20064908E+00 0.19597315E+04</pdfrwt>
<totfact> 0.47127312E+00</totfact>
</mgrwt>
</event>
<event>
 6    1  0.6091287E-004  0.4625957E+04  0.7818608E-02  0.7888949E-01
          1   -1    0    0  501    0  0.00000000000E+00  0.00000000000E+00  0.34362647502E+04  0.34362647502E+04  0.00000000000E+00 0. -1.
         -1   -1    0    0    0  501 -0.00000000000E+00 -0.00000000000E+00 -0.15568853466E+04  0.15568853466E+04  0.00000000000E+00 0.  1.
         23    2    1    2    0    0  0.40499791860E+03  0.22586726241E+04  0.63438685429E+03  0.23824735973E+04  0.90046787266E+02 0.  0.
         13    1    3    3    0    0  0.36137664974E+02  0.35159613696E+03  0.11730259175E+03  0.37240525290E+03  0.00000000000E+00 0. -1.
        -13    1    3    3    0    0  0.36886025363E+03  0.19070764872E+04  0.51708426254E+03  0.20100683444E+04  0.00000000000E+00 0.  1.
         22    1    1    2    0    0 -0.40499791860E+03 -0.22586726241E+04  0.12449925493E+04  0.26106764995E+04  0.00000000000E+00 0.  1.
<mgrwt>
<rscale>  0 0.46259573E+04</rscale>
<asrwt>0</asrwt>
<pdfrwt beam="1">  1        1 0.52865612E+00 0.46259573E+04</pdfrwt>
<pdfrwt beam="2">  1       -1 0.23952082E+00 0.46259573E+04</pdfrwt>
<totfact> 0.17012160E-02</totfact>
</mgrwt>
</event>
<event>
 6    1  0.6091287E-004  0.1827554E+04  0.7818608E-02  0.8691782E-01
         -2   -1    0    0    0  501 -0.00000000000E+00  0.00000000000E+00  0.16179209729E+04  0.16179209729E+04  0.00000000000E+00 0. -1.
          2   -1    0    0  501    0  0.00000000000E+00 -0.00000000000E+00 -0.51608704598E+03  0.51608704598E+03  0.00000000000E+00 0.  1.
         23    2    1    2    0    0  0.14962244304E+03 -0.13976029287E+03  0.15893733768E+04  0.16052221170E+04  0.93330054426E+02 0.  0.
         11    1    3    3    0    0  0.94355807434E+02 -0.13848619232E+03  0.10914468332E+04  0.11042362218E+04  0.00000000000E+00 0. -1.
        -11    1    3    3    0    0  0.55266635606E+02 -0.12741005585E+01  0.49792654361E+03  0.50098589519E+03  0.00000000000E+00 0.  1.
         22    1    1    2    0    0 -0.14962244304E+03  0.13976029287E+03 -0.48753944984E+03  0.52878590193E+03  0.00000000000E+00 0.  1.
<mgrwt>
<rscale>  0 0.18275536E+04</rscale>
<asrwt>0</asrwt>
<pdfrwt beam="1">  1        2 0.79398008E-01 0.18275536E+04</pdfrwt>
<pdfrwt beam="2">  1       -2 0.24891092E+00 0.18275536E+04</pdfrwt>
<totfact> 0.36477058E+00</totfact>
</mgrwt>
</event>
<event>
 6    1  0.6091287E-004  0.4652136E+04  0.7818608E-02  0.7884530E-01
         -2   -1    0    0    0  501 -0.00000000000E+00  0.00000000000E+00  0.12538803383E+04  0.12538803383E+04  0.00000000000E+00 0. -1.
          2   -1    0    0  501    0  0.00000000000E+00 -0.00000000000E+00 -0.43150787547E+04  0.43150787547E+04  0.00000000000E+00 0.  1.
         23    2    1    2    0    0 -0.22442044845E+03  0.23138421397E+04 -0.15875660654E+04  0.28165379241E+04  0.91048782069E+02 0.  0.
         11    1    3    3    0    0 -0.27726382551E+02  0.69582702544E+03 -0.49116372644E+03  0.85216536411E+03  0.00000000000E+00 0.  1.
        -11    1    3    3    0    0 -0.19669406589E+03  0.16180151142E+04 -0.10964023390E+04  0.19643725600E+04  0.00000000000E+00 0. -1.
         22    1    1    2    0    0  0.22442044845E+03 -0.23138421397E+04 -0.14736323510E+04  0.27524211689E+04  0.00000000000E+00 0.  1.
<mgrwt>
<rscale>  0 0.46521360E+04</rscale>
<asrwt>0</asrwt>
<pdfrwt beam="1">  1        2 0.66385827E+00 0.46521360E+04</pdfrwt>
<pdfrwt beam="2">  1       -2 0.19290467E+00 0.46521360E+04</pdfrwt>
<totfact> 0.20248400E-02</totfact>
</mgrwt>
</event>
<event>
 6    1  0.6091287E-004  0.3931325E+04  0.7818608E-02  0.8018546E-01
          2   -1    0    0  501    0  0.00000000000E+00  0.00000000000E+00  0.21574780278E+04  0.21574780278E+04  0.00000000000E+00 0.  1.
         -2   -1    0    0    0  501 -0.00000000000E+00 -0.00000000000E+00 -0.17909007909E+04  0.17909007909E+04  0.00000000000E+00 0. -1.
         23    2    1    2    0    0  0.57199609782E+03 -0.15405930769E+04  0.12647130252E+04  0.20756122933E+04  0.89781910588E+02 0.  0.
         13    1    3    3    0    0  0.11668345462E+03 -0.28248464689E+03  0.19442074785E+03  0.36223201336E+03  0.00000000000E+00 0.  1.
        -13    1    3    3    0    0  0.45531264320E+03 -0.12581084300E+04  0.10702922773E+04  0.17133802799E+04  0.00000000000E+00 0. -1.
         22    1    1    2    0    0 -0.57199609782E+03  0.15405930769E+04 -0.89813578834E+03  0.18727665254E+04  0.00000000000E+00 0. -1.
<mgrwt>
<rscale>  0 0.39313250E+04</rscale>
<asrwt>0</asrwt>
<pdfrwt beam="1">  1        2 0.33191969E+00 0.39313250E+04</pdfrwt>
<pdfrwt beam="2">  1       -2 0.27552320E+00 0.39313250E+04</pdfrwt>
<totfact> 0.19410829E-01</totfact>
</mgrwt>
</event>
<event>
 6    1  0.6091287E-004  0.2536357E+04  0.7818608E-02  0.8390146E-01
          2   -1    0    0  501    0  0.00000000000E+00  0.00000000000E+00  0.35979553361E+04  0.35979553361E+04  0.00000000000E+00 0.  1.
         -2   -1    0    0    0  501 -0.00000000000E+00 -0.00000000000E+00 -0.44699745131E+03  0.44699745131E+03  0.00000000000E+00 0. -1.
         23    2    1    2    0    0  0.11056651312E+04  0.17147723287E+03  0.25238174882E+04  0.27622973774E+04  0.93446582754E+02 0.  0.
         13    1    3    3    0    0  0.50110264788E+03  0.95983374463E+02  0.10453801726E+04  0.11632439027E+04  0.00000000000E+00 0.  1.
        -13    1    3    3    0    0  0.60456248333E+03  0.75493858403E+02  0.14784373155E+04  0.15990534746E+04  0.00000000000E+00 0. -1.
         22    1    1    2    0    0 -0.11056651312E+04 -0.17147723287E+03  0.62714039664E+03  0.12826554100E+04  0.00000000000E+00 0. -1.
<mgrwt>
<rscale>  0 0.25363571E+04</rscale>
<asrwt>0</asrwt>
<pdfrwt beam="1">  1        2 0.55353157E+00 0.25363571E+04</pdfrwt>
<pdfrwt beam="2">  1       -2 0.68768841E-01 0.25363571E+04</pdfrwt>
<totfact> 0.11919513E+00</totfact>
</mgrwt>
</event>
<event>
 6    1  0.6091287E-004  0.2792179E+04  0.7818608E-02  0.8305701E-01
         -2   -1    0    0    0  501 -0.00000000000E+00  0.00000000000E+00  0.11174594122E+04  0.11174594122E+04  0.00000000000E+00 0. -1.
          2   -1    0    0  501    0  0.00000000000E+00 -0.00000000000E+00 -0.17441935753E+04  0.17441935753E+04  0.00000000000E+00 0.  1.
         23    2    1    2    0    0  0.13865796736E+04  0.10440257816E+03 -0.20464034196E+03  0.14084956377E+04  0.92082584138E+02 0.  0.
         13    1    3    3    0    0  0.20107449680E+03  0.78285530224E+01 -0.61881582341E+02  0.21052688602E+03  0.00000000000E+00 0. -1.
        -13    1    3    3    0    0  0.11855051768E+04  0.96574025135E+02 -0.14275875962E+03  0.11979687517E+04  0.00000000000E+00 0.  1.
         22    1    1    2    0    0 -0.13865796736E+04 -0.10440257816E+03 -0.42209382107E+03  0.14531573498E+04  0.00000000000E+00 0. -1.
<mgrwt>
<rscale>  0 0.27921787E+04</rscale>
<asrwt>0</asrwt>
<pdfrwt beam="1">  1        2 0.26833747E+00 0.27921787E+04</pdfrwt>
<pdfrwt beam="2">  1       -2 0.17191683E+00 0.27921787E+04</pdfrwt>
<totfact> 0.16670119E+00</totfact>
</mgrwt>
</event>
<event>
 6    1  0.6091287E-004  0.1681972E+04  0.7818608E-02  0.8771713E-01
         -2   -1    0    0    0  501 -0.00000000000E+00  0.00000000000E+00  0.52073411884E+03  0.52073411884E+03  0.00000000000E+00 0. -1.
          2   -1    0    0  501    0  0.00000000000E+00 -0.00000000000E+00 -0.13581936823E+04  0.13581936823E+04  0.00000000000E+00 0.  1.
         23    2    1    2    0    0 -0.39366079031E+03  0.69555296797E+03 -0.13804550123E+03  0.81688129579E+03  0.97343422621E+02 0.  0.
         13    1    3    3    0    0 -0.22079948958E+03  0.41913702841E+03 -0.12792926626E+03  0.49070781566E+03  0.00000000000E+00 0.  1.
        -13    1    3    3    0    0 -0.17286130073E+03  0.27641593956E+03 -0.10116234973E+02  0.32617348013E+03  0.00000000000E+00 0. -1.
         22    1    1    2    0    0  0.39366079031E+03 -0.69555296797E+03 -0.69941406222E+03  0.10620465053E+04  0.00000000000E+00 0.  1.
<mgrwt>
<rscale>  0 0.16819724E+04</rscale>
<asrwt>0</asrwt>
<pdfrwt beam="1">  1        2 0.20895287E+00 0.16819724E+04</pdfrwt>
<pdfrwt beam="2">  1       -2 0.80112942E-01 0.16819724E+04</pdfrwt>
<totfact> 0.20082430E+01</totfact>
</mgrwt>
</event>
<event>
 6    1  0.6091287E-004  0.4562650E+04  0.7818608E-02  0.7899760E-01
          2   -1    0    0  501    0  0.00000000000E+00  0.00000000000E+00  0.40122755303E+04  0.40122755303E+04  0.00000000000E+00 0.  1.
         -2   -1    0    0    0  501 -0.00000000000E+00 -0.00000000000E+00 -0.12971301162E+04  0.12971301162E+04  0.00000000000E+00 0. -1.
         23    2    1    2    0    0  0.47611175979E+03 -0.20031419225E+04  0.24988040796E+04  0.32391246166E+04  0.92986474246E+02 0.  0.
         13    1    3    3    0    0  0.11890883137E+03 -0.34713803209E+03  0.44970863408E+03  0.58041535047E+03  0.00000000000E+00 0.  1.
        -13    1    3    3    0    0  0.35720292842E+03 -0.16560038904E+04  0.20490954455E+04  0.26587092662E+04  0.00000000000E+00 0. -1.
         22    1    1    2    0    0 -0.47611175979E+03  0.20031419225E+04  0.21634133455E+03  0.20702810299E+04  0.00000000000E+00 0. -1.
<mgrwt>
<rscale>  0 0.45626499E+04</rscale>
<asrwt>0</asrwt>
<pdfrwt beam="1">  1        2 0.61727315E+00 0.45626499E+04</pdfrwt>
<pdfrwt beam="2">  1       -2 0.19955848E+00 0.45626499E+04</pdfrwt>
<totfact> 0.33602999E-02</totfact>
</mgrwt>
</event>
<event>
 6    1  0.6091287E-004  0.9975854E+03  0.7818608E-02  0.9311197E-01
         -2   -1    0    0    0  501 -0.00000000000E+00  0.00000000000E+00  0.25467791883E+03  0.25467791883E+03  0.00000000000E+00 0. -1.
          2   -1    0    0  501    0  0.00000000000E+00 -0.00000000000E+00 -0.97689719266E+03  0.97689719266E+03  0.00000000000E+00 0.  1.
         23    2    1    2    0    0  0.93963600275E+01  0.40598918202E+03 -0.71308269810E+03  0.82537444124E+03  0.88546747147E+02 0.  0.
         13    1    3    3    0    0  0.35568569294E+02  0.33539408782E+03 -0.54071967509E+03  0.63728493180E+03  0.00000000000E+00 0.  1.
        -13    1    3    3    0    0 -0.26172209266E+02  0.70595094200E+02 -0.17236302301E+03  0.18808950944E+03  0.00000000000E+00 0. -1.
         22    1    1    2    0    0 -0.93963600275E+01 -0.40598918202E+03 -0.91365757282E+01  0.40620067025E+03  0.00000000000E+00 0. -1.
<mgrwt>
<rscale>  0 0.99758537E+03</rscale>
<asrwt>0</asrwt>
<pdfrwt beam="1">  1        2 0.15029187E+00 0.99758537E+03</pdfrwt>
<pdfrwt beam="2">  1       -2 0.39181219E-01 0.99758537E+03</pdfrwt>
<totfact> 0.16016770E+02</totfact>
</mgrwt>
</event>
<event>
 6    1  0.6091287E-004  0.4264887E+04  0.7818608E-02  0.7953143E-01
          2   -1    0    0  501    0  0.00000000000E+00  0.00000000000E+00  0.30593017347E+04  0.30593017347E+04  0.00000000000E+00 0.  1.
         -2   -1    0    0    0  501 -0.00000000000E+00 -0.00000000000E+00 -0.14863901237E+04  0.14863901237E+04  0.00000000000E+00 0. -1.
         23    2    1    2    0    0 -0.98021615763E+03 -0.14653691926E+04 -0.48980829614E+03  0.18322173327E+04  0.94750203987E+02 0.  0.
         13    1    3    3    0    0 -0.19275556309E+03 -0.34006845301E+03 -0.80946277692E+02  0.39919113180E+03  0.00000000000E+00 0. -1.
        -13    1    3    3    0    0 -0.78746059455E+03 -0.11253007396E+04 -0.40886201844E+03  0.14330262009E+04  0.00000000000E+00 0.  1.
         22    1    1    2    0    0  0.98021615763E+03  0.14653691926E+04  0.20627199072E+04  0.27134745257E+04  0.00000000000E+00 0.  1.
<mgrwt>
<rscale>  0 0.42648873E+04</rscale>
<asrwt>0</asrwt>
<pdfrwt beam="1">  1        2 0.47066180E+00 0.42648873E+04</pdfrwt>
<pdfrwt beam="2">  1       -2 0.22867540E+00 0.42648873E+04</pdfrwt>
<totfact> 0.10743152E-01</totfact>
</mgrwt>
</event>
<event>
 6    1  0.6091287E-004  0.1944311E+04  0.7818608E-02  0.8633109E-01
         -2   -1    0    0    0  501 -0.00000000000E+00  0.00000000000E+00  0.80671437635E+03  0.80671437635E+03  0.00000000000E+00 0. -1.
          2   -1    0    0  501    0  0.00000000000E+00 -0.00000000000E+00 -0.11715251190E+04  0.11715251190E+04  0.00000000000E+00 0.  1.
         23    2    1    2    0    0  0.11137331015E+03  0.15831301757E+03 -0.11502160104E+04  0.11693337776E+04  0.82931218976E+02 0.  0.
         13    1    3    3    0    0  0.17293184027E+02  0.90820332961E+02 -0.42563909005E+03  0.43556402753E+03  0.00000000000E+00 0.  1.
        -13    1    3    3    0    0  0.94080126124E+02  0.67492684609E+02 -0.72457692033E+03  0.73376975004E+03  0.00000000000E+00 0. -1.
         22    1    1    2    0    0 -0.11137331015E+03 -0.15831301757E+03  0.78540526771E+03  0.80890571780E+03  0.00000000000E+00 0. -1.
<mgrwt>
<rscale>  0 0.19443108E+04</rscale>
<asrwt>0</asrwt>
<pdfrwt beam="1">  1        2 0.18023463E+00 0.19443108E+04</pdfrwt>
<pdfrwt beam="2">  1       -2 0.12410990E+00 0.19443108E+04</pdfrwt>
<totfact> 0.89769765E+00</totfact>
</mgrwt>
</event>
<event>
 6    1  0.6091287E-004  0.2794034E+04  0.7818608E-02  0.8305123E-01
          2   -1    0    0  501    0  0.00000000000E+00  0.00000000000E+00  0.71497315119E+03  0.71497315119E+03  0.00000000000E+00 0.  1.
         -2   -1    0    0    0  501 -0.00000000000E+00 -0.00000000000E+00 -0.27296916674E+04  0.27296916674E+04  0.00000000000E+00 0. -1.
         23    2    1    2    0    0  0.10572819250E+04 -0.18554037424E+03 -0.21076853722E+04  0.23672080280E+04  0.95215124707E+02 0.  0.
         11    1    3    3    0    0  0.88430313336E+03 -0.11889290260E+03 -0.17504347284E+04  0.19647262640E+04  0.00000000000E+00 0.  1.
        -11    1    3    3    0    0  0.17297879160E+03 -0.66647471636E+02 -0.35725064383E+03  0.40248176398E+03  0.00000000000E+00 0. -1.
         22    1    1    2    0    0 -0.10572819250E+04  0.18554037424E+03  0.92966856042E+02  0.10774567906E+04  0.00000000000E+00 0.  1.
<mgrwt>
<rscale>  0 0.27940338E+04</rscale>
<asrwt>0</asrwt>
<pdfrwt beam="1">  1        2 0.10999587E+00 0.27940338E+04</pdfrwt>
<pdfrwt beam="2">  1       -2 0.41995257E+00 0.27940338E+04</pdfrwt>
<totfact> 0.19038048E-01</totfact>
</mgrwt>
</event>
<event>
 6    1  0.6091287E-004  0.7480499E+04  0.7818608E-02  0.7529814E-01
         -2   -1    0    0    0  501 -0.00000000000E+00  0.00000000000E+00  0.33915513003E+04  0.33915513003E+04  0.00000000000E+00 0. -1.
          2   -1    0    0  501    0  0.00000000000E+00 -0.00000000000E+00 -0.41247984877E+04  0.41247984877E+04  0.00000000000E+00 0.  1.
         23    2    1    2    0    0  0.36880534593E+04 -0.47532132208E+03  0.32408231714E+02  0.37197859602E+04  0.89936745968E+02 0.  0.
         11    1    3    3    0    0  0.86554960323E+03 -0.82781408837E+02  0.32770990107E+02  0.87011655259E+03  0.00000000000E+00 0. -1.
        -11    1    3    3    0    0  0.28225038561E+04 -0.39253991324E+03 -0.36275839235E+00  0.28496694076E+04  0.00000000000E+00 0.  1.
         22    1    1    2    0    0 -0.36880534593E+04  0.47532132208E+03 -0.76565541906E+03  0.37965638278E+04  0.00000000000E+00 0.  1.
<mgrwt>
<rscale>  0 0.74804988E+04</rscale>
<asrwt>0</asrwt>
<pdfrwt beam="1">  1        2 0.63458438E+00 0.74804988E+04</pdfrwt>
<pdfrwt beam="2">  1       -2 0.52177712E+00 0.74804988E+04</pdfrwt>
<totfact> 0.20069121E-04</totfact>
</mgrwt>
</event>
<event>
 6    1  0.6091287E-004  0.2106599E+04  0.7818608E-02  0.8558342E-01
         -2   -1    0    0    0  501 -0.00000000000E+00  0.00000000000E+00  0.51869919704E+03  0.51869919704E+03  0.00000000000E+00 0. -1.
          2   -1    0    0  501    0  0.00000000000E+00 -0.00000000000E+00 -0.21388878136E+04  0.21388878136E+04  0.00000000000E+00 0.  1.
         23    2    1    2    0    0  0.77377190965E+03 -0.14082653026E+03 -0.16919705643E+04  0.18678353232E+04  0.86540883086E+02 0.  0.
         11    1    3    3    0    0  0.58766381140E+03 -0.14037417216E+03 -0.13307984943E+04  0.14615328583E+04  0.00000000000E+00 0.  1.
        -11    1    3    3    0    0  0.18610809825E+03 -0.45235810463E+00 -0.36117206992E+03  0.40630246486E+03  0.00000000000E+00 0. -1.
         22    1    1    2    0    0 -0.77377190965E+03  0.14082653026E+03  0.71781947710E+02  0.78975168743E+03  0.00000000000E+00 0. -1.
<mgrwt>
<rscale>  0 0.21065986E+04</rscale>
<asrwt>0</asrwt>
<pdfrwt beam="1">  1        2 0.32905965E+00 0.21065986E+04</pdfrwt>
<pdfrwt beam="2">  1       -2 0.79799879E-01 0.21065986E+04</pdfrwt>
<totfact> 0.71547963E+00</totfact>
</mgrwt>
</event>
<event>
 6    1  0.6091287E-004  0.6436409E+03  0.7818608E-02  0.9818785E-01
          2   -1    0    0  501    0  0.00000000000E+00  0.00000000000E+00  0.85674420247E+02  0.85674420247E+02  0.00000000000E+00 0.  1.
         -2   -1    0    0    0  501 -0.00000000000E+00 -0.00000000000E+00 -0.12088602664E+04  0.12088602664E+04  0.00000000000E+00 0. -1.
         23    2    1    2    0    0 -0.12739673676E+03 -0.28642662437E+03 -0.50251281480E+03  0.59918933969E+03  0.90766712393E+02 0.  0.
         13    1    3    3    0    0 -0.74036257952E+01 -0.10338557828E+02  0.77646809262E+00  0.12739794173E+02  0.00000000000E+00 0.  1.
        -13    1    3    3    0    0 -0.11999311097E+03 -0.27608806654E+03 -0.50328928289E+03  0.58644954552E+03  0.00000000000E+00 0. -1.
         22    1    1    2    0    0  0.12739673676E+03  0.28642662437E+03 -0.62067303138E+03  0.69534534698E+03  0.00000000000E+00 0.  1.
<mgrwt>
<rscale>  0 0.64364090E+03</rscale>
<asrwt>0</asrwt>
<pdfrwt beam="1">  1        2 0.13180680E-01 0.64364090E+03</pdfrwt>
<pdfrwt beam="2">  1       -2 0.18597850E+00 0.64364090E+03</pdfrwt>
<totfact> 0.79148368E+01</totfact>
</mgrwt>
</event>
<event>
 6    1  0.6091287E-004  0.2839788E+04  0.7818608E-02  0.8291021E-01
         -1   -1    0    0    0  501 -0.00000000000E+00  0.00000000000E+00  0.10032317842E+04  0.10032317842E+04  0.00000000000E+00 0.  1.
          1   -1    0    0  501    0  0.00000000000E+00 -0.00000000000E+00 -0.20096040664E+04  0.20096040664E+04  0.00000000000E+00 0. -1.
         23    2    1    2    0    0 -0.67423380543E+03  0.12089697080E+03 -0.18211990054E+04  0.19483407164E+04  0.10029171507E+03 0.  0.
         13    1    3    3    0    0 -0.36795507742E+03  0.77076158961E+02 -0.86018008241E+03  0.93874461248E+03  0.00000000000E+00 0.  1.
        -13    1    3    3    0    0 -0.30627872801E+03  0.43820811837E+02 -0.96101892298E+03  0.10095961040E+04  0.00000000000E+00 0. -1.
         22    1    1    2    0    0  0.67423380543E+03 -0.12089697080E+03  0.81482672313E+03  0.10644951342E+04  0.00000000000E+00 0.  1.
<mgrwt>
<rscale>  0 0.28397878E+04</rscale>
<asrwt>0</asrwt>
<pdfrwt beam="1">  1        1 0.30916986E+00 0.28397878E+04</pdfrwt>
<pdfrwt beam="2">  1       -1 0.15434335E+00 0.28397878E+04</pdfrwt>
<totfact> 0.81766355E-01</totfact>
</mgrwt>
</event>
<event>
 6    1  0.6091287E-004  0.1366952E+04  0.7818608E-02  0.8978094E-01
         -2   -1    0    0    0  501 -0.00000000000E+00  0.00000000000E+00  0.26366018199E+03  0.26366018199E+03  0.00000000000E+00 0. -1.
          2   -1    0    0  501    0  0.00000000000E+00 -0.00000000000E+00 -0.17717493252E+04  0.17717493252E+04  0.00000000000E+00 0.  1.
         23    2    1    2    0    0 -0.22915752409E+03  0.61556468229E+03 -0.49319598131E+03  0.82650869282E+03  0.91876517072E+02 0.  0.
         13    1    3    3    0    0 -0.42958885198E+02  0.20575144524E+03 -0.19383979844E+03  0.28592479867E+03  0.00000000000E+00 0.  1.
        -13    1    3    3    0    0 -0.18619863889E+03  0.40981323705E+03 -0.29935618288E+03  0.54058389415E+03  0.00000000000E+00 0. -1.
         22    1    1    2    0    0  0.22915752409E+03 -0.61556468229E+03 -0.10148931619E+04  0.12089008144E+04  0.00000000000E+00 0. -1.
<mgrwt>
<rscale>  0 0.13669524E+04</rscale>
<asrwt>0</asrwt>
<pdfrwt beam="1">  1        2 0.27257681E+00 0.13669524E+04</pdfrwt>
<pdfrwt beam="2">  1       -2 0.40563107E-01 0.13669524E+04</pdfrwt>
<totfact> 0.50221884E+01</totfact>
</mgrwt>
</event>
<event>
 6    1  0.6091287E-004  0.3008167E+04  0.7818608E-02  0.8241403E-01
         -2   -1    0    0    0  501 -0.00000000000E+00  0.00000000000E+00  0.13410971166E+04  0.13410971166E+04  0.00000000000E+00 0. -1.
          2   -1    0    0  501    0  0.00000000000E+00 -0.00000000000E+00 -0.16868775766E+04  0.16868775766E+04  0.00000000000E+00 0.  1.
         23    2    1    2    0    0 -0.12249717339E+04 -0.41023415144E+03 -0.94574721978E+03  0.16036124076E+04  0.91033742113E+02 0.  0.
         11    1    3    3    0    0 -0.66039620937E+03 -0.23590907302E+03 -0.45967118056E+03  0.83849498408E+03  0.00000000000E+00 0. -1.
        -11    1    3    3    0    0 -0.56457552452E+03 -0.17432507842E+03 -0.48607603923E+03  0.76511742351E+03  0.00000000000E+00 0.  1.
         22    1    1    2    0    0  0.12249717339E+04  0.41023415144E+03  0.59996675978E+03  0.14243622856E+04  0.00000000000E+00 0. -1.
<mgrwt>
<rscale>  0 0.30081667E+04</rscale>
<asrwt>0</asrwt>
<pdfrwt beam="1">  1        2 0.25951963E+00 0.30081667E+04</pdfrwt>
<pdfrwt beam="2">  1       -2 0.20632263E+00 0.30081667E+04</pdfrwt>
<totfact> 0.10319688E+00</totfact>
</mgrwt>
</event>
<event>
 6    1  0.6091287E-004  0.3645462E+04  0.7818608E-02  0.8080157E-01
         -2   -1    0    0    0  501 -0.00000000000E+00  0.00000000000E+00  0.12296620214E+04  0.12296620214E+04  0.00000000000E+00 0. -1.
          2   -1    0    0  501    0  0.00000000000E+00 -0.00000000000E+00 -0.27018386905E+04  0.27018386905E+04  0.00000000000E+00 0.  1.
         23    2    1    2    0    0  0.35124672954E+03  0.17504934354E+04 -0.34703122432E+03  0.18211562367E+04  0.92616604191E+02 0.  0.
         11    1    3    3    0    0  0.91208617636E+02  0.68245486263E+03 -0.12902011052E+03  0.70050684534E+03  0.00000000000E+00 0. -1.
        -11    1    3    3    0    0  0.26003811190E+03  0.10680385728E+04 -0.21801111379E+03  0.11206493913E+04  0.00000000000E+00 0.  1.
         22    1    1    2    0    0 -0.35124672954E+03 -0.17504934354E+04 -0.11251454448E+04  0.21103444752E+04  0.00000000000E+00 0.  1.
<mgrwt>
<rscale>  0 0.36454621E+04</rscale>
<asrwt>0</asrwt>
<pdfrwt beam="1">  1        2 0.41566749E+00 0.36454621E+04</pdfrwt>
<pdfrwt beam="2">  1       -2 0.18917877E+00 0.36454621E+04</pdfrwt>
<totfact> 0.33756385E-01</totfact>
</mgrwt>
</event>
<event>
 6    1  0.6091287E-004  0.1802893E+04  0.7818608E-02  0.8704763E-01
          2   -1    0    0  501    0  0.00000000000E+00  0.00000000000E+00  0.21947939087E+04  0.21947939087E+04  0.00000000000E+00 0.  1.
         -2   -1    0    0    0  501 -0.00000000000E+00 -0.00000000000E+00 -0.37024224952E+03  0.37024224952E+03  0.00000000000E+00 0. -1.
         23    2    1    2    0    0  0.85177031545E+03 -0.14237756676E+02  0.13239400941E+04  0.15769433877E+04  0.90651482892E+02 0.  0.
         11    1    3    3    0    0  0.42756195226E+03 -0.30121270404E+02  0.73705975654E+03  0.85262746769E+03  0.00000000000E+00 0.  1.
        -11    1    3    3    0    0  0.42420836320E+03  0.15883513728E+02  0.58688033754E+03  0.72431592003E+03  0.00000000000E+00 0. -1.
         22    1    1    2    0    0 -0.85177031545E+03  0.14237756676E+02  0.50061156508E+03  0.98809277049E+03  0.00000000000E+00 0. -1.
<mgrwt>
<rscale>  0 0.18028926E+04</rscale>
<asrwt>0</asrwt>
<pdfrwt beam="1">  1        2 0.33766059E+00 0.18028926E+04</pdfrwt>
<pdfrwt beam="2">  1       -2 0.56960347E-01 0.18028926E+04</pdfrwt>
<totfact> 0.14183053E+01</totfact>
</mgrwt>
</event>
<event>
 6    1  0.6091287E-004  0.3395830E+04  0.7818608E-02  0.8138931E-01
         -2   -1    0    0    0  501 -0.00000000000E+00  0.00000000000E+00  0.20662552984E+04  0.20662552984E+04  0.00000000000E+00 0. -1.
          2   -1    0    0  501    0  0.00000000000E+00 -0.00000000000E+00 -0.13952364604E+04  0.13952364604E+04  0.00000000000E+00 0.  1.
         23    2    1    2    0    0  0.11335978227E+04  0.50009536489E+03  0.15173715611E+04  0.19610077270E+04  0.89417298372E+02 0.  0.
         11    1    3    3    0    0  0.57161580816E+03  0.20998577016E+03  0.70876210613E+03  0.93444228227E+03  0.00000000000E+00 0.  1.
        -11    1    3    3    0    0  0.56198201459E+03  0.29010959473E+03  0.80860945498E+03  0.10265654448E+04  0.00000000000E+00 0. -1.
         22    1    1    2    0    0 -0.11335978227E+04 -0.50009536489E+03 -0.84635272309E+03  0.15004840318E+04  0.00000000000E+00 0.  1.
<mgrwt>
<rscale>  0 0.33958296E+04</rscale>
<asrwt>0</asrwt>
<pdfrwt beam="1">  1        2 0.21465176E+00 0.33958296E+04</pdfrwt>
<pdfrwt beam="2">  1       -2 0.31788543E+00 0.33958296E+04</pdfrwt>
<totfact> 0.29771086E-01</totfact>
</mgrwt>
</event>
<event>
 6    1  0.6091287E-004  0.4512666E+04  0.7818608E-02  0.7908423E-01
         -2   -1    0    0    0  501 -0.00000000000E+00  0.00000000000E+00  0.13306152202E+04  0.13306152202E+04  0.00000000000E+00 0. -1.
          2   -1    0    0  501    0  0.00000000000E+00 -0.00000000000E+00 -0.38260790741E+04  0.38260790741E+04  0.00000000000E+00 0.  1.
         23    2    1    2    0    0 -0.48869965778E+03 -0.29499796586E+03 -0.37416270666E+04  0.37860105569E+04  0.90838737050E+02 0.  0.
         13    1    3    3    0    0 -0.46152365861E+03 -0.25529796677E+03 -0.35133703723E+04  0.35527387341E+04  0.00000000000E+00 0.  1.
        -13    1    3    3    0    0 -0.27175999175E+02 -0.39699999094E+02 -0.22825669424E+03  0.23327182282E+03  0.00000000000E+00 0. -1.
         22    1    1    2    0    0  0.48869965778E+03  0.29499796586E+03  0.12461632127E+04  0.13706837374E+04  0.00000000000E+00 0. -1.
<mgrwt>
<rscale>  0 0.45126662E+04</rscale>
<asrwt>0</asrwt>
<pdfrwt beam="1">  1        2 0.58862753E+00 0.45126662E+04</pdfrwt>
<pdfrwt beam="2">  1       -2 0.20471004E+00 0.45126662E+04</pdfrwt>
<totfact> 0.43848182E-02</totfact>
</mgrwt>
</event>
<event>
 6    1  0.6091287E-004  0.4462688E+04  0.7818608E-02  0.7917202E-01
          2   -1    0    0  501    0  0.00000000000E+00  0.00000000000E+00  0.34770212868E+04  0.34770212868E+04  0.00000000000E+00 0.  1.
         -2   -1    0    0    0  501 -0.00000000000E+00 -0.00000000000E+00 -0.14319426578E+04  0.14319426578E+04  0.00000000000E+00 0. -1.
         23    2    1    2    0    0  0.15376260505E+04 -0.10992378608E+04 -0.27927035289E+03  0.19130974697E+04  0.96603585713E+02 0.  0.
         11    1    3    3    0    0  0.70553622350E+03 -0.47192946338E+03 -0.84810198150E+02  0.85304838713E+03  0.00000000000E+00 0.  1.
        -11    1    3    3    0    0  0.83208982701E+03 -0.62730839744E+03 -0.19446015474E+03  0.10600490826E+04  0.00000000000E+00 0. -1.
         22    1    1    2    0    0 -0.15376260505E+04  0.10992378608E+04  0.23243489819E+04  0.29958664749E+04  0.00000000000E+00 0.  1.
<mgrwt>
<rscale>  0 0.44626876E+04</rscale>
<asrwt>0</asrwt>
<pdfrwt beam="1">  1        2 0.53492635E+00 0.44626876E+04</pdfrwt>
<pdfrwt beam="2">  1       -2 0.22029887E+00 0.44626876E+04</pdfrwt>
<totfact> 0.62975038E-02</totfact>
</mgrwt>
</event>
<event>
 6    1  0.6091287E-004  0.1747228E+04  0.7818608E-02  0.8734877E-01
         -2   -1    0    0    0  501 -0.00000000000E+00  0.00000000000E+00  0.50968613061E+03  0.50968613061E+03  0.00000000000E+00 0. -1.
          2   -1    0    0  501    0  0.00000000000E+00 -0.00000000000E+00 -0.14973957535E+04  0.14973957535E+04  0.00000000000E+00 0.  1.
         23    2    1    2    0    0  0.15241850799E+03 -0.51418304827E+03 -0.12843338930E+04  0.13942184684E+04  0.81951083968E+02 0.  0.
         11    1    3    3    0    0  0.33405736715E+02 -0.25521340269E+03 -0.59451880291E+03  0.64784444983E+03  0.00000000000E+00 0. -1.
        -11    1    3    3    0    0  0.11901277128E+03 -0.25896964558E+03 -0.68981509007E+03  0.74637401854E+03  0.00000000000E+00 0.  1.
         22    1    1    2    0    0 -0.15241850799E+03  0.51418304827E+03  0.29662427011E+03  0.61286341572E+03  0.00000000000E+00 0. -1.
<mgrwt>
<rscale>  0 0.17472285E+04</rscale>
<asrwt>0</asrwt>
<pdfrwt beam="1">  1        2 0.23036858E+00 0.17472285E+04</pdfrwt>
<pdfrwt beam="2">  1       -2 0.78413251E-01 0.17472285E+04</pdfrwt>
<totfact> 0.17459094E+01</totfact>
</mgrwt>
</event>
<event>
 6    1  0.6091287E-004  0.3568303E+04  0.7818608E-02  0.8097791E-01
         -2   -1    0    0    0  501 -0.00000000000E+00  0.00000000000E+00  0.12249431017E+04  0.12249431017E+04  0.00000000000E+00 0. -1.
          2   -1    0    0  501    0  0.00000000000E+00 -0.00000000000E+00 -0.25986480870E+04  0.25986480870E+04  0.00000000000E+00 0.  1.
         23    2    1    2    0    0 -0.34879279583E+03  0.87907482743E+03 -0.23066517455E+04  0.24951264267E+04  0.10288169721E+03 0.  0.
         11    1    3    3    0    0 -0.24583128966E+03  0.69981186507E+03 -0.17200520964E+04  0.18731654715E+04  0.00000000000E+00 0. -1.
        -11    1    3    3    0    0 -0.10296150617E+03  0.17926296237E+03 -0.58659964910E+03  0.62196095517E+03  0.00000000000E+00 0.  1.
         22    1    1    2    0    0  0.34879279583E+03 -0.87907482743E+03  0.93294676012E+03  0.13284647620E+04  0.00000000000E+00 0. -1.
<mgrwt>
<rscale>  0 0.35683027E+04</rscale>
<asrwt>0</asrwt>
<pdfrwt beam="1">  1        2 0.39979201E+00 0.35683027E+04</pdfrwt>
<pdfrwt beam="2">  1       -2 0.18845279E+00 0.35683027E+04</pdfrwt>
<totfact> 0.39545591E-01</totfact>
</mgrwt>
</event>
<event>
 6    1  0.6091287E-004  0.3769839E+04  0.7818608E-02  0.8052659E-01
         -2   -1    0    0    0  501 -0.00000000000E+00  0.00000000000E+00  0.14212972478E+04  0.14212972478E+04  0.00000000000E+00 0. -1.
          2   -1    0    0  501    0  0.00000000000E+00 -0.00000000000E+00 -0.24997731588E+04  0.24997731588E+04  0.00000000000E+00 0.  1.
         23    2    1    2    0    0  0.81122050269E+03 -0.13774646640E+04  0.49708272953E+03  0.16765498265E+04  0.90777068444E+02 0.  0.
         13    1    3    3    0    0  0.27428432993E+03 -0.42835150858E+03  0.11877604094E+03  0.52232619736E+03  0.00000000000E+00 0. -1.
        -13    1    3    3    0    0  0.53693617276E+03 -0.94911315544E+03  0.37830668859E+03  0.11542236291E+04  0.00000000000E+00 0.  1.
         22    1    1    2    0    0 -0.81122050269E+03  0.13774646640E+04 -0.15755586405E+04  0.22445205800E+04  0.00000000000E+00 0.  1.
<mgrwt>
<rscale>  0 0.37698386E+04</rscale>
<asrwt>0</asrwt>
<pdfrwt beam="1">  1        2 0.38458048E+00 0.37698386E+04</pdfrwt>
<pdfrwt beam="2">  1       -2 0.21866112E+00 0.37698386E+04</pdfrwt>
<totfact> 0.28208887E-01</totfact>
</mgrwt>
</event>
<event>
 6    1  0.6091287E-004  0.9491614E+03  0.7818608E-02  0.9366131E-01
          2   -1    0    0  501    0  0.00000000000E+00  0.00000000000E+00  0.16985322856E+04  0.16985322856E+04  0.00000000000E+00 0.  1.
         -2   -1    0    0    0  501 -0.00000000000E+00 -0.00000000000E+00 -0.13260086029E+03  0.13260086029E+03  0.00000000000E+00 0. -1.
         23    2    1    2    0    0  0.35357075474E+03  0.15650687122E+03  0.13066206030E+04  0.13655702802E+04  0.89543903613E+02 0.  0.
         13    1    3    3    0    0  0.58624255069E+02 -0.56591435435E+01  0.23891508480E+03  0.24606756579E+03  0.00000000000E+00 0.  1.
        -13    1    3    3    0    0  0.29494649967E+03  0.16216601476E+03  0.10677055182E+04  0.11195027144E+04  0.00000000000E+00 0. -1.
         22    1    1    2    0    0 -0.35357075474E+03 -0.15650687122E+03  0.25931082237E+03  0.46556286573E+03  0.00000000000E+00 0. -1.
<mgrwt>
<rscale>  0 0.94916140E+03</rscale>
<asrwt>0</asrwt>
<pdfrwt beam="1">  1        2 0.26131264E+00 0.94916140E+03</pdfrwt>
<pdfrwt beam="2">  1       -2 0.20400134E-01 0.94916140E+03</pdfrwt>
<totfact> 0.20318627E+02</totfact>
</mgrwt>
</event>
<event>
 6    1  0.6091287E-004  0.8646597E+03  0.7818608E-02  0.9470870E-01
         -2   -1    0    0    0  501 -0.00000000000E+00  0.00000000000E+00  0.70460080394E+02  0.70460080394E+02  0.00000000000E+00 0.  1.
          2   -1    0    0  501    0  0.00000000000E+00 -0.00000000000E+00 -0.26526946760E+04  0.26526946760E+04  0.00000000000E+00 0. -1.
         23    2    1    2    0    0 -0.17849411548E+02  0.33086686497E+03 -0.21561290166E+04  0.21833793880E+04  0.91987673599E+02 0.  0.
         11    1    3    3    0    0 -0.21119773679E+02  0.14904015472E+03 -0.70440598492E+03  0.72031021383E+03  0.00000000000E+00 0.  1.
        -11    1    3    3    0    0  0.32703621307E+01  0.18182671025E+03 -0.14517230317E+04  0.14630691742E+04  0.00000000000E+00 0. -1.
         22    1    1    2    0    0  0.17849411548E+02 -0.33086686497E+03 -0.42610557906E+03  0.53977536840E+03  0.00000000000E+00 0.  1.
<mgrwt>
<rscale>  0 0.86465966E+03</rscale>
<asrwt>0</asrwt>
<pdfrwt beam="1">  1        2 0.40810684E+00 0.86465966E+03</pdfrwt>
<pdfrwt beam="2">  1       -2 0.10840013E-01 0.86465966E+03</pdfrwt>
<totfact> 0.17570849E+02</totfact>
</mgrwt>
</event>
<event>
 6    1  0.6091287E-004  0.1096762E+04  0.7818608E-02  0.9208353E-01
         -2   -1    0    0    0  501 -0.00000000000E+00  0.00000000000E+00  0.11586533669E+03  0.11586533669E+03  0.00000000000E+00 0. -1.
          2   -1    0    0  501    0  0.00000000000E+00 -0.00000000000E+00 -0.25954438880E+04  0.25954438880E+04  0.00000000000E+00 0.  1.
         23    2    1    2    0    0  0.17370498660E+02  0.48358907550E+03 -0.18652055550E+04  0.19292514859E+04  0.94124414679E+02 0.  0.
         13    1    3    3    0    0 -0.91078009469E+00  0.30865126384E+03 -0.10084329917E+04  0.10546106063E+04  0.00000000000E+00 0.  1.
        -13    1    3    3    0    0  0.18281278755E+02  0.17493781166E+03 -0.85677256328E+03  0.87464087962E+03  0.00000000000E+00 0. -1.
         22    1    1    2    0    0 -0.17370498660E+02 -0.48358907550E+03 -0.61437299639E+03  0.78205773883E+03  0.00000000000E+00 0.  1.
<mgrwt>
<rscale>  0 0.10967625E+04</rscale>
<asrwt>0</asrwt>
<pdfrwt beam="1">  1        2 0.39929899E+00 0.10967625E+04</pdfrwt>
<pdfrwt beam="2">  1       -2 0.17825440E-01 0.10967625E+04</pdfrwt>
<totfact> 0.80299488E+01</totfact>
</mgrwt>
</event>
<event>
 6    1  0.6091287E-004  0.1381137E+04  0.7818608E-02  0.8967587E-01
         -2   -1    0    0    0  501 -0.00000000000E+00  0.00000000000E+00  0.62327917705E+03  0.62327917705E+03  0.00000000000E+00 0. -1.
          2   -1    0    0  501    0  0.00000000000E+00 -0.00000000000E+00 -0.76512281575E+03  0.76512281575E+03  0.00000000000E+00 0.  1.
         23    2    1    2    0    0  0.39991004189E+03  0.27218236095E+03  0.41970839132E+03  0.64721918024E+03  0.93414422330E+02 0.  0.
         11    1    3    3    0    0  0.50575812538E+02  0.45634273142E+02  0.10558373609E+03  0.12565160176E+03  0.00000000000E+00 0. -1.
        -11    1    3    3    0    0  0.34933422935E+03  0.22654808781E+03  0.31412465523E+03  0.52156757847E+03  0.00000000000E+00 0.  1.
         22    1    1    2    0    0 -0.39991004189E+03 -0.27218236095E+03 -0.56155203002E+03  0.74118281256E+03  0.00000000000E+00 0.  1.
<mgrwt>
<rscale>  0 0.13811374E+04</rscale>
<asrwt>0</asrwt>
<pdfrwt beam="1">  1        2 0.11771120E+00 0.13811374E+04</pdfrwt>
<pdfrwt beam="2">  1       -2 0.95889104E-01 0.13811374E+04</pdfrwt>
<totfact> 0.32480764E+01</totfact>
</mgrwt>
</event>
<event>
 6    1  0.6091287E-004  0.5457643E+04  0.7818608E-02  0.7761545E-01
          2   -1    0    0  501    0  0.00000000000E+00  0.00000000000E+00  0.38537967626E+04  0.38537967626E+04  0.00000000000E+00 0.  1.
         -2   -1    0    0    0  501 -0.00000000000E+00 -0.00000000000E+00 -0.19322413551E+04  0.19322413551E+04  0.00000000000E+00 0. -1.
         23    2    1    2    0    0 -0.15941140915E+04  0.14035118678E+04  0.27761085869E+04  0.34966481474E+04  0.93402787851E+02 0.  0.
         13    1    3    3    0    0 -0.78214951622E+03  0.67413924071E+03  0.12749822161E+04  0.16406709704E+04  0.00000000000E+00 0.  1.
        -13    1    3    3    0    0 -0.81196457524E+03  0.72937262704E+03  0.15011263708E+04  0.18559771770E+04  0.00000000000E+00 0. -1.
         22    1    1    2    0    0  0.15941140915E+04 -0.14035118678E+04 -0.85455317949E+03  0.22893899703E+04  0.00000000000E+00 0. -1.
<mgrwt>
<rscale>  0 0.54576425E+04</rscale>
<asrwt>0</asrwt>
<pdfrwt beam="1">  1        2 0.59289181E+00 0.54576425E+04</pdfrwt>
<pdfrwt beam="2">  1       -2 0.29726790E+00 0.54576425E+04</pdfrwt>
<totfact> 0.10316408E-02</totfact>
</mgrwt>
</event>
<event>
 6    1  0.6091287E-004  0.1768127E+04  0.7818608E-02  0.8723435E-01
         -2   -1    0    0    0  501 -0.00000000000E+00  0.00000000000E+00  0.27371885946E+03  0.27371885946E+03  0.00000000000E+00 0. -1.
          2   -1    0    0  501    0  0.00000000000E+00 -0.00000000000E+00 -0.28553691363E+04  0.28553691363E+04  0.00000000000E+00 0.  1.
         23    2    1    2    0    0 -0.51192063476E+03  0.18339653092E+03 -0.25225338257E+04  0.25821037377E+04  0.91573940947E+02 0.  0.
         13    1    3    3    0    0 -0.49391011785E+03  0.16612508365E+03 -0.24635361975E+04  0.25180459376E+04  0.00000000000E+00 0.  1.
        -13    1    3    3    0    0 -0.18010516910E+02  0.17271447274E+02 -0.58997628197E+02  0.64057800018E+02  0.00000000000E+00 0. -1.
         22    1    1    2    0    0  0.51192063476E+03 -0.18339653092E+03 -0.59116451232E+02  0.54698425814E+03  0.00000000000E+00 0. -1.
<mgrwt>
<rscale>  0 0.17681271E+04</rscale>
<asrwt>0</asrwt>
<pdfrwt beam="1">  1        2 0.43928755E+00 0.17681271E+04</pdfrwt>
<pdfrwt beam="2">  1       -2 0.42110595E-01 0.17681271E+04</pdfrwt>
<totfact> 0.10858665E+01</totfact>
</mgrwt>
</event>
<event>
 6    1  0.6091287E-004  0.2321626E+04  0.7818608E-02  0.8469443E-01
          1   -1    0    0  501    0  0.00000000000E+00  0.00000000000E+00  0.10925575497E+04  0.10925575497E+04  0.00000000000E+00 0.  1.
         -1   -1    0    0    0  501 -0.00000000000E+00 -0.00000000000E+00 -0.12333325988E+04  0.12333325988E+04  0.00000000000E+00 0. -1.
         23    2    1    2    0    0  0.74103288760E+03  0.22225756397E+03  0.79403651895E+03  0.11124649003E+04  0.92498625028E+02 0.  0.
         11    1    3    3    0    0  0.13293791531E+03  0.46886357254E+02  0.19836779142E+03  0.24335283128E+03  0.00000000000E+00 0.  1.
        -11    1    3    3    0    0  0.60809497229E+03  0.17537120671E+03  0.59566872754E+03  0.86911206897E+03  0.00000000000E+00 0. -1.
         22    1    1    2    0    0 -0.74103288760E+03 -0.22225756397E+03 -0.93481156812E+03  0.12134252483E+04  0.00000000000E+00 0. -1.
<mgrwt>
<rscale>  0 0.23216260E+04</rscale>
<asrwt>0</asrwt>
<pdfrwt beam="1">  1        1 0.16808578E+00 0.23216260E+04</pdfrwt>
<pdfrwt beam="2">  1       -1 0.18974348E+00 0.23216260E+04</pdfrwt>
<totfact> 0.20560990E+00</totfact>
</mgrwt>
</event>
<event>
 6    1  0.6091287E-004  0.1536881E+04  0.7818608E-02  0.8860291E-01
          2   -1    0    0  501    0  0.00000000000E+00  0.00000000000E+00  0.19578277317E+04  0.19578277317E+04  0.00000000000E+00 0.  1.
         -2   -1    0    0    0  501 -0.00000000000E+00 -0.00000000000E+00 -0.30161033154E+03  0.30161033154E+03  0.00000000000E+00 0. -1.
         23    2    1    2    0    0 -0.64297188441E+03  0.36362787415E+03  0.11276261430E+04  0.13511171991E+04  0.91317536300E+02 0.  0.
         13    1    3    3    0    0 -0.43669438107E+03  0.23755721446E+03  0.83227062470E+03  0.96943788112E+03  0.00000000000E+00 0.  1.
        -13    1    3    3    0    0 -0.20627750334E+03  0.12607065968E+03  0.29535551829E+03  0.38167931802E+03  0.00000000000E+00 0. -1.
         22    1    1    2    0    0  0.64297188441E+03 -0.36362787415E+03  0.52859125712E+03  0.90832086407E+03  0.00000000000E+00 0.  1.
<mgrwt>
<rscale>  0 0.15368814E+04</rscale>
<asrwt>0</asrwt>
<pdfrwt beam="1">  1        2 0.30120426E+00 0.15368814E+04</pdfrwt>
<pdfrwt beam="2">  1       -2 0.46401591E-01 0.15368814E+04</pdfrwt>
<totfact> 0.29926271E+01</totfact>
</mgrwt>
</event>
<event>
 6    1  0.6091287E-004  0.2063454E+04  0.7818608E-02  0.8577515E-01
          2   -1    0    0  501    0  0.00000000000E+00  0.00000000000E+00  0.25303424307E+04  0.25303424307E+04  0.00000000000E+00 0.  1.
         -2   -1    0    0    0  501 -0.00000000000E+00 -0.00000000000E+00 -0.42067833932E+03  0.42067833932E+03  0.00000000000E+00 0. -1.
         23    2    1    2    0    0  0.42753953014E+03  0.44078402948E+03 -0.12543579664E+03  0.63310098712E+03  0.89454515455E+02 0.  0.
         13    1    3    3    0    0  0.21347687304E+03  0.15893338755E+03 -0.41496919446E+02  0.26935885232E+03  0.00000000000E+00 0. -1.
        -13    1    3    3    0    0  0.21406265710E+03  0.28185064193E+03 -0.83938877197E+02  0.36374213479E+03  0.00000000000E+00 0.  1.
         22    1    1    2    0    0 -0.42753953014E+03 -0.44078402948E+03  0.22350998880E+04  0.23179197829E+04  0.00000000000E+00 0.  1.
<mgrwt>
<rscale>  0 0.20634537E+04</rscale>
<asrwt>0</asrwt>
<pdfrwt beam="1">  1        2 0.38928344E+00 0.20634537E+04</pdfrwt>
<pdfrwt beam="2">  1       -2 0.64719746E-01 0.20634537E+04</pdfrwt>
<totfact> 0.68110247E+00</totfact>
</mgrwt>
</event>
<event>
 6    1  0.6724849E-004  0.3894322E+04  0.7818608E-02  0.8026211E-01
          2   -1    0    0  501    0  0.00000000000E+00  0.00000000000E+00  0.25103260252E+04  0.25103260252E+04  0.00000000000E+00 0.  1.
         -2   -1    0    0    0  501 -0.00000000000E+00 -0.00000000000E+00 -0.15103357217E+04  0.15103357217E+04  0.00000000000E+00 0. -1.
         23    2    1    2    0    0  0.11690257099E+04 -0.24885592336E+03  0.20858297344E+04  0.24058559844E+04  0.94376667912E+02 0.  0.
         11    1    3    3    0    0  0.57114586950E+03 -0.16976094995E+03  0.10316474543E+04  0.11913533709E+04  0.00000000000E+00 0.  1.
        -11    1    3    3    0    0  0.59787984042E+03 -0.79094973412E+02  0.10541822802E+04  0.12145026135E+04  0.00000000000E+00 0. -1.
         22    1    1    2    0    0 -0.11690257099E+04  0.24885592336E+03 -0.10858394309E+04  0.16148057625E+04  0.00000000000E+00 0. -1.
<mgrwt>
<rscale>  0 0.38943215E+04</rscale>
<asrwt>0</asrwt>
<pdfrwt beam="1">  1        2 0.38620400E+00 0.38943215E+04</pdfrwt>
<pdfrwt beam="2">  1       -2 0.23235934E+00 0.38943215E+04</pdfrwt>
<totfact> 0.22575546E-01</totfact>
</mgrwt>
</event>
<event>
 6    1  0.6091287E-004  0.1097260E+04  0.7818608E-02  0.9207867E-01
         -2   -1    0    0    0  501 -0.00000000000E+00  0.00000000000E+00  0.32057691052E+03  0.32057691052E+03  0.00000000000E+00 0.  1.
          2   -1    0    0  501    0  0.00000000000E+00 -0.00000000000E+00 -0.93891579214E+03  0.93891579214E+03  0.00000000000E+00 0. -1.
         23    2    1    2    0    0 -0.23266431221E+03  0.48475614306E+03 -0.21531413059E+03  0.58751788887E+03  0.98467733294E+02 0.  0.
         11    1    3    3    0    0 -0.14633708502E+02  0.11072317488E+03 -0.24235230112E+02  0.11428522765E+03  0.00000000000E+00 0.  1.
        -11    1    3    3    0    0 -0.21803060371E+03  0.37403296818E+03 -0.19107890048E+03  0.47323266122E+03  0.00000000000E+00 0. -1.
         22    1    1    2    0    0  0.23266431221E+03 -0.48475614306E+03 -0.40302475103E+03  0.67197481378E+03  0.00000000000E+00 0. -1.
<mgrwt>
<rscale>  0 0.10972597E+04</rscale>
<asrwt>0</asrwt>
<pdfrwt beam="1">  1        2 0.14444858E+00 0.10972597E+04</pdfrwt>
<pdfrwt beam="2">  1       -2 0.49319526E-01 0.10972597E+04</pdfrwt>
<totfact> 0.10668486E+02</totfact>
</mgrwt>
</event>
<event>
 6    1  0.6091287E-004  0.1669335E+04  0.7818608E-02  0.8779049E-01
         -2   -1    0    0    0  501 -0.00000000000E+00  0.00000000000E+00  0.24641365585E+04  0.24641365585E+04  0.00000000000E+00 0. -1.
          2   -1    0    0  501    0  0.00000000000E+00 -0.00000000000E+00 -0.28272387545E+03  0.28272387545E+03  0.00000000000E+00 0.  1.
         23    2    1    2    0    0 -0.53635308471E+02  0.47279167355E+03 -0.29527096921E+02  0.48529826953E+03  0.90740553560E+02 0.  0.
         13    1    3    3    0    0  0.35069479318E+01  0.24748752660E+03 -0.48015285623E+02  0.25212663913E+03  0.00000000000E+00 0.  1.
        -13    1    3    3    0    0 -0.57142256403E+02  0.22530414696E+03  0.18488188703E+02  0.23317163040E+03  0.00000000000E+00 0. -1.
         22    1    1    2    0    0  0.53635308471E+02 -0.47279167355E+03  0.22109397799E+04  0.22615621644E+04  0.00000000000E+00 0. -1.
<mgrwt>
<rscale>  0 0.16693355E+04</rscale>
<asrwt>0</asrwt>
<pdfrwt beam="1">  1        2 0.43495982E-01 0.16693355E+04</pdfrwt>
<pdfrwt beam="2">  1       -2 0.37909792E+00 0.16693355E+04</pdfrwt>
<totfact> 0.11422718E+00</totfact>
</mgrwt>
</event>
<event>
 6    1  0.6091287E-004  0.1905675E+04  0.7818608E-02  0.8652037E-01
          2   -1    0    0  501    0  0.00000000000E+00  0.00000000000E+00  0.30990944100E+04  0.30990944100E+04  0.00000000000E+00 0.  1.
         -2   -1    0    0    0  501 -0.00000000000E+00 -0.00000000000E+00 -0.29295644428E+03  0.29295644428E+03  0.00000000000E+00 0. -1.
         23    2    1    2    0    0  0.16466316657E+03 -0.27876603552E+03  0.29972071528E+04  0.30161095088E+04  0.94028672206E+02 0.  0.
         11    1    3    3    0    0  0.10690530418E+03 -0.19232315235E+03  0.16029897147E+04  0.16180213114E+04  0.00000000000E+00 0. -1.
        -11    1    3    3    0    0  0.57757862382E+02 -0.86442883174E+02  0.13942174381E+04  0.13980881973E+04  0.00000000000E+00 0.  1.
         22    1    1    2    0    0 -0.16466316657E+03  0.27876603552E+03 -0.19106918709E+03  0.37594134548E+03  0.00000000000E+00 0. -1.
<mgrwt>
<rscale>  0 0.19056754E+04</rscale>
<asrwt>0</asrwt>
<pdfrwt beam="1">  1        2 0.47678373E+00 0.19056754E+04</pdfrwt>
<pdfrwt beam="2">  1       -2 0.45070225E-01 0.19056754E+04</pdfrwt>
<totfact> 0.66096347E+00</totfact>
</mgrwt>
</event>
<event>
 6    1  0.6091287E-004  0.3483101E+04  0.7818608E-02  0.8117806E-01
         -2   -1    0    0    0  501 -0.00000000000E+00  0.00000000000E+00  0.14530885819E+04  0.14530885819E+04  0.00000000000E+00 0.  1.
          2   -1    0    0  501    0  0.00000000000E+00 -0.00000000000E+00 -0.20872774250E+04  0.20872774250E+04  0.00000000000E+00 0. -1.
         23    2    1    2    0    0  0.13238195426E+04  0.55532596842E+03 -0.13173875364E+04  0.19505089168E+04  0.89944431690E+02 0.  0.
         11    1    3    3    0    0  0.47656289356E+03  0.17318743000E+03 -0.41775789974E+03  0.65698382037E+03  0.00000000000E+00 0.  1.
        -11    1    3    3    0    0  0.84725664907E+03  0.38213853842E+03 -0.89962963664E+03  0.12935250964E+04  0.00000000000E+00 0. -1.
         22    1    1    2    0    0 -0.13238195426E+04 -0.55532596842E+03  0.68319869329E+03  0.15898570902E+04  0.00000000000E+00 0.  1.
<mgrwt>
<rscale>  0 0.34831015E+04</rscale>
<asrwt>0</asrwt>
<pdfrwt beam="1">  1        2 0.32111960E+00 0.34831015E+04</pdfrwt>
<pdfrwt beam="2">  1       -2 0.22355209E+00 0.34831015E+04</pdfrwt>
<totfact> 0.46129767E-01</totfact>
</mgrwt>
</event>
<event>
 6    1  0.6091287E-004  0.2498903E+04  0.7818608E-02  0.8403377E-01
         -2   -1    0    0    0  501 -0.00000000000E+00  0.00000000000E+00  0.30856536773E+04  0.30856536773E+04  0.00000000000E+00 0. -1.
          2   -1    0    0  501    0  0.00000000000E+00 -0.00000000000E+00 -0.50593120630E+03  0.50593120630E+03  0.00000000000E+00 0.  1.
         23    2    1    2    0    0 -0.77181735234E+03 -0.18432966057E+03  0.26756331391E+04  0.27922862502E+04  0.90390035301E+02 0.  0.
         13    1    3    3    0    0 -0.47103527920E+03 -0.10364635193E+03  0.17736893119E+04  0.18380942782E+04  0.00000000000E+00 0. -1.
        -13    1    3    3    0    0 -0.30078207315E+03 -0.80683308638E+02  0.90194382730E+03  0.95419197199E+03  0.00000000000E+00 0.  1.
         22    1    1    2    0    0  0.77181735234E+03  0.18432966057E+03 -0.95910668135E+02  0.79929863343E+03  0.00000000000E+00 0.  1.
<mgrwt>
<rscale>  0 0.24989025E+04</rscale>
<asrwt>0</asrwt>
<pdfrwt beam="1">  1        2 0.77835572E-01 0.24989025E+04</pdfrwt>
<pdfrwt beam="2">  1       -2 0.47471594E+00 0.24989025E+04</pdfrwt>
<totfact> 0.12915607E-01</totfact>
</mgrwt>
</event>
<event>
 6    1  0.6091287E-004  0.4104410E+04  0.7818608E-02  0.7983809E-01
         -2   -1    0    0    0  501 -0.00000000000E+00  0.00000000000E+00  0.16949955403E+04  0.16949955403E+04  0.00000000000E+00 0. -1.
          2   -1    0    0  501    0  0.00000000000E+00 -0.00000000000E+00 -0.24846942150E+04  0.24846942150E+04  0.00000000000E+00 0.  1.
         23    2    1    2    0    0  0.10310082085E+04 -0.11156266929E+04  0.10084024706E+04  0.18258060341E+04  0.95348242247E+02 0.  0.
         13    1    3    3    0    0  0.50244983438E+03 -0.50649769589E+03  0.52181209457E+03  0.88390249126E+03  0.00000000000E+00 0. -1.
        -13    1    3    3    0    0  0.52855837417E+03 -0.60912899704E+03  0.48659037604E+03  0.94190354282E+03  0.00000000000E+00 0.  1.
         22    1    1    2    0    0 -0.10310082085E+04  0.11156266929E+04 -0.17981011453E+04  0.23538837212E+04  0.00000000000E+00 0. -1.
<mgrwt>
<rscale>  0 0.41044101E+04</rscale>
<asrwt>0</asrwt>
<pdfrwt beam="1">  1        2 0.38226065E+00 0.41044101E+04</pdfrwt>
<pdfrwt beam="2">  1       -2 0.26076855E+00 0.41044101E+04</pdfrwt>
<totfact> 0.15340132E-01</totfact>
</mgrwt>
</event>
<event>
 6    1  0.6091287E-004  0.3339945E+04  0.7818608E-02  0.8152805E-01
         -2   -1    0    0    0  501 -0.00000000000E+00  0.00000000000E+00  0.34420792360E+04  0.34420792360E+04  0.00000000000E+00 0. -1.
          2   -1    0    0  501    0  0.00000000000E+00 -0.00000000000E+00 -0.81021044271E+03  0.81021044271E+03  0.00000000000E+00 0.  1.
         23    2    1    2    0    0 -0.15724404006E+04  0.25000138576E+03  0.68115486296E+03  0.17342836533E+04  0.93264872134E+02 0.  0.
         11    1    3    3    0    0 -0.10563027541E+04  0.15286766162E+03  0.50101915495E+03  0.11790522566E+04  0.00000000000E+00 0.  1.
        -11    1    3    3    0    0 -0.51613764650E+03  0.97133724140E+02  0.18013570801E+03  0.55523139663E+03  0.00000000000E+00 0. -1.
         22    1    1    2    0    0  0.15724404006E+04 -0.25000138576E+03  0.19507139303E+04  0.25180060254E+04  0.00000000000E+00 0. -1.
<mgrwt>
<rscale>  0 0.33399452E+04</rscale>
<asrwt>0</asrwt>
<pdfrwt beam="1">  1        2 0.12464776E+00 0.33399452E+04</pdfrwt>
<pdfrwt beam="2">  1       -2 0.52955064E+00 0.33399452E+04</pdfrwt>
<totfact> 0.30932004E-02</totfact>
</mgrwt>
</event>
<event>
 6    1  0.6091287E-004  0.1425450E+03  0.7818608E-02  0.1209945E+00
         -2   -1    0    0    0  501 -0.00000000000E+00  0.00000000000E+00  0.13876021938E+03  0.13876021938E+03  0.00000000000E+00 0. -1.
          2   -1    0    0  501    0  0.00000000000E+00 -0.00000000000E+00 -0.36608242352E+02  0.36608242352E+02  0.00000000000E+00 0.  1.
         23    2    1    2    0    0 -0.34672649818E+02 -0.89173077560E+01  0.10018330043E+03  0.13951338245E+03  0.90252862411E+02 0.  0.
         13    1    3    3    0    0  0.17336921420E+02 -0.32871303902E+02  0.24112464172E+02  0.44300139876E+02  0.00000000000E+00 0. -1.
        -13    1    3    3    0    0 -0.52009571238E+02  0.23953996146E+02  0.76070836258E+02  0.95213242570E+02  0.00000000000E+00 0.  1.
         22    1    1    2    0    0  0.34672649818E+02  0.89173077560E+01  0.19686765977E+01  0.35855079286E+02  0.00000000000E+00 0. -1.
<mgrwt>
<rscale>  0 0.14254498E+03</rscale>
<asrwt>0</asrwt>
<pdfrwt beam="1">  1        2 0.56320374E-02 0.14254498E+03</pdfrwt>
<pdfrwt beam="2">  1       -2 0.21347726E-01 0.14254498E+03</pdfrwt>
<totfact> 0.23359577E+04</totfact>
</mgrwt>
</event>
<event>
 6    1  0.8023827E-004  0.5375827E+04  0.7818608E-02  0.7773010E-01
          2   -1    0    0  501    0  0.00000000000E+00  0.00000000000E+00  0.30665189193E+04  0.30665189193E+04  0.00000000000E+00 0.  1.
         -2   -1    0    0    0  501 -0.00000000000E+00 -0.00000000000E+00 -0.23560523884E+04  0.23560523884E+04  0.00000000000E+00 0. -1.
         23    2    1    2    0    0  0.25937438312E+04 -0.66451468993E+03  0.12663099182E+03  0.26821423684E+04  0.93623933809E+02 0.  0.
         13    1    3    3    0    0  0.16082605974E+04 -0.42138321027E+03  0.34047093677E+02  0.16628966184E+04  0.00000000000E+00 0. -1.
        -13    1    3    3    0    0  0.98548323383E+03 -0.24313147967E+03  0.92583898143E+02  0.10192457499E+04  0.00000000000E+00 0.  1.
         22    1    1    2    0    0 -0.25937438312E+04  0.66451468993E+03  0.58383553906E+03  0.27404289394E+04  0.00000000000E+00 0.  1.
<mgrwt>
<rscale>  0 0.53758271E+04</rscale>
<asrwt>0</asrwt>
<pdfrwt beam="1">  1        2 0.47177214E+00 0.53758271E+04</pdfrwt>
<pdfrwt beam="2">  1       -2 0.36246960E+00 0.53758271E+04</pdfrwt>
<totfact> 0.14482244E-02</totfact>
</mgrwt>
</event>
<event>
 6    1  0.6091287E-004  0.2252049E+04  0.7818608E-02  0.8497071E-01
          2   -1    0    0  501    0  0.00000000000E+00  0.00000000000E+00  0.93130295610E+03  0.93130295610E+03  0.00000000000E+00 0.  1.
         -2   -1    0    0    0  501 -0.00000000000E+00 -0.00000000000E+00 -0.13614599295E+04  0.13614599295E+04  0.00000000000E+00 0. -1.
         23    2    1    2    0    0 -0.55463130934E+03 -0.62052997404E+02 -0.12089422122E+04  0.13346538563E+04  0.91066898129E+02 0.  0.
         11    1    3    3    0    0 -0.42877714563E+03 -0.56801392551E+02 -0.84025151021E+03  0.94503906757E+03  0.00000000000E+00 0. -1.
        -11    1    3    3    0    0 -0.12585416371E+03 -0.52516048527E+01 -0.36869070195E+03  0.38961478871E+03  0.00000000000E+00 0.  1.
         22    1    1    2    0    0  0.55463130934E+03  0.62052997404E+02  0.77878523881E+03  0.95810902927E+03  0.00000000000E+00 0.  1.
<mgrwt>
<rscale>  0 0.22520494E+04</rscale>
<asrwt>0</asrwt>
<pdfrwt beam="1">  1        2 0.14327738E+00 0.22520494E+04</pdfrwt>
<pdfrwt beam="2">  1       -2 0.20945537E+00 0.22520494E+04</pdfrwt>
<totfact> 0.29342432E+00</totfact>
</mgrwt>
</event>
<event>
 6    1  0.6091287E-004  0.1851178E+04  0.7818608E-02  0.8679547E-01
         -2   -1    0    0    0  501 -0.00000000000E+00  0.00000000000E+00  0.32936623795E+03  0.32936623795E+03  0.00000000000E+00 0. -1.
          2   -1    0    0  501    0  0.00000000000E+00 -0.00000000000E+00 -0.26011009290E+04  0.26011009290E+04  0.00000000000E+00 0.  1.
         23    2    1    2    0    0 -0.50534396127E+03 -0.76438241713E+03 -0.13179305975E+04  0.16078201061E+04  0.92148981445E+02 0.  0.
         13    1    3    3    0    0 -0.26503293392E+03 -0.32417021797E+03 -0.63076480457E+03  0.75709512280E+03  0.00000000000E+00 0. -1.
        -13    1    3    3    0    0 -0.24031102735E+03 -0.44021219916E+03 -0.68716579296E+03  0.85072498328E+03  0.00000000000E+00 0.  1.
         22    1    1    2    0    0  0.50534396127E+03  0.76438241713E+03 -0.95380409353E+03  0.13226470609E+04  0.00000000000E+00 0. -1.
<mgrwt>
<rscale>  0 0.18511778E+04</rscale>
<asrwt>0</asrwt>
<pdfrwt beam="1">  1        2 0.40016938E+00 0.18511778E+04</pdfrwt>
<pdfrwt beam="2">  1       -2 0.50671728E-01 0.18511778E+04</pdfrwt>
<totfact> 0.10534827E+01</totfact>
</mgrwt>
</event>
<event>
 6    1  0.6091287E-004  0.2012201E+04  0.7818608E-02  0.8600938E-01
         -2   -1    0    0    0  501 -0.00000000000E+00  0.00000000000E+00  0.65326271369E+03  0.65326271369E+03  0.00000000000E+00 0. -1.
          2   -1    0    0  501    0  0.00000000000E+00 -0.00000000000E+00 -0.15495112839E+04  0.15495112839E+04  0.00000000000E+00 0.  1.
         23    2    1    2    0    0 -0.29593905114E+03 -0.19418396417E+03  0.57946211183E+03  0.68520707946E+03  0.91897055227E+02 0.  0.
         13    1    3    3    0    0 -0.27435270255E+03 -0.14160730175E+03  0.49550888924E+03  0.58382453925E+03  0.00000000000E+00 0. -1.
        -13    1    3    3    0    0 -0.21586348585E+02 -0.52576662420E+02  0.83953222589E+02  0.10138254021E+03  0.00000000000E+00 0.  1.
         22    1    1    2    0    0  0.29593905114E+03  0.19418396417E+03 -0.14757106820E+04  0.15175669181E+04  0.00000000000E+00 0.  1.
<mgrwt>
<rscale>  0 0.20122007E+04</rscale>
<asrwt>0</asrwt>
<pdfrwt beam="1">  1        2 0.23838635E+00 0.20122007E+04</pdfrwt>
<pdfrwt beam="2">  1       -2 0.10050196E+00 0.20122007E+04</pdfrwt>
<totfact> 0.90188899E+00</totfact>
</mgrwt>
</event>
<event>
 6    1  0.6091287E-004  0.1810426E+04  0.7818608E-02  0.8700775E-01
          2   -1    0    0  501    0  0.00000000000E+00  0.00000000000E+00  0.31636835245E+04  0.31636835245E+04  0.00000000000E+00 0.  1.
         -2   -1    0    0    0  501 -0.00000000000E+00 -0.00000000000E+00 -0.25900517789E+03  0.25900517789E+03  0.00000000000E+00 0. -1.
         23    2    1    2    0    0 -0.70073714657E+03  0.45585229653E+03  0.21012948170E+04  0.22632668808E+04  0.90017779909E+02 0.  0.
         11    1    3    3    0    0 -0.11755656877E+03  0.52508250784E+02  0.25926634015E+03  0.28947486661E+03  0.00000000000E+00 0. -1.
        -11    1    3    3    0    0 -0.58318057780E+03  0.40334404575E+03  0.18420284769E+04  0.19737920142E+04  0.00000000000E+00 0.  1.
         22    1    1    2    0    0  0.70073714657E+03 -0.45585229653E+03  0.80338352957E+03  0.11594218216E+04  0.00000000000E+00 0. -1.
<mgrwt>
<rscale>  0 0.18104258E+04</rscale>
<asrwt>0</asrwt>
<pdfrwt beam="1">  1        2 0.48672051E+00 0.18104258E+04</pdfrwt>
<pdfrwt beam="2">  1       -2 0.39846953E-01 0.18104258E+04</pdfrwt>
<totfact> 0.77349766E+00</totfact>
</mgrwt>
</event>
<event>
 6    1  0.6091287E-004  0.3423453E+04  0.7818608E-02  0.8132174E-01
         -2   -1    0    0    0  501 -0.00000000000E+00  0.00000000000E+00  0.87511499042E+03  0.87511499042E+03  0.00000000000E+00 0. -1.
          2   -1    0    0  501    0  0.00000000000E+00 -0.00000000000E+00 -0.33481393512E+04  0.33481393512E+04  0.00000000000E+00 0.  1.
         23    2    1    2    0    0  0.74923865713E+03 -0.39914644060E+03  0.59429511036E+03  0.10406256821E+04  0.95072002521E+02 0.  0.
         13    1    3    3    0    0  0.52242381210E+03 -0.24773225263E+03  0.44590470923E+03  0.73015677642E+03  0.00000000000E+00 0. -1.
        -13    1    3    3    0    0  0.22681484503E+03 -0.15141418797E+03  0.14839040113E+03  0.31046890568E+03  0.00000000000E+00 0.  1.
         22    1    1    2    0    0 -0.74923865713E+03  0.39914644060E+03 -0.30673194712E+04  0.31826286596E+04  0.00000000000E+00 0. -1.
<mgrwt>
<rscale>  0 0.34234526E+04</rscale>
<asrwt>0</asrwt>
<pdfrwt beam="1">  1        2 0.51509836E+00 0.34234526E+04</pdfrwt>
<pdfrwt beam="2">  1       -2 0.13463308E+00 0.34234526E+04</pdfrwt>
<totfact> 0.33920772E-01</totfact>
</mgrwt>
</event>
<event>
 6    1  0.6616420E-004  0.2744180E+04  0.7818608E-02  0.8320811E-01
         -2   -1    0    0    0  501 -0.00000000000E+00  0.00000000000E+00  0.16945624919E+04  0.16945624919E+04  0.00000000000E+00 0.  1.
          2   -1    0    0  501    0  0.00000000000E+00 -0.00000000000E+00 -0.11109835232E+04  0.11109835232E+04  0.00000000000E+00 0. -1.
         23    2    1    2    0    0 -0.85564991971E+03 -0.10705167465E+04  0.27851219901E+03  0.14015486421E+04  0.92879822741E+02 0.  0.
         11    1    3    3    0    0 -0.35133570888E+03 -0.49093866780E+03  0.15638142167E+03  0.62362865948E+03  0.00000000000E+00 0. -1.
        -11    1    3    3    0    0 -0.50431421083E+03 -0.57957807866E+03  0.12213077734E+03  0.77791998257E+03  0.00000000000E+00 0.  1.
         22    1    1    2    0    0  0.85564991971E+03  0.10705167465E+04  0.30506676968E+03  0.14039973730E+04  0.00000000000E+00 0. -1.
<mgrwt>
<rscale>  0 0.27441800E+04</rscale>
<asrwt>0</asrwt>
<pdfrwt beam="1">  1        2 0.17092054E+00 0.27441800E+04</pdfrwt>
<pdfrwt beam="2">  1       -2 0.26070192E+00 0.27441800E+04</pdfrwt>
<totfact> 0.10357417E+00</totfact>
</mgrwt>
</event>
<event>
 6    1  0.6091287E-004  0.2126060E+04  0.7818608E-02  0.8549850E-01
          2   -1    0    0  501    0  0.00000000000E+00  0.00000000000E+00  0.14546139092E+04  0.14546139092E+04  0.00000000000E+00 0.  1.
         -2   -1    0    0    0  501 -0.00000000000E+00 -0.00000000000E+00 -0.77686094549E+03  0.77686094549E+03  0.00000000000E+00 0. -1.
         23    2    1    2    0    0 -0.64432836626E+03 -0.64509126592E+03 -0.22971793627E+03  0.94508252758E+03  0.95440393792E+02 0.  0.
         11    1    3    3    0    0 -0.40664366891E+03 -0.44407694536E+03 -0.18925892159E+03  0.63117536887E+03  0.00000000000E+00 0.  1.
        -11    1    3    3    0    0 -0.23768469734E+03 -0.20101432056E+03 -0.40459014682E+02  0.31390715871E+03  0.00000000000E+00 0. -1.
         22    1    1    2    0    0  0.64432836626E+03  0.64509126592E+03  0.90747089999E+03  0.12863923271E+04  0.00000000000E+00 0.  1.
<mgrwt>
<rscale>  0 0.21260600E+04</rscale>
<asrwt>0</asrwt>
<pdfrwt beam="1">  1        2 0.22378675E+00 0.21260600E+04</pdfrwt>
<pdfrwt beam="2">  1       -2 0.11951707E+00 0.21260600E+04</pdfrwt>
<totfact> 0.66441623E+00</totfact>
</mgrwt>
</event>
<event>
 6    1  0.6091287E-004  0.1054626E+04  0.7818608E-02  0.9250581E-01
          2   -1    0    0  501    0  0.00000000000E+00  0.00000000000E+00  0.98308692658E+03  0.98308692658E+03  0.00000000000E+00 0.  1.
         -2   -1    0    0    0  501 -0.00000000000E+00 -0.00000000000E+00 -0.28284254684E+03  0.28284254684E+03  0.00000000000E+00 0. -1.
         23    2    1    2    0    0  0.27559126584E+03  0.15621808707E+03  0.85290334274E+03  0.91427709461E+03  0.90021425981E+02 0.  0.
         11    1    3    3    0    0  0.12861543665E+03  0.12339585625E+03  0.43717025340E+03  0.47210835445E+03  0.00000000000E+00 0.  1.
        -11    1    3    3    0    0  0.14697582920E+03  0.32822230828E+02  0.41573308934E+03  0.44216874016E+03  0.00000000000E+00 0. -1.
         22    1    1    2    0    0 -0.27559126584E+03 -0.15621808707E+03 -0.15265896300E+03  0.35165237881E+03  0.00000000000E+00 0. -1.
<mgrwt>
<rscale>  0 0.10546256E+04</rscale>
<asrwt>0</asrwt>
<pdfrwt beam="1">  1        2 0.15124414E+00 0.10546256E+04</pdfrwt>
<pdfrwt beam="2">  1       -2 0.43514238E-01 0.10546256E+04</pdfrwt>
<totfact> 0.12869457E+02</totfact>
</mgrwt>
</event>
<event>
 6    1  0.6091287E-004  0.1714509E+04  0.7818608E-02  0.8753132E-01
         -2   -1    0    0    0  501 -0.00000000000E+00  0.00000000000E+00  0.41485234471E+03  0.41485234471E+03  0.00000000000E+00 0. -1.
          2   -1    0    0  501    0  0.00000000000E+00 -0.00000000000E+00 -0.17714379461E+04  0.17714379461E+04  0.00000000000E+00 0.  1.
         23    2    1    2    0    0 -0.57518972493E+03 -0.39401592762E+03 -0.13106718250E+04  0.14875772985E+04  0.94518861411E+02 0.  0.
         13    1    3    3    0    0 -0.48173727265E+03 -0.31612946225E+03 -0.11475466705E+04  0.12840841085E+04  0.00000000000E+00 0.  1.
        -13    1    3    3    0    0 -0.93452452280E+02 -0.77886465367E+02 -0.16312515453E+03  0.20349318997E+03  0.00000000000E+00 0. -1.
         22    1    1    2    0    0  0.57518972493E+03  0.39401592762E+03 -0.45913776442E+02  0.69871299240E+03  0.00000000000E+00 0. -1.
<mgrwt>
<rscale>  0 0.17145089E+04</rscale>
<asrwt>0</asrwt>
<pdfrwt beam="1">  1        2 0.27252891E+00 0.17145089E+04</pdfrwt>
<pdfrwt beam="2">  1       -2 0.63823438E-01 0.17145089E+04</pdfrwt>
<totfact> 0.19312281E+01</totfact>
</mgrwt>
</event>
<event>
 6    1  0.6091287E-004  0.1325901E+04  0.7818608E-02  0.9009274E-01
         -2   -1    0    0    0  501 -0.00000000000E+00  0.00000000000E+00  0.14932356581E+03  0.14932356581E+03  0.00000000000E+00 0. -1.
          2   -1    0    0  501    0  0.00000000000E+00 -0.00000000000E+00 -0.29432933025E+04  0.29432933025E+04  0.00000000000E+00 0.  1.
         23    2    1    2    0    0 -0.69996901468E+02  0.65427565994E+03 -0.12911474604E+04  0.14520526362E+04  0.91754501467E+02 0.  0.
         13    1    3    3    0    0 -0.89185227384E+02  0.43947792483E+03 -0.85169932610E+03  0.96254173586E+03  0.00000000000E+00 0. -1.
        -13    1    3    3    0    0  0.19188325917E+02  0.21479773511E+03 -0.43944813428E+03  0.48951090037E+03  0.00000000000E+00 0.  1.
         22    1    1    2    0    0  0.69996901468E+02 -0.65427565994E+03 -0.15028222763E+04  0.16405642320E+04  0.00000000000E+00 0.  1.
<mgrwt>
<rscale>  0 0.13259005E+04</rscale>
<asrwt>0</asrwt>
<pdfrwt beam="1">  1        2 0.45281434E+00 0.13259005E+04</pdfrwt>
<pdfrwt beam="2">  1       -2 0.22972857E-01 0.13259005E+04</pdfrwt>
<totfact> 0.31193934E+01</totfact>
</mgrwt>
</event>
<event>
 6    1  0.6091287E-004  0.3757313E+04  0.7818608E-02  0.8055378E-01
         -2   -1    0    0    0  501 -0.00000000000E+00  0.00000000000E+00  0.22240159518E+04  0.22240159518E+04  0.00000000000E+00 0. -1.
          2   -1    0    0  501    0  0.00000000000E+00 -0.00000000000E+00 -0.15869264699E+04  0.15869264699E+04  0.00000000000E+00 0.  1.
         23    2    1    2    0    0  0.17131265166E+04 -0.67639524211E+03  0.68993280560E+03  0.19683612424E+04  0.78266972934E+02 0.  0.
         13    1    3    3    0    0  0.71445515986E+03 -0.25806301770E+03  0.25102874017E+03  0.80003632727E+03  0.00000000000E+00 0.  1.
        -13    1    3    3    0    0  0.99867135674E+03 -0.41833222441E+03  0.43890406544E+03  0.11683249152E+04  0.00000000000E+00 0. -1.
         22    1    1    2    0    0 -0.17131265166E+04  0.67639524211E+03 -0.52843323734E+02  0.18425811793E+04  0.00000000000E+00 0.  1.
<mgrwt>
<rscale>  0 0.37573128E+04</rscale>
<asrwt>0</asrwt>
<pdfrwt beam="1">  1        2 0.24414253E+00 0.37573128E+04</pdfrwt>
<pdfrwt beam="2">  1       -2 0.34215630E+00 0.37573128E+04</pdfrwt>
<totfact> 0.15901111E-01</totfact>
</mgrwt>
</event>
<event>
 6    1  0.6091287E-004  0.1233319E+04  0.7818608E-02  0.9084182E-01
          2   -1    0    0  501    0  0.00000000000E+00  0.00000000000E+00  0.28335156540E+04  0.28335156540E+04  0.00000000000E+00 0.  1.
         -2   -1    0    0    0  501 -0.00000000000E+00 -0.00000000000E+00 -0.13420403896E+03  0.13420403896E+03  0.00000000000E+00 0. -1.
         23    2    1    2    0    0 -0.13989581886E+03 -0.28882144450E+02  0.27922065632E+04  0.27973245939E+04  0.90566958192E+02 0.  0.
         13    1    3    3    0    0 -0.13575505580E+03  0.39218489477E+01  0.23046192600E+04  0.23086174975E+04  0.00000000000E+00 0. -1.
        -13    1    3    3    0    0 -0.41407630593E+01 -0.32803993397E+02  0.48758730315E+03  0.48870709642E+03  0.00000000000E+00 0.  1.
         22    1    1    2    0    0  0.13989581886E+03  0.28882144450E+02 -0.92894948105E+02  0.17039509907E+03  0.00000000000E+00 0. -1.
<mgrwt>
<rscale>  0 0.12333195E+04</rscale>
<asrwt>0</asrwt>
<pdfrwt beam="1">  1        2 0.43592544E+00 0.12333195E+04</pdfrwt>
<pdfrwt beam="2">  1       -2 0.20646777E-01 0.12333195E+04</pdfrwt>
<totfact> 0.44368842E+01</totfact>
</mgrwt>
</event>
<event>
 6    1  0.6091287E-004  0.1767734E+04  0.7818608E-02  0.8723649E-01
          1   -1    0    0  501    0  0.00000000000E+00  0.00000000000E+00  0.67012031521E+03  0.67012031521E+03  0.00000000000E+00 0.  1.
         -1   -1    0    0    0  501 -0.00000000000E+00 -0.00000000000E+00 -0.11657919735E+04  0.11657919735E+04  0.00000000000E+00 0. -1.
         23    2    1    2    0    0  0.43682571167E+03  0.55802672929E+03  0.29603812750E+03  0.77336115211E+03  0.90765443210E+02 0.  0.
         13    1    3    3    0    0  0.20647280172E+03  0.19182764251E+03  0.11740441610E+03  0.30530748304E+03  0.00000000000E+00 0. -1.
        -13    1    3    3    0    0  0.23035290995E+03  0.36619908678E+03  0.17863371140E+03  0.46805366907E+03  0.00000000000E+00 0.  1.
         22    1    1    2    0    0 -0.43682571167E+03 -0.55802672929E+03 -0.79170978578E+03  0.10625511366E+04  0.00000000000E+00 0. -1.
<mgrwt>
<rscale>  0 0.17677340E+04</rscale>
<asrwt>0</asrwt>
<pdfrwt beam="1">  1        1 0.10309543E+00 0.17677340E+04</pdfrwt>
<pdfrwt beam="2">  1       -1 0.17935261E+00 0.17677340E+04</pdfrwt>
<totfact> 0.57916863E+00</totfact>
</mgrwt>
</event>
<event>
 6    1  0.6091287E-004  0.8830091E+03  0.7818608E-02  0.9447074E-01
         -2   -1    0    0    0  501 -0.00000000000E+00  0.00000000000E+00  0.17138171107E+03  0.17138171107E+03  0.00000000000E+00 0. -1.
          2   -1    0    0  501    0  0.00000000000E+00 -0.00000000000E+00 -0.11373808597E+04  0.11373808597E+04  0.00000000000E+00 0.  1.
         23    2    1    2    0    0 -0.14132255246E+03  0.14328846250E+03 -0.10627301900E+04  0.10854678290E+04  0.91330738573E+02 0.  0.
         13    1    3    3    0    0 -0.11892006950E+03  0.13898347509E+03 -0.75298538502E+03  0.77488410703E+03  0.00000000000E+00 0.  1.
        -13    1    3    3    0    0 -0.22402482951E+02  0.43049874116E+01 -0.30974480497E+03  0.31058372199E+03  0.00000000000E+00 0. -1.
         22    1    1    2    0    0  0.14132255246E+03 -0.14328846250E+03  0.96731041379E+02  0.22329474173E+03  0.00000000000E+00 0. -1.
<mgrwt>
<rscale>  0 0.88300912E+03</rscale>
<asrwt>0</asrwt>
<pdfrwt beam="1">  1        2 0.17498167E+00 0.88300912E+03</pdfrwt>
<pdfrwt beam="2">  1       -2 0.26366417E-01 0.88300912E+03</pdfrwt>
<totfact> 0.26948142E+02</totfact>
</mgrwt>
</event>
<event>
 6    1  0.6091287E-004  0.1354704E+04  0.7818608E-02  0.8987275E-01
          2   -1    0    0  501    0  0.00000000000E+00  0.00000000000E+00  0.17559400112E+04  0.17559400112E+04  0.00000000000E+00 0. -1.
         -2   -1    0    0    0  501 -0.00000000000E+00 -0.00000000000E+00 -0.26128788023E+03  0.26128788023E+03  0.00000000000E+00 0.  1.
         23    2    1    2    0    0  0.15651299279E+03  0.55737886683E+03  0.23636779842E+03  0.63214775670E+03  0.92593369483E+02 0.  0.
         13    1    3    3    0    0  0.15523509684E+02  0.21220749171E+03  0.10042092285E+03  0.23528144984E+03  0.00000000000E+00 0. -1.
        -13    1    3    3    0    0  0.14098948310E+03  0.34517137512E+03  0.13594687558E+03  0.39686630687E+03  0.00000000000E+00 0.  1.
         22    1    1    2    0    0 -0.15651299279E+03 -0.55737886683E+03  0.12582843326E+04  0.13850801348E+04  0.00000000000E+00 0. -1.
<mgrwt>
<rscale>  0 0.13547042E+04</rscale>
<asrwt>0</asrwt>
<pdfrwt beam="1">  1        2 0.27014461E+00 0.13547042E+04</pdfrwt>
<pdfrwt beam="2">  1       -2 0.40198137E-01 0.13547042E+04</pdfrwt>
<totfact> 0.52209314E+01</totfact>
</mgrwt>
</event>
<event>
 6    1  0.6091287E-004  0.3562272E+04  0.7818608E-02  0.8099189E-01
         -2   -1    0    0    0  501 -0.00000000000E+00  0.00000000000E+00  0.11608322355E+04  0.11608322355E+04  0.00000000000E+00 0. -1.
          2   -1    0    0  501    0  0.00000000000E+00 -0.00000000000E+00 -0.27329060401E+04  0.27329060401E+04  0.00000000000E+00 0.  1.
         23    2    1    2    0    0 -0.10928170085E+04 -0.13103869053E+04 -0.23252464390E+03  0.17244630949E+04  0.91336740600E+02 0.  0.
         11    1    3    3    0    0 -0.40549706773E+03 -0.42507542166E+03 -0.61158556453E+02  0.59064147760E+03  0.00000000000E+00 0. -1.
        -11    1    3    3    0    0 -0.68731994078E+03 -0.88531148362E+03 -0.17136608745E+03  0.11338216173E+04  0.00000000000E+00 0.  1.
         22    1    1    2    0    0  0.10928170085E+04  0.13103869053E+04 -0.13395491607E+04  0.21692751807E+04  0.00000000000E+00 0.  1.
<mgrwt>
<rscale>  0 0.35622720E+04</rscale>
<asrwt>0</asrwt>
<pdfrwt beam="1">  1        2 0.42044708E+00 0.35622720E+04</pdfrwt>
<pdfrwt beam="2">  1       -2 0.17858957E+00 0.35622720E+04</pdfrwt>
<totfact> 0.38467378E-01</totfact>
</mgrwt>
</event>
<event>
 6    1  0.6091287E-004  0.1701583E+04  0.7818608E-02  0.8760462E-01
         -2   -1    0    0    0  501 -0.00000000000E+00  0.00000000000E+00  0.20180151055E+04  0.20180151055E+04  0.00000000000E+00 0. -1.
          2   -1    0    0  501    0  0.00000000000E+00 -0.00000000000E+00 -0.35869217491E+03  0.35869217491E+03  0.00000000000E+00 0.  1.
         23    2    1    2    0    0  0.83764969510E+03  0.20113240188E+00  0.10207926629E+04  0.13234371560E+04  0.88380954870E+02 0.  0.
         13    1    3    3    0    0  0.48467263374E+03 -0.34538541961E+02  0.63143988239E+03  0.79675391298E+03  0.00000000000E+00 0. -1.
        -13    1    3    3    0    0  0.35297706136E+03  0.34739674363E+02  0.38935278050E+03  0.52668324304E+03  0.00000000000E+00 0.  1.
         22    1    1    2    0    0 -0.83764969510E+03 -0.20113240188E+00  0.63853026773E+03  0.10532701244E+04  0.00000000000E+00 0. -1.
<mgrwt>
<rscale>  0 0.17015831E+04</rscale>
<asrwt>0</asrwt>
<pdfrwt beam="1">  1        2 0.55183413E-01 0.17015831E+04</pdfrwt>
<pdfrwt beam="2">  1       -2 0.31046385E+00 0.17015831E+04</pdfrwt>
<totfact> 0.23513676E+00</totfact>
</mgrwt>
</event>
<event>
 6    1  0.6091287E-004  0.1819897E+04  0.7818608E-02  0.8695789E-01
          2   -1    0    0  501    0  0.00000000000E+00  0.00000000000E+00  0.15722304948E+04  0.15722304948E+04  0.00000000000E+00 0.  1.
         -2   -1    0    0    0  501 -0.00000000000E+00 -0.00000000000E+00 -0.52664446890E+03  0.52664446890E+03  0.00000000000E+00 0. -1.
         23    2    1    2    0    0  0.60593955142E+03  0.15252778398E+03 -0.23515084279E+03  0.67384359854E+03  0.91333518337E+02 0.  0.
         11    1    3    3    0    0  0.48886884273E+03  0.84642490246E+02 -0.18315937723E+03  0.52887092377E+03  0.00000000000E+00 0.  1.
        -11    1    3    3    0    0  0.11707070869E+03  0.67885293733E+02 -0.51991465566E+02  0.14497267477E+03  0.00000000000E+00 0. -1.
         22    1    1    2    0    0 -0.60593955142E+03 -0.15252778398E+03  0.12807368687E+04  0.14250313652E+04  0.00000000000E+00 0.  1.
<mgrwt>
<rscale>  0 0.18198972E+04</rscale>
<asrwt>0</asrwt>
<pdfrwt beam="1">  1        2 0.24188161E+00 0.18198972E+04</pdfrwt>
<pdfrwt beam="2">  1       -2 0.81022227E-01 0.18198972E+04</pdfrwt>
<totfact> 0.14634850E+01</totfact>
</mgrwt>
</event>
<event>
 6    1  0.6091287E-004  0.2978296E+04  0.7818608E-02  0.8249956E-01
          2   -1    0    0  501    0  0.00000000000E+00  0.00000000000E+00  0.21141630129E+04  0.21141630129E+04  0.00000000000E+00 0.  1.
         -2   -1    0    0    0  501 -0.00000000000E+00 -0.00000000000E+00 -0.10489076632E+04  0.10489076632E+04  0.00000000000E+00 0. -1.
         23    2    1    2    0    0 -0.28802877249E+03  0.10222772213E+04  0.16396061807E+04  0.19556394491E+04  0.90586622368E+02 0.  0.
         11    1    3    3    0    0 -0.22803752488E+03  0.76793840839E+03  0.11649317158E+04  0.14137879665E+04  0.00000000000E+00 0.  1.
        -11    1    3    3    0    0 -0.59991247607E+02  0.25433881288E+03  0.47467446487E+03  0.54185148254E+03  0.00000000000E+00 0. -1.
         22    1    1    2    0    0  0.28802877249E+03 -0.10222772213E+04 -0.57435083093E+03  0.12074312270E+04  0.00000000000E+00 0.  1.
<mgrwt>
<rscale>  0 0.29782960E+04</rscale>
<asrwt>0</asrwt>
<pdfrwt beam="1">  1        2 0.32525585E+00 0.29782960E+04</pdfrwt>
<pdfrwt beam="2">  1       -2 0.16137041E+00 0.29782960E+04</pdfrwt>
<totfact> 0.12176407E+00</totfact>
</mgrwt>
</event>
<event>
 6    1  0.6091287E-004  0.1718936E+04  0.7818608E-02  0.8750638E-01
         -1   -1    0    0    0  501 -0.00000000000E+00  0.00000000000E+00  0.28636389080E+03  0.28636389080E+03  0.00000000000E+00 0.  1.
          1   -1    0    0  501    0  0.00000000000E+00 -0.00000000000E+00 -0.25795333332E+04  0.25795333332E+04  0.00000000000E+00 0. -1.
         23    2    1    2    0    0  0.23592658627E+03  0.80248787908E+03 -0.83803252238E+03  0.11874838047E+04  0.90394289523E+02 0.  0.
         11    1    3    3    0    0  0.94561478418E+02  0.31553010032E+03 -0.39334873761E+03  0.51305394140E+03  0.00000000000E+00 0.  1.
        -11    1    3    3    0    0  0.14136510786E+03  0.48695777876E+03 -0.44468378476E+03  0.67442986325E+03  0.00000000000E+00 0. -1.
         22    1    1    2    0    0 -0.23592658627E+03 -0.80248787908E+03 -0.14551369200E+04  0.16784134193E+04  0.00000000000E+00 0.  1.
<mgrwt>
<rscale>  0 0.17189360E+04</rscale>
<asrwt>0</asrwt>
<pdfrwt beam="1">  1        1 0.39685128E+00 0.17189360E+04</pdfrwt>
<pdfrwt beam="2">  1       -1 0.44055983E-01 0.17189360E+04</pdfrwt>
<totfact> 0.57828943E+00</totfact>
</mgrwt>
</event>
<event>
 6    1  0.6091287E-004  0.1002130E+04  0.7818608E-02  0.9306212E-01
          2   -1    0    0  501    0  0.00000000000E+00  0.00000000000E+00  0.11603123185E+04  0.11603123185E+04  0.00000000000E+00 0.  1.
         -2   -1    0    0    0  501 -0.00000000000E+00 -0.00000000000E+00 -0.21637795519E+03  0.21637795519E+03  0.00000000000E+00 0. -1.
         23    2    1    2    0    0 -0.22891246264E+03  0.43352322328E+03  0.36491757792E+03  0.61800474039E+03  0.91769928587E+02 0.  0.
         11    1    3    3    0    0 -0.14289863451E+03  0.24962464001E+03  0.15821271186E+03  0.32827388388E+03  0.00000000000E+00 0. -1.
        -11    1    3    3    0    0 -0.86013828130E+02  0.18389858327E+03  0.20670486606E+03  0.28973085651E+03  0.00000000000E+00 0.  1.
         22    1    1    2    0    0  0.22891246264E+03 -0.43352322328E+03  0.57901678540E+03  0.75868553331E+03  0.00000000000E+00 0. -1.
<mgrwt>
<rscale>  0 0.10021297E+04</rscale>
<asrwt>0</asrwt>
<pdfrwt beam="1">  1        2 0.17850959E+00 0.10021297E+04</pdfrwt>
<pdfrwt beam="2">  1       -2 0.33288917E-01 0.10021297E+04</pdfrwt>
<totfact> 0.16817156E+02</totfact>
</mgrwt>
</event>
<event>
 6    1  0.6091287E-004  0.2802590E+04  0.7818608E-02  0.8302465E-01
          2   -1    0    0  501    0  0.00000000000E+00  0.00000000000E+00  0.21279241678E+04  0.21279241678E+04  0.00000000000E+00 0.  1.
         -2   -1    0    0    0  501 -0.00000000000E+00 -0.00000000000E+00 -0.92279003904E+03  0.92279003904E+03  0.00000000000E+00 0. -1.
         23    2    1    2    0    0  0.10834455012E+04 -0.60250641477E+03 -0.10450701470E+03  0.12473761746E+04  0.90318718120E+02 0.  0.
         11    1    3    3    0    0  0.10353206526E+04 -0.55258896459E+03 -0.95176759180E+02  0.11774132805E+04  0.00000000000E+00 0. -1.
        -11    1    3    3    0    0  0.48124848598E+02 -0.49917450178E+02 -0.93302555214E+01  0.69962894115E+02  0.00000000000E+00 0.  1.
         22    1    1    2    0    0 -0.10834455012E+04  0.60250641477E+03  0.13096411435E+04  0.18033380323E+04  0.00000000000E+00 0.  1.
<mgrwt>
<rscale>  0 0.28025897E+04</rscale>
<asrwt>0</asrwt>
<pdfrwt beam="1">  1        2 0.32737295E+00 0.28025897E+04</pdfrwt>
<pdfrwt beam="2">  1       -2 0.14196770E+00 0.28025897E+04</pdfrwt>
<totfact> 0.17078031E+00</totfact>
</mgrwt>
</event>
<event>
 6    1  0.6091287E-004  0.2607996E+04  0.7818608E-02  0.8365490E-01
          2   -1    0    0  501    0  0.00000000000E+00  0.00000000000E+00  0.95222735644E+03  0.95222735644E+03  0.00000000000E+00 0.  1.
         -2   -1    0    0    0  501 -0.00000000000E+00 -0.00000000000E+00 -0.17857197078E+04  0.17857197078E+04  0.00000000000E+00 0. -1.
         23    2    1    2    0    0  0.47465006770E+03 -0.33860391466E+03  0.80532923680E+03  0.99849844596E+03  0.92188226755E+02 0.  0.
         11    1    3    3    0    0  0.20792466403E+03 -0.14899120672E+03  0.27712595869E+03  0.37713371975E+03  0.00000000000E+00 0.  1.
        -11    1    3    3    0    0  0.26672540367E+03 -0.18961270794E+03  0.52820327811E+03  0.62136472621E+03  0.00000000000E+00 0. -1.
         22    1    1    2    0    0 -0.47465006770E+03  0.33860391466E+03 -0.16388215882E+04  0.17394486183E+04  0.00000000000E+00 0. -1.
<mgrwt>
<rscale>  0 0.26079963E+04</rscale>
<asrwt>0</asrwt>
<pdfrwt beam="1">  1        2 0.14649652E+00 0.26079963E+04</pdfrwt>
<pdfrwt beam="2">  1       -2 0.27472611E+00 0.26079963E+04</pdfrwt>
<totfact> 0.10847232E+00</totfact>
</mgrwt>
</event>
<event>
 6    1  0.6091287E-004  0.2545874E+04  0.7818608E-02  0.8386822E-01
          2   -1    0    0  501    0  0.00000000000E+00  0.00000000000E+00  0.12729386191E+04  0.12729386191E+04  0.00000000000E+00 0. -1.
         -2   -1    0    0    0  501 -0.00000000000E+00 -0.00000000000E+00 -0.12729357302E+04  0.12729357302E+04  0.00000000000E+00 0.  1.
         23    2    1    2    0    0 -0.26321356725E+03 -0.79785190517E+03 -0.95435872607E+03  0.12743968085E+04  0.86241538452E+02 0.  0.
         13    1    3    3    0    0 -0.17135179005E+03 -0.38774198236E+03 -0.46027213503E+03  0.62574413231E+03  0.00000000000E+00 0.  1.
        -13    1    3    3    0    0 -0.91861777201E+02 -0.41010992281E+03 -0.49408659104E+03  0.64865267620E+03  0.00000000000E+00 0. -1.
         22    1    1    2    0    0  0.26321356725E+03  0.79785190517E+03  0.95436161493E+03  0.12714775407E+04  0.00000000000E+00 0.  1.
<mgrwt>
<rscale>  0 0.25458743E+04</rscale>
<asrwt>0</asrwt>
<pdfrwt beam="1">  1        2 0.19583671E+00 0.25458743E+04</pdfrwt>
<pdfrwt beam="2">  1       -2 0.19583627E+00 0.25458743E+04</pdfrwt>
<totfact> 0.21586748E+00</totfact>
</mgrwt>
</event>
<event>
 6    1  0.6091287E-004  0.1591928E+04  0.7818608E-02  0.8825523E-01
         -2   -1    0    0    0  501 -0.00000000000E+00  0.00000000000E+00  0.75103867410E+03  0.75103867410E+03  0.00000000000E+00 0. -1.
          2   -1    0    0  501    0  0.00000000000E+00 -0.00000000000E+00 -0.84357613590E+03  0.84357613590E+03  0.00000000000E+00 0.  1.
         23    2    1    2    0    0  0.38059289127E+03 -0.47483985487E+03  0.46327669394E+03  0.77044661577E+03  0.92945446047E+02 0.  0.
         13    1    3    3    0    0  0.18665361095E+03 -0.16124888240E+03  0.19590962156E+03  0.31499421007E+03  0.00000000000E+00 0. -1.
        -13    1    3    3    0    0  0.19393928032E+03 -0.31359097246E+03  0.26736707239E+03  0.45545240570E+03  0.00000000000E+00 0.  1.
         22    1    1    2    0    0 -0.38059289127E+03  0.47483985487E+03 -0.55581415575E+03  0.82416819423E+03  0.00000000000E+00 0.  1.
<mgrwt>
<rscale>  0 0.15919275E+04</rscale>
<asrwt>0</asrwt>
<pdfrwt beam="1">  1        2 0.12978094E+00 0.15919275E+04</pdfrwt>
<pdfrwt beam="2">  1       -2 0.11554441E+00 0.15919275E+04</pdfrwt>
<totfact> 0.17936350E+01</totfact>
</mgrwt>
</event>
<event>
 6    1  0.6091287E-004  0.2692491E+04  0.7818608E-02  0.8337445E-01
         -2   -1    0    0    0  501 -0.00000000000E+00  0.00000000000E+00  0.72390733271E+03  0.72390733271E+03  0.00000000000E+00 0. -1.
          2   -1    0    0  501    0  0.00000000000E+00 -0.00000000000E+00 -0.25036040636E+04  0.25036040636E+04  0.00000000000E+00 0.  1.
         23    2    1    2    0    0  0.10734697476E+04  0.78639649245E+03 -0.11229152111E+04  0.17435576547E+04  0.91093259251E+02 0.  0.
         11    1    3    3    0    0  0.61470373473E+03  0.50541791661E+03 -0.67594738855E+03  0.10441325701E+04  0.00000000000E+00 0.  1.
        -11    1    3    3    0    0  0.45876601283E+03  0.28097857583E+03 -0.44696782250E+03  0.69942508459E+03  0.00000000000E+00 0. -1.
         22    1    1    2    0    0 -0.10734697476E+04 -0.78639649245E+03 -0.65678151980E+03  0.14839537415E+04  0.00000000000E+00 0. -1.
<mgrwt>
<rscale>  0 0.26924913E+04</rscale>
<asrwt>0</asrwt>
<pdfrwt beam="1">  1        2 0.38516985E+00 0.26924913E+04</pdfrwt>
<pdfrwt beam="2">  1       -2 0.11137036E+00 0.26924913E+04</pdfrwt>
<totfact> 0.19384955E+00</totfact>
</mgrwt>
</event>
<event>
 6    1  0.6091287E-004  0.2555239E+04  0.7818608E-02  0.8383567E-01
          2   -1    0    0  501    0  0.00000000000E+00  0.00000000000E+00  0.19187970872E+04  0.19187970872E+04  0.00000000000E+00 0.  1.
         -2   -1    0    0    0  501 -0.00000000000E+00 -0.00000000000E+00 -0.85069511168E+03  0.85069511168E+03  0.00000000000E+00 0. -1.
         23    2    1    2    0    0  0.48514673813E+03 -0.11694689117E+04  0.70854574558E+03  0.14533213986E+04  0.84149396127E+02 0.  0.
         13    1    3    3    0    0  0.24603997511E+03 -0.58398038159E+03  0.30660124562E+03  0.70396951586E+03  0.00000000000E+00 0. -1.
        -13    1    3    3    0    0  0.23910676301E+03 -0.58548853016E+03  0.40194449996E+03  0.74935188270E+03  0.00000000000E+00 0.  1.
         22    1    1    2    0    0 -0.48514673813E+03  0.11694689117E+04  0.35955622989E+03  0.13161708003E+04  0.00000000000E+00 0. -1.
<mgrwt>
<rscale>  0 0.25552388E+04</rscale>
<asrwt>0</asrwt>
<pdfrwt beam="1">  1        2 0.29519955E+00 0.25552388E+04</pdfrwt>
<pdfrwt beam="2">  1       -2 0.13087617E+00 0.25552388E+04</pdfrwt>
<totfact> 0.28102947E+00</totfact>
</mgrwt>
</event>
<event>
 6    1  0.6091287E-004  0.2176795E+04  0.7818608E-02  0.8528149E-01
          2   -1    0    0  501    0  0.00000000000E+00  0.00000000000E+00  0.87477157554E+03  0.87477157554E+03  0.00000000000E+00 0.  1.
         -2   -1    0    0    0  501 -0.00000000000E+00 -0.00000000000E+00 -0.13541920329E+04  0.13541920329E+04  0.00000000000E+00 0. -1.
         23    2    1    2    0    0  0.91714757429E+03  0.14782916204E+03 -0.81715213062E+03  0.12404921535E+04  0.89833424274E+02 0.  0.
         11    1    3    3    0    0  0.61773778276E+03  0.73360203477E+02 -0.58990912001E+03  0.85730651320E+03  0.00000000000E+00 0.  1.
        -11    1    3    3    0    0  0.29940979153E+03  0.74468958559E+02 -0.22724301061E+03  0.38318564029E+03  0.00000000000E+00 0. -1.
         22    1    1    2    0    0 -0.91714757429E+03 -0.14782916204E+03  0.33773167324E+03  0.98847145497E+03  0.00000000000E+00 0.  1.
<mgrwt>
<rscale>  0 0.21767946E+04</rscale>
<asrwt>0</asrwt>
<pdfrwt beam="1">  1        2 0.13458024E+00 0.21767946E+04</pdfrwt>
<pdfrwt beam="2">  1       -2 0.20833724E+00 0.21767946E+04</pdfrwt>
<totfact> 0.32779461E+00</totfact>
</mgrwt>
</event>
<event>
 6    1  0.6091287E-004  0.2406091E+04  0.7818608E-02  0.8437227E-01
          2   -1    0    0  501    0  0.00000000000E+00  0.00000000000E+00  0.32736531796E+04  0.32736531796E+04  0.00000000000E+00 0. -1.
         -2   -1    0    0    0  501 -0.00000000000E+00 -0.00000000000E+00 -0.44211128507E+03  0.44211128507E+03  0.00000000000E+00 0.  1.
         23    2    1    2    0    0 -0.85371839951E+03  0.72449583256E+03  0.74595133936E+03  0.13486106292E+04  0.92617014836E+02 0.  0.
         13    1    3    3    0    0 -0.35770997498E+02  0.96793982379E+01  0.20305077575E+02  0.42255782889E+02  0.00000000000E+00 0.  1.
        -13    1    3    3    0    0 -0.81794740201E+03  0.71481643432E+03  0.72564626179E+03  0.13063548463E+04  0.00000000000E+00 0. -1.
         22    1    1    2    0    0  0.85371839951E+03 -0.72449583256E+03  0.20855905552E+04  0.23671538355E+04  0.00000000000E+00 0. -1.
<mgrwt>
<rscale>  0 0.24060914E+04</rscale>
<asrwt>0</asrwt>
<pdfrwt beam="1">  1        2 0.50363893E+00 0.24060914E+04</pdfrwt>
<pdfrwt beam="2">  1       -2 0.68017123E-01 0.24060914E+04</pdfrwt>
<totfact> 0.20652677E+00</totfact>
</mgrwt>
</event>
<event>
 6    1  0.6091287E-004  0.6144439E+03  0.7818608E-02  0.9875885E-01
         -2   -1    0    0    0  501 -0.00000000000E+00  0.00000000000E+00  0.38099544227E+03  0.38099544227E+03  0.00000000000E+00 0. -1.
          2   -1    0    0  501    0  0.00000000000E+00 -0.00000000000E+00 -0.24773344768E+03  0.24773344768E+03  0.00000000000E+00 0.  1.
         23    2    1    2    0    0 -0.12556491272E+03  0.27226747936E+03  0.86674026180E+02  0.32530416053E+03  0.91729397805E+02 0.  0.
         13    1    3    3    0    0 -0.96508218323E+02  0.26438239989E+03  0.66913479929E+02  0.28929103576E+03  0.00000000000E+00 0. -1.
        -13    1    3    3    0    0 -0.29056694398E+02  0.78850794690E+01  0.19760546252E+02  0.36013124771E+02  0.00000000000E+00 0.  1.
         22    1    1    2    0    0  0.12556491272E+03 -0.27226747936E+03  0.46587968412E+02  0.30342472942E+03  0.00000000000E+00 0. -1.
<mgrwt>
<rscale>  0 0.61444386E+03</rscale>
<asrwt>0</asrwt>
<pdfrwt beam="1">  1        2 0.38112838E-01 0.61444386E+03</pdfrwt>
<pdfrwt beam="2">  1       -2 0.58614683E-01 0.61444386E+03</pdfrwt>
<totfact> 0.37352409E+02</totfact>
</mgrwt>
</event>
<event>
 6    1  0.6091287E-004  0.1127337E+04  0.7818608E-02  0.9178949E-01
         -2   -1    0    0    0  501 -0.00000000000E+00  0.00000000000E+00  0.34935371973E+03  0.34935371973E+03  0.00000000000E+00 0. -1.
          2   -1    0    0  501    0  0.00000000000E+00 -0.00000000000E+00 -0.90945777079E+03  0.90945777079E+03  0.00000000000E+00 0.  1.
         23    2    1    2    0    0 -0.49500292921E+03  0.10458088912E+03 -0.13138393760E+02  0.51373666706E+03  0.88247852028E+02 0.  0.
         13    1    3    3    0    0 -0.40582322212E+03  0.92729319032E+02  0.22691023615E+02  0.41690058380E+03  0.00000000000E+00 0. -1.
        -13    1    3    3    0    0 -0.89179707089E+02  0.11851570090E+02 -0.35829417375E+02  0.96836083252E+02  0.00000000000E+00 0.  1.
         22    1    1    2    0    0  0.49500292921E+03 -0.10458088912E+03 -0.54696565730E+03  0.74507482347E+03  0.00000000000E+00 0.  1.
<mgrwt>
<rscale>  0 0.11273375E+04</rscale>
<asrwt>0</asrwt>
<pdfrwt beam="1">  1        2 0.13991658E+00 0.11273375E+04</pdfrwt>
<pdfrwt beam="2">  1       -2 0.53746727E-01 0.11273375E+04</pdfrwt>
<totfact> 0.93411128E+01</totfact>
</mgrwt>
</event>
<event>
 6    1  0.6091287E-004  0.4469235E+04  0.7818608E-02  0.7916045E-01
         -2   -1    0    0    0  501 -0.00000000000E+00  0.00000000000E+00  0.13030069356E+04  0.13030069356E+04  0.00000000000E+00 0. -1.
          2   -1    0    0  501    0  0.00000000000E+00 -0.00000000000E+00 -0.38323008030E+04  0.38323008030E+04  0.00000000000E+00 0.  1.
         23    2    1    2    0    0 -0.61607853134E+03 -0.12150925073E+04 -0.32991188340E+04  0.35704968755E+04  0.90886184687E+02 0.  0.
         13    1    3    3    0    0 -0.35292958164E+03 -0.76922989964E+03 -0.21224558307E+04  0.22849710461E+04  0.00000000000E+00 0.  1.
        -13    1    3    3    0    0 -0.26314894969E+03 -0.44586260766E+03 -0.11766630033E+04  0.12855258294E+04  0.00000000000E+00 0. -1.
         22    1    1    2    0    0  0.61607853134E+03  0.12150925073E+04  0.76982496665E+03  0.15648108631E+04  0.00000000000E+00 0. -1.
<mgrwt>
<rscale>  0 0.44692346E+04</rscale>
<asrwt>0</asrwt>
<pdfrwt beam="1">  1        2 0.58958474E+00 0.44692346E+04</pdfrwt>
<pdfrwt beam="2">  1       -2 0.20046260E+00 0.44692346E+04</pdfrwt>
<totfact> 0.46392618E-02</totfact>
</mgrwt>
</event>
<event>
 6    1  0.6091287E-004  0.2829523E+04  0.7818608E-02  0.8294161E-01
          2   -1    0    0  501    0  0.00000000000E+00  0.00000000000E+00  0.34351980693E+04  0.34351980693E+04  0.00000000000E+00 0.  1.
         -2   -1    0    0    0  501 -0.00000000000E+00 -0.00000000000E+00 -0.58265947597E+03  0.58265947597E+03  0.00000000000E+00 0. -1.
         23    2    1    2    0    0 -0.70161691099E+03 -0.37265599072E+03 -0.23170163970E+03  0.83294363871E+03  0.94713664302E+02 0.  0.
         11    1    3    3    0    0 -0.24016300880E+03 -0.82251317180E+02 -0.54498760775E+02  0.25964141599E+03  0.00000000000E+00 0. -1.
        -11    1    3    3    0    0 -0.46145390219E+03 -0.29040467354E+03 -0.17720287893E+03  0.57330222271E+03  0.00000000000E+00 0.  1.
         22    1    1    2    0    0  0.70161691099E+03  0.37265599072E+03  0.30842402331E+04  0.31849139066E+04  0.00000000000E+00 0.  1.
<mgrwt>
<rscale>  0 0.28295234E+04</rscale>
<asrwt>0</asrwt>
<pdfrwt beam="1">  1        2 0.52849200E+00 0.28295234E+04</pdfrwt>
<pdfrwt beam="2">  1       -2 0.89639921E-01 0.28295234E+04</pdfrwt>
<totfact> 0.83471571E-01</totfact>
</mgrwt>
</event>
<event>
 6    1  0.6091287E-004  0.1625889E+04  0.7818608E-02  0.8804800E-01
          2   -1    0    0  501    0  0.00000000000E+00  0.00000000000E+00  0.70393810872E+03  0.70393810872E+03  0.00000000000E+00 0.  1.
         -2   -1    0    0    0  501 -0.00000000000E+00 -0.00000000000E+00 -0.93883022289E+03  0.93883022289E+03  0.00000000000E+00 0. -1.
         23    2    1    2    0    0 -0.61951628279E+03 -0.23770069645E+03 -0.58797878957E+03  0.89112197455E+03  0.89873638004E+02 0.  0.
         11    1    3    3    0    0 -0.21648177834E+03 -0.43951678120E+02 -0.22316682366E+03  0.31400563935E+03  0.00000000000E+00 0. -1.
        -11    1    3    3    0    0 -0.40303450445E+03 -0.19374901833E+03 -0.36481196591E+03  0.57711633520E+03  0.00000000000E+00 0.  1.
         22    1    1    2    0    0  0.61951628279E+03  0.23770069645E+03  0.35308667540E+03  0.75164635706E+03  0.00000000000E+00 0.  1.
<mgrwt>
<rscale>  0 0.16258885E+04</rscale>
<asrwt>0</asrwt>
<pdfrwt beam="1">  1        2 0.10829817E+00 0.16258885E+04</pdfrwt>
<pdfrwt beam="2">  1       -2 0.14443542E+00 0.16258885E+04</pdfrwt>
<totfact> 0.12882885E+01</totfact>
</mgrwt>
</event>
<event>
 6    1  0.6091287E-004  0.1057348E+04  0.7818608E-02  0.9247790E-01
         -2   -1    0    0    0  501 -0.00000000000E+00  0.00000000000E+00  0.12848321716E+03  0.12848321716E+03  0.00000000000E+00 0. -1.
          2   -1    0    0  501    0  0.00000000000E+00 -0.00000000000E+00 -0.21753514633E+04  0.21753514633E+04  0.00000000000E+00 0.  1.
         23    2    1    2    0    0 -0.49620823125E+03 -0.20790997768E+02 -0.66272176715E+03  0.83328500443E+03  0.92243610107E+02 0.  0.
         13    1    3    3    0    0 -0.46835831560E+03  0.17367292858E+01 -0.60133526314E+03  0.76221166792E+03  0.00000000000E+00 0. -1.
        -13    1    3    3    0    0 -0.27849915649E+02 -0.22527727054E+02 -0.61386504008E+02  0.71073336507E+02  0.00000000000E+00 0.  1.
         22    1    1    2    0    0  0.49620823125E+03  0.20790997768E+02 -0.13841464790E+04  0.14705496760E+04  0.00000000000E+00 0.  1.
<mgrwt>
<rscale>  0 0.10573479E+04</rscale>
<asrwt>0</asrwt>
<pdfrwt beam="1">  1        2 0.33466944E+00 0.10573479E+04</pdfrwt>
<pdfrwt beam="2">  1       -2 0.19766649E-01 0.10573479E+04</pdfrwt>
<totfact> 0.11635111E+02</totfact>
</mgrwt>
</event>
<event>
 6    1  0.6091287E-004  0.1310650E+04  0.7818608E-02  0.9021162E-01
         -1   -1    0    0    0  501 -0.00000000000E+00  0.00000000000E+00  0.21343289520E+03  0.21343289520E+03  0.00000000000E+00 0.  1.
          1   -1    0    0  501    0  0.00000000000E+00 -0.00000000000E+00 -0.20121132202E+04  0.20121132202E+04  0.00000000000E+00 0. -1.
         23    2    1    2    0    0 -0.40487150747E+03  0.38273864786E+03 -0.32806446242E+03  0.65293019744E+03  0.91004071906E+02 0.  0.
         11    1    3    3    0    0 -0.31342457950E+03  0.27863402355E+03 -0.28782500950E+03  0.50864046458E+03  0.00000000000E+00 0.  1.
        -11    1    3    3    0    0 -0.91446927967E+02  0.10410462431E+03 -0.40239452914E+02  0.14428973286E+03  0.00000000000E+00 0. -1.
         22    1    1    2    0    0  0.40487150747E+03 -0.38273864786E+03 -0.14706158626E+04  0.15726159180E+04  0.00000000000E+00 0. -1.
<mgrwt>
<rscale>  0 0.13106504E+04</rscale>
<asrwt>0</asrwt>
<pdfrwt beam="1">  1        1 0.30955588E+00 0.13106504E+04</pdfrwt>
<pdfrwt beam="2">  1       -1 0.32835830E-01 0.13106504E+04</pdfrwt>
<totfact> 0.25000472E+01</totfact>
</mgrwt>
</event>
<event>
 6    1  0.6091287E-004  0.4293143E+04  0.7818608E-02  0.7947887E-01
         -2   -1    0    0    0  501 -0.00000000000E+00  0.00000000000E+00  0.13333895799E+04  0.13333895799E+04  0.00000000000E+00 0.  1.
          2   -1    0    0  501    0  0.00000000000E+00 -0.00000000000E+00 -0.34556810021E+04  0.34556810021E+04  0.00000000000E+00 0. -1.
         23    2    1    2    0    0  0.59779315006E+03 -0.50864368369E+03 -0.32891731862E+04  0.33827675925E+04  0.91549380360E+02 0.  0.
         11    1    3    3    0    0  0.18213157678E+03 -0.14018252747E+03 -0.79923850379E+03  0.83162806483E+03  0.00000000000E+00 0. -1.
        -11    1    3    3    0    0  0.41566157328E+03 -0.36846115622E+03 -0.24899346824E+04  0.25511395277E+04  0.00000000000E+00 0.  1.
         22    1    1    2    0    0 -0.59779315006E+03  0.50864368369E+03  0.11668817640E+04  0.14063029895E+04  0.00000000000E+00 0.  1.
<mgrwt>
<rscale>  0 0.42931429E+04</rscale>
<asrwt>0</asrwt>
<pdfrwt beam="1">  1        2 0.53164322E+00 0.42931429E+04</pdfrwt>
<pdfrwt beam="2">  1       -2 0.20513686E+00 0.42931429E+04</pdfrwt>
<totfact> 0.82650126E-02</totfact>
</mgrwt>
</event>
<event>
 6    1  0.8350150E-004  0.3405489E+04  0.7818608E-02  0.8136560E-01
          2   -1    0    0  501    0  0.00000000000E+00  0.00000000000E+00  0.13047174421E+04  0.13047174421E+04  0.00000000000E+00 0.  1.
         -2   -1    0    0    0  501 -0.00000000000E+00 -0.00000000000E+00 -0.22221969512E+04  0.22221969512E+04  0.00000000000E+00 0. -1.
         23    2    1    2    0    0  0.43925191638E+03 -0.14816531524E+04  0.27826038772E+03  0.15729358338E+04  0.91978169829E+02 0.  0.
         11    1    3    3    0    0  0.17937853157E+03 -0.62420977526E+03  0.71219461424E+02  0.65336568077E+03  0.00000000000E+00 0.  1.
        -11    1    3    3    0    0  0.25987338481E+03 -0.85744337716E+03  0.20704092630E+03  0.91957015303E+03  0.00000000000E+00 0. -1.
         22    1    1    2    0    0 -0.43925191638E+03  0.14816531524E+04 -0.11957398969E+04  0.19539785595E+04  0.00000000000E+00 0. -1.
<mgrwt>
<rscale>  0 0.34054892E+04</rscale>
<asrwt>0</asrwt>
<pdfrwt beam="1">  1        2 0.20072576E+00 0.34054892E+04</pdfrwt>
<pdfrwt beam="2">  1       -2 0.34187645E+00 0.34054892E+04</pdfrwt>
<totfact> 0.23796498E-01</totfact>
</mgrwt>
</event>
<event>
 6    1  0.6091287E-004  0.4316176E+04  0.7818608E-02  0.7943634E-01
          2   -1    0    0  501    0  0.00000000000E+00  0.00000000000E+00  0.32771614967E+04  0.32771614967E+04  0.00000000000E+00 0.  1.
         -2   -1    0    0    0  501 -0.00000000000E+00 -0.00000000000E+00 -0.14211519476E+04  0.14211519476E+04  0.00000000000E+00 0. -1.
         23    2    1    2    0    0  0.47015962767E+03 -0.14327307912E+04  0.26075271160E+04  0.30135148662E+04  0.91140512949E+02 0.  0.
         11    1    3    3    0    0  0.18073546933E+03 -0.55487023526E+03  0.10987178786E+04  0.12440768725E+04  0.00000000000E+00 0. -1.
        -11    1    3    3    0    0  0.28942415834E+03 -0.87786055589E+03  0.15088092374E+04  0.17694379938E+04  0.00000000000E+00 0.  1.
         22    1    1    2    0    0 -0.47015962767E+03  0.14327307912E+04 -0.75151756683E+03  0.16847985781E+04  0.00000000000E+00 0. -1.
<mgrwt>
<rscale>  0 0.43161763E+04</rscale>
<asrwt>0</asrwt>
<pdfrwt beam="1">  1        2 0.50417869E+00 0.43161763E+04</pdfrwt>
<pdfrwt beam="2">  1       -2 0.21863876E+00 0.43161763E+04</pdfrwt>
<totfact> 0.89333721E-02</totfact>
</mgrwt>
</event>
<event>
 6    1  0.6091287E-004  0.7225798E+03  0.7818608E-02  0.9679378E-01
         -2   -1    0    0    0  501 -0.00000000000E+00  0.00000000000E+00  0.56670546392E+02  0.56670546392E+02  0.00000000000E+00 0. -1.
          2   -1    0    0  501    0  0.00000000000E+00 -0.00000000000E+00 -0.23033199524E+04  0.23033199524E+04  0.00000000000E+00 0.  1.
         23    2    1    2    0    0  0.14905284209E+03  0.28664862837E+03 -0.65683264626E+03  0.73767686837E+03  0.91399403995E+02 0.  0.
         13    1    3    3    0    0  0.11889845939E+03  0.19584769502E+03 -0.36884285001E+03  0.43420987010E+03  0.00000000000E+00 0. -1.
        -13    1    3    3    0    0  0.30154382700E+02  0.90800933355E+02 -0.28798979625E+03  0.30346699827E+03  0.00000000000E+00 0.  1.
         22    1    1    2    0    0 -0.14905284209E+03 -0.28664862837E+03 -0.15898167598E+04  0.16223136304E+04  0.00000000000E+00 0.  1.
<mgrwt>
<rscale>  0 0.72257982E+03</rscale>
<asrwt>0</asrwt>
<pdfrwt beam="1">  1        2 0.35435692E+00 0.72257982E+03</pdfrwt>
<pdfrwt beam="2">  1       -2 0.87185454E-02 0.72257982E+03</pdfrwt>
<totfact> 0.40012424E+02</totfact>
</mgrwt>
</event>
<event>
 6    1  0.6091287E-004  0.2484830E+04  0.7818608E-02  0.8408410E-01
          2   -1    0    0  501    0  0.00000000000E+00  0.00000000000E+00  0.21482680165E+04  0.21482680165E+04  0.00000000000E+00 0.  1.
         -2   -1    0    0    0  501 -0.00000000000E+00 -0.00000000000E+00 -0.71852982318E+03  0.71852982318E+03  0.00000000000E+00 0. -1.
         23    2    1    2    0    0  0.10095370685E+04 -0.51391477443E+03  0.13095064601E+03  0.11433934817E+04  0.83229167058E+02 0.  0.
         11    1    3    3    0    0  0.63103286225E+03 -0.27614091700E+03  0.85619607482E+02  0.69410877856E+03  0.00000000000E+00 0. -1.
        -11    1    3    3    0    0  0.37850420625E+03 -0.23777385743E+03  0.45331038529E+02  0.44928470314E+03  0.00000000000E+00 0.  1.
         22    1    1    2    0    0 -0.10095370685E+04  0.51391477443E+03  0.12987875473E+04  0.17234043580E+04  0.00000000000E+00 0. -1.
<mgrwt>
<rscale>  0 0.24848297E+04</rscale>
<asrwt>0</asrwt>
<pdfrwt beam="1">  1        2 0.33050277E+00 0.24848297E+04</pdfrwt>
<pdfrwt beam="2">  1       -2 0.11054305E+00 0.24848297E+04</pdfrwt>
<totfact> 0.32006440E+00</totfact>
</mgrwt>
</event>
<event>
 6    1  0.6091287E-004  0.1035652E+04  0.7818608E-02  0.9270284E-01
          2   -1    0    0  501    0  0.00000000000E+00  0.00000000000E+00  0.25645114689E+04  0.25645114689E+04  0.00000000000E+00 0.  1.
         -2   -1    0    0    0  501 -0.00000000000E+00 -0.00000000000E+00 -0.10455946421E+03  0.10455946421E+03  0.00000000000E+00 0. -1.
         23    2    1    2    0    0 -0.37276648709E+03 -0.33786706845E+03  0.15087392144E+04  0.15930064452E+04  0.90920335459E+02 0.  0.
         13    1    3    3    0    0 -0.23406548563E+03 -0.26579087695E+03  0.10054281854E+04  0.10659818375E+04  0.00000000000E+00 0.  1.
        -13    1    3    3    0    0 -0.13870100145E+03 -0.72076191500E+02  0.50331102900E+03  0.52702460768E+03  0.00000000000E+00 0. -1.
         22    1    1    2    0    0  0.37276648709E+03  0.33786706845E+03  0.95121279029E+03  0.10760644880E+04  0.00000000000E+00 0. -1.
<mgrwt>
<rscale>  0 0.10356523E+04</rscale>
<asrwt>0</asrwt>
<pdfrwt beam="1">  1        2 0.39454018E+00 0.10356523E+04</pdfrwt>
<pdfrwt beam="2">  1       -2 0.16086073E-01 0.10356523E+04</pdfrwt>
<totfact> 0.10040114E+02</totfact>
</mgrwt>
</event>
<event>
 6    1  0.6091287E-004  0.1469006E+04  0.7818608E-02  0.8905329E-01
          2   -1    0    0  501    0  0.00000000000E+00  0.00000000000E+00  0.10716962859E+04  0.10716962859E+04  0.00000000000E+00 0.  1.
         -2   -1    0    0    0  501 -0.00000000000E+00 -0.00000000000E+00 -0.50340240507E+03  0.50340240507E+03  0.00000000000E+00 0. -1.
         23    2    1    2    0    0 -0.15921416385E+03 -0.54063501621E+03  0.78547610719E+03  0.97110904681E+03  0.91895022231E+02 0.  0.
         11    1    3    3    0    0 -0.10440243635E+03 -0.44711957284E+03  0.59018571017E+03  0.74775327055E+03  0.00000000000E+00 0. -1.
        -11    1    3    3    0    0 -0.54811727508E+02 -0.93515443370E+02  0.19529039702E+03  0.22335577626E+03  0.00000000000E+00 0.  1.
         22    1    1    2    0    0  0.15921416385E+03  0.54063501621E+03 -0.21718222641E+03  0.60398964411E+03  0.00000000000E+00 0. -1.
<mgrwt>
<rscale>  0 0.14690058E+04</rscale>
<asrwt>0</asrwt>
<pdfrwt beam="1">  1        2 0.16487635E+00 0.14690058E+04</pdfrwt>
<pdfrwt beam="2">  1       -2 0.77446524E-01 0.14690058E+04</pdfrwt>
<totfact> 0.32667778E+01</totfact>
</mgrwt>
</event>
<event>
 6    1  0.6091287E-004  0.1691093E+04  0.7818608E-02  0.8766461E-01
         -2   -1    0    0    0  501 -0.00000000000E+00  0.00000000000E+00  0.36519918251E+03  0.36519918251E+03  0.00000000000E+00 0. -1.
          2   -1    0    0  501    0  0.00000000000E+00 -0.00000000000E+00 -0.19576951997E+04  0.19576951997E+04  0.00000000000E+00 0.  1.
         23    2    1    2    0    0  0.44599202395E+03 -0.32332597743E+03 -0.16751511518E+04  0.17658661564E+04  0.93291627690E+02 0.  0.
         13    1    3    3    0    0  0.82766646999E+01 -0.74153358475E+01 -0.10351377540E+03  0.10410855912E+03  0.00000000000E+00 0.  1.
        -13    1    3    3    0    0  0.43771535925E+03 -0.31591064158E+03 -0.15716373764E+04  0.16617575973E+04  0.00000000000E+00 0. -1.
         22    1    1    2    0    0 -0.44599202395E+03  0.32332597743E+03  0.82655134582E+02  0.55702822584E+03  0.00000000000E+00 0. -1.
<mgrwt>
<rscale>  0 0.16910928E+04</rscale>
<asrwt>0</asrwt>
<pdfrwt beam="1">  1        2 0.30118387E+00 0.16910928E+04</pdfrwt>
<pdfrwt beam="2">  1       -2 0.56184491E-01 0.16910928E+04</pdfrwt>
<totfact> 0.19973665E+01</totfact>
</mgrwt>
</event>
<event>
 6    1  0.6091287E-004  0.2984294E+04  0.7818608E-02  0.8248230E-01
         -2   -1    0    0    0  501 -0.00000000000E+00  0.00000000000E+00  0.11857878176E+04  0.11857878176E+04  0.00000000000E+00 0. -1.
          2   -1    0    0  501    0  0.00000000000E+00 -0.00000000000E+00 -0.18776564095E+04  0.18776564095E+04  0.00000000000E+00 0.  1.
         23    2    1    2    0    0 -0.40172662239E+03 -0.11354852995E+04 -0.12479370512E+04  0.17368232278E+04  0.92178612712E+02 0.  0.
         13    1    3    3    0    0 -0.75364483805E+02 -0.32936710988E+03 -0.32880875657E+03  0.47146335689E+03  0.00000000000E+00 0. -1.
        -13    1    3    3    0    0 -0.32636213859E+03 -0.80611818957E+03 -0.91912829462E+03  0.12653598710E+04  0.00000000000E+00 0.  1.
         22    1    1    2    0    0  0.40172662239E+03  0.11354852995E+04  0.55606845923E+03  0.13266209993E+04  0.00000000000E+00 0. -1.
<mgrwt>
<rscale>  0 0.29842936E+04</rscale>
<asrwt>0</asrwt>
<pdfrwt beam="1">  1        2 0.28887022E+00 0.29842936E+04</pdfrwt>
<pdfrwt beam="2">  1       -2 0.18242889E+00 0.29842936E+04</pdfrwt>
<totfact> 0.11685990E+00</totfact>
</mgrwt>
</event>
<event>
 6    1  0.6091287E-004  0.2613300E+04  0.7818608E-02  0.8363697E-01
         -2   -1    0    0    0  501 -0.00000000000E+00  0.00000000000E+00  0.12979136811E+04  0.12979136811E+04  0.00000000000E+00 0. -1.
          2   -1    0    0  501    0  0.00000000000E+00 -0.00000000000E+00 -0.13154456002E+04  0.13154456002E+04  0.00000000000E+00 0.  1.
         23    2    1    2    0    0 -0.28771724421E+03 -0.47340803785E+03 -0.11903894182E+04  0.13162505364E+04  0.92693714160E+02 0.  0.
         13    1    3    3    0    0 -0.10454317138E+03 -0.17135769361E+03 -0.54031449499E+03  0.57639612016E+03  0.00000000000E+00 0. -1.
        -13    1    3    3    0    0 -0.18317407283E+03 -0.30205034424E+03 -0.65007492319E+03  0.73985441620E+03  0.00000000000E+00 0.  1.
         22    1    1    2    0    0  0.28771724421E+03  0.47340803785E+03  0.11728574991E+04  0.12971087449E+04  0.00000000000E+00 0. -1.
<mgrwt>
<rscale>  0 0.26133005E+04</rscale>
<asrwt>0</asrwt>
<pdfrwt beam="1">  1        2 0.20237625E+00 0.26133005E+04</pdfrwt>
<pdfrwt beam="2">  1       -2 0.19967903E+00 0.26133005E+04</pdfrwt>
<totfact> 0.19122249E+00</totfact>
</mgrwt>
</event>
<event>
 6    1  0.6091287E-004  0.1915235E+04  0.7818608E-02  0.8647310E-01
          2   -1    0    0  501    0  0.00000000000E+00  0.00000000000E+00  0.27938723926E+04  0.27938723926E+04  0.00000000000E+00 0. -1.
         -2   -1    0    0    0  501 -0.00000000000E+00 -0.00000000000E+00 -0.32822953649E+03  0.32822953649E+03  0.00000000000E+00 0.  1.
         23    2    1    2    0    0 -0.34895671656E+03 -0.86043162405E+03  0.16030463169E+04  0.18547479299E+04  0.90658809728E+02 0.  0.
         13    1    3    3    0    0 -0.55375974221E+02 -0.24314675584E+03  0.42953122785E+03  0.49667284917E+03  0.00000000000E+00 0.  1.
        -13    1    3    3    0    0 -0.29358074234E+03 -0.61728486821E+03  0.11735150890E+04  0.13580750807E+04  0.00000000000E+00 0. -1.
         22    1    1    2    0    0  0.34895671656E+03  0.86043162405E+03  0.86259653921E+03  0.12673539991E+04  0.00000000000E+00 0.  1.
<mgrwt>
<rscale>  0 0.19152352E+04</rscale>
<asrwt>0</asrwt>
<pdfrwt beam="1">  1        2 0.42982651E+00 0.19152352E+04</pdfrwt>
<pdfrwt beam="2">  1       -2 0.50496854E-01 0.19152352E+04</pdfrwt>
<totfact> 0.81059151E+00</totfact>
</mgrwt>
</event>
<event>
 6    1  0.6091287E-004  0.9101715E+03  0.7818608E-02  0.9412955E-01
          2   -1    0    0  501    0  0.00000000000E+00  0.00000000000E+00  0.32495218972E+04  0.32495218972E+04  0.00000000000E+00 0.  1.
         -2   -1    0    0    0  501 -0.00000000000E+00 -0.00000000000E+00 -0.63733387338E+02  0.63733387338E+02  0.00000000000E+00 0. -1.
         23    2    1    2    0    0  0.17733473495E+03  0.39333047419E+03  0.20806959526E+04  0.21269222662E+04  0.91357590746E+02 0.  0.
         11    1    3    3    0    0  0.94505946209E+02  0.25388882142E+03  0.10976339177E+04  0.11305711498E+04  0.00000000000E+00 0. -1.
        -11    1    3    3    0    0  0.82828788742E+02  0.13944165277E+03  0.98306203488E+03  0.99635111643E+03  0.00000000000E+00 0.  1.
         22    1    1    2    0    0 -0.17733473495E+03 -0.39333047419E+03  0.11050925573E+04  0.11863330183E+04  0.00000000000E+00 0. -1.
<mgrwt>
<rscale>  0 0.91017150E+03</rscale>
<asrwt>0</asrwt>
<pdfrwt beam="1">  1        2 0.49992632E+00 0.91017150E+03</pdfrwt>
<pdfrwt beam="2">  1       -2 0.98051391E-02 0.91017150E+03</pdfrwt>
<totfact> 0.89049003E+01</totfact>
</mgrwt>
</event>
<event>
 6    1  0.6091287E-004  0.1891969E+04  0.7818608E-02  0.8658864E-01
          2   -1    0    0  501    0  0.00000000000E+00  0.00000000000E+00  0.34856592454E+04  0.34856592454E+04  0.00000000000E+00 0.  1.
         -2   -1    0    0    0  501 -0.00000000000E+00 -0.00000000000E+00 -0.25673384451E+03  0.25673384451E+03  0.00000000000E+00 0. -1.
         23    2    1    2    0    0  0.42591582657E+03 -0.40029227692E+03  0.15256458711E+03  0.61099818430E+03  0.91676767493E+02 0.  0.
         13    1    3    3    0    0  0.14931930486E+03 -0.17373153316E+03  0.98627736606E+02  0.24941197013E+03  0.00000000000E+00 0.  1.
        -13    1    3    3    0    0  0.27659652171E+03 -0.22656074376E+03  0.53936850502E+02  0.36158621417E+03  0.00000000000E+00 0. -1.
         22    1    1    2    0    0 -0.42591582657E+03  0.40029227692E+03  0.30763608138E+04  0.31313949056E+04  0.00000000000E+00 0.  1.
<mgrwt>
<rscale>  0 0.18919690E+04</rscale>
<asrwt>0</asrwt>
<pdfrwt beam="1">  1        2 0.53625524E+00 0.18919690E+04</pdfrwt>
<pdfrwt beam="2">  1       -2 0.39497517E-01 0.18919690E+04</pdfrwt>
<totfact> 0.47592172E+00</totfact>
</mgrwt>
</event>
<event>
 6    1  0.6091287E-004  0.8734304E+03  0.7818608E-02  0.9459418E-01
          2   -1    0    0  501    0  0.00000000000E+00  0.00000000000E+00  0.48534173726E+03  0.48534173726E+03  0.00000000000E+00 0.  1.
         -2   -1    0    0    0  501 -0.00000000000E+00 -0.00000000000E+00 -0.39296061477E+03  0.39296061477E+03  0.00000000000E+00 0. -1.
         23    2    1    2    0    0 -0.98609309812E+02  0.27815781394E+02  0.46901085941E+03  0.48798520867E+03  0.87526361508E+02 0.  0.
         13    1    3    3    0    0 -0.27654082184E+02  0.27600396411E+01  0.31851526992E+03  0.31972541853E+03  0.00000000000E+00 0.  1.
        -13    1    3    3    0    0 -0.70955227628E+02  0.25055741753E+02  0.15049558949E+03  0.16825979014E+03  0.00000000000E+00 0. -1.
         22    1    1    2    0    0  0.98609309812E+02 -0.27815781394E+02 -0.37662973691E+03  0.39031714336E+03  0.00000000000E+00 0. -1.
<mgrwt>
<rscale>  0 0.87343045E+03</rscale>
<asrwt>0</asrwt>
<pdfrwt beam="1">  1        2 0.74667960E-01 0.87343045E+03</pdfrwt>
<pdfrwt beam="2">  1       -2 0.60455479E-01 0.87343045E+03</pdfrwt>
<totfact> 0.16329164E+02</totfact>
</mgrwt>
</event>
<event>
 6    1  0.6091287E-004  0.2680500E+04  0.7818608E-02  0.8341360E-01
         -2   -1    0    0    0  501 -0.00000000000E+00  0.00000000000E+00  0.16661473175E+04  0.16661473175E+04  0.00000000000E+00 0. -1.
          2   -1    0    0  501    0  0.00000000000E+00 -0.00000000000E+00 -0.10780976504E+04  0.10780976504E+04  0.00000000000E+00 0.  1.
         23    2    1    2    0    0 -0.29437186043E+03 -0.64585427916E+03  0.14564127445E+04  0.16227116531E+04  0.90953199113E+02 0.  0.
         11    1    3    3    0    0 -0.12085965530E+03 -0.36383529637E+03  0.82565428294E+03  0.91032311522E+03  0.00000000000E+00 0. -1.
        -11    1    3    3    0    0 -0.17351220513E+03 -0.28201898280E+03  0.63075846160E+03  0.71238853786E+03  0.00000000000E+00 0.  1.
         22    1    1    2    0    0  0.29437186043E+03  0.64585427916E+03 -0.86836307740E+03  0.11215333148E+04  0.00000000000E+00 0.  1.
<mgrwt>
<rscale>  0 0.26804996E+04</rscale>
<asrwt>0</asrwt>
<pdfrwt beam="1">  1        2 0.16586118E+00 0.26804996E+04</pdfrwt>
<pdfrwt beam="2">  1       -2 0.25633036E+00 0.26804996E+04</pdfrwt>
<totfact> 0.11605038E+00</totfact>
</mgrwt>
</event>
<event>
 6    1  0.6091287E-004  0.2030991E+04  0.7818608E-02  0.8592267E-01
         -2   -1    0    0    0  501 -0.00000000000E+00  0.00000000000E+00  0.13814600590E+04  0.13814600590E+04  0.00000000000E+00 0. -1.
          2   -1    0    0  501    0  0.00000000000E+00 -0.00000000000E+00 -0.74647913148E+03  0.74647913148E+03  0.00000000000E+00 0.  1.
         23    2    1    2    0    0 -0.94282235386E+03  0.20402704754E+03 -0.74554737320E+01  0.96894585282E+03  0.90881541296E+02 0.  0.
         11    1    3    3    0    0 -0.57341756605E+03  0.15888569594E+03  0.23671570988E+02  0.59549367142E+03  0.00000000000E+00 0.  1.
        -11    1    3    3    0    0 -0.36940478781E+03  0.45141351600E+02 -0.31127044720E+02  0.37345218140E+03  0.00000000000E+00 0. -1.
         22    1    1    2    0    0  0.94282235386E+03 -0.20402704754E+03  0.64243640120E+03  0.11589933376E+04  0.00000000000E+00 0. -1.
<mgrwt>
<rscale>  0 0.20309910E+04</rscale>
<asrwt>0</asrwt>
<pdfrwt beam="1">  1        2 0.11484294E+00 0.20309910E+04</pdfrwt>
<pdfrwt beam="2">  1       -2 0.21253232E+00 0.20309910E+04</pdfrwt>
<totfact> 0.38544094E+00</totfact>
</mgrwt>
</event>
<event>
 6    1  0.6091287E-004  0.2618736E+04  0.7818608E-02  0.8361865E-01
          2   -1    0    0  501    0  0.00000000000E+00  0.00000000000E+00  0.19176424379E+04  0.19176424379E+04  0.00000000000E+00 0.  1.
         -2   -1    0    0    0  501 -0.00000000000E+00 -0.00000000000E+00 -0.89403743525E+03  0.89403743525E+03  0.00000000000E+00 0. -1.
         23    2    1    2    0    0 -0.92419026624E+03 -0.69492435754E+03 -0.14353824062E+03  0.11687340855E+04  0.91041886795E+02 0.  0.
         11    1    3    3    0    0 -0.24546210930E+03 -0.20467726879E+03 -0.21097085167E+01  0.31960738779E+03  0.00000000000E+00 0. -1.
        -11    1    3    3    0    0 -0.67872815694E+03 -0.49024708875E+03 -0.14142853210E+03  0.84912669770E+03  0.00000000000E+00 0.  1.
         22    1    1    2    0    0  0.92419026624E+03  0.69492435754E+03  0.11671432433E+04  0.16429457877E+04  0.00000000000E+00 0.  1.
<mgrwt>
<rscale>  0 0.26187357E+04</rscale>
<asrwt>0</asrwt>
<pdfrwt beam="1">  1        2 0.29502191E+00 0.26187357E+04</pdfrwt>
<pdfrwt beam="2">  1       -2 0.13754422E+00 0.26187357E+04</pdfrwt>
<totfact> 0.24658308E+00</totfact>
</mgrwt>
</event>
<event>
 6    1  0.6091287E-004  0.1909984E+04  0.7818608E-02  0.8649903E-01
          2   -1    0    0  501    0  0.00000000000E+00  0.00000000000E+00  0.10917813128E+04  0.10917813128E+04  0.00000000000E+00 0.  1.
         -2   -1    0    0    0  501 -0.00000000000E+00 -0.00000000000E+00 -0.83534111274E+03  0.83534111274E+03  0.00000000000E+00 0. -1.
         23    2    1    2    0    0  0.93097295979E+03  0.23760245716E+02 -0.74986132413E+02  0.93862932237E+03  0.90149229636E+02 0.  0.
         11    1    3    3    0    0  0.31618025622E+03 -0.21199297839E+02 -0.56706581954E+02  0.32192390574E+03  0.00000000000E+00 0. -1.
        -11    1    3    3    0    0  0.61479270358E+03  0.44959543555E+02 -0.18279550458E+02  0.61670541662E+03  0.00000000000E+00 0.  1.
         22    1    1    2    0    0 -0.93097295979E+03 -0.23760245716E+02  0.33142633245E+03  0.98849310315E+03  0.00000000000E+00 0.  1.
<mgrwt>
<rscale>  0 0.19099841E+04</rscale>
<asrwt>0</asrwt>
<pdfrwt beam="1">  1        2 0.16796635E+00 0.19099841E+04</pdfrwt>
<pdfrwt beam="2">  1       -2 0.12851402E+00 0.19099841E+04</pdfrwt>
<totfact> 0.92240931E+00</totfact>
</mgrwt>
</event>
<event>
 6    1  0.6091287E-004  0.2012931E+04  0.7818608E-02  0.8600599E-01
         -2   -1    0    0    0  501 -0.00000000000E+00  0.00000000000E+00  0.11993764562E+04  0.11993764562E+04  0.00000000000E+00 0. -1.
          2   -1    0    0  501    0  0.00000000000E+00 -0.00000000000E+00 -0.84458266815E+03  0.84458266815E+03  0.00000000000E+00 0.  1.
         23    2    1    2    0    0  0.15101585378E+03 -0.45187004532E+03  0.10756126086E+04  0.11799150872E+04  0.90910964361E+02 0.  0.
         11    1    3    3    0    0  0.47298732920E+01 -0.80943562409E+02  0.12414793427E+03  0.14827994328E+03  0.00000000000E+00 0. -1.
        -11    1    3    3    0    0  0.14628598048E+03 -0.37092648291E+03  0.95146467430E+03  0.10316351440E+04  0.00000000000E+00 0.  1.
         22    1    1    2    0    0 -0.15101585378E+03  0.45187004532E+03 -0.72081882055E+03  0.86404403708E+03  0.00000000000E+00 0.  1.
<mgrwt>
<rscale>  0 0.20129308E+04</rscale>
<asrwt>0</asrwt>
<pdfrwt beam="1">  1        2 0.12993580E+00 0.20129308E+04</pdfrwt>
<pdfrwt beam="2">  1       -2 0.18451945E+00 0.20129308E+04</pdfrwt>
<totfact> 0.50142182E+00</totfact>
</mgrwt>
</event>
<event>
 6    1  0.6091287E-004  0.8296726E+03  0.7818608E-02  0.9518033E-01
          2   -1    0    0  501    0  0.00000000000E+00  0.00000000000E+00  0.23337868844E+04  0.23337868844E+04  0.00000000000E+00 0.  1.
         -2   -1    0    0    0  501 -0.00000000000E+00 -0.00000000000E+00 -0.73738161575E+02  0.73738161575E+02  0.00000000000E+00 0. -1.
         23    2    1    2    0    0 -0.35326465981E+03  0.20700548065E+03  0.11415969101E+04  0.12164827938E+04  0.94549953744E+02 0.  0.
         11    1    3    3    0    0 -0.19360064554E+03  0.15351541281E+03  0.58683053934E+03  0.63672464522E+03  0.00000000000E+00 0.  1.
        -11    1    3    3    0    0 -0.15966401427E+03  0.53490067842E+02  0.55476637071E+03  0.57975814862E+03  0.00000000000E+00 0. -1.
         22    1    1    2    0    0  0.35326465981E+03 -0.20700548065E+03  0.11184518128E+04  0.11910422521E+04  0.00000000000E+00 0.  1.
<mgrwt>
<rscale>  0 0.82967260E+03</rscale>
<asrwt>0</asrwt>
<pdfrwt beam="1">  1        2 0.35904408E+00 0.82967260E+03</pdfrwt>
<pdfrwt beam="2">  1       -2 0.11344334E-01 0.82967260E+03</pdfrwt>
<totfact> 0.24837346E+02</totfact>
</mgrwt>
</event>
<event>
 6    1  0.6091287E-004  0.1075743E+04  0.7818608E-02  0.9229163E-01
          2   -1    0    0  501    0  0.00000000000E+00  0.00000000000E+00  0.17168055574E+03  0.17168055574E+03  0.00000000000E+00 0.  1.
         -2   -1    0    0    0  501 -0.00000000000E+00 -0.00000000000E+00 -0.16851389639E+04  0.16851389639E+04  0.00000000000E+00 0. -1.
         23    2    1    2    0    0 -0.14956277563E+03  0.25398280129E+03  0.61064424570E+01  0.30893269482E+03  0.92335443269E+02 0.  0.
         13    1    3    3    0    0 -0.56831339804E+02  0.40894433385E+02 -0.25262851325E+02  0.74433645100E+02  0.00000000000E+00 0.  1.
        -13    1    3    3    0    0 -0.92731435825E+02  0.21308836791E+03  0.31369293782E+02  0.23449904972E+03  0.00000000000E+00 0. -1.
         22    1    1    2    0    0  0.14956277563E+03 -0.25398280129E+03 -0.15195648506E+04  0.15478868248E+04  0.00000000000E+00 0. -1.
<mgrwt>
<rscale>  0 0.10757427E+04</rscale>
<asrwt>0</asrwt>
<pdfrwt beam="1">  1        2 0.26412393E-01 0.10757427E+04</pdfrwt>
<pdfrwt beam="2">  1       -2 0.25925215E+00 0.10757427E+04</pdfrwt>
<totfact> 0.11615658E+01</totfact>
</mgrwt>
</event>
<event>
 6    1  0.6091287E-004  0.3149803E+04  0.7818608E-02  0.8202201E-01
         -2   -1    0    0    0  501 -0.00000000000E+00  0.00000000000E+00  0.13520579312E+04  0.13520579312E+04  0.00000000000E+00 0. -1.
          2   -1    0    0  501    0  0.00000000000E+00 -0.00000000000E+00 -0.18344733040E+04  0.18344733040E+04  0.00000000000E+00 0.  1.
         23    2    1    2    0    0 -0.39499140726E+03  0.79748207743E+03 -0.15542642307E+04  0.17933852092E+04  0.92180985786E+02 0.  0.
         11    1    3    3    0    0 -0.14691005350E+03  0.29474053415E+03 -0.66653034391E+03  0.74344955824E+03  0.00000000000E+00 0.  1.
        -11    1    3    3    0    0 -0.24808135376E+03  0.50274154328E+03 -0.88773388679E+03  0.10499356510E+04  0.00000000000E+00 0. -1.
         22    1    1    2    0    0  0.39499140726E+03 -0.79748207743E+03  0.10718488579E+04  0.13931460260E+04  0.00000000000E+00 0. -1.
<mgrwt>
<rscale>  0 0.31498026E+04</rscale>
<asrwt>0</asrwt>
<pdfrwt beam="1">  1        2 0.28222666E+00 0.31498026E+04</pdfrwt>
<pdfrwt beam="2">  1       -2 0.20800891E+00 0.31498026E+04</pdfrwt>
<totfact> 0.82351359E-01</totfact>
</mgrwt>
</event>
<event>
 6    1  0.6091287E-004  0.5853282E+03  0.7818608E-02  0.9936322E-01
          4   -1    0    0  501    0  0.00000000000E+00  0.00000000000E+00  0.26458785474E+03  0.26458785474E+03  0.00000000000E+00 0.  1.
         -4   -1    0    0    0  501 -0.00000000000E+00 -0.00000000000E+00 -0.32371958806E+03  0.32371958806E+03  0.00000000000E+00 0. -1.
         23    2    1    2    0    0  0.12083610181E+03  0.88246606131E+02 -0.27259056980E+03  0.32762851795E+03  0.10317945550E+03 0.  0.
         13    1    3    3    0    0  0.53734065544E+02  0.24491210274E+02 -0.20413362200E+03  0.21250342306E+03  0.00000000000E+00 0. -1.
        -13    1    3    3    0    0  0.67102036269E+02  0.63755395856E+02 -0.68456947800E+02  0.11512509489E+03  0.00000000000E+00 0.  1.
         22    1    1    2    0    0 -0.12083610181E+03 -0.88246606131E+02  0.21345883647E+03  0.26067892485E+03  0.00000000000E+00 0.  1.
<mgrwt>
<rscale>  0 0.58532819E+03</rscale>
<asrwt>0</asrwt>
<pdfrwt beam="1">  1        4 0.40705824E-01 0.58532819E+03</pdfrwt>
<pdfrwt beam="2">  1       -4 0.49803014E-01 0.58532819E+03</pdfrwt>
<totfact> 0.45063626E+01</totfact>
</mgrwt>
</event>
<event>
 6    1  0.6091287E-004  0.1290773E+04  0.7818608E-02  0.9036915E-01
         -4   -1    0    0    0  501 -0.00000000000E+00  0.00000000000E+00  0.96511370117E+03  0.96511370117E+03  0.00000000000E+00 0. -1.
          4   -1    0    0  501    0  0.00000000000E+00 -0.00000000000E+00 -0.43157969924E+03  0.43157969924E+03  0.00000000000E+00 0.  1.
         23    2    1    2    0    0  0.12540362391E+03  0.14580036057E+03 -0.39516747860E+03  0.44828934413E+03  0.88443122325E+02 0.  0.
         11    1    3    3    0    0  0.88344834837E+02  0.11403813581E+03 -0.36087492331E+03  0.38863892823E+03  0.00000000000E+00 0. -1.
        -11    1    3    3    0    0  0.37058789071E+02  0.31762224758E+02 -0.34292555295E+02  0.59650415905E+02  0.00000000000E+00 0.  1.
         22    1    1    2    0    0 -0.12540362391E+03 -0.14580036057E+03  0.92870148053E+03  0.94840405628E+03  0.00000000000E+00 0. -1.
<mgrwt>
<rscale>  0 0.12907726E+04</rscale>
<asrwt>0</asrwt>
<pdfrwt beam="1">  1        4 0.66396877E-01 0.12907726E+04</pdfrwt>
<pdfrwt beam="2">  1       -4 0.14847903E+00 0.12907726E+04</pdfrwt>
<totfact> 0.12606765E+00</totfact>
</mgrwt>
</event>
<event>
 6    1  0.6091287E-004  0.3316935E+04  0.7818608E-02  0.8158600E-01
         -2   -1    0    0    0  501 -0.00000000000E+00  0.00000000000E+00  0.87840494827E+03  0.87840494827E+03  0.00000000000E+00 0. -1.
          2   -1    0    0  501    0  0.00000000000E+00 -0.00000000000E+00 -0.31312595787E+04  0.31312595787E+04  0.00000000000E+00 0.  1.
         23    2    1    2    0    0  0.79453522783E+03 -0.94855125034E+03  0.20528429809E+03  0.12576683979E+04  0.92479474084E+02 0.  0.
         13    1    3    3    0    0  0.23907736667E+03 -0.23360536453E+03  0.31108268376E+02  0.33570400348E+03  0.00000000000E+00 0. -1.
        -13    1    3    3    0    0  0.55545786116E+03 -0.71494588581E+03  0.17417602971E+03  0.92196439437E+03  0.00000000000E+00 0.  1.
         22    1    1    2    0    0 -0.79453522783E+03  0.94855125034E+03 -0.24581389285E+04  0.27519961291E+04  0.00000000000E+00 0.  1.
<mgrwt>
<rscale>  0 0.33169347E+04</rscale>
<asrwt>0</asrwt>
<pdfrwt beam="1">  1        2 0.48173226E+00 0.33169347E+04</pdfrwt>
<pdfrwt beam="2">  1       -2 0.13513922E+00 0.33169347E+04</pdfrwt>
<totfact> 0.47114388E-01</totfact>
</mgrwt>
</event>
<event>
 6    1  0.6091287E-004  0.4388107E+04  0.7818608E-02  0.7930524E-01
         -2   -1    0    0    0  501 -0.00000000000E+00  0.00000000000E+00  0.14558761292E+04  0.14558761292E+04  0.00000000000E+00 0. -1.
          2   -1    0    0  501    0  0.00000000000E+00 -0.00000000000E+00 -0.33065119235E+04  0.33065119235E+04  0.00000000000E+00 0.  1.
         23    2    1    2    0    0 -0.31866573721E+03 -0.66822850663E+03  0.13147522176E+04  0.15115791603E+04  0.90669593393E+02 0.  0.
         13    1    3    3    0    0 -0.18557946543E+03 -0.40926762462E+03  0.88388579087E+03  0.99156130312E+03  0.00000000000E+00 0. -1.
        -13    1    3    3    0    0 -0.13308627178E+03 -0.25896088200E+03  0.43086642673E+03  0.52001785722E+03  0.00000000000E+00 0.  1.
         22    1    1    2    0    0  0.31866573721E+03  0.66822850663E+03 -0.31653880119E+04  0.32508088924E+04  0.00000000000E+00 0.  1.
<mgrwt>
<rscale>  0 0.43881075E+04</rscale>
<asrwt>0</asrwt>
<pdfrwt beam="1">  1        2 0.50869414E+00 0.43881075E+04</pdfrwt>
<pdfrwt beam="2">  1       -2 0.22398095E+00 0.43881075E+04</pdfrwt>
<totfact> 0.78541315E-02</totfact>
</mgrwt>
</event>
<event>
 6    1  0.6091287E-004  0.8911618E+03  0.7818608E-02  0.9436698E-01
          2   -1    0    0  501    0  0.00000000000E+00  0.00000000000E+00  0.11887531495E+04  0.11887531495E+04  0.00000000000E+00 0. -1.
         -2   -1    0    0    0  501 -0.00000000000E+00 -0.00000000000E+00 -0.16701729981E+03  0.16701729981E+03  0.00000000000E+00 0.  1.
         23    2    1    2    0    0  0.40517141991E+03 -0.19864982228E+02  0.25372895602E+03  0.48721239956E+03  0.91864259324E+02 0.  0.
         11    1    3    3    0    0  0.34128041117E+03  0.14597478705E+02  0.19157013727E+03  0.39164336191E+03  0.00000000000E+00 0. -1.
        -11    1    3    3    0    0  0.63891008738E+02 -0.34462460933E+02  0.62158818745E+02  0.95569037658E+02  0.00000000000E+00 0.  1.
         22    1    1    2    0    0 -0.40517141991E+03  0.19864982228E+02  0.76800689365E+03  0.86855804971E+03  0.00000000000E+00 0. -1.
<mgrwt>
<rscale>  0 0.89116181E+03</rscale>
<asrwt>0</asrwt>
<pdfrwt beam="1">  1        2 0.18288509E+00 0.89116181E+03</pdfrwt>
<pdfrwt beam="2">  1       -2 0.25694970E-01 0.89116181E+03</pdfrwt>
<totfact> 0.26291182E+02</totfact>
</mgrwt>
</event>
<event>
 6    1  0.6091287E-004  0.2649838E+04  0.7818608E-02  0.8351467E-01
          2   -1    0    0  501    0  0.00000000000E+00  0.00000000000E+00  0.27835837424E+04  0.27835837424E+04  0.00000000000E+00 0.  1.
         -2   -1    0    0    0  501 -0.00000000000E+00 -0.00000000000E+00 -0.63062973313E+03  0.63062973313E+03  0.00000000000E+00 0. -1.
         23    2    1    2    0    0 -0.59360205201E+03  0.11427955491E+04  0.68610753459E+03  0.14622955358E+04  0.96018862525E+02 0.  0.
         13    1    3    3    0    0 -0.13929305255E+03  0.33300651488E+03  0.22767405823E+03  0.42676852067E+03  0.00000000000E+00 0. -1.
        -13    1    3    3    0    0 -0.45430899946E+03  0.80978903418E+03  0.45843347637E+03  0.10355270152E+04  0.00000000000E+00 0.  1.
         22    1    1    2    0    0  0.59360205201E+03 -0.11427955491E+04  0.14668464747E+04  0.19519179398E+04  0.00000000000E+00 0.  1.
<mgrwt>
<rscale>  0 0.26498382E+04</rscale>
<asrwt>0</asrwt>
<pdfrwt beam="1">  1        2 0.42824364E+00 0.26498382E+04</pdfrwt>
<pdfrwt beam="2">  1       -2 0.97019961E-01 0.26498382E+04</pdfrwt>
<totfact> 0.18484641E+00</totfact>
</mgrwt>
</event>
<event>
 6    1  0.6091287E-004  0.3100435E+04  0.7818608E-02  0.8215619E-01
         -2   -1    0    0    0  501 -0.00000000000E+00  0.00000000000E+00  0.10880820520E+04  0.10880820520E+04  0.00000000000E+00 0. -1.
          2   -1    0    0  501    0  0.00000000000E+00 -0.00000000000E+00 -0.22086332655E+04  0.22086332655E+04  0.00000000000E+00 0.  1.
         23    2    1    2    0    0 -0.10936717669E+04  0.99954635102E+03 -0.10407739060E+04  0.18129446950E+04  0.91363570803E+02 0.  0.
         11    1    3    3    0    0 -0.69510557561E+03  0.60166008397E+03 -0.60019427107E+03  0.10979070001E+04  0.00000000000E+00 0.  1.
        -11    1    3    3    0    0 -0.39856619127E+03  0.39788626705E+03 -0.44057963491E+03  0.71503769483E+03  0.00000000000E+00 0. -1.
         22    1    1    2    0    0  0.10936717669E+04 -0.99954635102E+03 -0.79777307607E+02  0.14837706225E+04  0.00000000000E+00 0. -1.
<mgrwt>
<rscale>  0 0.31004349E+04</rscale>
<asrwt>0</asrwt>
<pdfrwt beam="1">  1        2 0.33978973E+00 0.31004349E+04</pdfrwt>
<pdfrwt beam="2">  1       -2 0.16739724E+00 0.31004349E+04</pdfrwt>
<totfact> 0.96444461E-01</totfact>
</mgrwt>
</event>
<event>
 6    1  0.6091287E-004  0.1910405E+04  0.7818608E-02  0.8649694E-01
          2   -1    0    0  501    0  0.00000000000E+00  0.00000000000E+00  0.35229606001E+04  0.35229606001E+04  0.00000000000E+00 0.  1.
         -2   -1    0    0    0  501 -0.00000000000E+00 -0.00000000000E+00 -0.25899013686E+03  0.25899013686E+03  0.00000000000E+00 0. -1.
         23    2    1    2    0    0 -0.35081542071E+03 -0.66593715594E+03  0.47807027740E+03  0.89616079302E+03  0.89494255367E+02 0.  0.
         13    1    3    3    0    0  0.16788338343E+01 -0.33053111661E+02  0.27627024641E+02  0.43111241736E+02  0.00000000000E+00 0. -1.
        -13    1    3    3    0    0 -0.35249425454E+03 -0.63288404428E+03  0.45044325276E+03  0.85304955128E+03  0.00000000000E+00 0.  1.
         22    1    1    2    0    0  0.35081542071E+03  0.66593715594E+03  0.27859001858E+04  0.28857899439E+04  0.00000000000E+00 0.  1.
<mgrwt>
<rscale>  0 0.19104052E+04</rscale>
<asrwt>0</asrwt>
<pdfrwt beam="1">  1        2 0.54199391E+00 0.19104052E+04</pdfrwt>
<pdfrwt beam="2">  1       -2 0.39844639E-01 0.19104052E+04</pdfrwt>
<totfact> 0.43988668E+00</totfact>
</mgrwt>
</event>
<event>
 6    1  0.6841328E-004  0.2576793E+04  0.7818608E-02  0.8376127E-01
          1   -1    0    0  501    0  0.00000000000E+00  0.00000000000E+00  0.16108822824E+04  0.16108822824E+04  0.00000000000E+00 0.  1.
         -1   -1    0    0    0  501 -0.00000000000E+00 -0.00000000000E+00 -0.10304694118E+04  0.10304694118E+04  0.00000000000E+00 0. -1.
         23    2    1    2    0    0 -0.10405749041E+04 -0.60674158169E+03 -0.17331610507E+03  0.12204228267E+04  0.91988725871E+02 0.  0.
         11    1    3    3    0    0 -0.51223098696E+03 -0.26729826073E+03 -0.12055376196E+03  0.59022212235E+03  0.00000000000E+00 0. -1.
        -11    1    3    3    0    0 -0.52834391710E+03 -0.33944332097E+03 -0.52762343111E+02  0.63020070433E+03  0.00000000000E+00 0.  1.
         22    1    1    2    0    0  0.10405749041E+04  0.60674158169E+03  0.75372897567E+03  0.14209288676E+04  0.00000000000E+00 0. -1.
<mgrwt>
<rscale>  0 0.25767925E+04</rscale>
<asrwt>0</asrwt>
<pdfrwt beam="1">  1        1 0.24782804E+00 0.25767925E+04</pdfrwt>
<pdfrwt beam="2">  1       -1 0.15853376E+00 0.25767925E+04</pdfrwt>
<totfact> 0.14514002E+00</totfact>
</mgrwt>
</event>
<event>
 6    1  0.6091287E-004  0.2766308E+04  0.7818608E-02  0.8313805E-01
          2   -1    0    0  501    0  0.00000000000E+00  0.00000000000E+00  0.25439011074E+04  0.25439011074E+04  0.00000000000E+00 0.  1.
         -2   -1    0    0    0  501 -0.00000000000E+00 -0.00000000000E+00 -0.75204003213E+03  0.75204003213E+03  0.00000000000E+00 0. -1.
         23    2    1    2    0    0 -0.57527124143E+03 -0.12003889967E+04  0.13381343428E+04  0.18896201618E+04  0.90499127343E+02 0.  0.
         11    1    3    3    0    0 -0.20128253720E+03 -0.51860549892E+03  0.53935522993E+03  0.77483571636E+03  0.00000000000E+00 0. -1.
        -11    1    3    3    0    0 -0.37398870423E+03 -0.68178349775E+03  0.79877911285E+03  0.11147844455E+04  0.00000000000E+00 0.  1.
         22    1    1    2    0    0  0.57527124143E+03  0.12003889967E+04  0.45372673247E+03  0.14063209777E+04  0.00000000000E+00 0. -1.
<mgrwt>
<rscale>  0 0.27663083E+04</rscale>
<asrwt>0</asrwt>
<pdfrwt beam="1">  1        2 0.39136940E+00 0.27663083E+04</pdfrwt>
<pdfrwt beam="2">  1       -2 0.11569847E+00 0.27663083E+04</pdfrwt>
<totfact> 0.16635132E+00</totfact>
</mgrwt>
</event>
<event>
 6    1  0.9325954E-004  0.4683829E+04  0.7818608E-02  0.7879221E-01
         -2   -1    0    0    0  501 -0.00000000000E+00  0.00000000000E+00  0.17447547590E+04  0.17447547590E+04  0.00000000000E+00 0. -1.
          2   -1    0    0  501    0  0.00000000000E+00 -0.00000000000E+00 -0.31434581054E+04  0.31434581054E+04  0.00000000000E+00 0.  1.
         23    2    1    2    0    0 -0.15990700454E+04 -0.15733576428E+04 -0.98223460867E+00  0.22450890330E+04  0.89132030672E+02 0.  0.
         11    1    3    3    0    0 -0.65911676453E+03 -0.59509074008E+03  0.20803131191E+02  0.88825709593E+03  0.00000000000E+00 0.  1.
        -11    1    3    3    0    0 -0.93995328090E+03 -0.97826690269E+03 -0.21785365800E+02  0.13568319370E+04  0.00000000000E+00 0. -1.
         22    1    1    2    0    0  0.15990700454E+04  0.15733576428E+04 -0.13977211118E+04  0.26431238315E+04  0.00000000000E+00 0.  1.
<mgrwt>
<rscale>  0 0.46838290E+04</rscale>
<asrwt>0</asrwt>
<pdfrwt beam="1">  1        2 0.48360894E+00 0.46838290E+04</pdfrwt>
<pdfrwt beam="2">  1       -2 0.26842381E+00 0.46838290E+04</pdfrwt>
<totfact> 0.52160692E-02</totfact>
</mgrwt>
</event>
<event>
 6    1  0.6091287E-004  0.3200061E+04  0.7818608E-02  0.8188801E-01
          2   -1    0    0  501    0  0.00000000000E+00  0.00000000000E+00  0.29625462434E+04  0.29625462434E+04  0.00000000000E+00 0.  1.
         -2   -1    0    0    0  501 -0.00000000000E+00 -0.00000000000E+00 -0.86415443565E+03  0.86415443565E+03  0.00000000000E+00 0. -1.
         23    2    1    2    0    0 -0.50935829096E+03  0.13559459831E+04  0.18591430239E+04  0.23586150691E+04  0.92827169161E+02 0.  0.
         13    1    3    3    0    0 -0.45627847357E+03  0.12790112260E+04  0.17399650962E+04  0.22071561562E+04  0.00000000000E+00 0.  1.
        -13    1    3    3    0    0 -0.53079817395E+02  0.76934757024E+02  0.11917792763E+03  0.15145891287E+03  0.00000000000E+00 0. -1.
         22    1    1    2    0    0  0.50935829096E+03 -0.13559459831E+04  0.23924878385E+03  0.14680856099E+04  0.00000000000E+00 0. -1.
<mgrwt>
<rscale>  0 0.32000609E+04</rscale>
<asrwt>0</asrwt>
<pdfrwt beam="1">  1        2 0.45577634E+00 0.32000609E+04</pdfrwt>
<pdfrwt beam="2">  1       -2 0.13294684E+00 0.32000609E+04</pdfrwt>
<totfact> 0.63438734E-01</totfact>
</mgrwt>
</event>
<event>
 6    1  0.6091287E-004  0.1205525E+04  0.7818608E-02  0.9108034E-01
          2   -1    0    0  501    0  0.00000000000E+00  0.00000000000E+00  0.19683466054E+04  0.19683466054E+04  0.00000000000E+00 0.  1.
         -2   -1    0    0    0  501 -0.00000000000E+00 -0.00000000000E+00 -0.18458268062E+03  0.18458268062E+03  0.00000000000E+00 0. -1.
         23    2    1    2    0    0  0.38317285329E+03 -0.27024134943E+03  0.23098237486E+03  0.53089896441E+03  0.93000163857E+02 0.  0.
         13    1    3    3    0    0  0.17766420392E+03 -0.85714330395E+02  0.60518437911E+02  0.20633467260E+03  0.00000000000E+00 0. -1.
        -13    1    3    3    0    0  0.20550864937E+03 -0.18452701903E+03  0.17046393695E+03  0.32456429181E+03  0.00000000000E+00 0.  1.
         22    1    1    2    0    0 -0.38317285329E+03  0.27024134943E+03  0.15527815500E+04  0.16220303216E+04  0.00000000000E+00 0.  1.
<mgrwt>
<rscale>  0 0.12055251E+04</rscale>
<asrwt>0</asrwt>
<pdfrwt beam="1">  1        2 0.30282254E+00 0.12055251E+04</pdfrwt>
<pdfrwt beam="2">  1       -2 0.28397337E-01 0.12055251E+04</pdfrwt>
<totfact> 0.78030896E+01</totfact>
</mgrwt>
</event>
<event>
 6    1  0.6091287E-004  0.3727470E+04  0.7818608E-02  0.8061901E-01
          2   -1    0    0  501    0  0.00000000000E+00  0.00000000000E+00  0.12429495263E+04  0.12429495263E+04  0.00000000000E+00 0.  1.
         -2   -1    0    0    0  501 -0.00000000000E+00 -0.00000000000E+00 -0.27945687756E+04  0.27945687756E+04  0.00000000000E+00 0. -1.
         23    2    1    2    0    0  0.15658130710E+04 -0.64424249065E+03 -0.16153875525E+04  0.23431495828E+04  0.11854983180E+03 0.  0.
         13    1    3    3    0    0  0.76361327704E+03 -0.30768398250E+03 -0.86691544316E+03  0.11955404868E+04  0.00000000000E+00 0. -1.
        -13    1    3    3    0    0  0.80219979393E+03 -0.33655850815E+03 -0.74847210936E+03  0.11476090960E+04  0.00000000000E+00 0.  1.
         22    1    1    2    0    0 -0.15658130710E+04  0.64424249065E+03  0.63768303233E+02  0.16943687192E+04  0.00000000000E+00 0. -1.
<mgrwt>
<rscale>  0 0.37274699E+04</rscale>
<asrwt>0</asrwt>
<pdfrwt beam="1">  1        2 0.19122301E+00 0.37274699E+04</pdfrwt>
<pdfrwt beam="2">  1       -2 0.42993365E+00 0.37274699E+04</pdfrwt>
<totfact> 0.67839655E-02</totfact>
</mgrwt>
</event>
<event>
 6    1  0.6091287E-004  0.5255486E+03  0.7818608E-02  0.1007317E+00
          2   -1    0    0  501    0  0.00000000000E+00  0.00000000000E+00  0.18595208587E+04  0.18595208587E+04  0.00000000000E+00 0.  1.
         -2   -1    0    0    0  501 -0.00000000000E+00 -0.00000000000E+00 -0.37133407008E+02  0.37133407008E+02  0.00000000000E+00 0. -1.
         23    2    1    2    0    0 -0.22247982593E+03 -0.22220339411E+02  0.49537671703E+03  0.55093939756E+03  0.90250271944E+02 0.  0.
         11    1    3    3    0    0 -0.17075742930E+03 -0.18785972892E+02  0.45132482572E+03  0.48291315032E+03  0.00000000000E+00 0. -1.
        -11    1    3    3    0    0 -0.51722396630E+02 -0.34343665189E+01  0.44051891304E+02  0.68026247243E+02  0.00000000000E+00 0.  1.
         22    1    1    2    0    0  0.22247982593E+03  0.22220339411E+02  0.13270107346E+04  0.13457148681E+04  0.00000000000E+00 0.  1.
<mgrwt>
<rscale>  0 0.52554865E+03</rscale>
<asrwt>0</asrwt>
<pdfrwt beam="1">  1        2 0.28608006E+00 0.52554865E+03</pdfrwt>
<pdfrwt beam="2">  1       -2 0.57128333E-02 0.52554865E+03</pdfrwt>
<totfact> 0.13826747E+03</totfact>
</mgrwt>
</event>
<event>
 6    1  0.6091287E-004  0.2556674E+04  0.7818608E-02  0.8383069E-01
         -2   -1    0    0    0  501 -0.00000000000E+00  0.00000000000E+00  0.57094997234E+03  0.57094997234E+03  0.00000000000E+00 0. -1.
          2   -1    0    0  501    0  0.00000000000E+00 -0.00000000000E+00 -0.28621519860E+04  0.28621519860E+04  0.00000000000E+00 0.  1.
         23    2    1    2    0    0 -0.12545685042E+04 -0.23551082829E+03 -0.11939767109E+04  0.17498578147E+04  0.83752633367E+02 0.  0.
         11    1    3    3    0    0 -0.89095686319E+03 -0.20561683918E+03 -0.84984624067E+03  0.12483273006E+04  0.00000000000E+00 0. -1.
        -11    1    3    3    0    0 -0.36361164103E+03 -0.29893989114E+02 -0.34413047024E+03  0.50153051415E+03  0.00000000000E+00 0.  1.
         22    1    1    2    0    0  0.12545685042E+04  0.23551082829E+03 -0.10972253028E+04  0.16832441436E+04  0.00000000000E+00 0. -1.
<mgrwt>
<rscale>  0 0.25566741E+04</rscale>
<asrwt>0</asrwt>
<pdfrwt beam="1">  1        2 0.44033107E+00 0.25566741E+04</pdfrwt>
<pdfrwt beam="2">  1       -2 0.87838459E-01 0.25566741E+04</pdfrwt>
<totfact> 0.21027115E+00</totfact>
</mgrwt>
</event>
<event>
 6    1  0.6091287E-004  0.2362814E+04  0.7818608E-02  0.8453558E-01
         -2   -1    0    0    0  501 -0.00000000000E+00  0.00000000000E+00  0.69324619882E+03  0.69324619882E+03  0.00000000000E+00 0. -1.
          2   -1    0    0  501    0  0.00000000000E+00 -0.00000000000E+00 -0.20133144211E+04  0.20133144211E+04  0.00000000000E+00 0.  1.
         23    2    1    2    0    0 -0.13620438309E+03  0.10206089036E+04 -0.13204410160E+04  0.16769032463E+04  0.90806677042E+02 0.  0.
         13    1    3    3    0    0 -0.10267532469E+03  0.43857009520E+03 -0.59276695483E+03  0.74448546893E+03  0.00000000000E+00 0.  1.
        -13    1    3    3    0    0 -0.33529058402E+02  0.58203880841E+03 -0.72767406120E+03  0.93241777739E+03  0.00000000000E+00 0. -1.
         22    1    1    2    0    0  0.13620438309E+03 -0.10206089036E+04  0.37279371992E+00  0.10296573736E+04  0.00000000000E+00 0. -1.
<mgrwt>
<rscale>  0 0.23628141E+04</rscale>
<asrwt>0</asrwt>
<pdfrwt beam="1">  1        2 0.30974068E+00 0.23628141E+04</pdfrwt>
<pdfrwt beam="2">  1       -2 0.10665326E+00 0.23628141E+04</pdfrwt>
<totfact> 0.41939551E+00</totfact>
</mgrwt>
</event>
<event>
 6    1  0.6091287E-004  0.1982551E+04  0.7818608E-02  0.8614822E-01
         -2   -1    0    0    0  501 -0.00000000000E+00  0.00000000000E+00  0.38832601623E+03  0.38832601623E+03  0.00000000000E+00 0. -1.
          2   -1    0    0  501    0  0.00000000000E+00 -0.00000000000E+00 -0.25304182071E+04  0.25304182071E+04  0.00000000000E+00 0.  1.
         23    2    1    2    0    0 -0.20552802804E+03  0.44239352777E+03  0.19358583475E+03  0.53267095474E+03  0.91154083249E+02 0.  0.
         13    1    3    3    0    0 -0.15318126763E+03  0.22617621649E+03  0.93450612438E+02  0.28870954024E+03  0.00000000000E+00 0.  1.
        -13    1    3    3    0    0 -0.52346760407E+02  0.21621731128E+03  0.10013522231E+03  0.24396141451E+03  0.00000000000E+00 0. -1.
         22    1    1    2    0    0  0.20552802804E+03 -0.44239352777E+03 -0.23356780256E+04  0.23860732686E+04  0.00000000000E+00 0.  1.
<mgrwt>
<rscale>  0 0.19825511E+04</rscale>
<asrwt>0</asrwt>
<pdfrwt beam="1">  1        2 0.38929510E+00 0.19825511E+04</pdfrwt>
<pdfrwt beam="2">  1       -2 0.59742466E-01 0.19825511E+04</pdfrwt>
<totfact> 0.81326702E+00</totfact>
</mgrwt>
</event>
<event>
 6    1  0.6091287E-004  0.1163523E+04  0.7818608E-02  0.9145398E-01
          2   -1    0    0  501    0  0.00000000000E+00  0.00000000000E+00  0.89759541156E+03  0.89759541156E+03  0.00000000000E+00 0.  1.
         -2   -1    0    0    0  501 -0.00000000000E+00 -0.00000000000E+00 -0.37705898665E+03  0.37705898665E+03  0.00000000000E+00 0. -1.
         23    2    1    2    0    0  0.40067128756E+03 -0.23569411079E+03 -0.11480328242E+03  0.48741508374E+03  0.91128895865E+02 0.  0.
         11    1    3    3    0    0  0.27215776522E+03 -0.18396280728E+03 -0.11742276378E+03  0.34885565652E+03  0.00000000000E+00 0.  1.
        -11    1    3    3    0    0  0.12851352235E+03 -0.51731303510E+02  0.26194813645E+01  0.13855942722E+03  0.00000000000E+00 0. -1.
         22    1    1    2    0    0 -0.40067128756E+03  0.23569411079E+03  0.63533970734E+03  0.78723931447E+03  0.00000000000E+00 0.  1.
<mgrwt>
<rscale>  0 0.11635230E+04</rscale>
<asrwt>0</asrwt>
<pdfrwt beam="1">  1        2 0.13809160E+00 0.11635230E+04</pdfrwt>
<pdfrwt beam="2">  1       -2 0.58009075E-01 0.11635230E+04</pdfrwt>
<totfact> 0.80968773E+01</totfact>
</mgrwt>
</event>
<event>
 6    1  0.6091287E-004  0.2123754E+04  0.7818608E-02  0.8550851E-01
          2   -1    0    0  501    0  0.00000000000E+00  0.00000000000E+00  0.57773038467E+04  0.57773038467E+04  0.00000000000E+00 0.  1.
         -2   -1    0    0    0  501 -0.00000000000E+00 -0.00000000000E+00 -0.19517447635E+03  0.19517447635E+03  0.00000000000E+00 0. -1.
         23    2    1    2    0    0  0.54419592569E+03  0.80744038101E+03  0.39738423096E+04  0.40923994832E+04  0.90562981586E+02 0.  0.
         13    1    3    3    0    0  0.40416219038E+03  0.55857353317E+03  0.29484104735E+04  0.30279491060E+04  0.00000000000E+00 0. -1.
        -13    1    3    3    0    0  0.14003373531E+03  0.24886684784E+03  0.10254318361E+04  0.10644503772E+04  0.00000000000E+00 0.  1.
         22    1    1    2    0    0 -0.54419592569E+03 -0.80744038101E+03  0.16082870607E+04  0.18800788398E+04  0.00000000000E+00 0. -1.
<mgrwt>
<rscale>  0 0.21237535E+04</rscale>
<asrwt>0</asrwt>
<pdfrwt beam="1">  1        2 0.88881585E+00 0.21237535E+04</pdfrwt>
<pdfrwt beam="2">  1       -2 0.30026847E-01 0.21237535E+04</pdfrwt>
<totfact> 0.14975317E-02</totfact>
</mgrwt>
</event>
<event>
 6    1  0.6091287E-004  0.8067283E+03  0.7818608E-02  0.9550329E-01
         -2   -1    0    0    0  501 -0.00000000000E+00  0.00000000000E+00  0.59330229790E+03  0.59330229790E+03  0.00000000000E+00 0. -1.
          2   -1    0    0  501    0  0.00000000000E+00 -0.00000000000E+00 -0.27423228361E+03  0.27423228361E+03  0.00000000000E+00 0.  1.
         23    2    1    2    0    0 -0.17422355421E+03  0.11553288500E+03  0.52597897374E+03  0.57340363812E+03  0.91848554886E+02 0.  0.
         13    1    3    3    0    0 -0.79954737898E+02  0.10083363723E+03  0.24618140471E+03  0.27778672851E+03  0.00000000000E+00 0.  1.
        -13    1    3    3    0    0 -0.94268816313E+02  0.14699247769E+02  0.27979756903E+03  0.29561690961E+03  0.00000000000E+00 0. -1.
         22    1    1    2    0    0  0.17422355421E+03 -0.11553288500E+03 -0.20690895945E+03  0.29413094339E+03  0.00000000000E+00 0.  1.
<mgrwt>
<rscale>  0 0.80672832E+03</rscale>
<asrwt>0</asrwt>
<pdfrwt beam="1">  1        2 0.42189582E-01 0.80672832E+03</pdfrwt>
<pdfrwt beam="2">  1       -2 0.91277276E-01 0.80672832E+03</pdfrwt>
<totfact> 0.12502980E+02</totfact>
</mgrwt>
</event>
<event>
 6    1  0.6091287E-004  0.1920038E+04  0.7818608E-02  0.8644946E-01
          2   -1    0    0  501    0  0.00000000000E+00  0.00000000000E+00  0.56315373070E+03  0.56315373070E+03  0.00000000000E+00 0.  1.
         -2   -1    0    0    0  501 -0.00000000000E+00 -0.00000000000E+00 -0.16365635447E+04  0.16365635447E+04  0.00000000000E+00 0. -1.
         23    2    1    2    0    0  0.13228384504E+03  0.90755596904E+03 -0.22115065935E+03  0.94771786673E+03  0.90026041728E+02 0.  0.
         13    1    3    3    0    0  0.82311659430E+02  0.62949771831E+03 -0.19433904836E+03  0.66393542785E+03  0.00000000000E+00 0. -1.
        -13    1    3    3    0    0  0.49972185612E+02  0.27805825073E+03 -0.26811610995E+02  0.28378243888E+03  0.00000000000E+00 0.  1.
         22    1    1    2    0    0 -0.13228384504E+03 -0.90755596904E+03 -0.85225915460E+03  0.12519994086E+04  0.00000000000E+00 0. -1.
<mgrwt>
<rscale>  0 0.19200384E+04</rscale>
<asrwt>0</asrwt>
<pdfrwt beam="1">  1        2 0.86639037E-01 0.19200384E+04</pdfrwt>
<pdfrwt beam="2">  1       -2 0.25177900E+00 0.19200384E+04</pdfrwt>
<totfact> 0.31357988E+00</totfact>
</mgrwt>
</event>
<event>
 6    1  0.6091287E-004  0.2819016E+04  0.7818608E-02  0.8297389E-01
         -2   -1    0    0    0  501 -0.00000000000E+00  0.00000000000E+00  0.92336244325E+03  0.92336244325E+03  0.00000000000E+00 0. -1.
          2   -1    0    0  501    0  0.00000000000E+00 -0.00000000000E+00 -0.21516068724E+04  0.21516068724E+04  0.00000000000E+00 0.  1.
         23    2    1    2    0    0  0.76716615988E+03  0.28343758734E+03  0.63550780330E+03  0.10396675771E+04  0.90320098069E+02 0.  0.
         13    1    3    3    0    0  0.14586442369E+03  0.30493233587E+02  0.15120156335E+03  0.21229267570E+03  0.00000000000E+00 0. -1.
        -13    1    3    3    0    0  0.62130173619E+03  0.25294435375E+03  0.48430623995E+03  0.82737490144E+03  0.00000000000E+00 0.  1.
         22    1    1    2    0    0 -0.76716615988E+03 -0.28343758734E+03 -0.18637522325E+04  0.20353017385E+04  0.00000000000E+00 0.  1.
<mgrwt>
<rscale>  0 0.28190161E+04</rscale>
<asrwt>0</asrwt>
<pdfrwt beam="1">  1        2 0.33101644E+00 0.28190161E+04</pdfrwt>
<pdfrwt beam="2">  1       -2 0.14205576E+00 0.28190161E+04</pdfrwt>
<totfact> 0.16514650E+00</totfact>
</mgrwt>
</event>
<event>
 6    1  0.6091287E-004  0.2415289E+04  0.7818608E-02  0.8433802E-01
         -2   -1    0    0    0  501 -0.00000000000E+00  0.00000000000E+00  0.74312795460E+03  0.74312795460E+03  0.00000000000E+00 0. -1.
          2   -1    0    0  501    0  0.00000000000E+00 -0.00000000000E+00 -0.19625228684E+04  0.19625228684E+04  0.00000000000E+00 0.  1.
         23    2    1    2    0    0  0.79305663461E+03 -0.44884452609E+03 -0.14952712324E+04  0.17535436980E+04  0.93162266514E+02 0.  0.
         13    1    3    3    0    0  0.27760885316E+03 -0.10837187422E+03 -0.46730549996E+03  0.55424323971E+03  0.00000000000E+00 0. -1.
        -13    1    3    3    0    0  0.51544778145E+03 -0.34047265187E+03 -0.10279657325E+04  0.11993004583E+04  0.00000000000E+00 0.  1.
         22    1    1    2    0    0 -0.79305663461E+03  0.44884452609E+03  0.27587631865E+03  0.95210712501E+03  0.00000000000E+00 0. -1.
<mgrwt>
<rscale>  0 0.24152893E+04</rscale>
<asrwt>0</asrwt>
<pdfrwt beam="1">  1        2 0.30192659E+00 0.24152893E+04</pdfrwt>
<pdfrwt beam="2">  1       -2 0.11432738E+00 0.24152893E+04</pdfrwt>
<totfact> 0.37656907E+00</totfact>
</mgrwt>
</event>
<event>
 6    1  0.6091287E-004  0.2361562E+04  0.7818608E-02  0.8454036E-01
         -2   -1    0    0    0  501 -0.00000000000E+00  0.00000000000E+00  0.12143681759E+04  0.12143681759E+04  0.00000000000E+00 0. -1.
          2   -1    0    0  501    0  0.00000000000E+00 -0.00000000000E+00 -0.11481230564E+04  0.11481230564E+04  0.00000000000E+00 0.  1.
         23    2    1    2    0    0  0.43666086611E+03  0.85528312755E+03  0.71748170030E+03  0.12021934151E+04  0.91143166645E+02 0.  0.
         13    1    3    3    0    0  0.11922911109E+03  0.32990845547E+03  0.26179671229E+03  0.43771302070E+03  0.00000000000E+00 0.  1.
        -13    1    3    3    0    0  0.31743175502E+03  0.52537467208E+03  0.45568498801E+03  0.76448039442E+03  0.00000000000E+00 0. -1.
         22    1    1    2    0    0 -0.43666086611E+03 -0.85528312755E+03 -0.65123658089E+03  0.11602978172E+04  0.00000000000E+00 0.  1.
<mgrwt>
<rscale>  0 0.23615623E+04</rscale>
<asrwt>0</asrwt>
<pdfrwt beam="1">  1        2 0.17663432E+00 0.23615623E+04</pdfrwt>
<pdfrwt beam="2">  1       -2 0.18682587E+00 0.23615623E+04</pdfrwt>
<totfact> 0.29898336E+00</totfact>
</mgrwt>
</event>
<event>
 6    1  0.6091287E-004  0.2362268E+04  0.7818608E-02  0.8453766E-01
          2   -1    0    0  501    0  0.00000000000E+00  0.00000000000E+00  0.15238942277E+04  0.15238942277E+04  0.00000000000E+00 0.  1.
         -2   -1    0    0    0  501 -0.00000000000E+00 -0.00000000000E+00 -0.91546903482E+03  0.91546903482E+03  0.00000000000E+00 0. -1.
         23    2    1    2    0    0  0.13601078586E+03  0.41388484240E+03 -0.82707884304E+03  0.93920612617E+03  0.90824766431E+02 0.  0.
         11    1    3    3    0    0  0.17050623271E+02  0.11555584341E+03 -0.30058564726E+03  0.32248350041E+03  0.00000000000E+00 0. -1.
        -11    1    3    3    0    0  0.11896016259E+03  0.29832899898E+03 -0.52649319578E+03  0.61672262576E+03  0.00000000000E+00 0.  1.
         22    1    1    2    0    0 -0.13601078586E+03 -0.41388484240E+03  0.14355040359E+04  0.15001571364E+04  0.00000000000E+00 0.  1.
<mgrwt>
<rscale>  0 0.23622684E+04</rscale>
<asrwt>0</asrwt>
<pdfrwt beam="1">  1        2 0.23444527E+00 0.23622684E+04</pdfrwt>
<pdfrwt beam="2">  1       -2 0.14084139E+00 0.23622684E+04</pdfrwt>
<totfact> 0.39256035E+00</totfact>
</mgrwt>
</event>
<event>
 6    1  0.6091287E-004  0.1212371E+04  0.7818608E-02  0.9102097E-01
          2   -1    0    0  501    0  0.00000000000E+00  0.00000000000E+00  0.46985351697E+03  0.46985351697E+03  0.00000000000E+00 0. -1.
         -2   -1    0    0    0  501 -0.00000000000E+00 -0.00000000000E+00 -0.78207546924E+03  0.78207546924E+03  0.00000000000E+00 0.  1.
         23    2    1    2    0    0  0.94618182265E+02  0.56403605153E+03 -0.35340293407E+03  0.67853109548E+03  0.91768981060E+02 0.  0.
         11    1    3    3    0    0  0.20702919910E+02  0.35323891395E+03 -0.18886857559E+03  0.40109559966E+03  0.00000000000E+00 0. -1.
        -11    1    3    3    0    0  0.73915262355E+02  0.21079713758E+03 -0.16453435848E+03  0.27743549582E+03  0.00000000000E+00 0.  1.
         22    1    1    2    0    0 -0.94618182265E+02 -0.56403605153E+03  0.41180981804E+02  0.57339789074E+03  0.00000000000E+00 0. -1.
<mgrwt>
<rscale>  0 0.12123711E+04</rscale>
<asrwt>0</asrwt>
<pdfrwt beam="1">  1        2 0.72285157E-01 0.12123711E+04</pdfrwt>
<pdfrwt beam="2">  1       -2 0.12031930E+00 0.12123711E+04</pdfrwt>
<totfact> 0.34408706E+01</totfact>
</mgrwt>
</event>
<event>
 6    1  0.6091287E-004  0.1148946E+04  0.7818608E-02  0.9158756E-01
          2   -1    0    0  501    0  0.00000000000E+00  0.00000000000E+00  0.20509149460E+04  0.20509149460E+04  0.00000000000E+00 0.  1.
         -2   -1    0    0    0  501 -0.00000000000E+00 -0.00000000000E+00 -0.16091330877E+03  0.16091330877E+03  0.00000000000E+00 0. -1.
         23    2    1    2    0    0  0.45544152462E+03  0.15224235687E+02  0.16128385587E+04  0.16784633405E+04  0.91280935035E+02 0.  0.
         11    1    3    3    0    0  0.21434298023E+03  0.13546849217E+01  0.92342140398E+03  0.94797248782E+03  0.00000000000E+00 0.  1.
        -11    1    3    3    0    0  0.24109854439E+03  0.13869550765E+02  0.68941715474E+03  0.73049085264E+03  0.00000000000E+00 0. -1.
         22    1    1    2    0    0 -0.45544152462E+03 -0.15224235687E+02  0.27716307847E+03  0.53336491426E+03  0.00000000000E+00 0. -1.
<mgrwt>
<rscale>  0 0.11489465E+04</rscale>
<asrwt>0</asrwt>
<pdfrwt beam="1">  1        2 0.31552536E+00 0.11489465E+04</pdfrwt>
<pdfrwt beam="2">  1       -2 0.24755895E-01 0.11489465E+04</pdfrwt>
<totfact> 0.90676705E+01</totfact>
</mgrwt>
</event>
<event>
 6    1  0.6091287E-004  0.5024552E+04  0.7818608E-02  0.7824731E-01
          2   -1    0    0  501    0  0.00000000000E+00  0.00000000000E+00  0.27371688113E+04  0.27371688113E+04  0.00000000000E+00 0.  1.
         -2   -1    0    0    0  501 -0.00000000000E+00 -0.00000000000E+00 -0.23058606364E+04  0.23058606364E+04  0.00000000000E+00 0. -1.
         23    2    1    2    0    0 -0.82921489866E+03 -0.61054055479E+03 -0.20833471296E+04  0.23257056875E+04  0.90634239437E+02 0.  0.
         13    1    3    3    0    0 -0.53814308255E+03 -0.34459999186E+03 -0.13207552612E+04  0.14672224070E+04  0.00000000000E+00 0. -1.
        -13    1    3    3    0    0 -0.29107181611E+03 -0.26594056293E+03 -0.76259186840E+03  0.85848328049E+03  0.00000000000E+00 0.  1.
         22    1    1    2    0    0  0.82921489866E+03  0.61054055479E+03  0.25146553045E+04  0.27173237602E+04  0.00000000000E+00 0.  1.
<mgrwt>
<rscale>  0 0.50245516E+04</rscale>
<asrwt>0</asrwt>
<pdfrwt beam="1">  1        2 0.42110289E+00 0.50245516E+04</pdfrwt>
<pdfrwt beam="2">  1       -2 0.35474779E+00 0.50245516E+04</pdfrwt>
<totfact> 0.26618711E-02</totfact>
</mgrwt>
</event>
<event>
 6    1  0.6091287E-004  0.4721888E+04  0.7818608E-02  0.7872902E-01
          2   -1    0    0  501    0  0.00000000000E+00  0.00000000000E+00  0.37259760556E+04  0.37259760556E+04  0.00000000000E+00 0.  1.
         -2   -1    0    0    0  501 -0.00000000000E+00 -0.00000000000E+00 -0.14959990673E+04  0.14959990673E+04  0.00000000000E+00 0. -1.
         23    2    1    2    0    0 -0.72969971602E+03 -0.17690978205E+04 -0.41204938274E+03  0.19596949204E+04  0.91927760630E+02 0.  0.
         13    1    3    3    0    0 -0.29555100032E+03 -0.70245726703E+03 -0.11848212156E+03  0.77125522295E+03  0.00000000000E+00 0.  1.
        -13    1    3    3    0    0 -0.43414871569E+03 -0.10666405535E+04 -0.29356726118E+03  0.11884396975E+04  0.00000000000E+00 0. -1.
         22    1    1    2    0    0  0.72969971602E+03  0.17690978205E+04  0.26420263710E+04  0.32622802024E+04  0.00000000000E+00 0.  1.
<mgrwt>
<rscale>  0 0.47218881E+04</rscale>
<asrwt>0</asrwt>
<pdfrwt beam="1">  1        2 0.57322708E+00 0.47218881E+04</pdfrwt>
<pdfrwt beam="2">  1       -2 0.23015370E+00 0.47218881E+04</pdfrwt>
<totfact> 0.35348612E-02</totfact>
</mgrwt>
</event>
<event>
 6    1  0.6091287E-004  0.1768811E+04  0.7818608E-02  0.8723063E-01
          2   -1    0    0  501    0  0.00000000000E+00  0.00000000000E+00  0.66799945317E+03  0.66799945317E+03  0.00000000000E+00 0.  1.
         -2   -1    0    0    0  501 -0.00000000000E+00 -0.00000000000E+00 -0.11709190084E+04  0.11709190084E+04  0.00000000000E+00 0. -1.
         23    2    1    2    0    0 -0.58341496877E+03  0.43748176069E+03  0.26384333923E+03  0.78076504497E+03  0.90650047264E+02 0.  0.
         11    1    3    3    0    0 -0.47771486837E+03  0.31905928065E+03  0.22785068253E+03  0.61800182326E+03  0.00000000000E+00 0.  1.
        -11    1    3    3    0    0 -0.10570010041E+03  0.11842248004E+03  0.35992656701E+02  0.16276322171E+03  0.00000000000E+00 0. -1.
         22    1    1    2    0    0  0.58341496877E+03 -0.43748176069E+03 -0.76676289443E+03  0.10581534166E+04  0.00000000000E+00 0. -1.
<mgrwt>
<rscale>  0 0.17688112E+04</rscale>
<asrwt>0</asrwt>
<pdfrwt beam="1">  1        2 0.10276915E+00 0.17688112E+04</pdfrwt>
<pdfrwt beam="2">  1       -2 0.18014138E+00 0.17688112E+04</pdfrwt>
<totfact> 0.74355185E+00</totfact>
</mgrwt>
</event>
<event>
 6    1  0.6091287E-004  0.3208727E+04  0.7818608E-02  0.8186516E-01
         -2   -1    0    0    0  501 -0.00000000000E+00  0.00000000000E+00  0.21234919326E+04  0.21234919326E+04  0.00000000000E+00 0. -1.
          2   -1    0    0  501    0  0.00000000000E+00 -0.00000000000E+00 -0.12121463012E+04  0.12121463012E+04  0.00000000000E+00 0.  1.
         23    2    1    2    0    0  0.10608179204E+04  0.99272512522E+02  0.17011896363E+04  0.20093489576E+04  0.90814992352E+02 0.  0.
         11    1    3    3    0    0  0.37512932322E+03  0.77644218603E+02  0.62857423362E+03  0.73610882415E+03  0.00000000000E+00 0.  1.
        -11    1    3    3    0    0  0.68568859719E+03  0.21628293919E+02  0.10726154027E+04  0.12732401335E+04  0.00000000000E+00 0. -1.
         22    1    1    2    0    0 -0.10608179204E+04 -0.99272512522E+02 -0.78984400490E+03  0.13262892762E+04  0.00000000000E+00 0.  1.
<mgrwt>
<rscale>  0 0.32087274E+04</rscale>
<asrwt>0</asrwt>
<pdfrwt beam="1">  1        2 0.18648405E+00 0.32087274E+04</pdfrwt>
<pdfrwt beam="2">  1       -2 0.32669107E+00 0.32087274E+04</pdfrwt>
<totfact> 0.34105359E-01</totfact>
</mgrwt>
</event>
<event>
 6    1  0.6091287E-004  0.1769407E+04  0.7818608E-02  0.8722740E-01
          2   -1    0    0  501    0  0.00000000000E+00  0.00000000000E+00  0.19913582571E+04  0.19913582571E+04  0.00000000000E+00 0.  1.
         -2   -1    0    0    0  501 -0.00000000000E+00 -0.00000000000E+00 -0.39304855812E+03  0.39304855812E+03  0.00000000000E+00 0. -1.
         23    2    1    2    0    0 -0.28740986991E+03 -0.47011111847E+03 -0.12785837461E+03  0.57242858264E+03  0.87851131062E+02 0.  0.
         11    1    3    3    0    0 -0.21906602444E+03 -0.27795366931E+03 -0.75558877452E+02  0.36188024166E+03  0.00000000000E+00 0.  1.
        -11    1    3    3    0    0 -0.68343845470E+02 -0.19215744916E+03 -0.52299497162E+02  0.21054834097E+03  0.00000000000E+00 0. -1.
         22    1    1    2    0    0  0.28740986991E+03  0.47011111847E+03  0.17261680736E+04  0.18119782326E+04  0.00000000000E+00 0.  1.
<mgrwt>
<rscale>  0 0.17694072E+04</rscale>
<asrwt>0</asrwt>
<pdfrwt beam="1">  1        2 0.30636280E+00 0.17694072E+04</pdfrwt>
<pdfrwt beam="2">  1       -2 0.60469010E-01 0.17694072E+04</pdfrwt>
<totfact> 0.16287601E+01</totfact>
</mgrwt>
</event>
<event>
 6    1  0.6091287E-004  0.5260105E+04  0.7818608E-02  0.7789590E-01
          2   -1    0    0  501    0  0.00000000000E+00  0.00000000000E+00  0.35329818693E+04  0.35329818693E+04  0.00000000000E+00 0.  1.
         -2   -1    0    0    0  501 -0.00000000000E+00 -0.00000000000E+00 -0.19578863458E+04  0.19578863458E+04  0.00000000000E+00 0. -1.
         23    2    1    2    0    0  0.76379058773E+03 -0.14026746622E+04  0.29679939806E+04  0.33716611978E+04  0.90767250486E+02 0.  0.
         11    1    3    3    0    0  0.34229543219E+03 -0.62188641134E+03  0.12248479425E+04  0.14156840586E+04  0.00000000000E+00 0. -1.
        -11    1    3    3    0    0  0.42149515554E+03 -0.78078825090E+03  0.17431460381E+04  0.19559771392E+04  0.00000000000E+00 0.  1.
         22    1    1    2    0    0 -0.76379058773E+03  0.14026746622E+04 -0.13928984572E+04  0.21192070173E+04  0.00000000000E+00 0. -1.
<mgrwt>
<rscale>  0 0.52601053E+04</rscale>
<asrwt>0</asrwt>
<pdfrwt beam="1">  1        2 0.54353567E+00 0.52601053E+04</pdfrwt>
<pdfrwt beam="2">  1       -2 0.30121328E+00 0.52601053E+04</pdfrwt>
<totfact> 0.17135867E-02</totfact>
</mgrwt>
</event>
<event>
 6    1  0.6091287E-004  0.3085391E+04  0.7818608E-02  0.8219759E-01
         -2   -1    0    0    0  501 -0.00000000000E+00  0.00000000000E+00  0.11451017323E+04  0.11451017323E+04  0.00000000000E+00 0. -1.
          2   -1    0    0  501    0  0.00000000000E+00 -0.00000000000E+00 -0.20783391401E+04  0.20783391401E+04  0.00000000000E+00 0.  1.
         23    2    1    2    0    0 -0.13374369110E+04  0.68959269550E+03 -0.11817412068E+03  0.15121244964E+04  0.90993370126E+02 0.  0.
         13    1    3    3    0    0 -0.34215252400E+03  0.19986335957E+03 -0.65519775368E+02  0.40162987083E+03  0.00000000000E+00 0. -1.
        -13    1    3    3    0    0 -0.99528438698E+03  0.48972933593E+03 -0.52654345314E+02  0.11104946256E+04  0.00000000000E+00 0.  1.
         22    1    1    2    0    0  0.13374369110E+04 -0.68959269550E+03 -0.81506328714E+03  0.17113163759E+04  0.00000000000E+00 0.  1.
<mgrwt>
<rscale>  0 0.30853912E+04</rscale>
<asrwt>0</asrwt>
<pdfrwt beam="1">  1        2 0.31974448E+00 0.30853912E+04</pdfrwt>
<pdfrwt beam="2">  1       -2 0.17616950E+00 0.30853912E+04</pdfrwt>
<totfact> 0.99026831E-01</totfact>
</mgrwt>
</event>
<event>
 6    1  0.6091287E-004  0.8484462E+03  0.7818608E-02  0.9492425E-01
         -2   -1    0    0    0  501 -0.00000000000E+00  0.00000000000E+00  0.14355735135E+03  0.14355735135E+03  0.00000000000E+00 0. -1.
          2   -1    0    0  501    0  0.00000000000E+00 -0.00000000000E+00 -0.12536119938E+04  0.12536119938E+04  0.00000000000E+00 0.  1.
         23    2    1    2    0    0 -0.14869668590E+03  0.37444392368E+03 -0.75317914482E+03  0.85895091628E+03  0.90547755411E+02 0.  0.
         11    1    3    3    0    0 -0.50377450348E+02  0.24374623995E+03 -0.47480538381E+03  0.53608793074E+03  0.00000000000E+00 0.  1.
        -11    1    3    3    0    0 -0.98319235551E+02  0.13069768373E+03 -0.27837376101E+03  0.32286298554E+03  0.00000000000E+00 0. -1.
         22    1    1    2    0    0  0.14869668590E+03 -0.37444392368E+03 -0.35687549767E+03  0.53821842890E+03  0.00000000000E+00 0. -1.
<mgrwt>
<rscale>  0 0.84844615E+03</rscale>
<asrwt>0</asrwt>
<pdfrwt beam="1">  1        2 0.19286339E+00 0.84844615E+03</pdfrwt>
<pdfrwt beam="2">  1       -2 0.22085746E-01 0.84844615E+03</pdfrwt>
<totfact> 0.31658317E+02</totfact>
</mgrwt>
</event>
<event>
 6    1  0.6091287E-004  0.1777669E+04  0.7818608E-02  0.8718266E-01
         -2   -1    0    0    0  501 -0.00000000000E+00  0.00000000000E+00  0.56749948892E+03  0.56749948892E+03  0.00000000000E+00 0. -1.
          2   -1    0    0  501    0  0.00000000000E+00 -0.00000000000E+00 -0.13921192134E+04  0.13921192134E+04  0.00000000000E+00 0.  1.
         23    2    1    2    0    0 -0.31889249288E+03  0.78431081678E+03 -0.70337467753E+03  0.11043197834E+04  0.89164834601E+02 0.  0.
         13    1    3    3    0    0 -0.20925534358E+03  0.61337737859E+03 -0.54521124085E+03  0.84692083723E+03  0.00000000000E+00 0. -1.
        -13    1    3    3    0    0 -0.10963714930E+03  0.17093343819E+03 -0.15816343668E+03  0.25739894619E+03  0.00000000000E+00 0.  1.
         22    1    1    2    0    0  0.31889249288E+03 -0.78431081678E+03 -0.12124504699E+03  0.85529891895E+03  0.00000000000E+00 0. -1.
<mgrwt>
<rscale>  0 0.17776692E+04</rscale>
<asrwt>0</asrwt>
<pdfrwt beam="1">  1        2 0.21417219E+00 0.17776692E+04</pdfrwt>
<pdfrwt beam="2">  1       -2 0.87307614E-01 0.17776692E+04</pdfrwt>
<totfact> 0.15673594E+01</totfact>
</mgrwt>
</event>
<event>
 6    1  0.6091287E-004  0.2115332E+04  0.7818608E-02  0.8554520E-01
          2   -1    0    0  501    0  0.00000000000E+00  0.00000000000E+00  0.12376818153E+04  0.12376818153E+04  0.00000000000E+00 0.  1.
         -2   -1    0    0    0  501 -0.00000000000E+00 -0.00000000000E+00 -0.90383235489E+03  0.90383235489E+03  0.00000000000E+00 0. -1.
         23    2    1    2    0    0 -0.44858006902E+03  0.88489446404E+03 -0.19811867854E+03  0.10157911173E+04  0.91204673562E+02 0.  0.
         11    1    3    3    0    0 -0.25288720951E+03  0.50359269794E+03 -0.66404498687E+02  0.56742145148E+03  0.00000000000E+00 0.  1.
        -11    1    3    3    0    0 -0.19569285951E+03  0.38130176610E+03 -0.13171417986E+03  0.44836966586E+03  0.00000000000E+00 0. -1.
         22    1    1    2    0    0  0.44858006902E+03 -0.88489446404E+03  0.53196813893E+03  0.11257230528E+04  0.00000000000E+00 0.  1.
<mgrwt>
<rscale>  0 0.21153315E+04</rscale>
<asrwt>0</asrwt>
<pdfrwt beam="1">  1        2 0.19041259E+00 0.21153315E+04</pdfrwt>
<pdfrwt beam="2">  1       -2 0.13905113E+00 0.21153315E+04</pdfrwt>
<totfact> 0.60527888E+00</totfact>
</mgrwt>
</event>
<event>
 6    1  0.6091287E-004  0.1104849E+04  0.7818608E-02  0.9200478E-01
         -2   -1    0    0    0  501 -0.00000000000E+00  0.00000000000E+00  0.16113651273E+03  0.16113651273E+03  0.00000000000E+00 0. -1.
          2   -1    0    0  501    0  0.00000000000E+00 -0.00000000000E+00 -0.18938791362E+04  0.18938791362E+04  0.00000000000E+00 0.  1.
         23    2    1    2    0    0 -0.42061653915E+03 -0.23764936351E+03 -0.38739858976E+03  0.62555908715E+03  0.88605931970E+02 0.  0.
         13    1    3    3    0    0 -0.22293843463E+03 -0.97613763877E+02 -0.24099410758E+03  0.34250277725E+03  0.00000000000E+00 0. -1.
        -13    1    3    3    0    0 -0.19767810452E+03 -0.14003559964E+03 -0.14640448218E+03  0.28305630990E+03  0.00000000000E+00 0.  1.
         22    1    1    2    0    0  0.42061653915E+03  0.23764936351E+03 -0.13453440337E+04  0.14294565618E+04  0.00000000000E+00 0.  1.
<mgrwt>
<rscale>  0 0.11048495E+04</rscale>
<asrwt>0</asrwt>
<pdfrwt beam="1">  1        2 0.29136600E+00 0.11048495E+04</pdfrwt>
<pdfrwt beam="2">  1       -2 0.24790235E-01 0.11048495E+04</pdfrwt>
<totfact> 0.11079104E+02</totfact>
</mgrwt>
</event>
<event>
 6    1  0.6091287E-004  0.2180539E+04  0.7818608E-02  0.8526572E-01
         -2   -1    0    0    0  501 -0.00000000000E+00  0.00000000000E+00  0.57981290470E+03  0.57981290470E+03  0.00000000000E+00 0. -1.
          2   -1    0    0  501    0  0.00000000000E+00 -0.00000000000E+00 -0.20501218951E+04  0.20501218951E+04  0.00000000000E+00 0.  1.
         23    2    1    2    0    0 -0.27190975674E+03  0.23181400264E+03 -0.19765833524E+04  0.20102684562E+04  0.81393299954E+02 0.  0.
         11    1    3    3    0    0 -0.63465837622E+02  0.84899419759E+02 -0.43459452771E+03  0.44733458120E+03  0.00000000000E+00 0.  1.
        -11    1    3    3    0    0 -0.20844391912E+03  0.14691458288E+03 -0.15419888247E+04  0.15629338750E+04  0.00000000000E+00 0. -1.
         22    1    1    2    0    0  0.27190975674E+03 -0.23181400264E+03  0.50627436208E+03  0.61966634355E+03  0.00000000000E+00 0. -1.
<mgrwt>
<rscale>  0 0.21805386E+04</rscale>
<asrwt>0</asrwt>
<pdfrwt beam="1">  1        2 0.31540337E+00 0.21805386E+04</pdfrwt>
<pdfrwt beam="2">  1       -2 0.89201986E-01 0.21805386E+04</pdfrwt>
<totfact> 0.61867714E+00</totfact>
</mgrwt>
</event>
<event>
 6    1  0.6091287E-004  0.5149671E+04  0.7818608E-02  0.7805825E-01
          2   -1    0    0  501    0  0.00000000000E+00  0.00000000000E+00  0.45953929207E+04  0.45953929207E+04  0.00000000000E+00 0.  1.
         -2   -1    0    0    0  501 -0.00000000000E+00 -0.00000000000E+00 -0.14427007073E+04  0.14427007073E+04  0.00000000000E+00 0. -1.
         23    2    1    2    0    0 -0.24748630712E+04 -0.35988469684E+03  0.86259163936E+03  0.26470724167E+04  0.91999060221E+02 0.  0.
         13    1    3    3    0    0 -0.84194390399E+03 -0.80856528738E+02  0.30656857246E+03  0.89966193947E+03  0.00000000000E+00 0. -1.
        -13    1    3    3    0    0 -0.16329191672E+04 -0.27902816810E+03  0.55602306690E+03  0.17474104773E+04  0.00000000000E+00 0.  1.
         22    1    1    2    0    0  0.24748630712E+04  0.35988469684E+03  0.22901005740E+04  0.33910212112E+04  0.00000000000E+00 0.  1.
<mgrwt>
<rscale>  0 0.51496705E+04</rscale>
<asrwt>0</asrwt>
<pdfrwt beam="1">  1        2 0.70698352E+00 0.51496705E+04</pdfrwt>
<pdfrwt beam="2">  1       -2 0.22195396E+00 0.51496705E+04</pdfrwt>
<totfact> 0.67502094E-03</totfact>
</mgrwt>
</event>
<event>
 6    1  0.6091287E-004  0.2814232E+04  0.7818608E-02  0.8298863E-01
          2   -1    0    0  501    0  0.00000000000E+00  0.00000000000E+00  0.16798105013E+04  0.16798105013E+04  0.00000000000E+00 0.  1.
         -2   -1    0    0    0  501 -0.00000000000E+00 -0.00000000000E+00 -0.11786900501E+04  0.11786900501E+04  0.00000000000E+00 0. -1.
         23    2    1    2    0    0  0.25833551586E+03  0.20314634856E+03  0.16389840718E+04  0.16741275964E+04  0.91808189901E+02 0.  0.
         13    1    3    3    0    0  0.13505920281E+03  0.11410715323E+03  0.10993038703E+04  0.11134318255E+04  0.00000000000E+00 0. -1.
        -13    1    3    3    0    0  0.12327631306E+03  0.89039195330E+02  0.53968020147E+03  0.56069577091E+03  0.00000000000E+00 0.  1.
         22    1    1    2    0    0 -0.25833551586E+03 -0.20314634856E+03 -0.11378636206E+04  0.11843729551E+04  0.00000000000E+00 0. -1.
<mgrwt>
<rscale>  0 0.28142323E+04</rscale>
<asrwt>0</asrwt>
<pdfrwt beam="1">  1        2 0.25843238E+00 0.28142323E+04</pdfrwt>
<pdfrwt beam="2">  1       -2 0.18133693E+00 0.28142323E+04</pdfrwt>
<totfact> 0.15529956E+00</totfact>
</mgrwt>
</event>
<event>
 6    1  0.6091287E-004  0.1543719E+04  0.7818608E-02  0.8855890E-01
         -2   -1    0    0    0  501 -0.00000000000E+00  0.00000000000E+00  0.50786324625E+03  0.50786324625E+03  0.00000000000E+00 0. -1.
          2   -1    0    0  501    0  0.00000000000E+00 -0.00000000000E+00 -0.11730853624E+04  0.11730853624E+04  0.00000000000E+00 0.  1.
         23    2    1    2    0    0  0.68208165155E+03  0.33426116025E+03 -0.46579177021E+03  0.89562169230E+03  0.90610925869E+02 0.  0.
         13    1    3    3    0    0  0.47250823699E+03  0.27474318674E+03 -0.34793829780E+03  0.64792662529E+03  0.00000000000E+00 0. -1.
        -13    1    3    3    0    0  0.20957341456E+03  0.59517973511E+02 -0.11785347241E+03  0.24769506701E+03  0.00000000000E+00 0.  1.
         22    1    1    2    0    0 -0.68208165155E+03 -0.33426116025E+03 -0.19943034590E+03  0.78532691632E+03  0.00000000000E+00 0. -1.
<mgrwt>
<rscale>  0 0.15437188E+04</rscale>
<asrwt>0</asrwt>
<pdfrwt beam="1">  1        2 0.18047467E+00 0.15437188E+04</pdfrwt>
<pdfrwt beam="2">  1       -2 0.78132808E-01 0.15437188E+04</pdfrwt>
<totfact> 0.27599635E+01</totfact>
</mgrwt>
</event>
<event>
 6    1  0.6091287E-004  0.2204627E+04  0.7818608E-02  0.8516505E-01
         -2   -1    0    0    0  501 -0.00000000000E+00  0.00000000000E+00  0.14846324167E+04  0.14846324167E+04  0.00000000000E+00 0. -1.
          2   -1    0    0  501    0  0.00000000000E+00 -0.00000000000E+00 -0.81844820759E+03  0.81844820759E+03  0.00000000000E+00 0.  1.
         23    2    1    2    0    0  0.89977231685E+03 -0.32129927309E+03  0.90399901213E+03  0.13185099942E+04  0.91820181905E+02 0.  0.
         13    1    3    3    0    0  0.45215999510E+03 -0.19619241493E+03  0.50943071054E+03  0.70884396992E+03  0.00000000000E+00 0. -1.
        -13    1    3    3    0    0  0.44761232176E+03 -0.12510685816E+03  0.39456830159E+03  0.60966602428E+03  0.00000000000E+00 0.  1.
         22    1    1    2    0    0 -0.89977231685E+03  0.32129927309E+03 -0.23781480304E+03  0.98457063007E+03  0.00000000000E+00 0.  1.
<mgrwt>
<rscale>  0 0.22046267E+04</rscale>
<asrwt>0</asrwt>
<pdfrwt beam="1">  1        2 0.12591511E+00 0.22046267E+04</pdfrwt>
<pdfrwt beam="2">  1       -2 0.22840499E+00 0.22046267E+04</pdfrwt>
<totfact> 0.26698661E+00</totfact>
</mgrwt>
</event>
<event>
 6    1  0.1147366E-003  0.3473661E+04  0.7818608E-02  0.8120060E-01
         -2   -1    0    0    0  501 -0.00000000000E+00  0.00000000000E+00  0.20458471399E+04  0.20458471399E+04  0.00000000000E+00 0. -1.
          2   -1    0    0  501    0  0.00000000000E+00 -0.00000000000E+00 -0.14744897292E+04  0.14744897292E+04  0.00000000000E+00 0.  1.
         23    2    1    2    0    0 -0.99195798353E+03 -0.10619345457E+04 -0.67593862265E+03  0.16052825577E+04  0.91397199280E+02 0.  0.
         13    1    3    3    0    0 -0.45389806853E+03 -0.53232144031E+03 -0.28885411988E+03  0.75685287539E+03  0.00000000000E+00 0. -1.
        -13    1    3    3    0    0 -0.53805991500E+03 -0.52961310541E+03 -0.38708450277E+03  0.84842968231E+03  0.00000000000E+00 0.  1.
         22    1    1    2    0    0  0.99195798353E+03  0.10619345457E+04  0.12472960334E+04  0.19150543113E+04  0.00000000000E+00 0. -1.
<mgrwt>
<rscale>  0 0.34736612E+04</rscale>
<asrwt>0</asrwt>
<pdfrwt beam="1">  1        2 0.22684457E+00 0.34736612E+04</pdfrwt>
<pdfrwt beam="2">  1       -2 0.31474571E+00 0.34736612E+04</pdfrwt>
<totfact> 0.27875880E-01</totfact>
</mgrwt>
</event>
<event>
 6    1  0.6091287E-004  0.1038012E+04  0.7818608E-02  0.9267809E-01
          2   -1    0    0  501    0  0.00000000000E+00  0.00000000000E+00  0.19516924993E+04  0.19516924993E+04  0.00000000000E+00 0.  1.
         -2   -1    0    0    0  501 -0.00000000000E+00 -0.00000000000E+00 -0.13801718444E+03  0.13801718444E+03  0.00000000000E+00 0. -1.
         23    2    1    2    0    0 -0.15302316184E+03 -0.32888459478E+03  0.17752733490E+03  0.41383338249E+03  0.90337971463E+02 0.  0.
         11    1    3    3    0    0 -0.99878657108E+02 -0.13095056347E+03  0.48622888616E+02  0.17172064965E+03  0.00000000000E+00 0. -1.
        -11    1    3    3    0    0 -0.53144504729E+02 -0.19793403131E+03  0.12890444629E+03  0.24211273285E+03  0.00000000000E+00 0.  1.
         22    1    1    2    0    0  0.15302316184E+03  0.32888459478E+03  0.16361479799E+04  0.16758763012E+04  0.00000000000E+00 0.  1.
<mgrwt>
<rscale>  0 0.10380118E+04</rscale>
<asrwt>0</asrwt>
<pdfrwt beam="1">  1        2 0.30026036E+00 0.10380118E+04</pdfrwt>
<pdfrwt beam="2">  1       -2 0.21233414E-01 0.10380118E+04</pdfrwt>
<totfact> 0.13652214E+02</totfact>
</mgrwt>
</event>
<event>
 6    1  0.6091287E-004  0.1852663E+04  0.7818608E-02  0.8678785E-01
         -2   -1    0    0    0  501 -0.00000000000E+00  0.00000000000E+00  0.12477376360E+04  0.12477376360E+04  0.00000000000E+00 0. -1.
          2   -1    0    0  501    0  0.00000000000E+00 -0.00000000000E+00 -0.68771643720E+03  0.68771643720E+03  0.00000000000E+00 0.  1.
         23    2    1    2    0    0 -0.40140340309E+03 -0.80400924564E+03  0.50567889026E+03  0.10351715367E+04  0.91177909585E+02 0.  0.
         11    1    3    3    0    0 -0.26920686937E+03 -0.52250037053E+03  0.28093835427E+03  0.65146399334E+03  0.00000000000E+00 0.  1.
        -11    1    3    3    0    0 -0.13219653373E+03 -0.28150887511E+03  0.22474053599E+03  0.38370754333E+03  0.00000000000E+00 0. -1.
         22    1    1    2    0    0  0.40140340309E+03  0.80400924564E+03  0.54342308548E+02  0.90028253653E+03  0.00000000000E+00 0.  1.
<mgrwt>
<rscale>  0 0.18526626E+04</rscale>
<asrwt>0</asrwt>
<pdfrwt beam="1">  1        2 0.10580253E+00 0.18526626E+04</pdfrwt>
<pdfrwt beam="2">  1       -2 0.19195964E+00 0.18526626E+04</pdfrwt>
<totfact> 0.59195215E+00</totfact>
</mgrwt>
</event>
<event>
 6    1  0.6091287E-004  0.4716399E+04  0.7818608E-02  0.7873809E-01
         -2   -1    0    0    0  501 -0.00000000000E+00  0.00000000000E+00  0.16153439616E+04  0.16153439616E+04  0.00000000000E+00 0. -1.
          2   -1    0    0  501    0  0.00000000000E+00 -0.00000000000E+00 -0.34426753930E+04  0.34426753930E+04  0.00000000000E+00 0.  1.
         23    2    1    2    0    0  0.12267905220E+04 -0.14757346086E+04  0.55394260852E+03  0.19997071284E+04  0.95752629866E+02 0.  0.
         13    1    3    3    0    0  0.56409829293E+03 -0.75304293553E+03  0.27640421064E+03  0.98065275939E+03  0.00000000000E+00 0.  1.
        -13    1    3    3    0    0  0.66269222905E+03 -0.72269167309E+03  0.27753839788E+03  0.10190543691E+04  0.00000000000E+00 0. -1.
         22    1    1    2    0    0 -0.12267905220E+04  0.14757346086E+04 -0.23812740399E+04  0.30583122262E+04  0.00000000000E+00 0.  1.
<mgrwt>
<rscale>  0 0.47163990E+04</rscale>
<asrwt>0</asrwt>
<pdfrwt beam="1">  1        2 0.52964236E+00 0.47163990E+04</pdfrwt>
<pdfrwt beam="2">  1       -2 0.24851446E+00 0.47163990E+04</pdfrwt>
<totfact> 0.43473018E-02</totfact>
</mgrwt>
</event>
<event>
 6    1  0.6091287E-004  0.1762312E+04  0.7818608E-02  0.8726602E-01
          1   -1    0    0  501    0  0.00000000000E+00  0.00000000000E+00  0.16302359451E+04  0.16302359451E+04  0.00000000000E+00 0. -1.
         -1   -1    0    0    0  501 -0.00000000000E+00 -0.00000000000E+00 -0.47627201342E+03  0.47627201342E+03  0.00000000000E+00 0.  1.
         23    2    1    2    0    0 -0.41724979482E+03 -0.28035738153E+03  0.14401496321E+04  0.15280618436E+04  0.90798581456E+02 0.  0.
         11    1    3    3    0    0 -0.33811045391E+03 -0.23589003093E+03  0.12696005072E+04  0.13348588816E+04  0.00000000000E+00 0. -1.
        -11    1    3    3    0    0 -0.79139340906E+02 -0.44467350598E+02  0.17054912491E+03  0.19320296208E+03  0.00000000000E+00 0.  1.
         22    1    1    2    0    0  0.41724979482E+03  0.28035738153E+03 -0.28618570047E+03  0.57844611487E+03  0.00000000000E+00 0.  1.
<mgrwt>
<rscale>  0 0.17623118E+04</rscale>
<asrwt>0</asrwt>
<pdfrwt beam="1">  1        1 0.25080553E+00 0.17623118E+04</pdfrwt>
<pdfrwt beam="2">  1       -1 0.73272618E-01 0.17623118E+04</pdfrwt>
<totfact> 0.94519316E+00</totfact>
</mgrwt>
</event>
<event>
 6    1  0.6091287E-004  0.3556100E+04  0.7818608E-02  0.8100622E-01
          2   -1    0    0  501    0  0.00000000000E+00  0.00000000000E+00  0.23646338879E+04  0.23646338879E+04  0.00000000000E+00 0.  1.
         -2   -1    0    0    0  501 -0.00000000000E+00 -0.00000000000E+00 -0.13369774509E+04  0.13369774509E+04  0.00000000000E+00 0. -1.
         23    2    1    2    0    0  0.91300964935E+03 -0.65950003656E+03  0.19447153674E+04  0.22491912894E+04  0.91742454565E+02 0.  0.
         13    1    3    3    0    0  0.78044521920E+03 -0.60124133102E+03  0.16895608364E+04  0.19558122860E+04  0.00000000000E+00 0.  1.
        -13    1    3    3    0    0  0.13256443015E+03 -0.58258705540E+02  0.25515453104E+03  0.29337900338E+03  0.00000000000E+00 0. -1.
         22    1    1    2    0    0 -0.91300964935E+03  0.65950003656E+03 -0.91705893039E+03  0.14524200494E+04  0.00000000000E+00 0. -1.
<mgrwt>
<rscale>  0 0.35561002E+04</rscale>
<asrwt>0</asrwt>
<pdfrwt beam="1">  1        2 0.36378983E+00 0.35561002E+04</pdfrwt>
<pdfrwt beam="2">  1       -2 0.20568884E+00 0.35561002E+04</pdfrwt>
<totfact> 0.41596559E-01</totfact>
</mgrwt>
</event>
<event>
 6    1  0.6091287E-004  0.3956026E+04  0.7818608E-02  0.8013477E-01
          1   -1    0    0  501    0  0.00000000000E+00  0.00000000000E+00  0.22755519136E+04  0.22755519136E+04  0.00000000000E+00 0.  1.
         -1   -1    0    0    0  501 -0.00000000000E+00 -0.00000000000E+00 -0.17193783331E+04  0.17193783331E+04  0.00000000000E+00 0. -1.
         23    2    1    2    0    0  0.18211020594E+04  0.75829580693E+03  0.40961578484E+03  0.20168239732E+04  0.91480086083E+02 0.  0.
         11    1    3    3    0    0  0.12300661995E+04  0.46859874260E+03  0.28886469510E+03  0.13476240012E+04  0.00000000000E+00 0.  1.
        -11    1    3    3    0    0  0.59103585993E+03  0.28969706433E+03  0.12075108974E+03  0.66919997196E+03  0.00000000000E+00 0. -1.
         22    1    1    2    0    0 -0.18211020594E+04 -0.75829580693E+03  0.14655779569E+03  0.19781062734E+04  0.00000000000E+00 0. -1.
<mgrwt>
<rscale>  0 0.39560256E+04</rscale>
<asrwt>0</asrwt>
<pdfrwt beam="1">  1        1 0.35008491E+00 0.39560256E+04</pdfrwt>
<pdfrwt beam="2">  1       -1 0.26451974E+00 0.39560256E+04</pdfrwt>
<totfact> 0.85209684E-02</totfact>
</mgrwt>
</event>
<event>
 6    1  0.6091287E-004  0.1039810E+04  0.7818608E-02  0.9265928E-01
         -2   -1    0    0    0  501 -0.00000000000E+00  0.00000000000E+00  0.45476355940E+03  0.45476355940E+03  0.00000000000E+00 0. -1.
          2   -1    0    0  501    0  0.00000000000E+00 -0.00000000000E+00 -0.59437753286E+03  0.59437753286E+03  0.00000000000E+00 0.  1.
         23    2    1    2    0    0  0.13336234288E+03  0.46043417092E+03 -0.26299553154E+03  0.55415811364E+03  0.90218762174E+02 0.  0.
         13    1    3    3    0    0  0.61463207274E+02  0.20554406926E+03 -0.67239397177E+02  0.22482710422E+03  0.00000000000E+00 0.  1.
        -13    1    3    3    0    0  0.71899135608E+02  0.25489010166E+03 -0.19575613437E+03  0.32933100942E+03  0.00000000000E+00 0. -1.
         22    1    1    2    0    0 -0.13336234288E+03 -0.46043417092E+03  0.12338155809E+03  0.49498297863E+03  0.00000000000E+00 0. -1.
<mgrwt>
<rscale>  0 0.10398101E+04</rscale>
<asrwt>0</asrwt>
<pdfrwt beam="1">  1        2 0.91442697E-01 0.10398101E+04</pdfrwt>
<pdfrwt beam="2">  1       -2 0.69963625E-01 0.10398101E+04</pdfrwt>
<totfact> 0.93077538E+01</totfact>
</mgrwt>
</event>
<event>
 6    1  0.6373361E-004  0.2327105E+04  0.7818608E-02  0.8467310E-01
          2   -1    0    0  501    0  0.00000000000E+00  0.00000000000E+00  0.19894088373E+04  0.19894088373E+04  0.00000000000E+00 0.  1.
         -2   -1    0    0    0  501 -0.00000000000E+00 -0.00000000000E+00 -0.68053114693E+03  0.68053114693E+03  0.00000000000E+00 0. -1.
         23    2    1    2    0    0 -0.71634950313E+03 -0.49778964398E+03  0.15358061327E+04  0.17685811999E+04  0.90707458243E+02 0.  0.
         11    1    3    3    0    0 -0.28549683222E+03 -0.22598795700E+03  0.71893790519E+03  0.80588504729E+03  0.00000000000E+00 0. -1.
        -11    1    3    3    0    0 -0.43085267091E+03 -0.27180168698E+03  0.81686822752E+03  0.96269615259E+03  0.00000000000E+00 0.  1.
         22    1    1    2    0    0  0.71634950313E+03  0.49778964398E+03 -0.22692844229E+03  0.90135878440E+03  0.00000000000E+00 0. -1.
<mgrwt>
<rscale>  0 0.23271052E+04</rscale>
<asrwt>0</asrwt>
<pdfrwt beam="1">  1        2 0.30606289E+00 0.23271052E+04</pdfrwt>
<pdfrwt beam="2">  1       -2 0.10469710E+00 0.23271052E+04</pdfrwt>
<totfact> 0.45346146E+00</totfact>
</mgrwt>
</event>
<event>
 6    1  0.6091287E-004  0.2489679E+04  0.7818608E-02  0.8406672E-01
          2   -1    0    0  501    0  0.00000000000E+00  0.00000000000E+00  0.35678536671E+04  0.35678536671E+04  0.00000000000E+00 0.  1.
         -2   -1    0    0    0  501 -0.00000000000E+00 -0.00000000000E+00 -0.43432981371E+03  0.43432981371E+03  0.00000000000E+00 0. -1.
         23    2    1    2    0    0  0.92414051770E+01  0.59333350654E+03  0.33250084356E+04  0.33786480778E+04  0.86323134787E+02 0.  0.
         13    1    3    3    0    0  0.36831982631E+02  0.14485801357E+03  0.91071875050E+03  0.92290253091E+03  0.00000000000E+00 0. -1.
        -13    1    3    3    0    0 -0.27590577454E+02  0.44847549297E+03  0.24142896851E+04  0.24557455469E+04  0.00000000000E+00 0.  1.
         22    1    1    2    0    0 -0.92414051770E+01 -0.59333350654E+03 -0.19148458218E+03  0.62353540298E+03  0.00000000000E+00 0. -1.
<mgrwt>
<rscale>  0 0.24896789E+04</rscale>
<asrwt>0</asrwt>
<pdfrwt beam="1">  1        2 0.54890054E+00 0.24896789E+04</pdfrwt>
<pdfrwt beam="2">  1       -2 0.66819974E-01 0.24896789E+04</pdfrwt>
<totfact> 0.13387032E+00</totfact>
</mgrwt>
</event>
<event>
 6    1  0.6091287E-004  0.1332519E+04  0.7818608E-02  0.9004167E-01
         -2   -1    0    0    0  501 -0.00000000000E+00  0.00000000000E+00  0.10229112036E+04  0.10229112036E+04  0.00000000000E+00 0. -1.
          2   -1    0    0  501    0  0.00000000000E+00 -0.00000000000E+00 -0.43395937209E+03  0.43395937209E+03  0.00000000000E+00 0.  1.
         23    2    1    2    0    0  0.16101388958E+03  0.55247098300E+03  0.65641153453E+03  0.87747393156E+03  0.89077147417E+02 0.  0.
         13    1    3    3    0    0  0.51147588209E+02  0.28986132834E+03  0.38029651263E+03  0.48089614572E+03  0.00000000000E+00 0.  1.
        -13    1    3    3    0    0  0.10986630138E+03  0.26260965467E+03  0.27611502190E+03  0.39657778584E+03  0.00000000000E+00 0. -1.
         22    1    1    2    0    0 -0.16101388958E+03 -0.55247098300E+03 -0.67459703018E+02  0.57939664413E+03  0.00000000000E+00 0.  1.
<mgrwt>
<rscale>  0 0.13325193E+04</rscale>
<asrwt>0</asrwt>
<pdfrwt beam="1">  1        2 0.66762981E-01 0.13325193E+04</pdfrwt>
<pdfrwt beam="2">  1       -2 0.15737095E+00 0.13325193E+04</pdfrwt>
<totfact> 0.18660730E+01</totfact>
</mgrwt>
</event>
<event>
 6    1  0.6091287E-004  0.2140372E+04  0.7818608E-02  0.8543665E-01
          2   -1    0    0  501    0  0.00000000000E+00  0.00000000000E+00  0.21641847634E+04  0.21641847634E+04  0.00000000000E+00 0.  1.
         -2   -1    0    0    0  501 -0.00000000000E+00 -0.00000000000E+00 -0.52920529939E+03  0.52920529939E+03  0.00000000000E+00 0. -1.
         23    2    1    2    0    0  0.37715518669E+03  0.26899687233E+03  0.20302697339E+04  0.20844075099E+04  0.90300181345E+02 0.  0.
         13    1    3    3    0    0  0.17801726275E+03  0.86759347057E+02  0.99565395593E+03  0.10151571948E+04  0.00000000000E+00 0. -1.
        -13    1    3    3    0    0  0.19913792393E+03  0.18223752527E+03  0.10346157780E+04  0.10692503151E+04  0.00000000000E+00 0.  1.
         22    1    1    2    0    0 -0.37715518669E+03 -0.26899687233E+03 -0.39529026994E+03  0.60898255285E+03  0.00000000000E+00 0. -1.
<mgrwt>
<rscale>  0 0.21403720E+04</rscale>
<asrwt>0</asrwt>
<pdfrwt beam="1">  1        2 0.33295150E+00 0.21403720E+04</pdfrwt>
<pdfrwt beam="2">  1       -2 0.81416201E-01 0.21403720E+04</pdfrwt>
<totfact> 0.66003446E+00</totfact>
</mgrwt>
</event>
<event>
 6    1  0.6091287E-004  0.1953044E+04  0.7818608E-02  0.8628894E-01
          2   -1    0    0  501    0  0.00000000000E+00  0.00000000000E+00  0.10136601147E+04  0.10136601147E+04  0.00000000000E+00 0.  1.
         -2   -1    0    0    0  501 -0.00000000000E+00 -0.00000000000E+00 -0.94074493653E+03  0.94074493653E+03  0.00000000000E+00 0. -1.
         23    2    1    2    0    0  0.76218910183E+03  0.26131910286E+03  0.58439702924E+03  0.10000290328E+04  0.96531229335E+02 0.  0.
         13    1    3    3    0    0  0.52714174782E+03  0.17757652130E+03  0.45680448661E+03  0.71977925936E+03  0.00000000000E+00 0.  1.
        -13    1    3    3    0    0  0.23504735401E+03  0.83742581552E+02  0.12759254263E+03  0.28024977347E+03  0.00000000000E+00 0. -1.
         22    1    1    2    0    0 -0.76218910183E+03 -0.26131910286E+03 -0.51148185110E+03  0.95437601839E+03  0.00000000000E+00 0. -1.
<mgrwt>
<rscale>  0 0.19530444E+04</rscale>
<asrwt>0</asrwt>
<pdfrwt beam="1">  1        2 0.15594771E+00 0.19530444E+04</pdfrwt>
<pdfrwt beam="2">  1       -2 0.14472999E+00 0.19530444E+04</pdfrwt>
<totfact> 0.75800121E+00</totfact>
</mgrwt>
</event>
<event>
 6    1  0.6091287E-004  0.2148640E+04  0.7818608E-02  0.8540115E-01
          2   -1    0    0  501    0  0.00000000000E+00  0.00000000000E+00  0.99462159429E+03  0.99462159429E+03  0.00000000000E+00 0.  1.
         -2   -1    0    0    0  501 -0.00000000000E+00 -0.00000000000E+00 -0.11604043129E+04  0.11604043129E+04  0.00000000000E+00 0. -1.
         23    2    1    2    0    0  0.40246780285E+03  0.14651068314E+03 -0.10692098309E+04  0.11552127947E+04  0.88663554762E+02 0.  0.
         11    1    3    3    0    0  0.27971415775E+03  0.85215555285E+02 -0.61957140293E+03  0.68510614086E+03  0.00000000000E+00 0. -1.
        -11    1    3    3    0    0  0.12275364510E+03  0.61295127859E+02 -0.44963842794E+03  0.47010665382E+03  0.00000000000E+00 0.  1.
         22    1    1    2    0    0 -0.40246780285E+03 -0.14651068314E+03  0.90342711231E+03  0.99981311247E+03  0.00000000000E+00 0.  1.
<mgrwt>
<rscale>  0 0.21486397E+04</rscale>
<asrwt>0</asrwt>
<pdfrwt beam="1">  1        2 0.15301871E+00 0.21486397E+04</pdfrwt>
<pdfrwt beam="2">  1       -2 0.17852374E+00 0.21486397E+04</pdfrwt>
<totfact> 0.43257882E+00</totfact>
</mgrwt>
</event>
<event>
 6    1  0.6091287E-004  0.1219908E+04  0.7818608E-02  0.9095608E-01
          1   -1    0    0  501    0  0.00000000000E+00  0.00000000000E+00  0.49539713147E+04  0.49539713147E+04  0.00000000000E+00 0.  1.
         -1   -1    0    0    0  501 -0.00000000000E+00 -0.00000000000E+00 -0.75100105910E+02  0.75100105910E+02  0.00000000000E+00 0. -1.
         23    2    1    2    0    0 -0.27061801932E+03  0.49456215356E+03  0.15304901140E+04  0.16335623584E+04  0.91105177597E+02 0.  0.
         11    1    3    3    0    0 -0.17360198055E+03  0.29046324160E+03  0.10364347774E+04  0.10902768411E+04  0.00000000000E+00 0. -1.
        -11    1    3    3    0    0 -0.97016038766E+02  0.20409891196E+03  0.49405533665E+03  0.54328551730E+03  0.00000000000E+00 0.  1.
         22    1    1    2    0    0  0.27061801932E+03 -0.49456215356E+03  0.33483810947E+04  0.33955090622E+04  0.00000000000E+00 0.  1.
<mgrwt>
<rscale>  0 0.12199078E+04</rscale>
<asrwt>0</asrwt>
<pdfrwt beam="1">  1        1 0.76214917E+00 0.12199078E+04</pdfrwt>
<pdfrwt beam="2">  1       -1 0.11553866E-01 0.12199078E+04</pdfrwt>
<totfact> 0.52330245E-01</totfact>
</mgrwt>
</event>
<event>
 6    1  0.6091287E-004  0.1603147E+04  0.7818608E-02  0.8818617E-01
         -2   -1    0    0    0  501 -0.00000000000E+00  0.00000000000E+00  0.64123500314E+03  0.64123500314E+03  0.00000000000E+00 0. -1.
          2   -1    0    0  501    0  0.00000000000E+00 -0.00000000000E+00 -0.10020041039E+04  0.10020041039E+04  0.00000000000E+00 0.  1.
         23    2    1    2    0    0 -0.70366698217E+03 -0.20327255139E+03 -0.50806231829E+03  0.89613654118E+03  0.92013201392E+02 0.  0.
         13    1    3    3    0    0 -0.33686194504E+03 -0.14461714959E+03 -0.24368206877E+03  0.44019432143E+03  0.00000000000E+00 0. -1.
        -13    1    3    3    0    0 -0.36680503712E+03 -0.58655401799E+02 -0.26438024951E+03  0.45594221975E+03  0.00000000000E+00 0.  1.
         22    1    1    2    0    0  0.70366698217E+03  0.20327255139E+03  0.14729321755E+03  0.74710256583E+03  0.00000000000E+00 0. -1.
<mgrwt>
<rscale>  0 0.16031470E+04</rscale>
<asrwt>0</asrwt>
<pdfrwt beam="1">  1        2 0.15415448E+00 0.16031470E+04</pdfrwt>
<pdfrwt beam="2">  1       -2 0.98651539E-01 0.16031470E+04</pdfrwt>
<totfact> 0.20540514E+01</totfact>
</mgrwt>
</event>
<event>
 6    1  0.6091287E-004  0.1800291E+04  0.7818608E-02  0.8706145E-01
         -2   -1    0    0    0  501 -0.00000000000E+00  0.00000000000E+00  0.13584670061E+04  0.13584670061E+04  0.00000000000E+00 0. -1.
          2   -1    0    0  501    0  0.00000000000E+00 -0.00000000000E+00 -0.59645338007E+03  0.59645338007E+03  0.00000000000E+00 0.  1.
         23    2    1    2    0    0 -0.35668845804E+03  0.59448460858E+03 -0.23760019083E+03  0.73842279522E+03  0.90419952858E+02 0.  0.
         11    1    3    3    0    0 -0.25790580358E+03  0.37112172003E+03 -0.18648248095E+03  0.48889922305E+03  0.00000000000E+00 0. -1.
        -11    1    3    3    0    0 -0.98782654460E+02  0.22336288855E+03 -0.51117709887E+02  0.24952357216E+03  0.00000000000E+00 0.  1.
         22    1    1    2    0    0  0.35668845804E+03 -0.59448460858E+03  0.99961381685E+03  0.12164975909E+04  0.00000000000E+00 0. -1.
<mgrwt>
<rscale>  0 0.18002914E+04</rscale>
<asrwt>0</asrwt>
<pdfrwt beam="1">  1        2 0.91762059E-01 0.18002914E+04</pdfrwt>
<pdfrwt beam="2">  1       -2 0.20899492E+00 0.18002914E+04</pdfrwt>
<totfact> 0.54769274E+00</totfact>
</mgrwt>
</event>
<event>
 6    1  0.6091287E-004  0.3009141E+04  0.7818608E-02  0.8241125E-01
         -2   -1    0    0    0  501 -0.00000000000E+00  0.00000000000E+00  0.69489671807E+03  0.69489671807E+03  0.00000000000E+00 0. -1.
          2   -1    0    0  501    0  0.00000000000E+00 -0.00000000000E+00 -0.32576528234E+04  0.32576528234E+04  0.00000000000E+00 0.  1.
         23    2    1    2    0    0 -0.49575158158E+03  0.14190627093E+04 -0.13004946751E+04  0.19896912883E+04  0.89868901322E+02 0.  0.
         11    1    3    3    0    0 -0.16679553902E+03  0.49739534276E+03 -0.51048446053E+03  0.73199539840E+03  0.00000000000E+00 0. -1.
        -11    1    3    3    0    0 -0.32895604256E+03  0.92166736655E+03 -0.79001021455E+03  0.12576958899E+04  0.00000000000E+00 0.  1.
         22    1    1    2    0    0  0.49575158158E+03 -0.14190627093E+04 -0.12622614302E+04  0.19628582531E+04  0.00000000000E+00 0. -1.
<mgrwt>
<rscale>  0 0.30091409E+04</rscale>
<asrwt>0</asrwt>
<pdfrwt beam="1">  1        2 0.50117735E+00 0.30091409E+04</pdfrwt>
<pdfrwt beam="2">  1       -2 0.10690719E+00 0.30091409E+04</pdfrwt>
<totfact> 0.71501532E-01</totfact>
</mgrwt>
</event>
<event>
 6    1  0.6091287E-004  0.2246990E+04  0.7818608E-02  0.8499120E-01
         -2   -1    0    0    0  501 -0.00000000000E+00  0.00000000000E+00  0.86057853800E+03  0.86057853800E+03  0.00000000000E+00 0. -1.
          2   -1    0    0  501    0  0.00000000000E+00 -0.00000000000E+00 -0.14667359704E+04  0.14667359704E+04  0.00000000000E+00 0.  1.
         23    2    1    2    0    0 -0.79911238760E+03 -0.62619436068E+03 -0.79765695703E+03  0.12941775120E+04  0.89100090161E+02 0.  0.
         13    1    3    3    0    0 -0.56584968424E+03 -0.39156343418E+03 -0.52771012908E+03  0.86717112987E+03  0.00000000000E+00 0.  1.
        -13    1    3    3    0    0 -0.23326270336E+03 -0.23463092650E+03 -0.26994682794E+03  0.42700638211E+03  0.00000000000E+00 0. -1.
         22    1    1    2    0    0  0.79911238760E+03  0.62619436068E+03  0.19149952466E+03  0.10331369964E+04  0.00000000000E+00 0. -1.
<mgrwt>
<rscale>  0 0.22469904E+04</rscale>
<asrwt>0</asrwt>
<pdfrwt beam="1">  1        2 0.22565169E+00 0.22469904E+04</pdfrwt>
<pdfrwt beam="2">  1       -2 0.13239670E+00 0.22469904E+04</pdfrwt>
<totfact> 0.50055173E+00</totfact>
</mgrwt>
</event>
<event>
 6    1  0.6091287E-004  0.4190612E+04  0.7818608E-02  0.7967160E-01
         -2   -1    0    0    0  501 -0.00000000000E+00  0.00000000000E+00  0.11297441866E+04  0.11297441866E+04  0.00000000000E+00 0. -1.
          2   -1    0    0  501    0  0.00000000000E+00 -0.00000000000E+00 -0.38861076245E+04  0.38861076245E+04  0.00000000000E+00 0.  1.
         23    2    1    2    0    0  0.16751859324E+04 -0.82757222718E+03 -0.25102894321E+04  0.31312627006E+04  0.11013341018E+03 0.  0.
         11    1    3    3    0    0  0.93379999655E+03 -0.44852750853E+03 -0.14807788995E+04  0.18071705809E+04  0.00000000000E+00 0. -1.
        -11    1    3    3    0    0  0.74138593583E+03 -0.37904471865E+03 -0.10295105326E+04  0.13240921196E+04  0.00000000000E+00 0.  1.
         22    1    1    2    0    0 -0.16751859324E+04  0.82757222718E+03 -0.24607400577E+03  0.18845891105E+04  0.00000000000E+00 0. -1.
<mgrwt>
<rscale>  0 0.41906121E+04</rscale>
<asrwt>0</asrwt>
<pdfrwt beam="1">  1        2 0.59786271E+00 0.41906121E+04</pdfrwt>
<pdfrwt beam="2">  1       -2 0.17380680E+00 0.41906121E+04</pdfrwt>
<totfact> 0.65373048E-02</totfact>
</mgrwt>
</event>
<event>
 6    1  0.6091287E-004  0.3405918E+04  0.7818608E-02  0.8136455E-01
         -1   -1    0    0    0  501 -0.00000000000E+00  0.00000000000E+00  0.97246252781E+03  0.97246252781E+03  0.00000000000E+00 0. -1.
          1   -1    0    0  501    0  0.00000000000E+00 -0.00000000000E+00 -0.29821905615E+04  0.29821905615E+04  0.00000000000E+00 0.  1.
         23    2    1    2    0    0  0.12514361935E+04 -0.97653123125E+03 -0.29336330935E+03  0.16167878967E+04  0.90748440478E+02 0.  0.
         11    1    3    3    0    0  0.39457499706E+03 -0.26530467817E+03 -0.11273204138E+03  0.48865582337E+03  0.00000000000E+00 0. -1.
        -11    1    3    3    0    0  0.85686119646E+03 -0.71122655308E+03 -0.18063126798E+03  0.11281320733E+04  0.00000000000E+00 0.  1.
         22    1    1    2    0    0 -0.12514361935E+04  0.97653123125E+03 -0.17163647244E+04  0.23378651927E+04  0.00000000000E+00 0.  1.
<mgrwt>
<rscale>  0 0.34059175E+04</rscale>
<asrwt>0</asrwt>
<pdfrwt beam="1">  1        1 0.45879855E+00 0.34059175E+04</pdfrwt>
<pdfrwt beam="2">  1       -1 0.14960962E+00 0.34059175E+04</pdfrwt>
<totfact> 0.17780784E-01</totfact>
</mgrwt>
</event>
<event>
 6    1  0.6091287E-004  0.3323815E+04  0.7818608E-02  0.8156862E-01
          2   -1    0    0  501    0  0.00000000000E+00  0.00000000000E+00  0.16138989412E+04  0.16138989412E+04  0.00000000000E+00 0.  1.
         -2   -1    0    0    0  501 -0.00000000000E+00 -0.00000000000E+00 -0.17113440677E+04  0.17113440677E+04  0.00000000000E+00 0. -1.
         23    2    1    2    0    0  0.10550567122E+03 -0.13339911347E+04 -0.10324967819E+04  0.16927647112E+04  0.93482451928E+02 0.  0.
         11    1    3    3    0    0  0.11818323439E+03 -0.10593836952E+04 -0.80076219861E+03  0.13332221080E+04  0.00000000000E+00 0.  1.
        -11    1    3    3    0    0 -0.12677563178E+02 -0.27460743946E+03 -0.23173458334E+03  0.35954260322E+03  0.00000000000E+00 0. -1.
         22    1    1    2    0    0 -0.10550567122E+03  0.13339911347E+04  0.93505165539E+03  0.16324782976E+04  0.00000000000E+00 0.  1.
<mgrwt>
<rscale>  0 0.33238149E+04</rscale>
<asrwt>0</asrwt>
<pdfrwt beam="1">  1        2 0.24829214E+00 0.33238149E+04</pdfrwt>
<pdfrwt beam="2">  1       -2 0.26328370E+00 0.33238149E+04</pdfrwt>
<totfact> 0.48643125E-01</totfact>
</mgrwt>
</event>
<event>
 6    1  0.6091287E-004  0.1488749E+04  0.7818608E-02  0.8891969E-01
         -2   -1    0    0    0  501 -0.00000000000E+00  0.00000000000E+00  0.39252266181E+03  0.39252266181E+03  0.00000000000E+00 0. -1.
          2   -1    0    0  501    0  0.00000000000E+00 -0.00000000000E+00 -0.14116215451E+04  0.14116215451E+04  0.00000000000E+00 0.  1.
         23    2    1    2    0    0  0.35715791656E+03 -0.53578842526E+03 -0.65677821787E+02  0.65364747308E+03  0.91161553232E+02 0.  0.
         11    1    3    3    0    0  0.13757100505E+03 -0.14793342131E+03  0.66028935285E+01  0.20212292491E+03  0.00000000000E+00 0. -1.
        -11    1    3    3    0    0  0.21958691151E+03 -0.38785500395E+03 -0.72280715316E+02  0.45152454818E+03  0.00000000000E+00 0.  1.
         22    1    1    2    0    0 -0.35715791656E+03  0.53578842526E+03 -0.95342106147E+03  0.11504967338E+04  0.00000000000E+00 0.  1.
<mgrwt>
<rscale>  0 0.14887491E+04</rscale>
<asrwt>0</asrwt>
<pdfrwt beam="1">  1        2 0.21717255E+00 0.14887491E+04</pdfrwt>
<pdfrwt beam="2">  1       -2 0.60388101E-01 0.14887491E+04</pdfrwt>
<totfact> 0.35202518E+01</totfact>
</mgrwt>
</event>
<event>
 6    1  0.7590034E-004  0.4945881E+04  0.7818608E-02  0.7836910E-01
          2   -1    0    0  501    0  0.00000000000E+00  0.00000000000E+00  0.31677459055E+04  0.31677459055E+04  0.00000000000E+00 0.  1.
         -2   -1    0    0    0  501 -0.00000000000E+00 -0.00000000000E+00 -0.19305321838E+04  0.19305321838E+04  0.00000000000E+00 0. -1.
         23    2    1    2    0    0  0.16337154393E+04  0.13295953990E+04 -0.71504149777E+03  0.22263187400E+04  0.91437010801E+02 0.  0.
         13    1    3    3    0    0  0.63812330120E+03  0.55082361697E+03 -0.32582957624E+03  0.90375489891E+03  0.00000000000E+00 0.  1.
        -13    1    3    3    0    0  0.99559213814E+03  0.77877178202E+03 -0.38921192153E+03  0.13225638411E+04  0.00000000000E+00 0. -1.
         22    1    1    2    0    0 -0.16337154393E+04 -0.13295953990E+04  0.19522552195E+04  0.28719593493E+04  0.00000000000E+00 0.  1.
<mgrwt>
<rscale>  0 0.49458813E+04</rscale>
<asrwt>0</asrwt>
<pdfrwt beam="1">  1        2 0.48734553E+00 0.49458813E+04</pdfrwt>
<pdfrwt beam="2">  1       -2 0.29700495E+00 0.49458813E+04</pdfrwt>
<totfact> 0.32962267E-02</totfact>
</mgrwt>
</event>
<event>
 6    1  0.6091287E-004  0.3986682E+04  0.7818608E-02  0.8007239E-01
         -2   -1    0    0    0  501 -0.00000000000E+00  0.00000000000E+00  0.20723404430E+04  0.20723404430E+04  0.00000000000E+00 0. -1.
          2   -1    0    0  501    0  0.00000000000E+00 -0.00000000000E+00 -0.19173528730E+04  0.19173528730E+04  0.00000000000E+00 0.  1.
         23    2    1    2    0    0  0.10699475140E+04 -0.13357880206E+04  0.10981984284E+04  0.20355274985E+04  0.90637136544E+02 0.  0.
         13    1    3    3    0    0  0.56836158046E+03 -0.64054349412E+03  0.53237323983E+03  0.10083412718E+04  0.00000000000E+00 0. -1.
        -13    1    3    3    0    0  0.50158593350E+03 -0.69524452650E+03  0.56582518854E+03  0.10271862267E+04  0.00000000000E+00 0.  1.
         22    1    1    2    0    0 -0.10699475140E+04  0.13357880206E+04 -0.94321085841E+03  0.19541658174E+04  0.00000000000E+00 0.  1.
<mgrwt>
<rscale>  0 0.39866818E+04</rscale>
<asrwt>0</asrwt>
<pdfrwt beam="1">  1        2 0.29497736E+00 0.39866818E+04</pdfrwt>
<pdfrwt beam="2">  1       -2 0.31882161E+00 0.39866818E+04</pdfrwt>
<totfact> 0.14280164E-01</totfact>
</mgrwt>
</event>
<event>
 6    1  0.6091287E-004  0.3718069E+04  0.7818608E-02  0.8063969E-01
          2   -1    0    0  501    0  0.00000000000E+00  0.00000000000E+00  0.33194966794E+04  0.33194966794E+04  0.00000000000E+00 0.  1.
         -2   -1    0    0    0  501 -0.00000000000E+00 -0.00000000000E+00 -0.10411242901E+04  0.10411242901E+04  0.00000000000E+00 0. -1.
         23    2    1    2    0    0  0.35031418131E+03  0.16975205941E+04  0.19245507958E+04  0.25915856638E+04  0.90134866636E+02 0.  0.
         13    1    3    3    0    0  0.17489312439E+03  0.66628917213E+03  0.72763537191E+03  0.10019890720E+04  0.00000000000E+00 0. -1.
        -13    1    3    3    0    0  0.17542105692E+03  0.10312314219E+04  0.11969154239E+04  0.15895965919E+04  0.00000000000E+00 0.  1.
         22    1    1    2    0    0 -0.35031418131E+03 -0.16975205941E+04  0.35382159339E+03  0.17690353057E+04  0.00000000000E+00 0. -1.
<mgrwt>
<rscale>  0 0.37180687E+04</rscale>
<asrwt>0</asrwt>
<pdfrwt beam="1">  1        2 0.51069179E+00 0.37180687E+04</pdfrwt>
<pdfrwt beam="2">  1       -2 0.16017297E+00 0.37180687E+04</pdfrwt>
<totfact> 0.21884314E-01</totfact>
</mgrwt>
</event>
<event>
 6    1  0.6091287E-004  0.1464419E+04  0.7818608E-02  0.8908465E-01
         -2   -1    0    0    0  501 -0.00000000000E+00  0.00000000000E+00  0.34814980643E+03  0.34814980643E+03  0.00000000000E+00 0. -1.
          2   -1    0    0  501    0  0.00000000000E+00 -0.00000000000E+00 -0.15399431781E+04  0.15399431781E+04  0.00000000000E+00 0.  1.
         23    2    1    2    0    0  0.25784782659E+03 -0.57286357354E+03 -0.12059500854E+03  0.64627008705E+03  0.91998335649E+02 0.  0.
         13    1    3    3    0    0  0.14365370159E+03 -0.41840025238E+03 -0.72837916538E+02  0.44833081453E+03  0.00000000000E+00 0.  1.
        -13    1    3    3    0    0  0.11419412500E+03 -0.15446332116E+03 -0.47757092002E+02  0.19793927252E+03  0.00000000000E+00 0. -1.
         22    1    1    2    0    0 -0.25784782659E+03  0.57286357354E+03 -0.10711983632E+04  0.12418228975E+04  0.00000000000E+00 0.  1.
<mgrwt>
<rscale>  0 0.14644192E+04</rscale>
<asrwt>0</asrwt>
<pdfrwt beam="1">  1        2 0.23691434E+00 0.14644192E+04</pdfrwt>
<pdfrwt beam="2">  1       -2 0.53561509E-01 0.14644192E+04</pdfrwt>
<totfact> 0.38345176E+01</totfact>
</mgrwt>
</event>
<event>
 6    1  0.6091287E-004  0.4298984E+04  0.7818608E-02  0.7946806E-01
         -2   -1    0    0    0  501 -0.00000000000E+00  0.00000000000E+00  0.16880687461E+04  0.16880687461E+04  0.00000000000E+00 0. -1.
          2   -1    0    0  501    0  0.00000000000E+00 -0.00000000000E+00 -0.27370420737E+04  0.27370420737E+04  0.00000000000E+00 0.  1.
         23    2    1    2    0    0  0.16333958577E+04 -0.97323358088E+03 -0.15544881208E+04  0.24576986014E+04  0.93185120800E+02 0.  0.
         13    1    3    3    0    0  0.10092524022E+03 -0.68645117658E+02 -0.12926226638E+03  0.17778298513E+03  0.00000000000E+00 0.  1.
        -13    1    3    3    0    0  0.15324706174E+04 -0.90458846322E+03 -0.14252258544E+04  0.22799156163E+04  0.00000000000E+00 0. -1.
         22    1    1    2    0    0 -0.16333958577E+04  0.97323358088E+03  0.50551479331E+03  0.19674122184E+04  0.00000000000E+00 0. -1.
<mgrwt>
<rscale>  0 0.42989837E+04</rscale>
<asrwt>0</asrwt>
<pdfrwt beam="1">  1        2 0.42108339E+00 0.42989837E+04</pdfrwt>
<pdfrwt beam="2">  1       -2 0.25970289E+00 0.42989837E+04</pdfrwt>
<totfact> 0.10886092E-01</totfact>
</mgrwt>
</event>
<event>
 6    1  0.6091287E-004  0.2013918E+04  0.7818608E-02  0.8600141E-01
          2   -1    0    0  501    0  0.00000000000E+00  0.00000000000E+00  0.55268143059E+03  0.55268143059E+03  0.00000000000E+00 0.  1.
         -2   -1    0    0    0  501 -0.00000000000E+00 -0.00000000000E+00 -0.18346302619E+04  0.18346302619E+04  0.00000000000E+00 0. -1.
         23    2    1    2    0    0 -0.45656566858E+03 -0.91244121605E+02  0.41344596674E+03  0.62914753044E+03  0.90063023400E+02 0.  0.
         13    1    3    3    0    0 -0.11295678769E+03  0.11834722392E+02  0.12444268511E+03  0.16847931154E+03  0.00000000000E+00 0. -1.
        -13    1    3    3    0    0 -0.34360888089E+03 -0.10307884400E+03  0.28900328163E+03  0.46066821890E+03  0.00000000000E+00 0.  1.
         22    1    1    2    0    0  0.45656566858E+03  0.91244121605E+02 -0.16953947981E+04  0.17581641621E+04  0.00000000000E+00 0. -1.
<mgrwt>
<rscale>  0 0.20139177E+04</rscale>
<asrwt>0</asrwt>
<pdfrwt beam="1">  1        2 0.85027911E-01 0.20139177E+04</pdfrwt>
<pdfrwt beam="2">  1       -2 0.28225081E+00 0.20139177E+04</pdfrwt>
<totfact> 0.20735866E+00</totfact>
</mgrwt>
</event>
<event>
 6    1  0.6091287E-004  0.8608487E+03  0.7818608E-02  0.9475891E-01
          2   -1    0    0  501    0  0.00000000000E+00  0.00000000000E+00  0.35431085595E+03  0.35431085595E+03  0.00000000000E+00 0.  1.
         -2   -1    0    0    0  501 -0.00000000000E+00 -0.00000000000E+00 -0.52288868772E+03  0.52288868772E+03  0.00000000000E+00 0. -1.
         23    2    1    2    0    0  0.98281049853E+02  0.16193072228E+03 -0.47389656216E+03  0.51789431033E+03  0.88067255354E+02 0.  0.
         13    1    3    3    0    0  0.12583686313E+02  0.79184210545E+02 -0.11859982505E+03  0.14315867722E+03  0.00000000000E+00 0.  1.
        -13    1    3    3    0    0  0.85697363540E+02  0.82746511734E+02 -0.35529673711E+03  0.37473563311E+03  0.00000000000E+00 0. -1.
         22    1    1    2    0    0 -0.98281049853E+02 -0.16193072228E+03  0.30531873039E+03  0.35930523334E+03  0.00000000000E+00 0.  1.
<mgrwt>
<rscale>  0 0.86084874E+03</rscale>
<asrwt>0</asrwt>
<pdfrwt beam="1">  1        2 0.54509363E-01 0.86084874E+03</pdfrwt>
<pdfrwt beam="2">  1       -2 0.80444413E-01 0.86084874E+03</pdfrwt>
<totfact> 0.12512101E+02</totfact>
</mgrwt>
</event>
<event>
 6    1  0.6091287E-004  0.3240775E+04  0.7818608E-02  0.8178131E-01
         -2   -1    0    0    0  501 -0.00000000000E+00  0.00000000000E+00  0.75371273653E+03  0.75371273653E+03  0.00000000000E+00 0. -1.
          2   -1    0    0  501    0  0.00000000000E+00 -0.00000000000E+00 -0.34836288572E+04  0.34836288572E+04  0.00000000000E+00 0.  1.
         23    2    1    2    0    0 -0.54356525010E+03  0.48572007605E+03 -0.32562953813E+04  0.33381962777E+04  0.93314545636E+02 0.  0.
         11    1    3    3    0    0 -0.16430039834E+03  0.11826322885E+03 -0.10744478540E+04  0.10933521863E+04  0.00000000000E+00 0.  1.
        -11    1    3    3    0    0 -0.37926485175E+03  0.36745684720E+03 -0.21818475273E+04  0.22448440914E+04  0.00000000000E+00 0. -1.
         22    1    1    2    0    0  0.54356525010E+03 -0.48572007605E+03  0.52637926064E+03  0.89914531608E+03  0.00000000000E+00 0. -1.
<mgrwt>
<rscale>  0 0.32407749E+04</rscale>
<asrwt>0</asrwt>
<pdfrwt beam="1">  1        2 0.53594290E+00 0.32407749E+04</pdfrwt>
<pdfrwt beam="2">  1       -2 0.11595581E+00 0.32407749E+04</pdfrwt>
<totfact> 0.40423617E-01</totfact>
</mgrwt>
</event>
<event>
 6    1  0.6091287E-004  0.3978992E+04  0.7818608E-02  0.8008798E-01
          2   -1    0    0  501    0  0.00000000000E+00  0.00000000000E+00  0.33949557267E+04  0.33949557267E+04  0.00000000000E+00 0.  1.
         -2   -1    0    0    0  501 -0.00000000000E+00 -0.00000000000E+00 -0.11658751368E+04  0.11658751368E+04  0.00000000000E+00 0. -1.
         23    2    1    2    0    0  0.62272368252E+03  0.14384518895E+04 -0.28612147101E+03  0.15971895171E+04  0.11054516802E+03 0.  0.
         11    1    3    3    0    0  0.14136650856E+03  0.22713788279E+03 -0.61689251368E+02  0.27455722769E+03  0.00000000000E+00 0. -1.
        -11    1    3    3    0    0  0.48135717396E+03  0.12113140067E+04 -0.22443221964E+03  0.13226322894E+04  0.00000000000E+00 0.  1.
         22    1    1    2    0    0 -0.62272368252E+03 -0.14384518895E+04  0.25152020608E+04  0.29636413464E+04  0.00000000000E+00 0.  1.
<mgrwt>
<rscale>  0 0.39789921E+04</rscale>
<asrwt>0</asrwt>
<pdfrwt beam="1">  1        2 0.52230088E+00 0.39789921E+04</pdfrwt>
<pdfrwt beam="2">  1       -2 0.17936541E+00 0.39789921E+04</pdfrwt>
<totfact> 0.13888907E-01</totfact>
</mgrwt>
</event>
<event>
 6    1  0.6091287E-004  0.3711468E+04  0.7818608E-02  0.8065425E-01
         -2   -1    0    0    0  501 -0.00000000000E+00  0.00000000000E+00  0.12429028427E+04  0.12429028427E+04  0.00000000000E+00 0. -1.
          2   -1    0    0  501    0  0.00000000000E+00 -0.00000000000E+00 -0.27707303639E+04  0.27707303639E+04  0.00000000000E+00 0.  1.
         23    2    1    2    0    0  0.74437075762E+03  0.77411999794E+03  0.87075477185E+03  0.13856022683E+04  0.91269804975E+02 0.  0.
         13    1    3    3    0    0  0.42495802545E+03  0.49187427693E+03  0.48940290428E+03  0.81366137331E+03  0.00000000000E+00 0. -1.
        -13    1    3    3    0    0  0.31941273216E+03  0.28224572101E+03  0.38135186757E+03  0.57194089502E+03  0.00000000000E+00 0.  1.
         22    1    1    2    0    0 -0.74437075762E+03 -0.77411999794E+03 -0.23985822930E+04  0.26280309382E+04  0.00000000000E+00 0.  1.
<mgrwt>
<rscale>  0 0.37114680E+04</rscale>
<asrwt>0</asrwt>
<pdfrwt beam="1">  1        2 0.42626621E+00 0.37114680E+04</pdfrwt>
<pdfrwt beam="2">  1       -2 0.19121582E+00 0.37114680E+04</pdfrwt>
<totfact> 0.29580792E-01</totfact>
</mgrwt>
</event>
<event>
 6    1  0.6091287E-004  0.1650719E+04  0.7818608E-02  0.8789981E-01
          1   -1    0    0  501    0  0.00000000000E+00  0.00000000000E+00  0.16393316045E+04  0.16393316045E+04  0.00000000000E+00 0.  1.
         -1   -1    0    0    0  501 -0.00000000000E+00 -0.00000000000E+00 -0.41554634028E+03  0.41554634028E+03  0.00000000000E+00 0. -1.
         23    2    1    2    0    0  0.70348797050E+03  0.39140228208E+03  0.82603837548E+03  0.11569393842E+04  0.89879196204E+02 0.  0.
         11    1    3    3    0    0  0.53248182520E+03  0.32835065871E+03  0.60276380241E+03  0.86872046755E+03  0.00000000000E+00 0. -1.
        -11    1    3    3    0    0  0.17100614530E+03  0.63051623370E+02  0.22327457308E+03  0.28821891666E+03  0.00000000000E+00 0.  1.
         22    1    1    2    0    0 -0.70348797050E+03 -0.39140228208E+03  0.39774688875E+03  0.89793856058E+03  0.00000000000E+00 0. -1.
<mgrwt>
<rscale>  0 0.16507189E+04</rscale>
<asrwt>0</asrwt>
<pdfrwt beam="1">  1        1 0.25220486E+00 0.16507189E+04</pdfrwt>
<pdfrwt beam="2">  1       -1 0.63930207E-01 0.16507189E+04</pdfrwt>
<totfact> 0.12432694E+01</totfact>
</mgrwt>
</event>
<event>
 6    1  0.6091287E-004  0.5676132E+04  0.7818608E-02  0.7731908E-01
          2   -1    0    0  501    0  0.00000000000E+00  0.00000000000E+00  0.41759120315E+04  0.41759120315E+04  0.00000000000E+00 0.  1.
         -2   -1    0    0    0  501 -0.00000000000E+00 -0.00000000000E+00 -0.19288286042E+04  0.19288286042E+04  0.00000000000E+00 0. -1.
         23    2    1    2    0    0 -0.22562349126E+04  0.44538910558E+03 -0.66338612617E+03  0.23953201341E+04  0.92249423438E+02 0.  0.
         11    1    3    3    0    0 -0.17883779319E+04  0.39064229194E+03 -0.53255925665E+03  0.19064407647E+04  0.00000000000E+00 0.  1.
        -11    1    3    3    0    0 -0.46785698066E+03  0.54746813648E+02 -0.13082686952E+03  0.48887936932E+03  0.00000000000E+00 0. -1.
         22    1    1    2    0    0  0.22562349126E+04 -0.44538910558E+03  0.29104695534E+04  0.37094205016E+04  0.00000000000E+00 0.  1.
<mgrwt>
<rscale>  0 0.56761320E+04</rscale>
<asrwt>0</asrwt>
<pdfrwt beam="1">  1        2 0.64244800E+00 0.56761320E+04</pdfrwt>
<pdfrwt beam="2">  1       -2 0.29674286E+00 0.56761320E+04</pdfrwt>
<totfact> 0.55638311E-03</totfact>
</mgrwt>
</event>
<event>
 6    1  0.6091287E-004  0.2214554E+04  0.7818608E-02  0.8512395E-01
          2   -1    0    0  501    0  0.00000000000E+00  0.00000000000E+00  0.19380203982E+04  0.19380203982E+04  0.00000000000E+00 0.  1.
         -2   -1    0    0    0  501 -0.00000000000E+00 -0.00000000000E+00 -0.63263653585E+03  0.63263653585E+03  0.00000000000E+00 0. -1.
         23    2    1    2    0    0  0.70902176616E+03  0.48041815887E+03  0.14648110377E+04  0.16994907636E+04  0.95310057145E+02 0.  0.
         11    1    3    3    0    0  0.17049296113E+03  0.11063631437E+03  0.43200215067E+03  0.47742444641E+03  0.00000000000E+00 0. -1.
        -11    1    3    3    0    0  0.53852880503E+03  0.36978184450E+03  0.10328088871E+04  0.12220663172E+04  0.00000000000E+00 0.  1.
         22    1    1    2    0    0 -0.70902176616E+03 -0.48041815887E+03 -0.15942717540E+03  0.87116617044E+03  0.00000000000E+00 0. -1.
<mgrwt>
<rscale>  0 0.22145541E+04</rscale>
<asrwt>0</asrwt>
<pdfrwt beam="1">  1        2 0.29815698E+00 0.22145541E+04</pdfrwt>
<pdfrwt beam="2">  1       -2 0.97328699E-01 0.22145541E+04</pdfrwt>
<totfact> 0.58142112E+00</totfact>
</mgrwt>
</event>
<event>
 6    1  0.6091287E-004  0.2739390E+04  0.7818608E-02  0.8322336E-01
          2   -1    0    0  501    0  0.00000000000E+00  0.00000000000E+00  0.25905290720E+04  0.25905290720E+04  0.00000000000E+00 0.  1.
         -2   -1    0    0    0  501 -0.00000000000E+00 -0.00000000000E+00 -0.72420142095E+03  0.72420142095E+03  0.00000000000E+00 0. -1.
         23    2    1    2    0    0  0.31362844340E+02 -0.68355495130E+03 -0.49940688293E+03  0.85202245409E+03  0.91126440166E+02 0.  0.
         13    1    3    3    0    0  0.44484111641E+02 -0.28116388727E+03 -0.16782087449E+03  0.33044789848E+03  0.00000000000E+00 0. -1.
        -13    1    3    3    0    0 -0.13121267301E+02 -0.40239106404E+03 -0.33158600843E+03  0.52157455561E+03  0.00000000000E+00 0.  1.
         22    1    1    2    0    0 -0.31362844340E+02  0.68355495130E+03  0.23657345339E+04  0.24627080388E+04  0.00000000000E+00 0.  1.
<mgrwt>
<rscale>  0 0.27393903E+04</rscale>
<asrwt>0</asrwt>
<pdfrwt beam="1">  1        2 0.39854293E+00 0.27393903E+04</pdfrwt>
<pdfrwt beam="2">  1       -2 0.11141560E+00 0.27393903E+04</pdfrwt>
<totfact> 0.17164292E+00</totfact>
</mgrwt>
</event>
<event>
 6    1  0.6091287E-004  0.8395814E+04  0.7818608E-02  0.7448443E-01
         -2   -1    0    0    0  501 -0.00000000000E+00  0.00000000000E+00  0.43685049635E+04  0.43685049635E+04  0.00000000000E+00 0. -1.
          2   -1    0    0  501    0  0.00000000000E+00 -0.00000000000E+00 -0.40339712270E+04  0.40339712270E+04  0.00000000000E+00 0.  1.
         23    2    1    2    0    0 -0.28716966986E+04  0.13214439766E+04  0.29309121925E+04  0.43117504360E+04  0.89941259795E+02 0.  0.
         13    1    3    3    0    0 -0.23328411481E+04  0.11068346911E+04  0.23697673602E+04  0.35047151378E+04  0.00000000000E+00 0. -1.
        -13    1    3    3    0    0 -0.53885555049E+03  0.21460928549E+03  0.56114483223E+03  0.80703529814E+03  0.00000000000E+00 0.  1.
         22    1    1    2    0    0  0.28716966986E+04 -0.13214439766E+04 -0.25963784559E+04  0.40907257545E+04  0.00000000000E+00 0.  1.
<mgrwt>
<rscale>  0 0.83958140E+04</rscale>
<asrwt>0</asrwt>
<pdfrwt beam="1">  1        2 0.62061096E+00 0.83958140E+04</pdfrwt>
<pdfrwt beam="2">  1       -2 0.67207769E+00 0.83958140E+04</pdfrwt>
<totfact> 0.52814377E-05</totfact>
</mgrwt>
</event>
<event>
 6    1  0.6091287E-004  0.8204827E+03  0.7818608E-02  0.9530833E-01
         -2   -1    0    0    0  501 -0.00000000000E+00  0.00000000000E+00  0.96834236608E+02  0.96834236608E+02  0.00000000000E+00 0. -1.
          2   -1    0    0  501    0  0.00000000000E+00 -0.00000000000E+00 -0.17380006494E+04  0.17380006494E+04  0.00000000000E+00 0.  1.
         23    2    1    2    0    0  0.24563999620E+03 -0.24407791062E+03 -0.36044548868E+03  0.50812500075E+03  0.91416803098E+02 0.  0.
         11    1    3    3    0    0  0.93335413785E+02 -0.12619402081E+03 -0.21776184503E+03  0.26843370039E+03  0.00000000000E+00 0. -1.
        -11    1    3    3    0    0  0.15230458242E+03 -0.11788388981E+03 -0.14268364365E+03  0.23969130036E+03  0.00000000000E+00 0.  1.
         22    1    1    2    0    0 -0.24563999620E+03  0.24407791062E+03 -0.12807209241E+04  0.13267098852E+04  0.00000000000E+00 0.  1.
<mgrwt>
<rscale>  0 0.82048270E+03</rscale>
<asrwt>0</asrwt>
<pdfrwt beam="1">  1        2 0.26738470E+00 0.82048270E+03</pdfrwt>
<pdfrwt beam="2">  1       -2 0.14897576E-01 0.82048270E+03</pdfrwt>
<totfact> 0.33526649E+02</totfact>
</mgrwt>
</event>
<event>
 6    1  0.6091287E-004  0.7412779E+03  0.7818608E-02  0.9649134E-01
         -2   -1    0    0    0  501 -0.00000000000E+00  0.00000000000E+00  0.10262262955E+03  0.10262262955E+03  0.00000000000E+00 0. -1.
          2   -1    0    0  501    0  0.00000000000E+00 -0.00000000000E+00 -0.13386251381E+04  0.13386251381E+04  0.00000000000E+00 0.  1.
         23    2    1    2    0    0  0.10358239725E+03 -0.27163298501E+03 -0.10566726765E+04  0.10996735001E+04  0.90613851632E+02 0.  0.
         13    1    3    3    0    0  0.25764701560E+01 -0.10445141969E+03 -0.28131331549E+03  0.30008985112E+03  0.00000000000E+00 0. -1.
        -13    1    3    3    0    0  0.10100592710E+03 -0.16718156532E+03 -0.77535936099E+03  0.79958364901E+03  0.00000000000E+00 0.  1.
         22    1    1    2    0    0 -0.10358239725E+03  0.27163298501E+03 -0.17932983207E+03  0.34157426752E+03  0.00000000000E+00 0. -1.
<mgrwt>
<rscale>  0 0.74127790E+03</rscale>
<asrwt>0</asrwt>
<pdfrwt beam="1">  1        2 0.20594230E+00 0.74127790E+03</pdfrwt>
<pdfrwt beam="2">  1       -2 0.15788099E-01 0.74127790E+03</pdfrwt>
<totfact> 0.50925273E+02</totfact>
</mgrwt>
</event>
<event>
 6    1  0.6091287E-004  0.4661657E+04  0.7818608E-02  0.7882931E-01
         -2   -1    0    0    0  501 -0.00000000000E+00  0.00000000000E+00  0.12888662758E+04  0.12888662758E+04  0.00000000000E+00 0. -1.
          2   -1    0    0  501    0  0.00000000000E+00 -0.00000000000E+00 -0.42151474917E+04  0.42151474917E+04  0.00000000000E+00 0.  1.
         23    2    1    2    0    0 -0.12470523394E+03 -0.88581896057E+03 -0.40038096707E+04  0.41035516305E+04  0.91746814654E+02 0.  0.
         13    1    3    3    0    0 -0.97746356071E+02 -0.80077022659E+03 -0.34872323909E+04  0.35793263409E+04  0.00000000000E+00 0. -1.
        -13    1    3    3    0    0 -0.26958877868E+02 -0.85048733978E+02 -0.51657727980E+03  0.52422528960E+03  0.00000000000E+00 0.  1.
         22    1    1    2    0    0  0.12470523394E+03  0.88581896057E+03  0.10775284548E+04  0.14004621370E+04  0.00000000000E+00 0. -1.
<mgrwt>
<rscale>  0 0.46616570E+04</rscale>
<asrwt>0</asrwt>
<pdfrwt beam="1">  1        2 0.64848422E+00 0.46616570E+04</pdfrwt>
<pdfrwt beam="2">  1       -2 0.19828712E+00 0.46616570E+04</pdfrwt>
<totfact> 0.22888978E-02</totfact>
</mgrwt>
</event>
<event>
 6    1  0.6091287E-004  0.7079344E+03  0.7818608E-02  0.9703759E-01
         -2   -1    0    0    0  501 -0.00000000000E+00  0.00000000000E+00  0.19617293899E+03  0.19617293899E+03  0.00000000000E+00 0. -1.
          2   -1    0    0  501    0  0.00000000000E+00 -0.00000000000E+00 -0.63868541254E+03  0.63868541254E+03  0.00000000000E+00 0.  1.
         23    2    1    2    0    0  0.87302491472E+02  0.32329912402E+03 -0.11764382205E+03  0.36829250480E+03  0.98261139907E+02 0.  0.
         11    1    3    3    0    0  0.46541806369E+02  0.21003401197E+03 -0.12297779003E+03  0.24779822995E+03  0.00000000000E+00 0.  1.
        -11    1    3    3    0    0  0.40760685104E+02  0.11326511206E+03  0.53339679792E+01  0.12049427486E+03  0.00000000000E+00 0. -1.
         22    1    1    2    0    0 -0.87302491472E+02 -0.32329912402E+03 -0.32486865149E+03  0.46656584673E+03  0.00000000000E+00 0. -1.
<mgrwt>
<rscale>  0 0.70793444E+03</rscale>
<asrwt>0</asrwt>
<pdfrwt beam="1">  1        2 0.98259293E-01 0.70793444E+03</pdfrwt>
<pdfrwt beam="2">  1       -2 0.30180453E-01 0.70793444E+03</pdfrwt>
<totfact> 0.46871384E+02</totfact>
</mgrwt>
</event>
<event>
 6    1  0.6091287E-004  0.2734878E+04  0.7818608E-02  0.8323776E-01
         -2   -1    0    0    0  501 -0.00000000000E+00  0.00000000000E+00  0.64665806228E+03  0.64665806228E+03  0.00000000000E+00 0. -1.
          2   -1    0    0  501    0  0.00000000000E+00 -0.00000000000E+00 -0.28916198915E+04  0.28916198915E+04  0.00000000000E+00 0.  1.
         23    2    1    2    0    0  0.12892767100E+04  0.82745121828E+02 -0.54964249981E+03  0.14068022165E+04  0.88906741688E+02 0.  0.
         13    1    3    3    0    0  0.10402643473E+04  0.57843102276E+02 -0.40547615332E+03  0.11179922395E+04  0.00000000000E+00 0. -1.
        -13    1    3    3    0    0  0.24901236266E+03  0.24902019552E+02 -0.14416634649E+03  0.28880997697E+03  0.00000000000E+00 0.  1.
         22    1    1    2    0    0 -0.12892767100E+04 -0.82745121828E+02 -0.16953193295E+04  0.21314757373E+04  0.00000000000E+00 0.  1.
<mgrwt>
<rscale>  0 0.27348779E+04</rscale>
<asrwt>0</asrwt>
<pdfrwt beam="1">  1        2 0.44486459E+00 0.27348779E+04</pdfrwt>
<pdfrwt beam="2">  1       -2 0.99485857E-01 0.27348779E+04</pdfrwt>
<totfact> 0.14866247E+00</totfact>
</mgrwt>
</event>
<event>
 6    1  0.6091287E-004  0.2510889E+04  0.7818608E-02  0.8399116E-01
          2   -1    0    0  501    0  0.00000000000E+00  0.00000000000E+00  0.30085217299E+04  0.30085217299E+04  0.00000000000E+00 0.  1.
         -2   -1    0    0    0  501 -0.00000000000E+00 -0.00000000000E+00 -0.52389230774E+03  0.52389230774E+03  0.00000000000E+00 0. -1.
         23    2    1    2    0    0 -0.40640040684E+03  0.49901716163E+03  0.27577489200E+04  0.28332905305E+04  0.90425142082E+02 0.  0.
         11    1    3    3    0    0 -0.10205810978E+03  0.17702283170E+03  0.98956448846E+03  0.10104409025E+04  0.00000000000E+00 0. -1.
        -11    1    3    3    0    0 -0.30434229705E+03  0.32199432993E+03  0.17681844315E+04  0.18228496279E+04  0.00000000000E+00 0.  1.
         22    1    1    2    0    0  0.40640040684E+03 -0.49901716163E+03 -0.27311949774E+03  0.69912350721E+03  0.00000000000E+00 0. -1.
<mgrwt>
<rscale>  0 0.25108894E+04</rscale>
<asrwt>0</asrwt>
<pdfrwt beam="1">  1        2 0.46284949E+00 0.25108894E+04</pdfrwt>
<pdfrwt beam="2">  1       -2 0.80598818E-01 0.25108894E+04</pdfrwt>
<totfact> 0.20834036E+00</totfact>
</mgrwt>
</event>
<event>
 6    1  0.6091287E-004  0.8388052E+03  0.7818608E-02  0.9505487E-01
          2   -1    0    0  501    0  0.00000000000E+00  0.00000000000E+00  0.10559844216E+04  0.10559844216E+04  0.00000000000E+00 0.  1.
         -2   -1    0    0    0  501 -0.00000000000E+00 -0.00000000000E+00 -0.16657304174E+03  0.16657304174E+03  0.00000000000E+00 0. -1.
         23    2    1    2    0    0  0.24081226442E+03 -0.19330846258E+03  0.47484914738E+02  0.32578609836E+03  0.92320400553E+02 0.  0.
         13    1    3    3    0    0  0.14875740435E+03 -0.14750742929E+03  0.69339275296E+02  0.22066975811E+03  0.00000000000E+00 0. -1.
        -13    1    3    3    0    0  0.92054860063E+02 -0.45801033281E+02 -0.21854360558E+02  0.10511634024E+03  0.00000000000E+00 0.  1.
         22    1    1    2    0    0 -0.24081226442E+03  0.19330846258E+03  0.84192646510E+03  0.89677136497E+03  0.00000000000E+00 0.  1.
<mgrwt>
<rscale>  0 0.83880519E+03</rscale>
<asrwt>0</asrwt>
<pdfrwt beam="1">  1        2 0.16245914E+00 0.83880519E+03</pdfrwt>
<pdfrwt beam="2">  1       -2 0.25626622E-01 0.83880519E+03</pdfrwt>
<totfact> 0.31917885E+02</totfact>
</mgrwt>
</event>
<event>
 6    1  0.6091287E-004  0.2066392E+04  0.7818608E-02  0.8576194E-01
          4   -1    0    0  501    0  0.00000000000E+00  0.00000000000E+00  0.68107142809E+03  0.68107142809E+03  0.00000000000E+00 0.  1.
         -4   -1    0    0    0  501 -0.00000000000E+00 -0.00000000000E+00 -0.15673751869E+04  0.15673751869E+04  0.00000000000E+00 0. -1.
         23    2    1    2    0    0  0.40357765412E+03  0.81893351389E+03  0.77110884977E+02  0.92115810117E+03  0.95179491967E+02 0.  0.
         13    1    3    3    0    0  0.23564219589E+03  0.43699696274E+03 -0.20659148264E+01  0.49648550627E+03  0.00000000000E+00 0. -1.
        -13    1    3    3    0    0  0.16793545823E+03  0.38193655115E+03  0.79176799803E+02  0.42467259490E+03  0.00000000000E+00 0.  1.
         22    1    1    2    0    0 -0.40357765412E+03 -0.81893351389E+03 -0.96341464380E+03  0.13272885138E+04  0.00000000000E+00 0. -1.
<mgrwt>
<rscale>  0 0.20663925E+04</rscale>
<asrwt>0</asrwt>
<pdfrwt beam="1">  1        4 0.10478022E+00 0.20663925E+04</pdfrwt>
<pdfrwt beam="2">  1       -4 0.24113464E+00 0.20663925E+04</pdfrwt>
<totfact> 0.97832930E-02</totfact>
</mgrwt>
</event>
<event>
 6    1  0.6091287E-004  0.2040537E+04  0.7818608E-02  0.8587899E-01
          2   -1    0    0  501    0  0.00000000000E+00  0.00000000000E+00  0.10177616647E+04  0.10177616647E+04  0.00000000000E+00 0.  1.
         -2   -1    0    0    0  501 -0.00000000000E+00 -0.00000000000E+00 -0.10227812117E+04  0.10227812117E+04  0.00000000000E+00 0. -1.
         23    2    1    2    0    0 -0.37236438907E+03  0.55712845314E+03 -0.76913158353E+03  0.10242188356E+04  0.91725017349E+02 0.  0.
         13    1    3    3    0    0 -0.22482947071E+03  0.35802310854E+03 -0.41862499909E+03  0.59495859268E+03  0.00000000000E+00 0.  1.
        -13    1    3    3    0    0 -0.14753491836E+03  0.19910534460E+03 -0.35050658445E+03  0.42926024289E+03  0.00000000000E+00 0. -1.
         22    1    1    2    0    0  0.37236438907E+03 -0.55712845314E+03  0.76411203656E+03  0.10163240408E+04  0.00000000000E+00 0.  1.
<mgrwt>
<rscale>  0 0.20405367E+04</rscale>
<asrwt>0</asrwt>
<pdfrwt beam="1">  1        2 0.15657872E+00 0.20405367E+04</pdfrwt>
<pdfrwt beam="2">  1       -2 0.15735095E+00 0.20405367E+04</pdfrwt>
<totfact> 0.59882595E+00</totfact>
</mgrwt>
</event>
<event>
 6    1  0.6091287E-004  0.2141819E+04  0.7818608E-02  0.8543042E-01
          2   -1    0    0  501    0  0.00000000000E+00  0.00000000000E+00  0.64391396724E+03  0.64391396724E+03  0.00000000000E+00 0.  1.
         -2   -1    0    0    0  501 -0.00000000000E+00 -0.00000000000E+00 -0.17810559618E+04  0.17810559618E+04  0.00000000000E+00 0. -1.
         23    2    1    2    0    0 -0.70944399890E+03 -0.51161258246E+03  0.12594787785E+03  0.88859294149E+03  0.93146796140E+02 0.  0.
         11    1    3    3    0    0 -0.46425214558E+03 -0.38780662546E+03  0.89969368552E+02  0.61157053616E+03  0.00000000000E+00 0.  1.
        -11    1    3    3    0    0 -0.24519185332E+03 -0.12380595700E+03  0.35978509301E+02  0.27702240533E+03  0.00000000000E+00 0. -1.
         22    1    1    2    0    0  0.70944399890E+03  0.51161258246E+03 -0.12630898724E+04  0.15363769876E+04  0.00000000000E+00 0. -1.
<mgrwt>
<rscale>  0 0.21418187E+04</rscale>
<asrwt>0</asrwt>
<pdfrwt beam="1">  1        2 0.99063688E-01 0.21418187E+04</pdfrwt>
<pdfrwt beam="2">  1       -2 0.27400861E+00 0.21418187E+04</pdfrwt>
<totfact> 0.19141682E+00</totfact>
</mgrwt>
</event>
<event>
 6    1  0.6091287E-004  0.8392804E+03  0.7818608E-02  0.9504838E-01
          2   -1    0    0  501    0  0.00000000000E+00  0.00000000000E+00  0.15558903238E+04  0.15558903238E+04  0.00000000000E+00 0.  1.
         -2   -1    0    0    0  501 -0.00000000000E+00 -0.00000000000E+00 -0.11318143490E+03  0.11318143490E+03  0.00000000000E+00 0. -1.
         23    2    1    2    0    0  0.65830218471E+02 -0.14074092798E+03  0.14944550361E+04  0.15053057969E+04  0.91695478374E+02 0.  0.
         11    1    3    3    0    0  0.78158932185E+02 -0.11762852103E+03  0.14053995569E+04  0.14124776820E+04  0.00000000000E+00 0. -1.
        -11    1    3    3    0    0 -0.12328713715E+02 -0.23112406951E+02  0.89055479223E+02  0.92828114904E+02  0.00000000000E+00 0.  1.
         22    1    1    2    0    0 -0.65830218471E+02  0.14074092798E+03 -0.51746147262E+02  0.16376596175E+03  0.00000000000E+00 0. -1.
<mgrwt>
<rscale>  0 0.83928040E+03</rscale>
<asrwt>0</asrwt>
<pdfrwt beam="1">  1        2 0.23936773E+00 0.83928040E+03</pdfrwt>
<pdfrwt beam="2">  1       -2 0.17412530E-01 0.83928040E+03</pdfrwt>
<totfact> 0.32327293E+02</totfact>
</mgrwt>
</event>
<event>
 6    1  0.6091287E-004  0.1521371E+04  0.7818608E-02  0.8870364E-01
         -2   -1    0    0    0  501 -0.00000000000E+00  0.00000000000E+00  0.37713044321E+03  0.37713044321E+03  0.00000000000E+00 0. -1.
          2   -1    0    0  501    0  0.00000000000E+00 -0.00000000000E+00 -0.15343304450E+04  0.15343304450E+04  0.00000000000E+00 0.  1.
         23    2    1    2    0    0  0.17671384212E+03 -0.36308054848E+03 -0.13865523934E+04  0.14470711961E+04  0.91827230122E+02 0.  0.
         11    1    3    3    0    0  0.14211575050E+03 -0.21900506890E+03 -0.77368919789E+03  0.81655072205E+03  0.00000000000E+00 0. -1.
        -11    1    3    3    0    0  0.34598091618E+02 -0.14407547957E+03 -0.61286319551E+03  0.63052047403E+03  0.00000000000E+00 0.  1.
         22    1    1    2    0    0 -0.17671384212E+03  0.36308054848E+03  0.22935239157E+03  0.46438969217E+03  0.00000000000E+00 0. -1.
<mgrwt>
<rscale>  0 0.15213714E+04</rscale>
<asrwt>0</asrwt>
<pdfrwt beam="1">  1        2 0.23605084E+00 0.15213714E+04</pdfrwt>
<pdfrwt beam="2">  1       -2 0.58020067E-01 0.15213714E+04</pdfrwt>
<totfact> 0.32551022E+01</totfact>
</mgrwt>
</event>
<event>
 6    1  0.6091287E-004  0.1692169E+04  0.7818608E-02  0.8765843E-01
         -2   -1    0    0    0  501 -0.00000000000E+00  0.00000000000E+00  0.97191948611E+03  0.97191948611E+03  0.00000000000E+00 0. -1.
          2   -1    0    0  501    0  0.00000000000E+00 -0.00000000000E+00 -0.73654184096E+03  0.73654184096E+03  0.00000000000E+00 0.  1.
         23    2    1    2    0    0 -0.60169300881E+03  0.12078784791E+03  0.70209024755E+03  0.93745884050E+03  0.96302548669E+02 0.  0.
         11    1    3    3    0    0 -0.24632411928E+03  0.81199044721E+02  0.24171002209E+03  0.35453150972E+03  0.00000000000E+00 0.  1.
        -11    1    3    3    0    0 -0.35536888952E+03  0.39588803186E+02  0.46038022547E+03  0.58292733079E+03  0.00000000000E+00 0. -1.
         22    1    1    2    0    0  0.60169300881E+03 -0.12078784791E+03 -0.46671260240E+03  0.77100248656E+03  0.00000000000E+00 0.  1.
<mgrwt>
<rscale>  0 0.16921695E+04</rscale>
<asrwt>0</asrwt>
<pdfrwt beam="1">  1        2 0.11331413E+00 0.16921695E+04</pdfrwt>
<pdfrwt beam="2">  1       -2 0.14952608E+00 0.16921695E+04</pdfrwt>
<totfact> 0.11038616E+01</totfact>
</mgrwt>
</event>
<event>
 6    1  0.7006648E-004  0.3377207E+04  0.7818608E-02  0.8143523E-01
          2   -1    0    0  501    0  0.00000000000E+00  0.00000000000E+00  0.20721305376E+04  0.20721305376E+04  0.00000000000E+00 0.  1.
         -2   -1    0    0    0  501 -0.00000000000E+00 -0.00000000000E+00 -0.13760629151E+04  0.13760629151E+04  0.00000000000E+00 0. -1.
         23    2    1    2    0    0  0.74933028524E+02 -0.78466168631E+03 -0.11750382520E+04  0.14178372982E+04  0.90767778734E+02 0.  0.
         13    1    3    3    0    0  0.90908051393E+02 -0.49469183776E+03 -0.75297994712E+03  0.90551813285E+03  0.00000000000E+00 0. -1.
        -13    1    3    3    0    0 -0.15975022869E+02 -0.28996984855E+03 -0.42205830490E+03  0.51231916532E+03  0.00000000000E+00 0.  1.
         22    1    1    2    0    0 -0.74933028524E+02  0.78466168631E+03  0.18711058745E+04  0.20303561546E+04  0.00000000000E+00 0.  1.
<mgrwt>
<rscale>  0 0.33772071E+04</rscale>
<asrwt>0</asrwt>
<pdfrwt beam="1">  1        2 0.31878931E+00 0.33772071E+04</pdfrwt>
<pdfrwt beam="2">  1       -2 0.21170199E+00 0.33772071E+04</pdfrwt>
<totfact> 0.56444415E-01</totfact>
</mgrwt>
</event>
<event>
 6    1  0.6091287E-004  0.2761225E+04  0.7818608E-02  0.8315409E-01
         -2   -1    0    0    0  501 -0.00000000000E+00  0.00000000000E+00  0.19360530067E+04  0.19360530067E+04  0.00000000000E+00 0. -1.
          2   -1    0    0  501    0  0.00000000000E+00 -0.00000000000E+00 -0.98452380684E+03  0.98452380684E+03  0.00000000000E+00 0.  1.
         23    2    1    2    0    0 -0.13031228358E+04  0.44477139452E+03  0.38813050704E+03  0.14328373183E+04  0.80167147268E+02 0.  0.
         13    1    3    3    0    0 -0.77893587549E+03  0.26588989224E+03  0.27271740950E+03  0.86707169160E+03  0.00000000000E+00 0. -1.
        -13    1    3    3    0    0 -0.52418696033E+03  0.17888150228E+03  0.11541309753E+03  0.56576562667E+03  0.00000000000E+00 0.  1.
         22    1    1    2    0    0  0.13031228358E+04 -0.44477139452E+03  0.56339869278E+03  0.14877394952E+04  0.00000000000E+00 0.  1.
<mgrwt>
<rscale>  0 0.27612246E+04</rscale>
<asrwt>0</asrwt>
<pdfrwt beam="1">  1        2 0.15146520E+00 0.27612246E+04</pdfrwt>
<pdfrwt beam="2">  1       -2 0.29785431E+00 0.27612246E+04</pdfrwt>
<totfact> 0.73707018E-01</totfact>
</mgrwt>
</event>
<event>
 6    1  0.6091287E-004  0.2475184E+04  0.7818608E-02  0.8411880E-01
         -1   -1    0    0    0  501 -0.00000000000E+00  0.00000000000E+00  0.12724189230E+04  0.12724189230E+04  0.00000000000E+00 0. -1.
          1   -1    0    0  501    0  0.00000000000E+00 -0.00000000000E+00 -0.12037186584E+04  0.12037186584E+04  0.00000000000E+00 0.  1.
         23    2    1    2    0    0  0.11191050143E+04  0.52428948463E+03  0.20179887568E+02  0.12393555781E+04  0.91211427893E+02 0.  0.
         13    1    3    3    0    0  0.65029613585E+03  0.26452685186E+03 -0.15428913119E+02  0.70220906503E+03  0.00000000000E+00 0.  1.
        -13    1    3    3    0    0  0.46880887842E+03  0.25976263277E+03  0.35608800687E+02  0.53714651312E+03  0.00000000000E+00 0. -1.
         22    1    1    2    0    0 -0.11191050143E+04 -0.52428948463E+03  0.48520377085E+02  0.12367820033E+04  0.00000000000E+00 0. -1.
<mgrwt>
<rscale>  0 0.24751844E+04</rscale>
<asrwt>0</asrwt>
<pdfrwt beam="1">  1        1 0.18518749E+00 0.24751844E+04</pdfrwt>
<pdfrwt beam="2">  1       -1 0.19575676E+00 0.24751844E+04</pdfrwt>
<totfact> 0.15226486E+00</totfact>
</mgrwt>
</event>
<event>
 6    1  0.6091287E-004  0.2956199E+04  0.7818608E-02  0.8256350E-01
         -2   -1    0    0    0  501 -0.00000000000E+00  0.00000000000E+00  0.18744646109E+04  0.18744646109E+04  0.00000000000E+00 0. -1.
          2   -1    0    0  501    0  0.00000000000E+00 -0.00000000000E+00 -0.11655474881E+04  0.11655474881E+04  0.00000000000E+00 0.  1.
         23    2    1    2    0    0 -0.15348713914E+03  0.98826455223E+03  0.14720275717E+04  0.17820126219E+04  0.92079778808E+02 0.  0.
         13    1    3    3    0    0 -0.67332054666E+02  0.48016326923E+03  0.79441758767E+03  0.93069311500E+03  0.00000000000E+00 0. -1.
        -13    1    3    3    0    0 -0.86155084469E+02  0.50810128300E+03  0.67760998407E+03  0.85131950693E+03  0.00000000000E+00 0.  1.
         22    1    1    2    0    0  0.15348713914E+03 -0.98826455223E+03 -0.76311044891E+03  0.12579994771E+04  0.00000000000E+00 0.  1.
<mgrwt>
<rscale>  0 0.29561986E+04</rscale>
<asrwt>0</asrwt>
<pdfrwt beam="1">  1        2 0.17931500E+00 0.29561986E+04</pdfrwt>
<pdfrwt beam="2">  1       -2 0.28837917E+00 0.29561986E+04</pdfrwt>
<totfact> 0.63886615E-01</totfact>
</mgrwt>
</event>
<event>
 6    1  0.6091287E-004  0.2135639E+04  0.7818608E-02  0.8545705E-01
          2   -1    0    0  501    0  0.00000000000E+00  0.00000000000E+00  0.35859519426E+04  0.35859519426E+04  0.00000000000E+00 0.  1.
         -2   -1    0    0    0  501 -0.00000000000E+00 -0.00000000000E+00 -0.31797370166E+03  0.31797370166E+03  0.00000000000E+00 0. -1.
         23    2    1    2    0    0  0.77161415221E+03 -0.17054624256E+03  0.29446206682E+04  0.30500904490E+04  0.88240847120E+02 0.  0.
         13    1    3    3    0    0  0.53096708928E+03 -0.79235675902E+02  0.20575875511E+04  0.21264691093E+04  0.00000000000E+00 0. -1.
        -13    1    3    3    0    0  0.24064706293E+03 -0.91310566662E+02  0.88703311707E+03  0.92362133976E+03  0.00000000000E+00 0.  1.
         22    1    1    2    0    0 -0.77161415221E+03  0.17054624256E+03  0.32335757277E+03  0.85383519523E+03  0.00000000000E+00 0. -1.
<mgrwt>
<rscale>  0 0.21356389E+04</rscale>
<asrwt>0</asrwt>
<pdfrwt beam="1">  1        2 0.55168489E+00 0.21356389E+04</pdfrwt>
<pdfrwt beam="2">  1       -2 0.48919034E-01 0.21356389E+04</pdfrwt>
<totfact> 0.25812805E+00</totfact>
</mgrwt>
</event>
<event>
 6    1  0.6091287E-004  0.1744545E+04  0.7818608E-02  0.8736359E-01
          2   -1    0    0  501    0  0.00000000000E+00  0.00000000000E+00  0.10028347855E+04  0.10028347855E+04  0.00000000000E+00 0.  1.
         -2   -1    0    0    0  501 -0.00000000000E+00 -0.00000000000E+00 -0.75870861679E+03  0.75870861679E+03  0.00000000000E+00 0. -1.
         23    2    1    2    0    0  0.58925855558E+03 -0.63254169978E+03  0.26447851442E+02  0.87007355025E+03  0.94835893582E+02 0.  0.
         11    1    3    3    0    0  0.35410613323E+03 -0.37715258758E+03 -0.30682696641E+02  0.51824381886E+03  0.00000000000E+00 0. -1.
        -11    1    3    3    0    0  0.23515242235E+03 -0.25538911220E+03  0.57130548083E+02  0.35182973139E+03  0.00000000000E+00 0.  1.
         22    1    1    2    0    0 -0.58925855558E+03  0.63254169978E+03  0.21767831726E+03  0.89146985204E+03  0.00000000000E+00 0. -1.
<mgrwt>
<rscale>  0 0.17445451E+04</rscale>
<asrwt>0</asrwt>
<pdfrwt beam="1">  1        2 0.15428228E+00 0.17445451E+04</pdfrwt>
<pdfrwt beam="2">  1       -2 0.11672440E+00 0.17445451E+04</pdfrwt>
<totfact> 0.13523911E+01</totfact>
</mgrwt>
</event>
<event>
 6    1  0.6091287E-004  0.2351576E+04  0.7818608E-02  0.8457858E-01
         -2   -1    0    0    0  501 -0.00000000000E+00  0.00000000000E+00  0.42075742135E+03  0.42075742135E+03  0.00000000000E+00 0. -1.
          2   -1    0    0  501    0  0.00000000000E+00 -0.00000000000E+00 -0.32856887160E+04  0.32856887160E+04  0.00000000000E+00 0.  1.
         23    2    1    2    0    0 -0.87187710434E+03  0.88551278419E+02 -0.20316035371E+03  0.90411932628E+03  0.90258588844E+02 0.  0.
         13    1    3    3    0    0 -0.37441534085E+03  0.36402211919E+02 -0.41534596894E+02  0.37846676372E+03  0.00000000000E+00 0.  1.
        -13    1    3    3    0    0 -0.49746176348E+03  0.52149066501E+02 -0.16162575682E+03  0.52565256256E+03  0.00000000000E+00 0. -1.
         22    1    1    2    0    0  0.87187710434E+03 -0.88551278419E+02 -0.26617709409E+04  0.28023268111E+04  0.00000000000E+00 0.  1.
<mgrwt>
<rscale>  0 0.23515764E+04</rscale>
<asrwt>0</asrwt>
<pdfrwt beam="1">  1        2 0.50549055E+00 0.23515764E+04</pdfrwt>
<pdfrwt beam="2">  1       -2 0.64731914E-01 0.23515764E+04</pdfrwt>
<totfact> 0.22674479E+00</totfact>
</mgrwt>
</event>
<event>
 6    1  0.6091287E-004  0.1362705E+04  0.7818608E-02  0.8981266E-01
         -2   -1    0    0    0  501 -0.00000000000E+00  0.00000000000E+00  0.27798419331E+03  0.27798419331E+03  0.00000000000E+00 0. -1.
          2   -1    0    0  501    0  0.00000000000E+00 -0.00000000000E+00 -0.16700280555E+04  0.16700280555E+04  0.00000000000E+00 0.  1.
         23    2    1    2    0    0 -0.62958598317E+03  0.14463967611E+03 -0.40262403768E+03  0.76638170789E+03  0.89082323484E+02 0.  0.
         11    1    3    3    0    0 -0.26493851102E+03  0.24220369921E+02 -0.13521502649E+03  0.29843281376E+03  0.00000000000E+00 0. -1.
        -11    1    3    3    0    0 -0.36464747215E+03  0.12041930619E+03 -0.26740901119E+03  0.46794889413E+03  0.00000000000E+00 0.  1.
         22    1    1    2    0    0  0.62958598317E+03 -0.14463967611E+03 -0.98941982455E+03  0.11816305410E+04  0.00000000000E+00 0.  1.
<mgrwt>
<rscale>  0 0.13627053E+04</rscale>
<asrwt>0</asrwt>
<pdfrwt beam="1">  1        2 0.25692739E+00 0.13627053E+04</pdfrwt>
<pdfrwt beam="2">  1       -2 0.42766799E-01 0.13627053E+04</pdfrwt>
<totfact> 0.51542883E+01</totfact>
</mgrwt>
</event>
<event>
 6    1  0.6091287E-004  0.2491663E+04  0.7818608E-02  0.8405962E-01
         -2   -1    0    0    0  501 -0.00000000000E+00  0.00000000000E+00  0.77563825790E+03  0.77563825790E+03  0.00000000000E+00 0. -1.
          2   -1    0    0  501    0  0.00000000000E+00 -0.00000000000E+00 -0.20010568313E+04  0.20010568313E+04  0.00000000000E+00 0.  1.
         23    2    1    2    0    0 -0.11629047969E+04  0.42409910221E+03 -0.47386348615E+03  0.13285781518E+04  0.91464128150E+02 0.  0.
         11    1    3    3    0    0 -0.88139325221E+02  0.84209509370E+01 -0.41538859548E+02  0.97800459701E+02  0.00000000000E+00 0. -1.
        -11    1    3    3    0    0 -0.10747654717E+04  0.41567815127E+03 -0.43232462660E+03  0.12307776921E+04  0.00000000000E+00 0.  1.
         22    1    1    2    0    0  0.11629047969E+04 -0.42409910221E+03 -0.75155508727E+03  0.14481169374E+04  0.00000000000E+00 0. -1.
<mgrwt>
<rscale>  0 0.24916631E+04</rscale>
<asrwt>0</asrwt>
<pdfrwt beam="1">  1        2 0.30785490E+00 0.24916631E+04</pdfrwt>
<pdfrwt beam="2">  1       -2 0.11932896E+00 0.24916631E+04</pdfrwt>
<totfact> 0.32064374E+00</totfact>
</mgrwt>
</event>
<event>
 6    1  0.6091287E-004  0.4567424E+04  0.7818608E-02  0.7898938E-01
         -2   -1    0    0    0  501 -0.00000000000E+00  0.00000000000E+00  0.37853761199E+04  0.37853761199E+04  0.00000000000E+00 0.  1.
          2   -1    0    0  501    0  0.00000000000E+00 -0.00000000000E+00 -0.13777603166E+04  0.13777603166E+04  0.00000000000E+00 0. -1.
         23    2    1    2    0    0 -0.12186811524E+04 -0.11836516108E+04 -0.51923398202E+03  0.17789578726E+04  0.94192872984E+02 0.  0.
         13    1    3    3    0    0 -0.54291848153E+03 -0.51904352171E+03 -0.18113272881E+03  0.77264203902E+03  0.00000000000E+00 0. -1.
        -13    1    3    3    0    0 -0.67576267088E+03 -0.66460808908E+03 -0.33810125321E+03  0.10063158336E+04  0.00000000000E+00 0.  1.
         22    1    1    2    0    0  0.12186811524E+04  0.11836516108E+04  0.29268497853E+04  0.33841785640E+04  0.00000000000E+00 0.  1.
<mgrwt>
<rscale>  0 0.45674242E+04</rscale>
<asrwt>0</asrwt>
<pdfrwt beam="1">  1        2 0.21196313E+00 0.45674242E+04</pdfrwt>
<pdfrwt beam="2">  1       -2 0.58236555E+00 0.45674242E+04</pdfrwt>
<totfact> 0.67797727E-03</totfact>
</mgrwt>
</event>
<event>
 6    1  0.6091287E-004  0.1304412E+04  0.7818608E-02  0.9026074E-01
          2   -1    0    0  501    0  0.00000000000E+00  0.00000000000E+00  0.36772273447E+03  0.36772273447E+03  0.00000000000E+00 0.  1.
         -2   -1    0    0    0  501 -0.00000000000E+00 -0.00000000000E+00 -0.11567760103E+04  0.11567760103E+04  0.00000000000E+00 0. -1.
         23    2    1    2    0    0 -0.36590349369E+03  0.85010061311E+02  0.22005579102E+03  0.44773823937E+03  0.10456052129E+03 0.  0.
         13    1    3    3    0    0 -0.20045251398E+03  0.76427112377E+02  0.17277140233E+03  0.27544921734E+03  0.00000000000E+00 0. -1.
        -13    1    3    3    0    0 -0.16545097971E+03  0.85829489337E+01  0.47284388685E+02  0.17228902203E+03  0.00000000000E+00 0.  1.
         22    1    1    2    0    0  0.36590349369E+03 -0.85010061311E+02 -0.10091090669E+04  0.10767605055E+04  0.00000000000E+00 0. -1.
<mgrwt>
<rscale>  0 0.13044123E+04</rscale>
<asrwt>0</asrwt>
<pdfrwt beam="1">  1        2 0.56572729E-01 0.13044123E+04</pdfrwt>
<pdfrwt beam="2">  1       -2 0.17796554E+00 0.13044123E+04</pdfrwt>
<totfact> 0.16027510E+01</totfact>
</mgrwt>
</event>
<event>
 6    1  0.6091287E-004  0.5137378E+04  0.7818608E-02  0.7807658E-01
          2   -1    0    0  501    0  0.00000000000E+00  0.00000000000E+00  0.30516691757E+04  0.30516691757E+04  0.00000000000E+00 0.  1.
         -2   -1    0    0    0  501 -0.00000000000E+00 -0.00000000000E+00 -0.21621485007E+04  0.21621485007E+04  0.00000000000E+00 0. -1.
         23    2    1    2    0    0  0.19455100388E+04 -0.83206004115E+03 -0.10316810894E+04  0.23557852339E+04  0.89582225022E+02 0.  0.
         11    1    3    3    0    0  0.84412447774E+02 -0.41014699491E+02 -0.26575158280E+02  0.97539253386E+02  0.00000000000E+00 0. -1.
        -11    1    3    3    0    0  0.18610975910E+04 -0.79104534166E+03 -0.10051059311E+04  0.22582459805E+04  0.00000000000E+00 0.  1.
         22    1    1    2    0    0 -0.19455100388E+04  0.83206004115E+03  0.19212017644E+04  0.28580324425E+04  0.00000000000E+00 0. -1.
<mgrwt>
<rscale>  0 0.51373775E+04</rscale>
<asrwt>0</asrwt>
<pdfrwt beam="1">  1        2 0.46948756E+00 0.51373775E+04</pdfrwt>
<pdfrwt beam="2">  1       -2 0.33263823E+00 0.51373775E+04</pdfrwt>
<totfact> 0.23239120E-02</totfact>
</mgrwt>
</event>
<event>
 6    1  0.6091287E-004  0.2131074E+04  0.7818608E-02  0.8547677E-01
          2   -1    0    0  501    0  0.00000000000E+00  0.00000000000E+00  0.35441859839E+04  0.35441859839E+04  0.00000000000E+00 0.  1.
         -2   -1    0    0    0  501 -0.00000000000E+00 -0.00000000000E+00 -0.32034688113E+03  0.32034688113E+03  0.00000000000E+00 0. -1.
         23    2    1    2    0    0 -0.61932655947E+03 -0.31224792504E+02  0.48183167458E+02  0.62889830680E+03  0.93011223698E+02 0.  0.
         13    1    3    3    0    0 -0.58752358348E+03 -0.85866868951E+01  0.39537317227E+02  0.58891501236E+03  0.00000000000E+00 0.  1.
        -13    1    3    3    0    0 -0.31802975995E+02 -0.22638105609E+02  0.86458502306E+01  0.39983294435E+02  0.00000000000E+00 0. -1.
         22    1    1    2    0    0  0.61932655947E+03  0.31224792504E+02  0.31756559353E+04  0.32356345582E+04  0.00000000000E+00 0.  1.
<mgrwt>
<rscale>  0 0.21310738E+04</rscale>
<asrwt>0</asrwt>
<pdfrwt beam="1">  1        2 0.54525936E+00 0.21310738E+04</pdfrwt>
<pdfrwt beam="2">  1       -2 0.49284138E-01 0.21310738E+04</pdfrwt>
<totfact> 0.27231920E+00</totfact>
</mgrwt>
</event>
<event>
 6    1  0.6091287E-004  0.6796197E+03  0.7818608E-02  0.9752734E-01
          2   -1    0    0  501    0  0.00000000000E+00  0.00000000000E+00  0.17828573725E+04  0.17828573725E+04  0.00000000000E+00 0.  1.
         -2   -1    0    0    0  501 -0.00000000000E+00 -0.00000000000E+00 -0.64767232029E+02  0.64767232029E+02  0.00000000000E+00 0. -1.
         23    2    1    2    0    0  0.10242148472E+03 -0.29364748359E+03  0.54727579314E+03  0.63621004251E+03  0.92376508274E+02 0.  0.
         13    1    3    3    0    0  0.66060928263E+02 -0.11678955786E+03  0.15931199914E+03  0.20828864621E+03  0.00000000000E+00 0.  1.
        -13    1    3    3    0    0  0.36360556460E+02 -0.17685792573E+03  0.38796379400E+03  0.42792139630E+03  0.00000000000E+00 0. -1.
         22    1    1    2    0    0 -0.10242148472E+03  0.29364748359E+03  0.11708143474E+04  0.12114145621E+04  0.00000000000E+00 0.  1.
<mgrwt>
<rscale>  0 0.67961971E+03</rscale>
<asrwt>0</asrwt>
<pdfrwt beam="1">  1        2 0.27428571E+00 0.67961971E+03</pdfrwt>
<pdfrwt beam="2">  1       -2 0.99641909E-02 0.67961971E+03</pdfrwt>
<totfact> 0.62273658E+02</totfact>
</mgrwt>
</event>
<event>
 6    1  0.6091287E-004  0.1718278E+04  0.7818608E-02  0.8751008E-01
         -2   -1    0    0    0  501 -0.00000000000E+00  0.00000000000E+00  0.11287640897E+04  0.11287640897E+04  0.00000000000E+00 0. -1.
          2   -1    0    0  501    0  0.00000000000E+00 -0.00000000000E+00 -0.65391864013E+03  0.65391864013E+03  0.00000000000E+00 0.  1.
         23    2    1    2    0    0  0.38001077713E+03  0.31385506641E+03  0.96511154163E+03  0.10875035914E+04  0.91162382871E+02 0.  0.
         11    1    3    3    0    0  0.23904840379E+03  0.18955862446E+03  0.49824572838E+03  0.58423061997E+03  0.00000000000E+00 0.  1.
        -11    1    3    3    0    0  0.14096237334E+03  0.12429644194E+03  0.46686581325E+03  0.50327297142E+03  0.00000000000E+00 0. -1.
         22    1    1    2    0    0 -0.38001077713E+03 -0.31385506641E+03 -0.49026609208E+03  0.69517913842E+03  0.00000000000E+00 0.  1.
<mgrwt>
<rscale>  0 0.17182781E+04</rscale>
<asrwt>0</asrwt>
<pdfrwt beam="1">  1        2 0.10060287E+00 0.17182781E+04</pdfrwt>
<pdfrwt beam="2">  1       -2 0.17365601E+00 0.17182781E+04</pdfrwt>
<totfact> 0.85084810E+00</totfact>
</mgrwt>
</event>
<event>
 6    1  0.6091287E-004  0.3036192E+04  0.7818608E-02  0.8233471E-01
          2   -1    0    0  501    0  0.00000000000E+00  0.00000000000E+00  0.40518918996E+04  0.40518918996E+04  0.00000000000E+00 0.  1.
         -2   -1    0    0    0  501 -0.00000000000E+00 -0.00000000000E+00 -0.56877504351E+03  0.56877504351E+03  0.00000000000E+00 0. -1.
         23    2    1    2    0    0  0.33919140874E+03  0.74085378334E+03  0.36899712014E+04  0.37800101403E+04  0.93134597543E+02 0.  0.
         11    1    3    3    0    0  0.25066896820E+03  0.44184034654E+03  0.22381862787E+04  0.22951112482E+04  0.00000000000E+00 0.  1.
        -11    1    3    3    0    0  0.88522440540E+02  0.29901343681E+03  0.14517849227E+04  0.14848988921E+04  0.00000000000E+00 0. -1.
         22    1    1    2    0    0 -0.33919140874E+03 -0.74085378334E+03 -0.20685434528E+03  0.84065680287E+03  0.00000000000E+00 0. -1.
<mgrwt>
<rscale>  0 0.30361917E+04</rscale>
<asrwt>0</asrwt>
<pdfrwt beam="1">  1        2 0.62336797E+00 0.30361917E+04</pdfrwt>
<pdfrwt beam="2">  1       -2 0.87503856E-01 0.30361917E+04</pdfrwt>
<totfact> 0.29835245E-01</totfact>
</mgrwt>
</event>
<event>
 6    1  0.6091287E-004  0.1648497E+04  0.7818608E-02  0.8791296E-01
         -2   -1    0    0    0  501 -0.00000000000E+00  0.00000000000E+00  0.63666311550E+03  0.63666311550E+03  0.00000000000E+00 0. -1.
          2   -1    0    0  501    0  0.00000000000E+00 -0.00000000000E+00 -0.10671031699E+04  0.10671031699E+04  0.00000000000E+00 0.  1.
         23    2    1    2    0    0 -0.31322185726E+03  0.30332677935E+03  0.50399804199E+03  0.67260692676E+03  0.90944954009E+02 0.  0.
         11    1    3    3    0    0 -0.14712504896E+03  0.20145204396E+03  0.25939172268E+03  0.35987882939E+03  0.00000000000E+00 0. -1.
        -11    1    3    3    0    0 -0.16609680830E+03  0.10187473538E+03  0.24460631931E+03  0.31272809737E+03  0.00000000000E+00 0.  1.
         22    1    1    2    0    0  0.31322185726E+03 -0.30332677935E+03 -0.93443809634E+03  0.10311593586E+04  0.00000000000E+00 0.  1.
<mgrwt>
<rscale>  0 0.16484966E+04</rscale>
<asrwt>0</asrwt>
<pdfrwt beam="1">  1        2 0.16416972E+00 0.16484966E+04</pdfrwt>
<pdfrwt beam="2">  1       -2 0.97948172E-01 0.16484966E+04</pdfrwt>
<totfact> 0.18929809E+01</totfact>
</mgrwt>
</event>
<event>
 6    1  0.6091287E-004  0.8957372E+03  0.7818608E-02  0.9430926E-01
          2   -1    0    0  501    0  0.00000000000E+00  0.00000000000E+00  0.73249921550E+03  0.73249921550E+03  0.00000000000E+00 0.  1.
         -2   -1    0    0    0  501 -0.00000000000E+00 -0.00000000000E+00 -0.27383824445E+03  0.27383824445E+03  0.00000000000E+00 0. -1.
         23    2    1    2    0    0  0.30963958788E+03 -0.29229541785E+03  0.96161491156E+02  0.44712447851E+03  0.96746995913E+02 0.  0.
         13    1    3    3    0    0  0.22824492641E+03 -0.20981143295E+03  0.24766440126E+02  0.31101440543E+03  0.00000000000E+00 0.  1.
        -13    1    3    3    0    0  0.81394661467E+02 -0.82483984903E+02  0.71395051030E+02  0.13611007307E+03  0.00000000000E+00 0. -1.
         22    1    1    2    0    0 -0.30963958788E+03  0.29229541785E+03  0.36249947990E+03  0.55921298144E+03  0.00000000000E+00 0. -1.
<mgrwt>
<rscale>  0 0.89573724E+03</rscale>
<asrwt>0</asrwt>
<pdfrwt beam="1">  1        2 0.11269219E+00 0.89573724E+03</pdfrwt>
<pdfrwt beam="2">  1       -2 0.42128961E-01 0.89573724E+03</pdfrwt>
<totfact> 0.20702363E+02</totfact>
</mgrwt>
</event>
<event>
 6    1  0.6091287E-004  0.3855181E+04  0.7818608E-02  0.8034416E-01
          2   -1    0    0  501    0  0.00000000000E+00  0.00000000000E+00  0.19562331806E+04  0.19562331806E+04  0.00000000000E+00 0.  1.
         -2   -1    0    0    0  501 -0.00000000000E+00 -0.00000000000E+00 -0.18993669238E+04  0.18993669238E+04  0.00000000000E+00 0. -1.
         23    2    1    2    0    0  0.97493717545E+03 -0.12163674788E+04  0.11605099283E+04  0.19456048967E+04  0.92427164090E+02 0.  0.
         11    1    3    3    0    0  0.91435315590E+03 -0.11441956078E+04  0.11160652500E+04  0.18414198123E+04  0.00000000000E+00 0. -1.
        -11    1    3    3    0    0  0.60584019546E+02 -0.72171871007E+02  0.44444678306E+02  0.10418508444E+03  0.00000000000E+00 0.  1.
         22    1    1    2    0    0 -0.97493717545E+03  0.12163674788E+04 -0.11036436716E+04  0.19099952077E+04  0.00000000000E+00 0. -1.
<mgrwt>
<rscale>  0 0.38551807E+04</rscale>
<asrwt>0</asrwt>
<pdfrwt beam="1">  1        2 0.30095895E+00 0.38551807E+04</pdfrwt>
<pdfrwt beam="2">  1       -2 0.29221030E+00 0.38551807E+04</pdfrwt>
<totfact> 0.20006674E-01</totfact>
</mgrwt>
</event>
<event>
 6    1  0.6091287E-004  0.1131751E+04  0.7818608E-02  0.9174786E-01
          2   -1    0    0  501    0  0.00000000000E+00  0.00000000000E+00  0.40852980450E+03  0.40852980450E+03  0.00000000000E+00 0.  1.
         -2   -1    0    0    0  501 -0.00000000000E+00 -0.00000000000E+00 -0.78382313090E+03  0.78382313090E+03  0.00000000000E+00 0. -1.
         23    2    1    2    0    0  0.34084385549E+03 -0.20223849340E+03  0.23162571186E+03  0.46749042358E+03  0.88441413992E+02 0.  0.
         13    1    3    3    0    0  0.10663714248E+03 -0.24170353762E+02  0.86565694313E+02  0.13946076720E+03  0.00000000000E+00 0. -1.
        -13    1    3    3    0    0  0.23420671301E+03 -0.17806813964E+03  0.14506001755E+03  0.32802965638E+03  0.00000000000E+00 0.  1.
         22    1    1    2    0    0 -0.34084385549E+03  0.20223849340E+03 -0.60691903827E+03  0.72486251182E+03  0.00000000000E+00 0. -1.
<mgrwt>
<rscale>  0 0.11317511E+04</rscale>
<asrwt>0</asrwt>
<pdfrwt beam="1">  1        2 0.62850739E-01 0.11317511E+04</pdfrwt>
<pdfrwt beam="2">  1       -2 0.12058817E+00 0.11317511E+04</pdfrwt>
<totfact> 0.40346313E+01</totfact>
</mgrwt>
</event>
<event>
 6    1  0.6091287E-004  0.2259767E+04  0.7818608E-02  0.8493956E-01
         -2   -1    0    0    0  501 -0.00000000000E+00  0.00000000000E+00  0.22774922450E+04  0.22774922450E+04  0.00000000000E+00 0. -1.
          2   -1    0    0  501    0  0.00000000000E+00 -0.00000000000E+00 -0.56054481570E+03  0.56054481570E+03  0.00000000000E+00 0.  1.
         23    2    1    2    0    0 -0.36469931225E+02 -0.84227832994E+03 -0.81465109172E+02  0.85182194156E+03  0.90560560615E+02 0.  0.
         13    1    3    3    0    0 -0.22046944051E+02 -0.56087649858E+03 -0.11197725471E+02  0.56142132437E+03  0.00000000000E+00 0.  1.
        -13    1    3    3    0    0 -0.14422987174E+02 -0.28140183136E+03 -0.70267383701E+02  0.29040061719E+03  0.00000000000E+00 0. -1.
         22    1    1    2    0    0  0.36469931225E+02  0.84227832994E+03  0.17984125385E+04  0.19862151191E+04  0.00000000000E+00 0. -1.
<mgrwt>
<rscale>  0 0.22597668E+04</rscale>
<asrwt>0</asrwt>
<pdfrwt beam="1">  1        2 0.86237665E-01 0.22597668E+04</pdfrwt>
<pdfrwt beam="2">  1       -2 0.35038342E+00 0.22597668E+04</pdfrwt>
<totfact> 0.75833670E-01</totfact>
</mgrwt>
</event>
<event>
 6    1  0.6091287E-004  0.1570054E+04  0.7818608E-02  0.8839159E-01
          2   -1    0    0  501    0  0.00000000000E+00  0.00000000000E+00  0.33372416215E+04  0.33372416215E+04  0.00000000000E+00 0.  1.
         -2   -1    0    0    0  501 -0.00000000000E+00 -0.00000000000E+00 -0.18466372480E+03  0.18466372480E+03  0.00000000000E+00 0. -1.
         23    2    1    2    0    0 -0.74512472683E+03 -0.22197523189E+03  0.13867567988E+04  0.15924992170E+04  0.92062342518E+02 0.  0.
         13    1    3    3    0    0 -0.33578081361E+03 -0.55850047220E+02  0.63832973812E+03  0.72341747085E+03  0.00000000000E+00 0.  1.
        -13    1    3    3    0    0 -0.40934391322E+03 -0.16612518467E+03  0.74842706068E+03  0.86908174612E+03  0.00000000000E+00 0. -1.
         22    1    1    2    0    0  0.74512472683E+03  0.22197523189E+03  0.17658210979E+04  0.19294061293E+04  0.00000000000E+00 0. -1.
<mgrwt>
<rscale>  0 0.15700541E+04</rscale>
<asrwt>0</asrwt>
<pdfrwt beam="1">  1        2 0.51342174E+00 0.15700541E+04</pdfrwt>
<pdfrwt beam="2">  1       -2 0.28409806E-01 0.15700541E+04</pdfrwt>
<totfact> 0.11587761E+01</totfact>
</mgrwt>
</event>
<event>
 6    1  0.6091287E-004  0.4784001E+04  0.7818608E-02  0.7862719E-01
          2   -1    0    0  501    0  0.00000000000E+00  0.00000000000E+00  0.26640240974E+04  0.26640240974E+04  0.00000000000E+00 0.  1.
         -2   -1    0    0    0  501 -0.00000000000E+00 -0.00000000000E+00 -0.21477535631E+04  0.21477535631E+04  0.00000000000E+00 0. -1.
         23    2    1    2    0    0  0.98333771124E+03  0.21213247788E+04 -0.24521980153E+03  0.23527454519E+04  0.91140217197E+02 0.  0.
         13    1    3    3    0    0  0.41475604573E+03  0.85132147846E+03 -0.14040146916E+03  0.95733140015E+03  0.00000000000E+00 0. -1.
        -13    1    3    3    0    0  0.56858166551E+03  0.12700033003E+04 -0.10481833237E+03  0.13954140518E+04  0.00000000000E+00 0.  1.
         22    1    1    2    0    0 -0.98333771124E+03 -0.21213247788E+04  0.76149033576E+03  0.24590322086E+04  0.00000000000E+00 0.  1.
<mgrwt>
<rscale>  0 0.47840014E+04</rscale>
<asrwt>0</asrwt>
<pdfrwt beam="1">  1        2 0.40984986E+00 0.47840014E+04</pdfrwt>
<pdfrwt beam="2">  1       -2 0.33042363E+00 0.47840014E+04</pdfrwt>
<totfact> 0.42624997E-02</totfact>
</mgrwt>
</event>
<event>
 6    1  0.6091287E-004  0.3441501E+04  0.7818608E-02  0.8127795E-01
          2   -1    0    0  501    0  0.00000000000E+00  0.00000000000E+00  0.11396965251E+04  0.11396965251E+04  0.00000000000E+00 0.  1.
         -2   -1    0    0    0  501 -0.00000000000E+00 -0.00000000000E+00 -0.25980440529E+04  0.25980440529E+04  0.00000000000E+00 0. -1.
         23    2    1    2    0    0  0.52896371775E+03 -0.25452401038E+03 -0.24850510150E+04  0.25550719273E+04  0.91262916658E+02 0.  0.
         11    1    3    3    0    0  0.13730925414E+03 -0.10135737674E+03 -0.83600393071E+03  0.85324657706E+03  0.00000000000E+00 0. -1.
        -11    1    3    3    0    0  0.39165446361E+03 -0.15316663364E+03 -0.16490470843E+04  0.17018253502E+04  0.00000000000E+00 0.  1.
         22    1    1    2    0    0 -0.52896371775E+03  0.25452401038E+03  0.10267034873E+04  0.11826686507E+04  0.00000000000E+00 0.  1.
<mgrwt>
<rscale>  0 0.34415007E+04</rscale>
<asrwt>0</asrwt>
<pdfrwt beam="1">  1        2 0.17533793E+00 0.34415007E+04</pdfrwt>
<pdfrwt beam="2">  1       -2 0.39969908E+00 0.34415007E+04</pdfrwt>
<totfact> 0.12668877E-01</totfact>
</mgrwt>
</event>
<event>
 6    1  0.6091287E-004  0.2949952E+03  0.7818608E-02  0.1087770E+00
         -1   -1    0    0    0  501 -0.00000000000E+00  0.00000000000E+00  0.20634430668E+02  0.20634430668E+02  0.00000000000E+00 0. -1.
          1   -1    0    0  501    0  0.00000000000E+00 -0.00000000000E+00 -0.10543320137E+04  0.10543320137E+04  0.00000000000E+00 0.  1.
         23    2    1    2    0    0  0.49865899285E+02 -0.10974286084E+03 -0.36085148786E+03  0.39140812849E+03  0.91958813280E+02 0.  0.
         11    1    3    3    0    0  0.45490928027E+02 -0.83225701968E+01 -0.15714567135E+03  0.16380919306E+03  0.00000000000E+00 0.  1.
        -11    1    3    3    0    0  0.43749712587E+01 -0.10142029065E+03 -0.20370581651E+03  0.22759893543E+03  0.00000000000E+00 0. -1.
         22    1    1    2    0    0 -0.49865899285E+02  0.10974286084E+03 -0.67284609517E+03  0.68355831588E+03  0.00000000000E+00 0.  1.
<mgrwt>
<rscale>  0 0.29499519E+03</rscale>
<asrwt>0</asrwt>
<pdfrwt beam="1">  1        1 0.16220491E+00 0.29499519E+03</pdfrwt>
<pdfrwt beam="2">  1       -1 0.31745280E-02 0.29499519E+03</pdfrwt>
<totfact> 0.50600081E+03</totfact>
</mgrwt>
</event>
<event>
 6    1  0.6091287E-004  0.1508705E+04  0.7818608E-02  0.8878685E-01
          2   -1    0    0  501    0  0.00000000000E+00  0.00000000000E+00  0.15858379025E+04  0.15858379025E+04  0.00000000000E+00 0.  1.
         -2   -1    0    0    0  501 -0.00000000000E+00 -0.00000000000E+00 -0.35883075722E+03  0.35883075722E+03  0.00000000000E+00 0. -1.
         23    2    1    2    0    0 -0.27548135403E+03 -0.11383288819E+03  0.15050778412E+04  0.15370276231E+04  0.91360294337E+02 0.  0.
         11    1    3    3    0    0 -0.71030570957E+02 -0.60657008300E+02  0.32355548200E+03  0.33676811696E+03  0.00000000000E+00 0. -1.
        -11    1    3    3    0    0 -0.20445078307E+03 -0.53175879894E+02  0.11815223592E+04  0.12002595062E+04  0.00000000000E+00 0.  1.
         22    1    1    2    0    0  0.27548135403E+03  0.11383288819E+03 -0.27807069587E+03  0.40764103664E+03  0.00000000000E+00 0. -1.
<mgrwt>
<rscale>  0 0.15087046E+04</rscale>
<asrwt>0</asrwt>
<pdfrwt beam="1">  1        2 0.24397506E+00 0.15087046E+04</pdfrwt>
<pdfrwt beam="2">  1       -2 0.55204733E-01 0.15087046E+04</pdfrwt>
<totfact> 0.33826088E+01</totfact>
</mgrwt>
</event>
<event>
 6    1  0.6091287E-004  0.1275712E+04  0.7818608E-02  0.9049051E-01
          2   -1    0    0  501    0  0.00000000000E+00  0.00000000000E+00  0.29725893207E+04  0.29725893207E+04  0.00000000000E+00 0.  1.
         -2   -1    0    0    0  501 -0.00000000000E+00 -0.00000000000E+00 -0.13687069517E+03  0.13687069517E+03  0.00000000000E+00 0. -1.
         23    2    1    2    0    0 -0.15967988973E+03 -0.60351078097E+03  0.11439476795E+04  0.13061819276E+04  0.88158973243E+02 0.  0.
         13    1    3    3    0    0 -0.14967568412E+03 -0.40655930281E+03  0.79207727971E+03  0.90281764169E+03  0.00000000000E+00 0.  1.
        -13    1    3    3    0    0 -0.10004205616E+02 -0.19695147816E+03  0.35187039982E+03  0.40336428591E+03  0.00000000000E+00 0. -1.
         22    1    1    2    0    0  0.15967988973E+03  0.60351078097E+03  0.16917709460E+04  0.18032780883E+04  0.00000000000E+00 0.  1.
<mgrwt>
<rscale>  0 0.12757121E+04</rscale>
<asrwt>0</asrwt>
<pdfrwt beam="1">  1        2 0.45732139E+00 0.12757121E+04</pdfrwt>
<pdfrwt beam="2">  1       -2 0.21057032E-01 0.12757121E+04</pdfrwt>
<totfact> 0.35113432E+01</totfact>
</mgrwt>
</event>
<event>
 6    1  0.6091287E-004  0.7001862E+03  0.7818608E-02  0.9716914E-01
          2   -1    0    0  501    0  0.00000000000E+00  0.00000000000E+00  0.14426127088E+04  0.14426127088E+04  0.00000000000E+00 0.  1.
         -2   -1    0    0    0  501 -0.00000000000E+00 -0.00000000000E+00 -0.84960551486E+02  0.84960551486E+02  0.00000000000E+00 0. -1.
         23    2    1    2    0    0 -0.11802287860E+03 -0.20166955764E+03  0.12417416341E+04  0.12667375654E+04  0.90009795480E+02 0.  0.
         11    1    3    3    0    0 -0.93535731160E+02 -0.16929133795E+03  0.11535400081E+04  0.11696422703E+04  0.00000000000E+00 0. -1.
        -11    1    3    3    0    0 -0.24487147436E+02 -0.32378219691E+02  0.88201626007E+02  0.97095295098E+02  0.00000000000E+00 0.  1.
         22    1    1    2    0    0  0.11802287860E+03  0.20166955764E+03  0.11591052320E+03  0.26083569491E+03  0.00000000000E+00 0. -1.
<mgrwt>
<rscale>  0 0.70018618E+03</rscale>
<asrwt>0</asrwt>
<pdfrwt beam="1">  1        2 0.22194040E+00 0.70018618E+03</pdfrwt>
<pdfrwt beam="2">  1       -2 0.13070855E-01 0.70018618E+03</pdfrwt>
<totfact> 0.61245346E+02</totfact>
</mgrwt>
</event>
<event>
 6    1  0.6091287E-004  0.6908509E+03  0.7818608E-02  0.9733008E-01
         -2   -1    0    0    0  501 -0.00000000000E+00  0.00000000000E+00  0.43171160574E+02  0.43171160574E+02  0.00000000000E+00 0. -1.
          2   -1    0    0  501    0  0.00000000000E+00 -0.00000000000E+00 -0.27638529573E+04  0.27638529573E+04  0.00000000000E+00 0.  1.
         23    2    1    2    0    0 -0.95177285512E+02  0.29594183472E+03 -0.19378657050E+04  0.19647407222E+04  0.90787276264E+02 0.  0.
         11    1    3    3    0    0 -0.15066256830E+02  0.73474861608E+02 -0.73779661588E+03  0.74159921371E+03  0.00000000000E+00 0. -1.
        -11    1    3    3    0    0 -0.80111028682E+02  0.22246697311E+03 -0.12000690891E+04  0.12231415084E+04  0.00000000000E+00 0.  1.
         22    1    1    2    0    0  0.95177285512E+02 -0.29594183472E+03 -0.78281609176E+03  0.84228339573E+03  0.00000000000E+00 0.  1.
<mgrwt>
<rscale>  0 0.69085090E+03</rscale>
<asrwt>0</asrwt>
<pdfrwt beam="1">  1        2 0.42520801E+00 0.69085090E+03</pdfrwt>
<pdfrwt beam="2">  1       -2 0.66417192E-02 0.69085090E+03</pdfrwt>
<totfact> 0.33870651E+02</totfact>
</mgrwt>
</event>
<event>
 6    1  0.6091287E-004  0.1652767E+04  0.7818608E-02  0.8788771E-01
         -2   -1    0    0    0  501 -0.00000000000E+00  0.00000000000E+00  0.34942457160E+03  0.34942457160E+03  0.00000000000E+00 0.  1.
          2   -1    0    0  501    0  0.00000000000E+00 -0.00000000000E+00 -0.19543838635E+04  0.19543838635E+04  0.00000000000E+00 0. -1.
         23    2    1    2    0    0  0.10829385122E+03  0.44944455244E+03 -0.17556086679E+04  0.18175747481E+04  0.87682416529E+02 0.  0.
         13    1    3    3    0    0  0.47687765923E+02  0.63232541086E+02 -0.26830471373E+03  0.27974970363E+03  0.00000000000E+00 0. -1.
        -13    1    3    3    0    0  0.60606085295E+02  0.38621201135E+03 -0.14873039542E+04  0.15378250445E+04  0.00000000000E+00 0.  1.
         22    1    1    2    0    0 -0.10829385122E+03 -0.44944455244E+03  0.15064937598E+03  0.48623368704E+03  0.00000000000E+00 0.  1.
<mgrwt>
<rscale>  0 0.16527671E+04</rscale>
<asrwt>0</asrwt>
<pdfrwt beam="1">  1        2 0.30067444E+00 0.16527671E+04</pdfrwt>
<pdfrwt beam="2">  1       -2 0.53757627E-01 0.16527671E+04</pdfrwt>
<totfact> 0.22055569E+01</totfact>
</mgrwt>
</event>
<event>
 6    1  0.6091287E-004  0.4330214E+04  0.7818608E-02  0.7941055E-01
         -2   -1    0    0    0  501 -0.00000000000E+00  0.00000000000E+00  0.12701329038E+04  0.12701329038E+04  0.00000000000E+00 0. -1.
          2   -1    0    0  501    0  0.00000000000E+00 -0.00000000000E+00 -0.36907064663E+04  0.36907064663E+04  0.00000000000E+00 0.  1.
         23    2    1    2    0    0 -0.94932857505E+03 -0.12347267936E+03 -0.34343505384E+04  0.35664886241E+04  0.92775210381E+02 0.  0.
         11    1    3    3    0    0 -0.36644388457E+03 -0.33431058654E+02 -0.14817688505E+04  0.15267736186E+04  0.00000000000E+00 0. -1.
        -11    1    3    3    0    0 -0.58288469048E+03 -0.90041620708E+02 -0.19525816879E+04  0.20397150055E+04  0.00000000000E+00 0.  1.
         22    1    1    2    0    0  0.94932857505E+03  0.12347267936E+03  0.10137769758E+04  0.13943507459E+04  0.00000000000E+00 0. -1.
<mgrwt>
<rscale>  0 0.43302137E+04</rscale>
<asrwt>0</asrwt>
<pdfrwt beam="1">  1        2 0.56780098E+00 0.43302137E+04</pdfrwt>
<pdfrwt beam="2">  1       -2 0.19540507E+00 0.43302137E+04</pdfrwt>
<totfact> 0.64802485E-02</totfact>
</mgrwt>
</event>
<event>
 6    1  0.6091287E-004  0.1533368E+04  0.7818608E-02  0.8862562E-01
         -2   -1    0    0    0  501 -0.00000000000E+00  0.00000000000E+00  0.25490463425E+03  0.25490463425E+03  0.00000000000E+00 0. -1.
          2   -1    0    0  501    0  0.00000000000E+00 -0.00000000000E+00 -0.23059768409E+04  0.23059768409E+04  0.00000000000E+00 0.  1.
         23    2    1    2    0    0 -0.34293174786E+03  0.97731774979E+02 -0.21575634130E+04  0.21887335737E+04  0.91220019770E+02 0.  0.
         13    1    3    3    0    0 -0.20418312640E+03  0.31123947645E+02 -0.14490907585E+04  0.14637361359E+04  0.00000000000E+00 0. -1.
        -13    1    3    3    0    0 -0.13874862146E+03  0.66607827334E+02 -0.70847265448E+03  0.72499743777E+03  0.00000000000E+00 0.  1.
         22    1    1    2    0    0  0.34293174786E+03 -0.97731774979E+02  0.10649120634E+03  0.37214790146E+03  0.00000000000E+00 0. -1.
<mgrwt>
<rscale>  0 0.15333678E+04</rscale>
<asrwt>0</asrwt>
<pdfrwt beam="1">  1        2 0.35476568E+00 0.15333678E+04</pdfrwt>
<pdfrwt beam="2">  1       -2 0.39216096E-01 0.15333678E+04</pdfrwt>
<totfact> 0.26691473E+01</totfact>
</mgrwt>
</event>
<event>
 6    1  0.6337890E-004  0.3047038E+04  0.7818608E-02  0.8230425E-01
          2   -1    0    0  501    0  0.00000000000E+00  0.00000000000E+00  0.14349495282E+04  0.14349495282E+04  0.00000000000E+00 0.  1.
         -2   -1    0    0    0  501 -0.00000000000E+00 -0.00000000000E+00 -0.16175554985E+04  0.16175554985E+04  0.00000000000E+00 0. -1.
         23    2    1    2    0    0 -0.13032380256E+04 -0.57533101545E+03  0.44597185125E+03  0.14954099087E+04  0.89021202045E+02 0.  0.
         13    1    3    3    0    0 -0.52138186738E+03 -0.27802892982E+03  0.18706927841E+03  0.61978548899E+03  0.00000000000E+00 0. -1.
        -13    1    3    3    0    0 -0.78185615819E+03 -0.29730208563E+03  0.25890257284E+03  0.87562441974E+03  0.00000000000E+00 0.  1.
         22    1    1    2    0    0  0.13032380256E+04  0.57533101545E+03 -0.62857782158E+03  0.15570951180E+04  0.00000000000E+00 0.  1.
<mgrwt>
<rscale>  0 0.30470382E+04</rscale>
<asrwt>0</asrwt>
<pdfrwt beam="1">  1        2 0.22076147E+00 0.30470382E+04</pdfrwt>
<pdfrwt beam="2">  1       -2 0.24885469E+00 0.30470382E+04</pdfrwt>
<totfact> 0.76972103E-01</totfact>
</mgrwt>
</event>
<event>
 6    1  0.6091287E-004  0.2418826E+04  0.7818608E-02  0.8432489E-01
          2   -1    0    0  501    0  0.00000000000E+00  0.00000000000E+00  0.18057475540E+04  0.18057475540E+04  0.00000000000E+00 0.  1.
         -2   -1    0    0    0  501 -0.00000000000E+00 -0.00000000000E+00 -0.81001321488E+03  0.81001321488E+03  0.00000000000E+00 0. -1.
         23    2    1    2    0    0 -0.14809304755E+03 -0.18858140242E+03  0.17785964756E+04  0.17970009624E+04  0.91173131635E+02 0.  0.
         13    1    3    3    0    0 -0.15227632169E+03 -0.19447683722E+03  0.17557256737E+04  0.17730149350E+04  0.00000000000E+00 0. -1.
        -13    1    3    3    0    0  0.41832741377E+01  0.58954347966E+01  0.22870801838E+02  0.23986027405E+02  0.00000000000E+00 0.  1.
         22    1    1    2    0    0  0.14809304755E+03  0.18858140242E+03 -0.78286213643E+03  0.81875980649E+03  0.00000000000E+00 0. -1.
<mgrwt>
<rscale>  0 0.24188257E+04</rscale>
<asrwt>0</asrwt>
<pdfrwt beam="1">  1        2 0.27780732E+00 0.24188257E+04</pdfrwt>
<pdfrwt beam="2">  1       -2 0.12461742E+00 0.24188257E+04</pdfrwt>
<totfact> 0.37163315E+00</totfact>
</mgrwt>
</event>
<event>
 6    1  0.6091287E-004  0.8046255E+03  0.7818608E-02  0.9553346E-01
          2   -1    0    0  501    0  0.00000000000E+00  0.00000000000E+00  0.17731047092E+03  0.17731047092E+03  0.00000000000E+00 0.  1.
         -2   -1    0    0    0  501 -0.00000000000E+00 -0.00000000000E+00 -0.91283701760E+03  0.91283701760E+03  0.00000000000E+00 0. -1.
         23    2    1    2    0    0 -0.19945581677E+02 -0.39633112817E+03 -0.34619882482E+03  0.53422279543E+03  0.89800776522E+02 0.  0.
         11    1    3    3    0    0  0.20253936545E+02 -0.21802391432E+03 -0.14621822382E+03  0.26329530596E+03  0.00000000000E+00 0.  1.
        -11    1    3    3    0    0 -0.40199518221E+02 -0.17830721385E+03 -0.19998060100E+03  0.27092748947E+03  0.00000000000E+00 0. -1.
         22    1    1    2    0    0  0.19945581677E+02  0.39633112817E+03 -0.38932772185E+03  0.55592469309E+03  0.00000000000E+00 0. -1.
<mgrwt>
<rscale>  0 0.80462553E+03</rscale>
<asrwt>0</asrwt>
<pdfrwt beam="1">  1        2 0.27278534E-01 0.80462553E+03</pdfrwt>
<pdfrwt beam="2">  1       -2 0.14043647E+00 0.80462553E+03</pdfrwt>
<totfact> 0.71185328E+01</totfact>
</mgrwt>
</event>
<event>
 6    1  0.6091287E-004  0.9843696E+03  0.7818608E-02  0.9325856E-01
          2   -1    0    0  501    0  0.00000000000E+00  0.00000000000E+00  0.12238391563E+04  0.12238391563E+04  0.00000000000E+00 0.  1.
         -2   -1    0    0    0  501 -0.00000000000E+00 -0.00000000000E+00 -0.19793931451E+03  0.19793931451E+03  0.00000000000E+00 0. -1.
         23    2    1    2    0    0  0.36715640345E+03  0.32120295216E+03  0.48863510892E+03  0.69608669447E+03  0.88302069531E+02 0.  0.
         13    1    3    3    0    0  0.25570058013E+03  0.17364493412E+03  0.27704380929E+03  0.41507664605E+03  0.00000000000E+00 0.  1.
        -13    1    3    3    0    0  0.11145582332E+03  0.14755801803E+03  0.21159129963E+03  0.28101004843E+03  0.00000000000E+00 0. -1.
         22    1    1    2    0    0 -0.36715640345E+03 -0.32120295216E+03  0.53726473289E+03  0.72569177636E+03  0.00000000000E+00 0.  1.
<mgrwt>
<rscale>  0 0.98436961E+03</rscale>
<asrwt>0</asrwt>
<pdfrwt beam="1">  1        2 0.18828294E+00 0.98436961E+03</pdfrwt>
<pdfrwt beam="2">  1       -2 0.30452203E-01 0.98436961E+03</pdfrwt>
<totfact> 0.18235757E+02</totfact>
</mgrwt>
</event>
<event>
 6    1  0.6091287E-004  0.3493350E+04  0.7818608E-02  0.8115368E-01
         -2   -1    0    0    0  501 -0.00000000000E+00  0.00000000000E+00  0.13407850499E+04  0.13407850499E+04  0.00000000000E+00 0. -1.
          2   -1    0    0  501    0  0.00000000000E+00 -0.00000000000E+00 -0.22754382922E+04  0.22754382922E+04  0.00000000000E+00 0.  1.
         23    2    1    2    0    0  0.12917418652E+03 -0.39318426577E+03  0.12877095600E+04  0.13556534444E+04  0.91216846454E+02 0.  0.
         13    1    3    3    0    0  0.86134480432E+02 -0.33811383184E+03  0.98474078889E+03  0.10447270138E+04  0.00000000000E+00 0.  1.
        -13    1    3    3    0    0  0.43039706087E+02 -0.55070433934E+02  0.30296877112E+03  0.31092643064E+03  0.00000000000E+00 0. -1.
         22    1    1    2    0    0 -0.12917418652E+03  0.39318426577E+03 -0.22223628024E+04  0.22605698977E+04  0.00000000000E+00 0.  1.
<mgrwt>
<rscale>  0 0.34933501E+04</rscale>
<asrwt>0</asrwt>
<pdfrwt beam="1">  1        2 0.35006743E+00 0.34933501E+04</pdfrwt>
<pdfrwt beam="2">  1       -2 0.20627462E+00 0.34933501E+04</pdfrwt>
<totfact> 0.46583411E-01</totfact>
</mgrwt>
</event>
<event>
 6    1  0.6091287E-004  0.8293521E+03  0.7818608E-02  0.9518477E-01
          2   -1    0    0  501    0  0.00000000000E+00  0.00000000000E+00  0.31917946833E+04  0.31917946833E+04  0.00000000000E+00 0.  1.
         -2   -1    0    0    0  501 -0.00000000000E+00 -0.00000000000E+00 -0.53874457295E+02  0.53874457295E+02  0.00000000000E+00 0. -1.
         23    2    1    2    0    0  0.40033509276E+03 -0.25921940174E+02  0.12623547548E+04  0.13276790546E+04  0.90840582309E+02 0.  0.
         13    1    3    3    0    0  0.11868015521E+03  0.10156590380E+02  0.50457888984E+03  0.51844767493E+03  0.00000000000E+00 0.  1.
        -13    1    3    3    0    0  0.28165493755E+03 -0.36078530554E+02  0.75777586498E+03  0.80923137962E+03  0.00000000000E+00 0. -1.
         22    1    1    2    0    0 -0.40033509276E+03  0.25921940174E+02  0.18755654712E+04  0.19179900861E+04  0.00000000000E+00 0.  1.
<mgrwt>
<rscale>  0 0.82935205E+03</rscale>
<asrwt>0</asrwt>
<pdfrwt beam="1">  1        2 0.49104519E+00 0.82935205E+03</pdfrwt>
<pdfrwt beam="2">  1       -2 0.82883806E-02 0.82935205E+03</pdfrwt>
<totfact> 0.12848237E+02</totfact>
</mgrwt>
</event>
<event>
 6    1  0.6091287E-004  0.1700663E+04  0.7818608E-02  0.8760987E-01
         -1   -1    0    0    0  501 -0.00000000000E+00  0.00000000000E+00  0.38301728382E+03  0.38301728382E+03  0.00000000000E+00 0. -1.
          1   -1    0    0  501    0  0.00000000000E+00 -0.00000000000E+00 -0.18878086871E+04  0.18878086871E+04  0.00000000000E+00 0.  1.
         23    2    1    2    0    0 -0.54176529443E+03 -0.51725103178E+03 -0.12851268306E+04  0.14902423504E+04  0.90625758422E+02 0.  0.
         13    1    3    3    0    0 -0.50699976539E+03 -0.45005353689E+03 -0.11768686607E+04  0.13581667028E+04  0.00000000000E+00 0. -1.
        -13    1    3    3    0    0 -0.34765529041E+02 -0.67197494895E+02 -0.10825816989E+03  0.13207564756E+03  0.00000000000E+00 0.  1.
         22    1    1    2    0    0  0.54176529443E+03  0.51725103178E+03 -0.21966457268E+03  0.78058362052E+03  0.00000000000E+00 0. -1.
<mgrwt>
<rscale>  0 0.17006626E+04</rscale>
<asrwt>0</asrwt>
<pdfrwt beam="1">  1        1 0.29043211E+00 0.17006626E+04</pdfrwt>
<pdfrwt beam="2">  1       -1 0.58925735E-01 0.17006626E+04</pdfrwt>
<totfact> 0.98649033E+00</totfact>
</mgrwt>
</event>
<event>
 6    1  0.6091287E-004  0.3163046E+04  0.7818608E-02  0.8198645E-01
          2   -1    0    0  501    0  0.00000000000E+00  0.00000000000E+00  0.17980767707E+04  0.17980767707E+04  0.00000000000E+00 0. -1.
         -2   -1    0    0    0  501 -0.00000000000E+00 -0.00000000000E+00 -0.13910503943E+04  0.13910503943E+04  0.00000000000E+00 0.  1.
         23    2    1    2    0    0 -0.66325746971E+03  0.56809190945E+03 -0.11242459577E+04  0.14263356714E+04  0.88688136741E+02 0.  0.
         11    1    3    3    0    0 -0.13498331341E+03  0.93739462260E+02 -0.26359015384E+03  0.31062413120E+03  0.00000000000E+00 0. -1.
        -11    1    3    3    0    0 -0.52827415630E+03  0.47435244719E+03 -0.86065580382E+03  0.11157115402E+04  0.00000000000E+00 0.  1.
         22    1    1    2    0    0  0.66325746971E+03 -0.56809190945E+03  0.15312723341E+04  0.17627914936E+04  0.00000000000E+00 0. -1.
<mgrwt>
<rscale>  0 0.31630463E+04</rscale>
<asrwt>0</asrwt>
<pdfrwt beam="1">  1        2 0.27662720E+00 0.31630463E+04</pdfrwt>
<pdfrwt beam="2">  1       -2 0.21400775E+00 0.31630463E+04</pdfrwt>
<totfact> 0.78851881E-01</totfact>
</mgrwt>
</event>
<event>
 6    1  0.6091287E-004  0.4450487E+04  0.7818608E-02  0.7919363E-01
          2   -1    0    0  501    0  0.00000000000E+00  0.00000000000E+00  0.40225341963E+04  0.40225341963E+04  0.00000000000E+00 0.  1.
         -2   -1    0    0    0  501 -0.00000000000E+00 -0.00000000000E+00 -0.12309921078E+04  0.12309921078E+04  0.00000000000E+00 0. -1.
         23    2    1    2    0    0  0.10513027434E+04  0.79704531143E+03  0.35103940043E+04  0.37511060021E+04  0.86089991793E+02 0.  0.
         11    1    3    3    0    0  0.81799191533E+03  0.57381726650E+03  0.26488379465E+04  0.28310279928E+04  0.00000000000E+00 0. -1.
        -11    1    3    3    0    0  0.23331082805E+03  0.22322804493E+03  0.86155605780E+03  0.92007800933E+03  0.00000000000E+00 0.  1.
         22    1    1    2    0    0 -0.10513027434E+04 -0.79704531143E+03 -0.71885191582E+03  0.15024203019E+04  0.00000000000E+00 0. -1.
<mgrwt>
<rscale>  0 0.44504866E+04</rscale>
<asrwt>0</asrwt>
<pdfrwt beam="1">  1        2 0.61885141E+00 0.44504866E+04</pdfrwt>
<pdfrwt beam="2">  1       -2 0.18938340E+00 0.44504866E+04</pdfrwt>
<totfact> 0.38877294E-02</totfact>
</mgrwt>
</event>
<event>
 6    1  0.6091287E-004  0.3401017E+04  0.7818608E-02  0.8137657E-01
         -2   -1    0    0    0  501 -0.00000000000E+00  0.00000000000E+00  0.87944775645E+03  0.87944775645E+03  0.00000000000E+00 0. -1.
          2   -1    0    0  501    0  0.00000000000E+00 -0.00000000000E+00 -0.32881191562E+04  0.32881191562E+04  0.00000000000E+00 0.  1.
         23    2    1    2    0    0 -0.84792901966E+02 -0.15687597378E+04 -0.41102093720E+03  0.16261491348E+04  0.85004978942E+02 0.  0.
         11    1    3    3    0    0 -0.46250448715E+02 -0.84185573218E+03 -0.17673175687E+03  0.86144894898E+03  0.00000000000E+00 0.  1.
        -11    1    3    3    0    0 -0.38542453252E+02 -0.72690400564E+03 -0.23428918033E+03  0.76470018578E+03  0.00000000000E+00 0. -1.
         22    1    1    2    0    0  0.84792901966E+02  0.15687597378E+04 -0.19976504626E+04  0.25414177779E+04  0.00000000000E+00 0.  1.
<mgrwt>
<rscale>  0 0.34010169E+04</rscale>
<asrwt>0</asrwt>
<pdfrwt beam="1">  1        2 0.50586448E+00 0.34010169E+04</pdfrwt>
<pdfrwt beam="2">  1       -2 0.13529966E+00 0.34010169E+04</pdfrwt>
<totfact> 0.36818512E-01</totfact>
</mgrwt>
</event>
<event>
 6    1  0.6091287E-004  0.3560346E+04  0.7818608E-02  0.8099636E-01
         -2   -1    0    0    0  501 -0.00000000000E+00  0.00000000000E+00  0.10102681199E+04  0.10102681199E+04  0.00000000000E+00 0. -1.
          2   -1    0    0  501    0  0.00000000000E+00 -0.00000000000E+00 -0.31368066194E+04  0.31368066194E+04  0.00000000000E+00 0.  1.
         23    2    1    2    0    0  0.46604813432E+03 -0.15889113321E+04 -0.18210822437E+04  0.24632862701E+04  0.97972574296E+02 0.  0.
         11    1    3    3    0    0  0.27343561040E+03 -0.10208145946E+04 -0.12203784509E+04  0.16143583967E+04  0.00000000000E+00 0.  1.
        -11    1    3    3    0    0  0.19261252392E+03 -0.56809673755E+03 -0.60070379284E+03  0.84892787345E+03  0.00000000000E+00 0. -1.
         22    1    1    2    0    0 -0.46604813432E+03  0.15889113321E+04 -0.30545625579E+03  0.16837884692E+04  0.00000000000E+00 0.  1.
<mgrwt>
<rscale>  0 0.35603459E+04</rscale>
<asrwt>0</asrwt>
<pdfrwt beam="1">  1        2 0.48258563E+00 0.35603459E+04</pdfrwt>
<pdfrwt beam="2">  1       -2 0.15542587E+00 0.35603459E+04</pdfrwt>
<totfact> 0.31725540E-01</totfact>
</mgrwt>
</event>
<event>
 6    1  0.6091287E-004  0.4896997E+04  0.7818608E-02  0.7844596E-01
         -2   -1    0    0    0  501 -0.00000000000E+00  0.00000000000E+00  0.21397233887E+04  0.21397233887E+04  0.00000000000E+00 0.  1.
          2   -1    0    0  501    0  0.00000000000E+00 -0.00000000000E+00 -0.28018314962E+04  0.28018314962E+04  0.00000000000E+00 0. -1.
         23    2    1    2    0    0 -0.19881166273E+04 -0.13381193808E+04 -0.83357898878E+03  0.25389368411E+04  0.90416543827E+02 0.  0.
         11    1    3    3    0    0 -0.13418363920E+04 -0.85437771161E+03 -0.53837729913E+03  0.16793856892E+04  0.00000000000E+00 0. -1.
        -11    1    3    3    0    0 -0.64628023533E+03 -0.48374166922E+03 -0.29520168966E+03  0.85955115188E+03  0.00000000000E+00 0.  1.
         22    1    1    2    0    0  0.19881166273E+04  0.13381193808E+04  0.17147088124E+03  0.24026180438E+04  0.00000000000E+00 0.  1.
<mgrwt>
<rscale>  0 0.48969968E+04</rscale>
<asrwt>0</asrwt>
<pdfrwt beam="1">  1        2 0.43105100E+00 0.48969968E+04</pdfrwt>
<pdfrwt beam="2">  1       -2 0.32918821E+00 0.48969968E+04</pdfrwt>
<totfact> 0.35548164E-02</totfact>
</mgrwt>
</event>
<event>
 6    1  0.6091287E-004  0.1111847E+04  0.7818608E-02  0.9193721E-01
         -1   -1    0    0    0  501 -0.00000000000E+00  0.00000000000E+00  0.44885578505E+03  0.44885578505E+03  0.00000000000E+00 0. -1.
          1   -1    0    0  501    0  0.00000000000E+00 -0.00000000000E+00 -0.68853039072E+03  0.68853039072E+03  0.00000000000E+00 0.  1.
         23    2    1    2    0    0 -0.98971610296E+02  0.54034511947E+03 -0.17869121343E+03  0.58467720903E+03  0.90269935353E+02 0.  0.
         11    1    3    3    0    0 -0.79420653950E+01  0.27960281400E+03 -0.10568340234E+03  0.29901470119E+03  0.00000000000E+00 0.  1.
        -11    1    3    3    0    0 -0.91029544901E+02  0.26074230547E+03 -0.73007811094E+02  0.28566250784E+03  0.00000000000E+00 0. -1.
         22    1    1    2    0    0  0.98971610296E+02 -0.54034511947E+03 -0.60983392235E+02  0.55270896673E+03  0.00000000000E+00 0. -1.
<mgrwt>
<rscale>  0 0.11118468E+04</rscale>
<asrwt>0</asrwt>
<pdfrwt beam="1">  1        1 0.10592775E+00 0.11118468E+04</pdfrwt>
<pdfrwt beam="2">  1       -1 0.69054736E-01 0.11118468E+04</pdfrwt>
<totfact> 0.59038706E+01</totfact>
</mgrwt>
</event>
<event>
 6    1  0.6091287E-004  0.1291703E+04  0.7818608E-02  0.9036171E-01
         -2   -1    0    0    0  501 -0.00000000000E+00  0.00000000000E+00  0.33515976207E+03  0.33515976207E+03  0.00000000000E+00 0. -1.
          2   -1    0    0  501    0  0.00000000000E+00 -0.00000000000E+00 -0.12445524883E+04  0.12445524883E+04  0.00000000000E+00 0.  1.
         23    2    1    2    0    0  0.11412860583E+02 -0.53718318046E+03 -0.26286320304E+02  0.54599422936E+03  0.93395423344E+02 0.  0.
         11    1    3    3    0    0 -0.19677039301E+02 -0.28849782920E+03 -0.52889256125E+02  0.29396506041E+03  0.00000000000E+00 0.  1.
        -11    1    3    3    0    0  0.31089899884E+02 -0.24868535126E+03  0.26602935821E+02  0.25202916895E+03  0.00000000000E+00 0. -1.
         22    1    1    2    0    0 -0.11412860583E+02  0.53718318046E+03 -0.88310640588E+03  0.10337180210E+04  0.00000000000E+00 0.  1.
<mgrwt>
<rscale>  0 0.12917026E+04</rscale>
<asrwt>0</asrwt>
<pdfrwt beam="1">  1        2 0.19146961E+00 0.12917026E+04</pdfrwt>
<pdfrwt beam="2">  1       -2 0.51563041E-01 0.12917026E+04</pdfrwt>
<totfact> 0.62077026E+01</totfact>
</mgrwt>
</event>
<event>
 6    1  0.6091287E-004  0.3900295E+04  0.7818608E-02  0.8024968E-01
         -2   -1    0    0    0  501 -0.00000000000E+00  0.00000000000E+00  0.98794763077E+03  0.98794763077E+03  0.00000000000E+00 0. -1.
          2   -1    0    0  501    0  0.00000000000E+00 -0.00000000000E+00 -0.38494703347E+04  0.38494703347E+04  0.00000000000E+00 0.  1.
         23    2    1    2    0    0 -0.21753781341E+03 -0.14516353523E+04  0.15900967299E+03  0.14791172439E+04  0.89083381216E+02 0.  0.
         13    1    3    3    0    0 -0.51085619495E+02 -0.28203206760E+03 -0.32386571060E+01  0.28663969818E+03  0.00000000000E+00 0.  1.
        -13    1    3    3    0    0 -0.16645219391E+03 -0.11696032847E+04  0.16224833010E+03  0.11924775457E+04  0.00000000000E+00 0. -1.
         22    1    1    2    0    0  0.21753781341E+03  0.14516353523E+04 -0.30205323769E+04  0.33583007215E+04  0.00000000000E+00 0.  1.
<mgrwt>
<rscale>  0 0.39002949E+04</rscale>
<asrwt>0</asrwt>
<pdfrwt beam="1">  1        2 0.59222621E+00 0.39002949E+04</pdfrwt>
<pdfrwt beam="2">  1       -2 0.15199194E+00 0.39002949E+04</pdfrwt>
<totfact> 0.10323204E-01</totfact>
</mgrwt>
</event>
<event>
 6    1  0.6091287E-004  0.1677569E+04  0.7818608E-02  0.8774262E-01
         -2   -1    0    0    0  501 -0.00000000000E+00  0.00000000000E+00  0.50699377972E+03  0.50699377972E+03  0.00000000000E+00 0. -1.
          2   -1    0    0  501    0  0.00000000000E+00 -0.00000000000E+00 -0.13877084597E+04  0.13877084597E+04  0.00000000000E+00 0.  1.
         23    2    1    2    0    0 -0.12878892496E+03 -0.81300124971E+03 -0.60871158100E+03  0.10277862660E+04  0.90869139020E+02 0.  0.
         11    1    3    3    0    0 -0.10824583502E+03 -0.40052352931E+03 -0.31786540123E+03  0.52266114417E+03  0.00000000000E+00 0. -1.
        -11    1    3    3    0    0 -0.20543089938E+02 -0.41247772040E+03 -0.29084617977E+03  0.50512512178E+03  0.00000000000E+00 0.  1.
         22    1    1    2    0    0  0.12878892496E+03  0.81300124971E+03 -0.27200309901E+03  0.86691597349E+03  0.00000000000E+00 0.  1.
<mgrwt>
<rscale>  0 0.16775691E+04</rscale>
<asrwt>0</asrwt>
<pdfrwt beam="1">  1        2 0.21349361E+00 0.16775691E+04</pdfrwt>
<pdfrwt beam="2">  1       -2 0.77999043E-01 0.16775691E+04</pdfrwt>
<totfact> 0.20513385E+01</totfact>
</mgrwt>
</event>
<event>
 6    1  0.6091287E-004  0.6033025E+03  0.7818608E-02  0.9898578E-01
         -2   -1    0    0    0  501 -0.00000000000E+00  0.00000000000E+00  0.13690158033E+03  0.13690158033E+03  0.00000000000E+00 0. -1.
          2   -1    0    0  501    0  0.00000000000E+00 -0.00000000000E+00 -0.66466352383E+03  0.66466352383E+03  0.00000000000E+00 0.  1.
         23    2    1    2    0    0  0.28065640601E+03  0.75787657241E+02 -0.19023407126E+03  0.35610258972E+03  0.78155392091E+02 0.  0.
         13    1    3    3    0    0  0.25983720552E+03  0.81937355746E+02 -0.15160155795E+03  0.31178860789E+03  0.00000000000E+00 0. -1.
        -13    1    3    3    0    0  0.20819200491E+02 -0.61496985054E+01 -0.38632513310E+02  0.44313981828E+02  0.00000000000E+00 0.  1.
         22    1    1    2    0    0 -0.28065640601E+03 -0.75787657241E+02 -0.33752787224E+03  0.44546251443E+03  0.00000000000E+00 0.  1.
<mgrwt>
<rscale>  0 0.60330253E+03</rscale>
<asrwt>0</asrwt>
<pdfrwt beam="1">  1        2 0.10225593E+00 0.60330253E+03</pdfrwt>
<pdfrwt beam="2">  1       -2 0.21061781E-01 0.60330253E+03</pdfrwt>
<totfact> 0.85600044E+02</totfact>
</mgrwt>
</event>
<event>
 6    1  0.6091287E-004  0.2570492E+04  0.7818608E-02  0.8378294E-01
          2   -1    0    0  501    0  0.00000000000E+00  0.00000000000E+00  0.20707712886E+04  0.20707712886E+04  0.00000000000E+00 0.  1.
         -2   -1    0    0    0  501 -0.00000000000E+00 -0.00000000000E+00 -0.79770157187E+03  0.79770157187E+03  0.00000000000E+00 0. -1.
         23    2    1    2    0    0  0.21403694882E+03  0.34241607163E+03 -0.72240800762E+03  0.83254753522E+03  0.90562063551E+02 0.  0.
         13    1    3    3    0    0  0.79315586099E+02  0.57625416275E+02 -0.19347809556E+03  0.21689957184E+03  0.00000000000E+00 0. -1.
        -13    1    3    3    0    0  0.13472136272E+03  0.28479065536E+03 -0.52892991206E+03  0.61564796339E+03  0.00000000000E+00 0.  1.
         22    1    1    2    0    0 -0.21403694882E+03 -0.34241607163E+03  0.19954777244E+04  0.20359253253E+04  0.00000000000E+00 0.  1.
<mgrwt>
<rscale>  0 0.25704922E+04</rscale>
<asrwt>0</asrwt>
<pdfrwt beam="1">  1        2 0.31858020E+00 0.25704922E+04</pdfrwt>
<pdfrwt beam="2">  1       -2 0.12272332E+00 0.25704922E+04</pdfrwt>
<totfact> 0.27162045E+00</totfact>
</mgrwt>
</event>
<event>
 6    1  0.6091287E-004  0.2095909E+04  0.7818608E-02  0.8563048E-01
          1   -1    0    0  501    0  0.00000000000E+00  0.00000000000E+00  0.66640639331E+03  0.66640639331E+03  0.00000000000E+00 0.  1.
         -1   -1    0    0    0  501 -0.00000000000E+00 -0.00000000000E+00 -0.16479564133E+04  0.16479564133E+04  0.00000000000E+00 0. -1.
         23    2    1    2    0    0 -0.96804849725E+03  0.39447590798E+03 -0.53373351372E+03  0.11771430573E+04  0.89806339725E+02 0.  0.
         13    1    3    3    0    0 -0.71450351864E+03  0.27822613753E+03 -0.43306341441E+03  0.88060716705E+03  0.00000000000E+00 0.  1.
        -13    1    3    3    0    0 -0.25354497861E+03  0.11624977045E+03 -0.10067009931E+03  0.29653589024E+03  0.00000000000E+00 0. -1.
         22    1    1    2    0    0  0.96804849725E+03 -0.39447590798E+03 -0.44781650630E+03  0.11372197493E+04  0.00000000000E+00 0. -1.
<mgrwt>
<rscale>  0 0.20959091E+04</rscale>
<asrwt>0</asrwt>
<pdfrwt beam="1">  1        1 0.10252406E+00 0.20959091E+04</pdfrwt>
<pdfrwt beam="2">  1       -1 0.25353175E+00 0.20959091E+04</pdfrwt>
<totfact> 0.17848770E+00</totfact>
</mgrwt>
</event>
<event>
 6    1  0.6091287E-004  0.1156329E+04  0.7818608E-02  0.9151964E-01
          2   -1    0    0  501    0  0.00000000000E+00  0.00000000000E+00  0.29002320625E+04  0.29002320625E+04  0.00000000000E+00 0.  1.
         -2   -1    0    0    0  501 -0.00000000000E+00 -0.00000000000E+00 -0.11525777527E+03  0.11525777527E+03  0.00000000000E+00 0. -1.
         23    2    1    2    0    0 -0.19306305629E+03 -0.41432991808E+03  0.23088624596E+04  0.23554708251E+04  0.91947407045E+02 0.  0.
         13    1    3    3    0    0 -0.85432758158E+02 -0.13400109445E+03  0.10042799324E+04  0.10167759006E+04  0.00000000000E+00 0. -1.
        -13    1    3    3    0    0 -0.10763029814E+03 -0.28032882363E+03  0.13045825272E+04  0.13386949245E+04  0.00000000000E+00 0.  1.
         22    1    1    2    0    0  0.19306305629E+03  0.41432991808E+03  0.47611182763E+03  0.66001901271E+03  0.00000000000E+00 0. -1.
<mgrwt>
<rscale>  0 0.11563292E+04</rscale>
<asrwt>0</asrwt>
<pdfrwt beam="1">  1        2 0.44618949E+00 0.11563292E+04</pdfrwt>
<pdfrwt beam="2">  1       -2 0.17731968E-01 0.11563292E+04</pdfrwt>
<totfact> 0.53153210E+01</totfact>
</mgrwt>
</event>
<event>
 6    1  0.6091287E-004  0.3160652E+04  0.7818608E-02  0.8199287E-01
          2   -1    0    0  501    0  0.00000000000E+00  0.00000000000E+00  0.16357354586E+04  0.16357354586E+04  0.00000000000E+00 0.  1.
         -2   -1    0    0    0  501 -0.00000000000E+00 -0.00000000000E+00 -0.15267936712E+04  0.15267936712E+04  0.00000000000E+00 0. -1.
         23    2    1    2    0    0  0.40451724524E+03 -0.15252029910E+04 -0.51049721751E+01  0.15804782365E+04  0.89482009528E+02 0.  0.
         11    1    3    3    0    0  0.28565740384E+03 -0.10803125310E+04  0.37072576424E+02  0.11180562119E+04  0.00000000000E+00 0. -1.
        -11    1    3    3    0    0  0.11885984140E+03 -0.44489045999E+03 -0.42177548599E+02  0.46242202466E+03  0.00000000000E+00 0.  1.
         22    1    1    2    0    0 -0.40451724524E+03  0.15252029910E+04  0.11404675958E+03  0.15820508932E+04  0.00000000000E+00 0.  1.
<mgrwt>
<rscale>  0 0.31606522E+04</rscale>
<asrwt>0</asrwt>
<pdfrwt beam="1">  1        2 0.25165161E+00 0.31606522E+04</pdfrwt>
<pdfrwt beam="2">  1       -2 0.23489133E+00 0.31606522E+04</pdfrwt>
<totfact> 0.71705163E-01</totfact>
</mgrwt>
</event>
<event>
 6    1  0.6091287E-004  0.2790340E+04  0.7818608E-02  0.8306274E-01
         -2   -1    0    0    0  501 -0.00000000000E+00  0.00000000000E+00  0.12751994242E+04  0.12751994242E+04  0.00000000000E+00 0. -1.
          2   -1    0    0  501    0  0.00000000000E+00 -0.00000000000E+00 -0.15264270209E+04  0.15264270209E+04  0.00000000000E+00 0.  1.
         23    2    1    2    0    0 -0.11219544111E+04 -0.40123052828E+03  0.60006628489E+03  0.13372259157E+04  0.91246731761E+02 0.  0.
         13    1    3    3    0    0 -0.79993979724E+03 -0.30452440249E+03  0.38855399034E+03  0.94000691185E+03  0.00000000000E+00 0. -1.
        -13    1    3    3    0    0 -0.32201461387E+03 -0.96706125785E+02  0.21151229455E+03  0.39721900390E+03  0.00000000000E+00 0.  1.
         22    1    1    2    0    0  0.11219544111E+04  0.40123052828E+03 -0.85129388160E+03  0.14644005293E+04  0.00000000000E+00 0.  1.
<mgrwt>
<rscale>  0 0.27903397E+04</rscale>
<asrwt>0</asrwt>
<pdfrwt beam="1">  1        2 0.23483493E+00 0.27903397E+04</pdfrwt>
<pdfrwt beam="2">  1       -2 0.19618453E+00 0.27903397E+04</pdfrwt>
<totfact> 0.15055918E+00</totfact>
</mgrwt>
</event>
<event>
 6    1  0.6091287E-004  0.4468757E+03  0.7818608E-02  0.1028658E+00
          2   -1    0    0  501    0  0.00000000000E+00  0.00000000000E+00  0.40626861162E+03  0.40626861162E+03  0.00000000000E+00 0.  1.
         -2   -1    0    0    0  501 -0.00000000000E+00 -0.00000000000E+00 -0.12288538245E+03  0.12288538245E+03  0.00000000000E+00 0. -1.
         23    2    1    2    0    0 -0.44730026717E+02  0.15191979155E+03  0.31831509833E+03  0.36697929247E+03  0.90933497247E+02 0.  0.
         13    1    3    3    0    0 -0.58856565152E+02  0.44742447926E+02  0.14384089767E+03  0.16172874126E+03  0.00000000000E+00 0. -1.
        -13    1    3    3    0    0  0.14126538435E+02  0.10717734363E+03  0.17447420066E+03  0.20525055121E+03  0.00000000000E+00 0.  1.
         22    1    1    2    0    0  0.44730026717E+02 -0.15191979155E+03 -0.34931869154E+02  0.16217470160E+03  0.00000000000E+00 0. -1.
<mgrwt>
<rscale>  0 0.44687570E+03</rscale>
<asrwt>0</asrwt>
<pdfrwt beam="1">  1        2 0.62502863E-01 0.44687570E+03</pdfrwt>
<pdfrwt beam="2">  1       -2 0.18905444E-01 0.44687570E+03</pdfrwt>
<totfact> 0.18291780E+03</totfact>
</mgrwt>
</event>
<event>
 6    1  0.6091287E-004  0.2828688E+04  0.7818608E-02  0.8294417E-01
         -2   -1    0    0    0  501 -0.00000000000E+00  0.00000000000E+00  0.10572239107E+04  0.10572239107E+04  0.00000000000E+00 0. -1.
          2   -1    0    0  501    0  0.00000000000E+00 -0.00000000000E+00 -0.18920961585E+04  0.18920961585E+04  0.00000000000E+00 0.  1.
         23    2    1    2    0    0  0.87461209406E+03 -0.29864893555E+03 -0.15321567365E+04  0.17915881658E+04  0.90257347698E+02 0.  0.
         11    1    3    3    0    0  0.44578241931E+03 -0.18727460585E+03 -0.85829453620E+03  0.98512093381E+03  0.00000000000E+00 0. -1.
        -11    1    3    3    0    0  0.42882967475E+03 -0.11137432970E+03 -0.67386220033E+03  0.80646723200E+03  0.00000000000E+00 0.  1.
         22    1    1    2    0    0 -0.87461209406E+03  0.29864893555E+03  0.69728448871E+03  0.11577319033E+04  0.00000000000E+00 0. -1.
<mgrwt>
<rscale>  0 0.28286882E+04</rscale>
<asrwt>0</asrwt>
<pdfrwt beam="1">  1        2 0.29109171E+00 0.28286882E+04</pdfrwt>
<pdfrwt beam="2">  1       -2 0.16264983E+00 0.28286882E+04</pdfrwt>
<totfact> 0.16038702E+00</totfact>
</mgrwt>
</event>
<event>
 6    1  0.6091287E-004  0.2318132E+04  0.7818608E-02  0.8470806E-01
          2   -1    0    0  501    0  0.00000000000E+00  0.00000000000E+00  0.31726350738E+04  0.31726350738E+04  0.00000000000E+00 0.  1.
         -2   -1    0    0    0  501 -0.00000000000E+00 -0.00000000000E+00 -0.42344420426E+03  0.42344420426E+03  0.00000000000E+00 0. -1.
         23    2    1    2    0    0  0.93400919253E+03 -0.24796749270E+03  0.23657689568E+04  0.25564286578E+04  0.67850394922E+02 0.  0.
         13    1    3    3    0    0  0.65032712645E+03 -0.14135913791E+03  0.16026528965E+04  0.17353397604E+04  0.00000000000E+00 0. -1.
        -13    1    3    3    0    0  0.28368206608E+03 -0.10660835478E+03  0.76311606031E+03  0.82108889740E+03  0.00000000000E+00 0.  1.
         22    1    1    2    0    0 -0.93400919253E+03  0.24796749270E+03  0.38342191276E+03  0.10396506203E+04  0.00000000000E+00 0. -1.
<mgrwt>
<rscale>  0 0.23181319E+04</rscale>
<asrwt>0</asrwt>
<pdfrwt beam="1">  1        2 0.48809769E+00 0.23181319E+04</pdfrwt>
<pdfrwt beam="2">  1       -2 0.65145264E-01 0.23181319E+04</pdfrwt>
<totfact> 0.26607094E+00</totfact>
</mgrwt>
</event>
<event>
 6    1  0.6091287E-004  0.1757183E+04  0.7818608E-02  0.8729406E-01
          2   -1    0    0  501    0  0.00000000000E+00  0.00000000000E+00  0.59086902676E+03  0.59086902676E+03  0.00000000000E+00 0.  1.
         -2   -1    0    0    0  501 -0.00000000000E+00 -0.00000000000E+00 -0.13064203347E+04  0.13064203347E+04  0.00000000000E+00 0. -1.
         23    2    1    2    0    0  0.41855897085E+03 -0.34418570909E+03 -0.11023065781E+04  0.12315303559E+04  0.89060715098E+02 0.  0.
         13    1    3    3    0    0  0.24738954515E+03 -0.23124557476E+03 -0.59986262772E+03  0.68884778799E+03  0.00000000000E+00 0. -1.
        -13    1    3    3    0    0  0.17116942570E+03 -0.11294013433E+03 -0.50244395039E+03  0.54268256791E+03  0.00000000000E+00 0.  1.
         22    1    1    2    0    0 -0.41855897085E+03  0.34418570909E+03  0.38675527019E+03  0.66575900552E+03  0.00000000000E+00 0.  1.
<mgrwt>
<rscale>  0 0.17571833E+04</rscale>
<asrwt>0</asrwt>
<pdfrwt beam="1">  1        2 0.90902927E-01 0.17571833E+04</pdfrwt>
<pdfrwt beam="2">  1       -2 0.20098775E+00 0.17571833E+04</pdfrwt>
<totfact> 0.62658543E+00</totfact>
</mgrwt>
</event>
<event>
 6    1  0.6091287E-004  0.4874277E+04  0.7818608E-02  0.7848199E-01
          2   -1    0    0  501    0  0.00000000000E+00  0.00000000000E+00  0.27535472891E+04  0.27535472891E+04  0.00000000000E+00 0.  1.
         -2   -1    0    0    0  501 -0.00000000000E+00 -0.00000000000E+00 -0.21570885296E+04  0.21570885296E+04  0.00000000000E+00 0. -1.
         23    2    1    2    0    0 -0.51997920505E+03 -0.20393574444E+04 -0.93799260768E+03  0.23060440737E+04  0.93016009728E+02 0.  0.
         13    1    3    3    0    0 -0.38533803854E+03 -0.16563712141E+04 -0.76566969719E+03  0.18650203988E+04  0.00000000000E+00 0. -1.
        -13    1    3    3    0    0 -0.13464116651E+03 -0.38298623034E+03 -0.17232291049E+03  0.44102367491E+03  0.00000000000E+00 0.  1.
         22    1    1    2    0    0  0.51997920505E+03  0.20393574444E+04  0.15344513672E+04  0.26045917450E+04  0.00000000000E+00 0.  1.
<mgrwt>
<rscale>  0 0.48742775E+04</rscale>
<asrwt>0</asrwt>
<pdfrwt beam="1">  1        2 0.42362266E+00 0.48742775E+04</pdfrwt>
<pdfrwt beam="2">  1       -2 0.33185977E+00 0.48742775E+04</pdfrwt>
<totfact> 0.36655730E-02</totfact>
</mgrwt>
</event>
<event>
 6    1  0.6091287E-004  0.3483118E+04  0.7818608E-02  0.8117802E-01
         -2   -1    0    0    0  501 -0.00000000000E+00  0.00000000000E+00  0.10525584940E+04  0.10525584940E+04  0.00000000000E+00 0. -1.
          2   -1    0    0  501    0  0.00000000000E+00 -0.00000000000E+00 -0.28815766391E+04  0.28815766391E+04  0.00000000000E+00 0.  1.
         23    2    1    2    0    0 -0.13538656200E+04 -0.96925058533E+03 -0.14871177789E+04  0.22343425944E+04  0.91480745143E+02 0.  0.
         11    1    3    3    0    0 -0.80792918070E+03 -0.56211520315E+03 -0.82097867658E+03  0.12816899196E+04  0.00000000000E+00 0. -1.
        -11    1    3    3    0    0 -0.54593643932E+03 -0.40713538217E+03 -0.66613910227E+03  0.95265267478E+03  0.00000000000E+00 0.  1.
         22    1    1    2    0    0  0.13538656200E+04  0.96925058533E+03 -0.34190036629E+03  0.16997925387E+04  0.00000000000E+00 0.  1.
<mgrwt>
<rscale>  0 0.34831181E+04</rscale>
<asrwt>0</asrwt>
<pdfrwt beam="1">  1        2 0.44331949E+00 0.34831181E+04</pdfrwt>
<pdfrwt beam="2">  1       -2 0.16193207E+00 0.34831181E+04</pdfrwt>
<totfact> 0.41341007E-01</totfact>
</mgrwt>
</event>
<event>
 6    1  0.6091287E-004  0.1909527E+04  0.7818608E-02  0.8650128E-01
          2   -1    0    0  501    0  0.00000000000E+00  0.00000000000E+00  0.18730236115E+04  0.18730236115E+04  0.00000000000E+00 0.  1.
         -2   -1    0    0    0  501 -0.00000000000E+00 -0.00000000000E+00 -0.48668570397E+03  0.48668570397E+03  0.00000000000E+00 0. -1.
         23    2    1    2    0    0 -0.39407033391E+03 -0.77278689767E+03  0.11811152978E+04  0.14683018123E+04  0.91574275669E+02 0.  0.
         13    1    3    3    0    0 -0.33530837365E+02 -0.13826226384E+03  0.20481445294E+03  0.24937868952E+03  0.00000000000E+00 0. -1.
        -13    1    3    3    0    0 -0.36053949655E+03 -0.63452463383E+03  0.97630084483E+03  0.12189231227E+04  0.00000000000E+00 0.  1.
         22    1    1    2    0    0  0.39407033391E+03  0.77278689767E+03  0.20522260980E+03  0.89140750325E+03  0.00000000000E+00 0. -1.
<mgrwt>
<rscale>  0 0.19095275E+04</rscale>
<asrwt>0</asrwt>
<pdfrwt beam="1">  1        2 0.28815747E+00 0.19095275E+04</pdfrwt>
<pdfrwt beam="2">  1       -2 0.74874725E-01 0.19095275E+04</pdfrwt>
<totfact> 0.11788103E+01</totfact>
</mgrwt>
</event>
<event>
 6    1  0.6091287E-004  0.1606475E+04  0.7818608E-02  0.8816580E-01
         -2   -1    0    0    0  501 -0.00000000000E+00  0.00000000000E+00  0.39216808366E+03  0.39216808366E+03  0.00000000000E+00 0.  1.
          2   -1    0    0  501    0  0.00000000000E+00 -0.00000000000E+00 -0.16451876501E+04  0.16451876501E+04  0.00000000000E+00 0. -1.
         23    2    1    2    0    0 -0.40259187292E+03 -0.25946400395E+03  0.18835184917E+03  0.51848992559E+03  0.62877645961E+02 0.  0.
         11    1    3    3    0    0 -0.16652344579E+03 -0.10230197822E+03  0.10999868994E+03  0.22426650337E+03  0.00000000000E+00 0.  1.
        -11    1    3    3    0    0 -0.23606842713E+03 -0.15716202573E+03  0.78353159232E+02  0.29422342222E+03  0.00000000000E+00 0. -1.
         22    1    1    2    0    0  0.40259187292E+03  0.25946400395E+03 -0.14413714156E+04  0.15188658082E+04  0.00000000000E+00 0. -1.
<mgrwt>
<rscale>  0 0.16064745E+04</rscale>
<asrwt>0</asrwt>
<pdfrwt beam="1">  1        2 0.25310579E+00 0.16064745E+04</pdfrwt>
<pdfrwt beam="2">  1       -2 0.60333551E-01 0.16064745E+04</pdfrwt>
<totfact> 0.25810403E+01</totfact>
</mgrwt>
</event>
<event>
 6    1  0.6091287E-004  0.1725785E+04  0.7818608E-02  0.8746793E-01
          2   -1    0    0  501    0  0.00000000000E+00  0.00000000000E+00  0.23361264834E+04  0.23361264834E+04  0.00000000000E+00 0.  1.
         -2   -1    0    0    0  501 -0.00000000000E+00 -0.00000000000E+00 -0.31872558394E+03  0.31872558394E+03  0.00000000000E+00 0. -1.
         23    2    1    2    0    0  0.40572195530E+03  0.75854461360E+03  0.97008823109E+03  0.12995424860E+04  0.87973070350E+02 0.  0.
         13    1    3    3    0    0  0.19007809142E+03  0.31135680316E+03  0.46888102606E+03  0.59407251772E+03  0.00000000000E+00 0.  1.
        -13    1    3    3    0    0  0.21564386389E+03  0.44718781044E+03  0.50120720502E+03  0.70546996832E+03  0.00000000000E+00 0. -1.
         22    1    1    2    0    0 -0.40572195530E+03 -0.75854461360E+03  0.10473126684E+04  0.13553095813E+04  0.00000000000E+00 0.  1.
<mgrwt>
<rscale>  0 0.17257848E+04</rscale>
<asrwt>0</asrwt>
<pdfrwt beam="1">  1        2 0.35940406E+00 0.17257848E+04</pdfrwt>
<pdfrwt beam="2">  1       -2 0.49034707E-01 0.17257848E+04</pdfrwt>
<totfact> 0.16183514E+01</totfact>
</mgrwt>
</event>
<event>
 6    1  0.6091287E-004  0.1864803E+04  0.7818608E-02  0.8672577E-01
          2   -1    0    0  501    0  0.00000000000E+00  0.00000000000E+00  0.20790699020E+04  0.20790699020E+04  0.00000000000E+00 0.  1.
         -2   -1    0    0    0  501 -0.00000000000E+00 -0.00000000000E+00 -0.41815455637E+03  0.41815455637E+03  0.00000000000E+00 0. -1.
         23    2    1    2    0    0  0.85004836684E+03 -0.37727553408E+03  0.80881852640E+03  0.12358807130E+04  0.91075098861E+02 0.  0.
         13    1    3    3    0    0  0.52641382553E+03 -0.24113081186E+03  0.44488301132E+03  0.73018934387E+03  0.00000000000E+00 0. -1.
        -13    1    3    3    0    0  0.32363454131E+03 -0.13614472221E+03  0.36393551508E+03  0.50569136917E+03  0.00000000000E+00 0.  1.
         22    1    1    2    0    0 -0.85004836684E+03  0.37727553408E+03  0.85209681926E+03  0.12613437454E+04  0.00000000000E+00 0. -1.
<mgrwt>
<rscale>  0 0.18648030E+04</rscale>
<asrwt>0</asrwt>
<pdfrwt beam="1">  1        2 0.31985690E+00 0.18648030E+04</pdfrwt>
<pdfrwt beam="2">  1       -2 0.64331472E-01 0.18648030E+04</pdfrwt>
<totfact> 0.12655297E+01</totfact>
</mgrwt>
</event>
<event>
 6    1  0.6091287E-004  0.4779141E+03  0.7818608E-02  0.1019710E+00
         -2   -1    0    0    0  501 -0.00000000000E+00  0.00000000000E+00  0.66073447077E+02  0.66073447077E+02  0.00000000000E+00 0. -1.
          2   -1    0    0  501    0  0.00000000000E+00 -0.00000000000E+00 -0.86419708300E+03  0.86419708300E+03  0.00000000000E+00 0.  1.
         23    2    1    2    0    0  0.13382902135E+03 -0.44247370369E+02 -0.58313668181E+02  0.17715246157E+03  0.90080375241E+02 0.  0.
         13    1    3    3    0    0 -0.10550147695E+02  0.82290598829E+01 -0.19626377430E+01  0.13523127961E+02  0.00000000000E+00 0. -1.
        -13    1    3    3    0    0  0.14437916904E+03 -0.52476430252E+02 -0.56351030438E+02  0.16362933361E+03  0.00000000000E+00 0.  1.
         22    1    1    2    0    0 -0.13382902135E+03  0.44247370369E+02 -0.73980996775E+03  0.75311806851E+03  0.00000000000E+00 0.  1.
<mgrwt>
<rscale>  0 0.47791414E+03</rscale>
<asrwt>0</asrwt>
<pdfrwt beam="1">  1        2 0.13295339E+00 0.47791414E+03</pdfrwt>
<pdfrwt beam="2">  1       -2 0.10165147E-01 0.47791414E+03</pdfrwt>
<totfact> 0.20783166E+03</totfact>
</mgrwt>
</event>
<event>
 6    1  0.6091287E-004  0.2591607E+04  0.7818608E-02  0.8371058E-01
          2   -1    0    0  501    0  0.00000000000E+00  0.00000000000E+00  0.98363295015E+03  0.98363295015E+03  0.00000000000E+00 0.  1.
         -2   -1    0    0    0  501 -0.00000000000E+00 -0.00000000000E+00 -0.17070457651E+04  0.17070457651E+04  0.00000000000E+00 0. -1.
         23    2    1    2    0    0  0.29649302955E+03  0.83910065334E+03 -0.13377060909E+04  0.16093118710E+04  0.91810072615E+02 0.  0.
         11    1    3    3    0    0  0.22746404206E+03  0.53164830369E+03 -0.82393852424E+03  0.10066104018E+04  0.00000000000E+00 0.  1.
        -11    1    3    3    0    0  0.69028987484E+02  0.30745234965E+03 -0.51376756670E+03  0.60270146923E+03  0.00000000000E+00 0. -1.
         22    1    1    2    0    0 -0.29649302955E+03 -0.83910065334E+03  0.61429327596E+03  0.10813668443E+04  0.00000000000E+00 0.  1.
<mgrwt>
<rscale>  0 0.25916068E+04</rscale>
<asrwt>0</asrwt>
<pdfrwt beam="1">  1        2 0.15132815E+00 0.25916068E+04</pdfrwt>
<pdfrwt beam="2">  1       -2 0.26262242E+00 0.25916068E+04</pdfrwt>
<totfact> 0.12283192E+00</totfact>
</mgrwt>
</event>
<event>
 6    1  0.6091287E-004  0.2464895E+04  0.7818608E-02  0.8415600E-01
         -1   -1    0    0    0  501 -0.00000000000E+00  0.00000000000E+00  0.11608152673E+04  0.11608152673E+04  0.00000000000E+00 0. -1.
          1   -1    0    0  501    0  0.00000000000E+00 -0.00000000000E+00 -0.13084998347E+04  0.13084998347E+04  0.00000000000E+00 0.  1.
         23    2    1    2    0    0  0.84341031494E+03 -0.30542844872E+03  0.77024656833E+03  0.11858724401E+04  0.91576042314E+02 0.  0.
         11    1    3    3    0    0  0.52853637109E+03 -0.21768313387E+03  0.44130481868E+03  0.72214028092E+03  0.00000000000E+00 0.  1.
        -11    1    3    3    0    0  0.31487394385E+03 -0.87745314848E+02  0.32894174965E+03  0.46373215918E+03  0.00000000000E+00 0. -1.
         22    1    1    2    0    0 -0.84341031494E+03  0.30542844872E+03 -0.91793113568E+03  0.12834426619E+04  0.00000000000E+00 0.  1.
<mgrwt>
<rscale>  0 0.24648948E+04</rscale>
<asrwt>0</asrwt>
<pdfrwt beam="1">  1        1 0.20130767E+00 0.24648948E+04</pdfrwt>
<pdfrwt beam="2">  1       -1 0.17858696E+00 0.24648948E+04</pdfrwt>
<totfact> 0.16935102E+00</totfact>
</mgrwt>
</event>
<event>
 6    1  0.6091287E-004  0.1233456E+04  0.7818608E-02  0.9084066E-01
         -2   -1    0    0    0  501 -0.00000000000E+00  0.00000000000E+00  0.20094330314E+03  0.20094330314E+03  0.00000000000E+00 0. -1.
          2   -1    0    0  501    0  0.00000000000E+00 -0.00000000000E+00 -0.18928401956E+04  0.18928401956E+04  0.00000000000E+00 0.  1.
         23    2    1    2    0    0  0.10896240104E+03 -0.39143505681E+02 -0.18730737486E+04  0.18787717035E+04  0.89290690436E+02 0.  0.
         13    1    3    3    0    0 -0.25213131877E+01 -0.27501517183E+02 -0.64568522335E+03  0.64627555897E+03  0.00000000000E+00 0. -1.
        -13    1    3    3    0    0  0.11148371422E+03 -0.11641988498E+02 -0.12273885252E+04  0.12324961445E+04  0.00000000000E+00 0.  1.
         22    1    1    2    0    0 -0.10896240104E+03  0.39143505681E+02  0.18117685615E+03  0.21501179521E+03  0.00000000000E+00 0. -1.
<mgrwt>
<rscale>  0 0.12334562E+04</rscale>
<asrwt>0</asrwt>
<pdfrwt beam="1">  1        2 0.29120618E+00 0.12334562E+04</pdfrwt>
<pdfrwt beam="2">  1       -2 0.30914354E-01 0.12334562E+04</pdfrwt>
<totfact> 0.73183473E+01</totfact>
</mgrwt>
</event>
<event>
 6    1  0.6091287E-004  0.1357554E+04  0.7818608E-02  0.8985130E-01
          2   -1    0    0  501    0  0.00000000000E+00  0.00000000000E+00  0.17320742959E+04  0.17320742959E+04  0.00000000000E+00 0.  1.
         -2   -1    0    0    0  501 -0.00000000000E+00 -0.00000000000E+00 -0.26600355621E+03  0.26600355621E+03  0.00000000000E+00 0. -1.
         23    2    1    2    0    0  0.50647303514E+03 -0.28809967058E+03  0.12399470570E+04  0.13730592321E+04  0.91140523864E+02 0.  0.
         13    1    3    3    0    0  0.36896782952E+03 -0.19030404143E+03  0.78860874595E+03  0.89121077282E+03  0.00000000000E+00 0. -1.
        -13    1    3    3    0    0  0.13750520561E+03 -0.97795629148E+02  0.45133831109E+03  0.48184845927E+03  0.00000000000E+00 0.  1.
         22    1    1    2    0    0 -0.50647303514E+03  0.28809967058E+03  0.22612368265E+03  0.62501862001E+03  0.00000000000E+00 0. -1.
<mgrwt>
<rscale>  0 0.13575536E+04</rscale>
<asrwt>0</asrwt>
<pdfrwt beam="1">  1        2 0.26647296E+00 0.13575536E+04</pdfrwt>
<pdfrwt beam="2">  1       -2 0.40923625E-01 0.13575536E+04</pdfrwt>
<totfact> 0.51956304E+01</totfact>
</mgrwt>
</event>
<event>
 6    1  0.6091287E-004  0.7536843E+04  0.7818608E-02  0.7524470E-01
         -2   -1    0    0    0  501 -0.00000000000E+00  0.00000000000E+00  0.35316496875E+04  0.35316496875E+04  0.00000000000E+00 0. -1.
          2   -1    0    0  501    0  0.00000000000E+00 -0.00000000000E+00 -0.40210676869E+04  0.40210676869E+04  0.00000000000E+00 0.  1.
         23    2    1    2    0    0  0.47623098645E+02 -0.11820500102E+04  0.33401162397E+04  0.35446202356E+04  0.91901760958E+02 0.  0.
         13    1    3    3    0    0  0.50639553190E+02 -0.37666848265E+03  0.11441450438E+04  0.12056166021E+04  0.00000000000E+00 0. -1.
        -13    1    3    3    0    0 -0.30164545451E+01 -0.80538152754E+03  0.21959711959E+04  0.23390036335E+04  0.00000000000E+00 0.  1.
         22    1    1    2    0    0 -0.47623098645E+02  0.11820500102E+04 -0.38295342391E+04  0.40080971389E+04  0.00000000000E+00 0.  1.
<mgrwt>
<rscale>  0 0.75368435E+04</rscale>
<asrwt>0</asrwt>
<pdfrwt beam="1">  1        2 0.61862580E+00 0.75368435E+04</pdfrwt>
<pdfrwt beam="2">  1       -2 0.54333072E+00 0.75368435E+04</pdfrwt>
<totfact> 0.18592425E-04</totfact>
</mgrwt>
</event>
<event>
 6    1  0.6091287E-004  0.1415291E+04  0.7818608E-02  0.8942824E-01
          2   -1    0    0  501    0  0.00000000000E+00  0.00000000000E+00  0.33344953146E+04  0.33344953146E+04  0.00000000000E+00 0.  1.
         -2   -1    0    0    0  501 -0.00000000000E+00 -0.00000000000E+00 -0.15017626260E+03  0.15017626260E+03  0.00000000000E+00 0. -1.
         23    2    1    2    0    0 -0.26072179864E+03 -0.65327724698E+03  0.14903391435E+04  0.16504646783E+04  0.90420539059E+02 0.  0.
         13    1    3    3    0    0 -0.73767364517E+02 -0.25681553933E+03  0.64730914961E+03  0.70028921202E+03  0.00000000000E+00 0.  1.
        -13    1    3    3    0    0 -0.18695443412E+03 -0.39646170765E+03  0.84302999394E+03  0.95017546629E+03  0.00000000000E+00 0. -1.
         22    1    1    2    0    0  0.26072179864E+03  0.65327724698E+03  0.16939799085E+04  0.18342068989E+04  0.00000000000E+00 0.  1.
<mgrwt>
<rscale>  0 0.14152908E+04</rscale>
<asrwt>0</asrwt>
<pdfrwt beam="1">  1        2 0.51299922E+00 0.14152908E+04</pdfrwt>
<pdfrwt beam="2">  1       -2 0.23104043E-01 0.14152908E+04</pdfrwt>
<totfact> 0.17220629E+01</totfact>
</mgrwt>
</event>
<event>
 6    1  0.6091287E-004  0.2137499E+04  0.7818608E-02  0.8544902E-01
          2   -1    0    0  501    0  0.00000000000E+00  0.00000000000E+00  0.16263714787E+04  0.16263714787E+04  0.00000000000E+00 0.  1.
         -2   -1    0    0    0  501 -0.00000000000E+00 -0.00000000000E+00 -0.70231525520E+03  0.70231525520E+03  0.00000000000E+00 0. -1.
         23    2    1    2    0    0 -0.55550990204E+03 -0.38328302255E+03 -0.43708190593E+03  0.80941252100E+03  0.92794989196E+02 0.  0.
         11    1    3    3    0    0 -0.40906801275E+03 -0.30344197963E+03 -0.28472207296E+03  0.58350692617E+03  0.00000000000E+00 0. -1.
        -11    1    3    3    0    0 -0.14644188928E+03 -0.79841042928E+02 -0.15235983297E+03  0.22590559483E+03  0.00000000000E+00 0.  1.
         22    1    1    2    0    0  0.55550990204E+03  0.38328302255E+03  0.13611381295E+04  0.15192742129E+04  0.00000000000E+00 0.  1.
<mgrwt>
<rscale>  0 0.21374990E+04</rscale>
<asrwt>0</asrwt>
<pdfrwt beam="1">  1        2 0.25021100E+00 0.21374990E+04</pdfrwt>
<pdfrwt beam="2">  1       -2 0.10804850E+00 0.21374990E+04</pdfrwt>
<totfact> 0.67954548E+00</totfact>
</mgrwt>
</event>
<event>
 6    1  0.6091287E-004  0.4217763E+04  0.7818608E-02  0.7962002E-01
         -2   -1    0    0    0  501 -0.00000000000E+00  0.00000000000E+00  0.17347279716E+04  0.17347279716E+04  0.00000000000E+00 0. -1.
          2   -1    0    0  501    0  0.00000000000E+00 -0.00000000000E+00 -0.25637336147E+04  0.25637336147E+04  0.00000000000E+00 0.  1.
         23    2    1    2    0    0  0.74861765035E+02 -0.14456899370E+04 -0.19761745322E+04  0.24514044303E+04  0.92164098673E+02 0.  0.
         11    1    3    3    0    0 -0.86707431812E+01 -0.54540663237E+03 -0.78648919498E+03  0.95713574285E+03  0.00000000000E+00 0.  1.
        -11    1    3    3    0    0  0.83532508216E+02 -0.90028330461E+03 -0.11896853373E+04  0.14942686874E+04  0.00000000000E+00 0. -1.
         22    1    1    2    0    0 -0.74861765035E+02  0.14456899370E+04  0.11471688891E+04  0.18470571561E+04  0.00000000000E+00 0. -1.
<mgrwt>
<rscale>  0 0.42177626E+04</rscale>
<asrwt>0</asrwt>
<pdfrwt beam="1">  1        2 0.39442055E+00 0.42177626E+04</pdfrwt>
<pdfrwt beam="2">  1       -2 0.26688123E+00 0.42177626E+04</pdfrwt>
<totfact> 0.12545255E-01</totfact>
</mgrwt>
</event>
<event>
 6    1  0.6091287E-004  0.1659698E+04  0.7818608E-02  0.8784690E-01
          2   -1    0    0  501    0  0.00000000000E+00  0.00000000000E+00  0.15308674356E+04  0.15308674356E+04  0.00000000000E+00 0.  1.
         -2   -1    0    0    0  501 -0.00000000000E+00 -0.00000000000E+00 -0.44984236754E+03  0.44984236754E+03  0.00000000000E+00 0. -1.
         23    2    1    2    0    0 -0.51303646603E+03 -0.25616583029E+03  0.12538672029E+04  0.13817926539E+04  0.91327037411E+02 0.  0.
         13    1    3    3    0    0 -0.28387880929E+03 -0.18384555137E+03  0.79083843234E+03  0.86012312560E+03  0.00000000000E+00 0. -1.
        -13    1    3    3    0    0 -0.22915765674E+03 -0.72320278917E+02  0.46302877056E+03  0.52166952829E+03  0.00000000000E+00 0.  1.
         22    1    1    2    0    0  0.51303646603E+03  0.25616583029E+03 -0.17284213484E+03  0.59891714924E+03  0.00000000000E+00 0. -1.
<mgrwt>
<rscale>  0 0.16596976E+04</rscale>
<asrwt>0</asrwt>
<pdfrwt beam="1">  1        2 0.23551806E+00 0.16596976E+04</pdfrwt>
<pdfrwt beam="2">  1       -2 0.69206519E-01 0.16596976E+04</pdfrwt>
<totfact> 0.22182293E+01</totfact>
</mgrwt>
</event>
<event>
 6    1  0.6091287E-004  0.1042567E+04  0.7818608E-02  0.9263052E-01
         -2   -1    0    0    0  501 -0.00000000000E+00  0.00000000000E+00  0.13941745465E+03  0.13941745465E+03  0.00000000000E+00 0. -1.
          2   -1    0    0  501    0  0.00000000000E+00 -0.00000000000E+00 -0.19490855548E+04  0.19490855548E+04  0.00000000000E+00 0.  1.
         23    2    1    2    0    0  0.31362626039E+03  0.38659223846E+03 -0.63586956122E+03  0.81350575453E+03  0.98216718183E+02 0.  0.
         11    1    3    3    0    0  0.16129139115E+03  0.12256372954E+03 -0.25616695314E+03  0.32658580578E+03  0.00000000000E+00 0.  1.
        -11    1    3    3    0    0  0.15233486923E+03  0.26402850892E+03 -0.37970260808E+03  0.48691994875E+03  0.00000000000E+00 0. -1.
         22    1    1    2    0    0 -0.31362626039E+03 -0.38659223846E+03 -0.11737985389E+04  0.12749972549E+04  0.00000000000E+00 0.  1.
<mgrwt>
<rscale>  0 0.10425671E+04</rscale>
<asrwt>0</asrwt>
<pdfrwt beam="1">  1        2 0.29985930E+00 0.10425671E+04</pdfrwt>
<pdfrwt beam="2">  1       -2 0.21448841E-01 0.10425671E+04</pdfrwt>
<totfact> 0.13449955E+02</totfact>
</mgrwt>
</event>
<event>
 6    1  0.6091287E-004  0.1545465E+04  0.7818608E-02  0.8854770E-01
          2   -1    0    0  501    0  0.00000000000E+00  0.00000000000E+00  0.12164871521E+04  0.12164871521E+04  0.00000000000E+00 0.  1.
         -2   -1    0    0    0  501 -0.00000000000E+00 -0.00000000000E+00 -0.49085242341E+03  0.49085242341E+03  0.00000000000E+00 0. -1.
         23    2    1    2    0    0 -0.66911975475E+03 -0.37809143808E+03  0.41759372563E+03  0.87935186949E+03  0.90558317845E+02 0.  0.
         13    1    3    3    0    0 -0.43788379306E+03 -0.20031111734E+03  0.24228130674E+03  0.53904266208E+03  0.00000000000E+00 0.  1.
        -13    1    3    3    0    0 -0.23123596170E+03 -0.17778032075E+03  0.17531241889E+03  0.34030920740E+03  0.00000000000E+00 0. -1.
         22    1    1    2    0    0  0.66911975475E+03  0.37809143808E+03  0.30804100304E+03  0.82798770601E+03  0.00000000000E+00 0.  1.
<mgrwt>
<rscale>  0 0.15454652E+04</rscale>
<asrwt>0</asrwt>
<pdfrwt beam="1">  1        2 0.18715187E+00 0.15454652E+04</pdfrwt>
<pdfrwt beam="2">  1       -2 0.75515758E-01 0.15454652E+04</pdfrwt>
<totfact> 0.28042900E+01</totfact>
</mgrwt>
</event>
<event>
 6    1  0.9711538E-004  0.3112823E+04  0.7818608E-02  0.8212228E-01
          2   -1    0    0  501    0  0.00000000000E+00  0.00000000000E+00  0.19472832609E+04  0.19472832609E+04  0.00000000000E+00 0.  1.
         -2   -1    0    0    0  501 -0.00000000000E+00 -0.00000000000E+00 -0.12439978524E+04  0.12439978524E+04  0.00000000000E+00 0. -1.
         23    2    1    2    0    0  0.13909754208E+04  0.30656080671E+03  0.99156722058E+03  0.17380438468E+04  0.93801444731E+02 0.  0.
         11    1    3    3    0    0  0.67521517975E+03  0.19636122863E+03  0.49647675817E+03  0.86079175325E+03  0.00000000000E+00 0.  1.
        -11    1    3    3    0    0  0.71576024104E+03  0.11019957808E+03  0.49509046242E+03  0.87725209355E+03  0.00000000000E+00 0. -1.
         22    1    1    2    0    0 -0.13909754208E+04 -0.30656080671E+03 -0.28828181214E+03  0.14532372665E+04  0.00000000000E+00 0. -1.
<mgrwt>
<rscale>  0 0.31128226E+04</rscale>
<asrwt>0</asrwt>
<pdfrwt beam="1">  1        2 0.29958204E+00 0.31128226E+04</pdfrwt>
<pdfrwt beam="2">  1       -2 0.19138428E+00 0.31128226E+04</pdfrwt>
<totfact> 0.91987072E-01</totfact>
</mgrwt>
</event>
<event>
 6    1  0.6091287E-004  0.1561865E+04  0.7818608E-02  0.8844325E-01
         -2   -1    0    0    0  501 -0.00000000000E+00  0.00000000000E+00  0.38772091820E+03  0.38772091820E+03  0.00000000000E+00 0. -1.
          2   -1    0    0  501    0  0.00000000000E+00 -0.00000000000E+00 -0.15729235248E+04  0.15729235248E+04  0.00000000000E+00 0.  1.
         23    2    1    2    0    0 -0.41802161729E+03 -0.60697555328E+03 -0.28074103781E+03  0.79393448578E+03  0.91405922116E+02 0.  0.
         11    1    3    3    0    0 -0.14222432666E+03 -0.28393924940E+03 -0.13163242648E+03  0.34376787538E+03  0.00000000000E+00 0. -1.
        -11    1    3    3    0    0 -0.27579729063E+03 -0.32303630388E+03 -0.14910861133E+03  0.45016661040E+03  0.00000000000E+00 0.  1.
         22    1    1    2    0    0  0.41802161729E+03  0.60697555328E+03 -0.90446156874E+03  0.11667099572E+04  0.00000000000E+00 0.  1.
<mgrwt>
<rscale>  0 0.15618647E+04</rscale>
<asrwt>0</asrwt>
<pdfrwt beam="1">  1        2 0.24198824E+00 0.15618647E+04</pdfrwt>
<pdfrwt beam="2">  1       -2 0.59649372E-01 0.15618647E+04</pdfrwt>
<totfact> 0.29119874E+01</totfact>
</mgrwt>
</event>
<event>
 6    1  0.6091287E-004  0.2920656E+04  0.7818608E-02  0.8266758E-01
         -2   -1    0    0    0  501 -0.00000000000E+00  0.00000000000E+00  0.15635653558E+04  0.15635653558E+04  0.00000000000E+00 0. -1.
          2   -1    0    0  501    0  0.00000000000E+00 -0.00000000000E+00 -0.13639071262E+04  0.13639071262E+04  0.00000000000E+00 0.  1.
         23    2    1    2    0    0 -0.33091541728E+03  0.35707820698E+03 -0.12785229819E+04  0.13711853769E+04  0.92295522248E+02 0.  0.
         11    1    3    3    0    0 -0.83809813279E+02  0.54495507157E+02 -0.19022521385E+03  0.21489410668E+03  0.00000000000E+00 0. -1.
        -11    1    3    3    0    0 -0.24710560400E+03  0.30258269983E+03 -0.10882977680E+04  0.11562912703E+04  0.00000000000E+00 0.  1.
         22    1    1    2    0    0  0.33091541728E+03 -0.35707820698E+03  0.14781812115E+04  0.15562871051E+04  0.00000000000E+00 0. -1.
<mgrwt>
<rscale>  0 0.29206560E+04</rscale>
<asrwt>0</asrwt>
<pdfrwt beam="1">  1        2 0.20983187E+00 0.29206560E+04</pdfrwt>
<pdfrwt beam="2">  1       -2 0.24054852E+00 0.29206560E+04</pdfrwt>
<totfact> 0.96123094E-01</totfact>
</mgrwt>
</event>
<event>
 6    1  0.6091287E-004  0.1775763E+04  0.7818608E-02  0.8719296E-01
          2   -1    0    0  501    0  0.00000000000E+00  0.00000000000E+00  0.17061888680E+04  0.17061888680E+04  0.00000000000E+00 0.  1.
         -2   -1    0    0    0  501 -0.00000000000E+00 -0.00000000000E+00 -0.46204340300E+03  0.46204340300E+03  0.00000000000E+00 0. -1.
         23    2    1    2    0    0  0.26024768832E+03 -0.79632776885E+03  0.97281360201E+03  0.12876144455E+04  0.98579314275E+02 0.  0.
         13    1    3    3    0    0  0.11926943013E+03 -0.33468807969E+03  0.48641679275E+03  0.60236417881E+03  0.00000000000E+00 0.  1.
        -13    1    3    3    0    0  0.14097825819E+03 -0.46163968916E+03  0.48639680926E+03  0.68525026665E+03  0.00000000000E+00 0. -1.
         22    1    1    2    0    0 -0.26024768832E+03  0.79632776885E+03  0.27133186296E+03  0.88061782549E+03  0.00000000000E+00 0. -1.
<mgrwt>
<rscale>  0 0.17757627E+04</rscale>
<asrwt>0</asrwt>
<pdfrwt beam="1">  1        2 0.26249059E+00 0.17757627E+04</pdfrwt>
<pdfrwt beam="2">  1       -2 0.71083601E-01 0.17757627E+04</pdfrwt>
<totfact> 0.16539865E+01</totfact>
</mgrwt>
</event>
<event>
 6    1  0.6091287E-004  0.1263629E+04  0.7818608E-02  0.9058915E-01
         -2   -1    0    0    0  501 -0.00000000000E+00  0.00000000000E+00  0.78058332062E+03  0.78058332062E+03  0.00000000000E+00 0. -1.
          2   -1    0    0  501    0  0.00000000000E+00 -0.00000000000E+00 -0.51139910546E+03  0.51139910546E+03  0.00000000000E+00 0.  1.
         23    2    1    2    0    0  0.12750664761E+03  0.61526739910E+03  0.12107182952E+03  0.64642127765E+03  0.91597831342E+02 0.  0.
         13    1    3    3    0    0  0.10198546040E+02  0.99719013177E+02 -0.12685082582E+02  0.10103862257E+03  0.00000000000E+00 0. -1.
        -13    1    3    3    0    0  0.11730810157E+03  0.51554838593E+03  0.13375691210E+03  0.54538265508E+03  0.00000000000E+00 0.  1.
         22    1    1    2    0    0 -0.12750664761E+03 -0.61526739910E+03  0.14811238564E+03  0.64556114843E+03  0.00000000000E+00 0.  1.
<mgrwt>
<rscale>  0 0.12636291E+04</rscale>
<asrwt>0</asrwt>
<pdfrwt beam="1">  1        2 0.78676786E-01 0.12636291E+04</pdfrwt>
<pdfrwt beam="2">  1       -2 0.12008974E+00 0.12636291E+04</pdfrwt>
<totfact> 0.31228313E+01</totfact>
</mgrwt>
</event>
<event>
 6    1  0.6091287E-004  0.1727446E+04  0.7818608E-02  0.8745864E-01
         -2   -1    0    0    0  501 -0.00000000000E+00  0.00000000000E+00  0.36875000609E+03  0.36875000609E+03  0.00000000000E+00 0. -1.
          2   -1    0    0  501    0  0.00000000000E+00 -0.00000000000E+00 -0.20230983675E+04  0.20230983675E+04  0.00000000000E+00 0.  1.
         23    2    1    2    0    0 -0.49565364976E+03 -0.69473283208E+03 -0.97581384385E+03  0.13015569722E+04  0.11623960360E+03 0.  0.
         11    1    3    3    0    0 -0.14093277846E+03 -0.21969868449E+03 -0.22287295689E+03  0.34322283567E+03  0.00000000000E+00 0. -1.
        -11    1    3    3    0    0 -0.35472087129E+03 -0.47503414759E+03 -0.75294088697E+03  0.95833413650E+03  0.00000000000E+00 0.  1.
         22    1    1    2    0    0  0.49565364976E+03  0.69473283208E+03 -0.67853451752E+03  0.10902914014E+04  0.00000000000E+00 0. -1.
<mgrwt>
<rscale>  0 0.17274461E+04</rscale>
<asrwt>0</asrwt>
<pdfrwt beam="1">  1        2 0.31124590E+00 0.17274461E+04</pdfrwt>
<pdfrwt beam="2">  1       -2 0.56730771E-01 0.17274461E+04</pdfrwt>
<totfact> 0.17949648E+01</totfact>
</mgrwt>
</event>
<event>
 6    1  0.6091287E-004  0.4804162E+04  0.7818608E-02  0.7859448E-01
          2   -1    0    0  501    0  0.00000000000E+00  0.00000000000E+00  0.21201696348E+04  0.21201696348E+04  0.00000000000E+00 0.  1.
         -2   -1    0    0    0  501 -0.00000000000E+00 -0.00000000000E+00 -0.27214770774E+04  0.27214770774E+04  0.00000000000E+00 0. -1.
         23    2    1    2    0    0 -0.95068614475E+03 -0.21921156662E+04 -0.54057746604E+03  0.24514870168E+04  0.91593433406E+02 0.  0.
         13    1    3    3    0    0 -0.36904253870E+03 -0.91054010390E+03 -0.18299071991E+03  0.99938044796E+03  0.00000000000E+00 0.  1.
        -13    1    3    3    0    0 -0.58164360605E+03 -0.12815755623E+04 -0.35758674613E+03  0.14521065688E+04  0.00000000000E+00 0. -1.
         22    1    1    2    0    0  0.95068614475E+03  0.21921156662E+04 -0.60729976542E+02  0.23901596954E+04  0.00000000000E+00 0.  1.
<mgrwt>
<rscale>  0 0.48041620E+04</rscale>
<asrwt>0</asrwt>
<pdfrwt beam="1">  1        2 0.32617994E+00 0.48041620E+04</pdfrwt>
<pdfrwt beam="2">  1       -2 0.41868878E+00 0.48041620E+04</pdfrwt>
<totfact> 0.23700522E-02</totfact>
</mgrwt>
</event>
<event>
 6    1  0.6091287E-004  0.4594344E+03  0.7818608E-02  0.1024945E+00
         -2   -1    0    0    0  501 -0.00000000000E+00  0.00000000000E+00  0.33609001276E+02  0.33609001276E+02  0.00000000000E+00 0. -1.
          2   -1    0    0  501    0  0.00000000000E+00 -0.00000000000E+00 -0.15701149634E+04  0.15701149634E+04  0.00000000000E+00 0.  1.
         23    2    1    2    0    0 -0.14241987383E+03  0.14453751776E+03 -0.11008872654E+04  0.11231637047E+04  0.91484545224E+02 0.  0.
         11    1    3    3    0    0 -0.95205913865E+02  0.37738160616E+02 -0.61308633738E+03  0.62158120296E+03  0.00000000000E+00 0. -1.
        -11    1    3    3    0    0 -0.47213959963E+02  0.10679935715E+03 -0.48780092800E+03  0.50158250175E+03  0.00000000000E+00 0.  1.
         22    1    1    2    0    0  0.14241987383E+03 -0.14453751776E+03 -0.43561869678E+03  0.48056026000E+03  0.00000000000E+00 0. -1.
<mgrwt>
<rscale>  0 0.45943442E+03</rscale>
<asrwt>0</asrwt>
<pdfrwt beam="1">  1        2 0.24155612E+00 0.45943442E+03</pdfrwt>
<pdfrwt beam="2">  1       -2 0.51706162E-02 0.45943442E+03</pdfrwt>
<totfact> 0.23184360E+03</totfact>
</mgrwt>
</event>
<event>
 6    1  0.6091287E-004  0.4034586E+04  0.7818608E-02  0.7997606E-01
         -2   -1    0    0    0  501 -0.00000000000E+00  0.00000000000E+00  0.21183549811E+04  0.21183549811E+04  0.00000000000E+00 0. -1.
          2   -1    0    0  501    0  0.00000000000E+00 -0.00000000000E+00 -0.19210524659E+04  0.19210524659E+04  0.00000000000E+00 0.  1.
         23    2    1    2    0    0 -0.15935044507E+04  0.10173471863E+04 -0.60319185842E+03  0.19863504643E+04  0.86579540954E+02 0.  0.
         11    1    3    3    0    0 -0.13030696325E+04  0.86977721304E+03 -0.50666623580E+03  0.16465763092E+04  0.00000000000E+00 0. -1.
        -11    1    3    3    0    0 -0.29043481826E+03  0.14756997327E+03 -0.96525622624E+02  0.33977415513E+03  0.00000000000E+00 0.  1.
         22    1    1    2    0    0  0.15935044507E+04 -0.10173471863E+04  0.80049437355E+03  0.20530569827E+04  0.00000000000E+00 0. -1.
<mgrwt>
<rscale>  0 0.40345860E+04</rscale>
<asrwt>0</asrwt>
<pdfrwt beam="1">  1        2 0.29554654E+00 0.40345860E+04</pdfrwt>
<pdfrwt beam="2">  1       -2 0.32590076E+00 0.40345860E+04</pdfrwt>
<totfact> 0.12798825E-01</totfact>
</mgrwt>
</event>
<event>
 6    1  0.6091287E-004  0.5082756E+04  0.7818608E-02  0.7815867E-01
         -2   -1    0    0    0  501 -0.00000000000E+00  0.00000000000E+00  0.15301507964E+04  0.15301507964E+04  0.00000000000E+00 0. -1.
          2   -1    0    0  501    0  0.00000000000E+00 -0.00000000000E+00 -0.42208921939E+04  0.42208921939E+04  0.00000000000E+00 0.  1.
         23    2    1    2    0    0  0.54696323528E+03 -0.20600829512E+04  0.21862660911E+03  0.21444472624E+04  0.88010910847E+02 0.  0.
         13    1    3    3    0    0  0.38591475875E+03 -0.13132779028E+04  0.16245214965E+03  0.13784120399E+04  0.00000000000E+00 0. -1.
        -13    1    3    3    0    0  0.16104847653E+03 -0.74680504844E+03  0.56174459464E+02  0.76603522247E+03  0.00000000000E+00 0.  1.
         22    1    1    2    0    0 -0.54696323528E+03  0.20600829512E+04 -0.29093680066E+04  0.36065957279E+04  0.00000000000E+00 0.  1.
<mgrwt>
<rscale>  0 0.50827558E+04</rscale>
<asrwt>0</asrwt>
<pdfrwt beam="1">  1        2 0.64936802E+00 0.50827558E+04</pdfrwt>
<pdfrwt beam="2">  1       -2 0.23540782E+00 0.50827558E+04</pdfrwt>
<totfact> 0.12672850E-02</totfact>
</mgrwt>
</event>
<event>
 6    1  0.6091287E-004  0.1855446E+04  0.7818608E-02  0.8677357E-01
         -2   -1    0    0    0  501 -0.00000000000E+00  0.00000000000E+00  0.27145132864E+03  0.27145132864E+03  0.00000000000E+00 0. -1.
          2   -1    0    0  501    0  0.00000000000E+00 -0.00000000000E+00 -0.31706231365E+04  0.31706231365E+04  0.00000000000E+00 0.  1.
         23    2    1    2    0    0  0.47241838456E+03  0.20832201565E+03 -0.28471484732E+02  0.52531298407E+03  0.92552220425E+02 0.  0.
         13    1    3    3    0    0  0.18955070036E+03  0.13380112374E+03 -0.13606117389E+02  0.23241629709E+03  0.00000000000E+00 0.  1.
        -13    1    3    3    0    0  0.28286768420E+03  0.74520891918E+02 -0.14865367343E+02  0.29289668698E+03  0.00000000000E+00 0. -1.
         22    1    1    2    0    0 -0.47241838456E+03 -0.20832201565E+03 -0.28707003232E+04  0.29167614811E+04  0.00000000000E+00 0.  1.
<mgrwt>
<rscale>  0 0.18554459E+04</rscale>
<asrwt>0</asrwt>
<pdfrwt beam="1">  1        2 0.48778817E+00 0.18554459E+04</pdfrwt>
<pdfrwt beam="2">  1       -2 0.41761744E-01 0.18554459E+04</pdfrwt>
<totfact> 0.69520280E+00</totfact>
</mgrwt>
</event>
<event>
 6    1  0.6091287E-004  0.4343279E+03  0.7818608E-02  0.1032501E+00
         -2   -1    0    0    0  501 -0.00000000000E+00  0.00000000000E+00  0.43626069851E+02  0.43626069851E+02  0.00000000000E+00 0.  1.
          2   -1    0    0  501    0  0.00000000000E+00 -0.00000000000E+00 -0.10810090960E+04  0.10810090960E+04  0.00000000000E+00 0. -1.
         23    2    1    2    0    0 -0.11718158290E+03 -0.10037130202E+03 -0.18009538840E+03  0.25357373548E+03  0.89773987113E+02 0.  0.
         13    1    3    3    0    0 -0.98895935592E+02 -0.30129264513E+02 -0.12636327768E+03  0.16326621390E+03  0.00000000000E+00 0.  1.
        -13    1    3    3    0    0 -0.18285647309E+02 -0.70242037511E+02 -0.53732110727E+02  0.90307521582E+02  0.00000000000E+00 0. -1.
         22    1    1    2    0    0  0.11718158290E+03  0.10037130202E+03 -0.85728763776E+03  0.87106143038E+03  0.00000000000E+00 0. -1.
<mgrwt>
<rscale>  0 0.43432789E+03</rscale>
<asrwt>0</asrwt>
<pdfrwt beam="1">  1        2 0.16630909E+00 0.43432789E+03</pdfrwt>
<pdfrwt beam="2">  1       -2 0.67117032E-02 0.43432789E+03</pdfrwt>
<totfact> 0.29247755E+03</totfact>
</mgrwt>
</event>
<event>
 6    1  0.6091287E-004  0.1653073E+04  0.7818608E-02  0.8788590E-01
          2   -1    0    0  501    0  0.00000000000E+00  0.00000000000E+00  0.14040288725E+04  0.14040288725E+04  0.00000000000E+00 0.  1.
         -2   -1    0    0    0  501 -0.00000000000E+00 -0.00000000000E+00 -0.48657319884E+03  0.48657319884E+03  0.00000000000E+00 0. -1.
         23    2    1    2    0    0  0.58517535570E+03  0.53125240526E+03  0.72645446896E+03  0.10774964354E+04  0.92753209052E+02 0.  0.
         11    1    3    3    0    0  0.49889014494E+03  0.49225710698E+03  0.63148648446E+03  0.94338942973E+03  0.00000000000E+00 0. -1.
        -11    1    3    3    0    0  0.86285210758E+02  0.38995298280E+02  0.94967984505E+02  0.13410700565E+03  0.00000000000E+00 0.  1.
         22    1    1    2    0    0 -0.58517535570E+03 -0.53125240526E+03  0.19100120469E+03  0.81310563594E+03  0.00000000000E+00 0. -1.
<mgrwt>
<rscale>  0 0.16530733E+04</rscale>
<asrwt>0</asrwt>
<pdfrwt beam="1">  1        2 0.21600444E+00 0.16530733E+04</pdfrwt>
<pdfrwt beam="2">  1       -2 0.74857416E-01 0.16530733E+04</pdfrwt>
<totfact> 0.22043595E+01</totfact>
</mgrwt>
</event>
<event>
 6    1  0.6091287E-004  0.1067879E+04  0.7818608E-02  0.9237078E-01
         -2   -1    0    0    0  501 -0.00000000000E+00  0.00000000000E+00  0.16352763143E+04  0.16352763143E+04  0.00000000000E+00 0. -1.
          2   -1    0    0  501    0  0.00000000000E+00 -0.00000000000E+00 -0.17433819682E+03  0.17433819682E+03  0.00000000000E+00 0.  1.
         23    2    1    2    0    0  0.19273167838E+03 -0.46411661165E+03  0.45310543113E+03  0.68343670423E+03  0.96080528260E+02 0.  0.
         13    1    3    3    0    0  0.11507956455E+03 -0.17237845376E+03  0.15177800413E+03  0.25689336316E+03  0.00000000000E+00 0. -1.
        -13    1    3    3    0    0  0.77652113837E+02 -0.29173815789E+03  0.30132742700E+03  0.42654334107E+03  0.00000000000E+00 0.  1.
         22    1    1    2    0    0 -0.19273167838E+03  0.46411661165E+03  0.10078326864E+04  0.11261778069E+04  0.00000000000E+00 0.  1.
<mgrwt>
<rscale>  0 0.10678785E+04</rscale>
<asrwt>0</asrwt>
<pdfrwt beam="1">  1        2 0.26821262E-01 0.10678785E+04</pdfrwt>
<pdfrwt beam="2">  1       -2 0.25158096E+00 0.10678785E+04</pdfrwt>
<totfact> 0.12714449E+01</totfact>
</mgrwt>
</event>
<event>
 6    1  0.6091287E-004  0.2483017E+04  0.7818608E-02  0.8409061E-01
         -2   -1    0    0    0  501 -0.00000000000E+00  0.00000000000E+00  0.20151809708E+04  0.20151809708E+04  0.00000000000E+00 0. -1.
          2   -1    0    0  501    0  0.00000000000E+00 -0.00000000000E+00 -0.76486588583E+03  0.76486588583E+03  0.00000000000E+00 0.  1.
         23    2    1    2    0    0  0.20524101260E+03 -0.44831998576E+03 -0.64753332383E+03  0.81919416822E+03  0.93085965064E+02 0.  0.
         13    1    3    3    0    0  0.13204342982E+02 -0.12482182208E+03 -0.15679598658E+03  0.20084776162E+03  0.00000000000E+00 0. -1.
        -13    1    3    3    0    0  0.19203666962E+03 -0.32349816368E+03 -0.49073733724E+03  0.61834640659E+03  0.00000000000E+00 0.  1.
         22    1    1    2    0    0 -0.20524101260E+03  0.44831998576E+03  0.18978484088E+04  0.19608526884E+04  0.00000000000E+00 0. -1.
<mgrwt>
<rscale>  0 0.24830169E+04</rscale>
<asrwt>0</asrwt>
<pdfrwt beam="1">  1        2 0.11767168E+00 0.24830169E+04</pdfrwt>
<pdfrwt beam="2">  1       -2 0.31002784E+00 0.24830169E+04</pdfrwt>
<totfact> 0.90075577E-01</totfact>
</mgrwt>
</event>
<event>
 6    1  0.6091287E-004  0.4599281E+04  0.7818608E-02  0.7893482E-01
          2   -1    0    0  501    0  0.00000000000E+00  0.00000000000E+00  0.20857962698E+04  0.20857962698E+04  0.00000000000E+00 0.  1.
         -2   -1    0    0    0  501 -0.00000000000E+00 -0.00000000000E+00 -0.25354093103E+04  0.25354093103E+04  0.00000000000E+00 0. -1.
         23    2    1    2    0    0  0.10247603690E+04  0.18911678840E+04  0.58982003022E+03  0.22322579273E+04  0.91858622927E+02 0.  0.
         11    1    3    3    0    0  0.28434937810E+03  0.55172311475E+03  0.21144390531E+03  0.65571448761E+03  0.00000000000E+00 0. -1.
        -11    1    3    3    0    0  0.74041099094E+03  0.13394447692E+04  0.37837612491E+03  0.15765434397E+04  0.00000000000E+00 0.  1.
         22    1    1    2    0    0 -0.10247603690E+04 -0.18911678840E+04 -0.10394330707E+04  0.23889476528E+04  0.00000000000E+00 0. -1.
<mgrwt>
<rscale>  0 0.45992814E+04</rscale>
<asrwt>0</asrwt>
<pdfrwt beam="1">  1        2 0.32089173E+00 0.45992814E+04</pdfrwt>
<pdfrwt beam="2">  1       -2 0.39006297E+00 0.45992814E+04</pdfrwt>
<totfact> 0.38765737E-02</totfact>
</mgrwt>
</event>
<event>
 6    1  0.6091287E-004  0.1130507E+04  0.7818608E-02  0.9175957E-01
          2   -1    0    0  501    0  0.00000000000E+00  0.00000000000E+00  0.12435938892E+04  0.12435938892E+04  0.00000000000E+00 0.  1.
         -2   -1    0    0    0  501 -0.00000000000E+00 -0.00000000000E+00 -0.25692597876E+03  0.25692597876E+03  0.00000000000E+00 0. -1.
         23    2    1    2    0    0 -0.21260728513E+03  0.50440036955E+03  0.66256342884E+03  0.86438678007E+03  0.92480364611E+02 0.  0.
         11    1    3    3    0    0 -0.66193176637E+02  0.19940676822E+03  0.19050511446E+03  0.28361381222E+03  0.00000000000E+00 0.  1.
        -11    1    3    3    0    0 -0.14641410849E+03  0.30499360133E+03  0.47205831438E+03  0.58077296786E+03  0.00000000000E+00 0. -1.
         22    1    1    2    0    0  0.21260728513E+03 -0.50440036955E+03  0.32410448157E+03  0.63613308786E+03  0.00000000000E+00 0. -1.
<mgrwt>
<rscale>  0 0.11305071E+04</rscale>
<asrwt>0</asrwt>
<pdfrwt beam="1">  1        2 0.19132213E+00 0.11305071E+04</pdfrwt>
<pdfrwt beam="2">  1       -2 0.39527074E-01 0.11305071E+04</pdfrwt>
<totfact> 0.10696463E+02</totfact>
</mgrwt>
</event>
<event>
 6    1  0.6091287E-004  0.8463032E+03  0.7818608E-02  0.9495312E-01
         -2   -1    0    0    0  501 -0.00000000000E+00  0.00000000000E+00  0.53010861755E+03  0.53010861755E+03  0.00000000000E+00 0. -1.
          2   -1    0    0  501    0  0.00000000000E+00 -0.00000000000E+00 -0.33777472506E+03  0.33777472506E+03  0.00000000000E+00 0.  1.
         23    2    1    2    0    0 -0.38089699052E+03 -0.14775262114E+03  0.54140854058E+01  0.41860350918E+03  0.91028737977E+02 0.  0.
         13    1    3    3    0    0 -0.24941372050E+03 -0.14150777237E+03 -0.19330779570E+01  0.28676713620E+03  0.00000000000E+00 0. -1.
        -13    1    3    3    0    0 -0.13148327002E+03 -0.62448487697E+01  0.73471633628E+01  0.13183637298E+03  0.00000000000E+00 0.  1.
         22    1    1    2    0    0  0.38089699052E+03  0.14775262114E+03  0.18691980709E+03  0.44927983343E+03  0.00000000000E+00 0. -1.
<mgrwt>
<rscale>  0 0.84630324E+03</rscale>
<asrwt>0</asrwt>
<pdfrwt beam="1">  1        2 0.51965343E-01 0.84630324E+03</pdfrwt>
<pdfrwt beam="2">  1       -2 0.81555172E-01 0.84630324E+03</pdfrwt>
<totfact> 0.12804647E+02</totfact>
</mgrwt>
</event>
<event>
 6    1  0.6091287E-004  0.1676008E+04  0.7818608E-02  0.8775167E-01
          4   -1    0    0  501    0  0.00000000000E+00  0.00000000000E+00  0.28577292703E+03  0.28577292703E+03  0.00000000000E+00 0.  1.
         -4   -1    0    0    0  501 -0.00000000000E+00 -0.00000000000E+00 -0.24573734946E+04  0.24573734946E+04  0.00000000000E+00 0. -1.
         23    2    1    2    0    0 -0.72428626669E+02 -0.73552268940E+03 -0.17271079488E+04  0.18807003533E+04  0.88839291826E+02 0.  0.
         11    1    3    3    0    0  0.14852870393E+01 -0.34376962847E+03 -0.86809681885E+03  0.93368723373E+03  0.00000000000E+00 0. -1.
        -11    1    3    3    0    0 -0.73913913708E+02 -0.39175306093E+03 -0.85901112992E+03  0.94701311961E+03  0.00000000000E+00 0.  1.
         22    1    1    2    0    0  0.72428626669E+02  0.73552268940E+03 -0.44449261883E+03  0.86244606833E+03  0.00000000000E+00 0.  1.
<mgrwt>
<rscale>  0 0.16760081E+04</rscale>
<asrwt>0</asrwt>
<pdfrwt beam="1">  1        4 0.43965066E-01 0.16760081E+04</pdfrwt>
<pdfrwt beam="2">  1       -4 0.37805746E+00 0.16760081E+04</pdfrwt>
<totfact> 0.93550903E-02</totfact>
</mgrwt>
</event>
<event>
 6    1  0.6091287E-004  0.5486626E+03  0.7818608E-02  0.1001804E+00
          2   -1    0    0  501    0  0.00000000000E+00  0.00000000000E+00  0.19477649939E+04  0.19477649939E+04  0.00000000000E+00 0.  1.
         -2   -1    0    0    0  501 -0.00000000000E+00 -0.00000000000E+00 -0.38637955644E+02  0.38637955644E+02  0.00000000000E+00 0. -1.
         23    2    1    2    0    0 -0.81674069076E+02  0.25438671474E+03  0.10069748655E+04  0.10455194302E+04  0.87916124474E+02 0.  0.
         13    1    3    3    0    0 -0.31074340922E+02  0.12273491892E+03  0.31840580750E+03  0.34265395553E+03  0.00000000000E+00 0. -1.
        -13    1    3    3    0    0 -0.50599728154E+02  0.13165179582E+03  0.68856905800E+03  0.70286547466E+03  0.00000000000E+00 0.  1.
         22    1    1    2    0    0  0.81674069076E+02 -0.25438671474E+03  0.90215217273E+03  0.94088351933E+03  0.00000000000E+00 0. -1.
<mgrwt>
<rscale>  0 0.54866258E+03</rscale>
<asrwt>0</asrwt>
<pdfrwt beam="1">  1        2 0.29965608E+00 0.54866258E+03</pdfrwt>
<pdfrwt beam="2">  1       -2 0.59443024E-02 0.54866258E+03</pdfrwt>
<totfact> 0.11633106E+03</totfact>
</mgrwt>
</event>
<event>
 6    1  0.6091287E-004  0.1638473E+04  0.7818608E-02  0.8797255E-01
         -2   -1    0    0    0  501 -0.00000000000E+00  0.00000000000E+00  0.21829625730E+03  0.21829625730E+03  0.00000000000E+00 0. -1.
          2   -1    0    0  501    0  0.00000000000E+00 -0.00000000000E+00 -0.30744843292E+04  0.30744843292E+04  0.00000000000E+00 0.  1.
         23    2    1    2    0    0  0.56312265590E+03 -0.40788715799E+03 -0.57170857088E+03  0.90482630514E+03  0.91547218558E+02 0.  0.
         11    1    3    3    0    0  0.32975379471E+03 -0.24322877980E+03 -0.39396591159E+03  0.56842496774E+03  0.00000000000E+00 0. -1.
        -11    1    3    3    0    0  0.23336886119E+03 -0.16465837819E+03 -0.17774265929E+03  0.33640133741E+03  0.00000000000E+00 0.  1.
         22    1    1    2    0    0 -0.56312265590E+03  0.40788715799E+03 -0.22844795010E+04  0.23879542813E+04  0.00000000000E+00 0.  1.
<mgrwt>
<rscale>  0 0.16384730E+04</rscale>
<asrwt>0</asrwt>
<pdfrwt beam="1">  1        2 0.47299754E+00 0.16384730E+04</pdfrwt>
<pdfrwt beam="2">  1       -2 0.33584043E-01 0.16384730E+04</pdfrwt>
<totfact> 0.12459392E+01</totfact>
</mgrwt>
</event>
<event>
 6    1  0.6091287E-004  0.5158449E+04  0.7818608E-02  0.7804519E-01
         -2   -1    0    0    0  501 -0.00000000000E+00  0.00000000000E+00  0.20205163381E+04  0.20205163381E+04  0.00000000000E+00 0. -1.
          2   -1    0    0  501    0  0.00000000000E+00 -0.00000000000E+00 -0.32924255560E+04  0.32924255560E+04  0.00000000000E+00 0.  1.
         23    2    1    2    0    0 -0.17443954212E+04  0.15873807373E+04 -0.17091505192E+04  0.29142187033E+04  0.93713196590E+02 0.  0.
         11    1    3    3    0    0 -0.34073461171E+03  0.36169724144E+03 -0.36028053578E+03  0.61378093368E+03  0.00000000000E+00 0. -1.
        -11    1    3    3    0    0 -0.14036608095E+04  0.12256834958E+04 -0.13488699834E+04  0.23004377697E+04  0.00000000000E+00 0.  1.
         22    1    1    2    0    0  0.17443954212E+04 -0.15873807373E+04  0.43724130126E+03  0.23987231908E+04  0.00000000000E+00 0. -1.
<mgrwt>
<rscale>  0 0.51584492E+04</rscale>
<asrwt>0</asrwt>
<pdfrwt beam="1">  1        2 0.50652701E+00 0.51584492E+04</pdfrwt>
<pdfrwt beam="2">  1       -2 0.31084867E+00 0.51584492E+04</pdfrwt>
<totfact> 0.22062492E-02</totfact>
</mgrwt>
</event>
<event>
 6    1  0.6091287E-004  0.3550590E+04  0.7818608E-02  0.8101904E-01
         -2   -1    0    0    0  501 -0.00000000000E+00  0.00000000000E+00  0.85351415526E+03  0.85351415526E+03  0.00000000000E+00 0. -1.
          2   -1    0    0  501    0  0.00000000000E+00 -0.00000000000E+00 -0.36925840900E+04  0.36925840900E+04  0.00000000000E+00 0.  1.
         23    2    1    2    0    0 -0.15768802961E+04 -0.12273260579E+03 -0.39117563255E+03  0.16316855642E+04  0.88117219587E+02 0.  0.
         13    1    3    3    0    0 -0.71108410292E+03 -0.85180745343E+02 -0.14382906017E+03  0.73046776749E+03  0.00000000000E+00 0. -1.
        -13    1    3    3    0    0 -0.86579619314E+03 -0.37551860451E+02 -0.24734657239E+03  0.90121779674E+03  0.00000000000E+00 0.  1.
         22    1    1    2    0    0  0.15768802961E+04  0.12273260579E+03 -0.24478943022E+04  0.29144126810E+04  0.00000000000E+00 0.  1.
<mgrwt>
<rscale>  0 0.35505903E+04</rscale>
<asrwt>0</asrwt>
<pdfrwt beam="1">  1        2 0.56808985E+00 0.35505903E+04</pdfrwt>
<pdfrwt beam="2">  1       -2 0.13130987E+00 0.35505903E+04</pdfrwt>
<totfact> 0.20438033E-01</totfact>
</mgrwt>
</event>
<event>
 6    1  0.6091287E-004  0.5681237E+04  0.7818608E-02  0.7731232E-01
          2   -1    0    0  501    0  0.00000000000E+00  0.00000000000E+00  0.20643457068E+04  0.20643457068E+04  0.00000000000E+00 0.  1.
         -2   -1    0    0    0  501 -0.00000000000E+00 -0.00000000000E+00 -0.39087991946E+04  0.39087991946E+04  0.00000000000E+00 0. -1.
         23    2    1    2    0    0 -0.22661677139E+04 -0.11456770254E+04  0.41439611797E+03  0.25745432043E+04  0.91959851580E+02 0.  0.
         11    1    3    3    0    0 -0.16740823526E+04 -0.88540868675E+03  0.28888449534E+03  0.19157125352E+04  0.00000000000E+00 0.  1.
        -11    1    3    3    0    0 -0.59208536129E+03 -0.26026833861E+03  0.12551162263E+03  0.65883066910E+03  0.00000000000E+00 0. -1.
         22    1    1    2    0    0  0.22661677139E+04  0.11456770254E+04 -0.22588496058E+04  0.33986016971E+04  0.00000000000E+00 0. -1.
<mgrwt>
<rscale>  0 0.56812368E+04</rscale>
<asrwt>0</asrwt>
<pdfrwt beam="1">  1        2 0.31759165E+00 0.56812368E+04</pdfrwt>
<pdfrwt beam="2">  1       -2 0.60135371E+00 0.56812368E+04</pdfrwt>
<totfact> 0.21666287E-03</totfact>
</mgrwt>
</event>
<event>
 6    1  0.6091287E-004  0.6469399E+03  0.7818608E-02  0.9812538E-01
          2   -1    0    0  501    0  0.00000000000E+00  0.00000000000E+00  0.26300868827E+03  0.26300868827E+03  0.00000000000E+00 0.  1.
         -2   -1    0    0    0  501 -0.00000000000E+00 -0.00000000000E+00 -0.39783020086E+03  0.39783020086E+03  0.00000000000E+00 0. -1.
         23    2    1    2    0    0  0.59180979662E+01 -0.15786377060E+03  0.21244730116E+03  0.27932660499E+03  0.89070211245E+02 0.  0.
         11    1    3    3    0    0  0.55219644423E+01 -0.13317196132E+03  0.10670019732E+03  0.17073428326E+03  0.00000000000E+00 0.  1.
        -11    1    3    3    0    0  0.39613352390E+00 -0.24691809285E+02  0.10574710384E+03  0.10859232173E+03  0.00000000000E+00 0. -1.
         22    1    1    2    0    0 -0.59180979662E+01  0.15786377060E+03 -0.34726881375E+03  0.38151228415E+03  0.00000000000E+00 0. -1.
<mgrwt>
<rscale>  0 0.64693987E+03</rscale>
<asrwt>0</asrwt>
<pdfrwt beam="1">  1        2 0.40462876E-01 0.64693987E+03</pdfrwt>
<pdfrwt beam="2">  1       -2 0.61204646E-01 0.64693987E+03</pdfrwt>
<totfact> 0.31888789E+02</totfact>
</mgrwt>
</event>
<event>
 6    1  0.6091287E-004  0.1382915E+04  0.7818608E-02  0.8966279E-01
         -2   -1    0    0    0  501 -0.00000000000E+00  0.00000000000E+00  0.19727421085E+03  0.19727421085E+03  0.00000000000E+00 0. -1.
          2   -1    0    0  501    0  0.00000000000E+00 -0.00000000000E+00 -0.24235991892E+04  0.24235991892E+04  0.00000000000E+00 0.  1.
         23    2    1    2    0    0  0.16787301108E+03 -0.35319402318E+03 -0.21918473494E+04  0.22282972001E+04  0.90477859519E+02 0.  0.
         11    1    3    3    0    0  0.35008791530E+02 -0.15987469537E+03 -0.10409942097E+04  0.10537810391E+04  0.00000000000E+00 0. -1.
        -11    1    3    3    0    0  0.13286421955E+03 -0.19331932781E+03 -0.11508531397E+04  0.11745161610E+04  0.00000000000E+00 0.  1.
         22    1    1    2    0    0 -0.16787301108E+03  0.35319402318E+03 -0.34477628942E+02  0.39257619994E+03  0.00000000000E+00 0. -1.
<mgrwt>
<rscale>  0 0.13829152E+04</rscale>
<asrwt>0</asrwt>
<pdfrwt beam="1">  1        2 0.37286139E+00 0.13829152E+04</pdfrwt>
<pdfrwt beam="2">  1       -2 0.30349881E-01 0.13829152E+04</pdfrwt>
<totfact> 0.37801343E+01</totfact>
</mgrwt>
</event>
<event>
 6    1  0.6091287E-004  0.1441528E+04  0.7818608E-02  0.8924295E-01
          2   -1    0    0  501    0  0.00000000000E+00  0.00000000000E+00  0.69539703489E+03  0.69539703489E+03  0.00000000000E+00 0.  1.
         -2   -1    0    0    0  501 -0.00000000000E+00 -0.00000000000E+00 -0.74705627800E+03  0.74705627800E+03  0.00000000000E+00 0. -1.
         23    2    1    2    0    0  0.13750520280E+03  0.44813832532E+03  0.51801117789E+03  0.70471350241E+03  0.92465672746E+02 0.  0.
         11    1    3    3    0    0  0.50921376902E+02  0.26619026223E+03  0.34793898549E+03  0.44103489653E+03  0.00000000000E+00 0.  1.
        -11    1    3    3    0    0  0.86583825899E+02  0.18194806309E+03  0.17007219240E+03  0.26367860588E+03  0.00000000000E+00 0. -1.
         22    1    1    2    0    0 -0.13750520280E+03 -0.44813832532E+03 -0.56967042100E+03  0.73773981049E+03  0.00000000000E+00 0.  1.
<mgrwt>
<rscale>  0 0.14415280E+04</rscale>
<asrwt>0</asrwt>
<pdfrwt beam="1">  1        2 0.10698416E+00 0.14415280E+04</pdfrwt>
<pdfrwt beam="2">  1       -2 0.11493174E+00 0.14415280E+04</pdfrwt>
<totfact> 0.23674367E+01</totfact>
</mgrwt>
</event>
<event>
 6    1  0.6091287E-004  0.1334708E+04  0.7818608E-02  0.9002485E-01
         -2   -1    0    0    0  501 -0.00000000000E+00  0.00000000000E+00  0.30944256735E+03  0.30944256735E+03  0.00000000000E+00 0. -1.
          2   -1    0    0  501    0  0.00000000000E+00 -0.00000000000E+00 -0.14392374376E+04  0.14392374376E+04  0.00000000000E+00 0.  1.
         23    2    1    2    0    0  0.54290322330E+03  0.31520742035E+03 -0.28349324059E+03  0.69495989217E+03  0.92201987825E+02 0.  0.
         13    1    3    3    0    0  0.16053216326E+03  0.58276805225E+02 -0.47021919362E+02  0.17713786260E+03  0.00000000000E+00 0. -1.
        -13    1    3    3    0    0  0.38237106004E+03  0.25693061512E+03 -0.23647132122E+03  0.51782202957E+03  0.00000000000E+00 0.  1.
         22    1    1    2    0    0 -0.54290322330E+03 -0.31520742035E+03 -0.84630162968E+03  0.10537201128E+04  0.00000000000E+00 0.  1.
<mgrwt>
<rscale>  0 0.13347079E+04</rscale>
<asrwt>0</asrwt>
<pdfrwt beam="1">  1        2 0.22142115E+00 0.13347079E+04</pdfrwt>
<pdfrwt beam="2">  1       -2 0.47606548E-01 0.13347079E+04</pdfrwt>
<totfact> 0.56169551E+01</totfact>
</mgrwt>
</event>
<event>
 6    1  0.6091287E-004  0.2297146E+04  0.7818608E-02  0.8479047E-01
          2   -1    0    0  501    0  0.00000000000E+00  0.00000000000E+00  0.88236289057E+03  0.88236289057E+03  0.00000000000E+00 0.  1.
         -2   -1    0    0    0  501 -0.00000000000E+00 -0.00000000000E+00 -0.14950996913E+04  0.14950996913E+04  0.00000000000E+00 0. -1.
         23    2    1    2    0    0 -0.36727364006E+02  0.11444237078E+04 -0.24187032295E+03  0.11738860506E+04  0.91938481784E+02 0.  0.
         13    1    3    3    0    0 -0.50699037160E+02  0.68451002801E+03 -0.10921662959E+03  0.69501988676E+03  0.00000000000E+00 0.  1.
        -13    1    3    3    0    0  0.13971673154E+02  0.45991367978E+03 -0.13265369336E+03  0.47886616383E+03  0.00000000000E+00 0. -1.
         22    1    1    2    0    0  0.36727364006E+02 -0.11444237078E+04 -0.37086647775E+03  0.12035765312E+04  0.00000000000E+00 0. -1.
<mgrwt>
<rscale>  0 0.22971465E+04</rscale>
<asrwt>0</asrwt>
<pdfrwt beam="1">  1        2 0.13574814E+00 0.22971465E+04</pdfrwt>
<pdfrwt beam="2">  1       -2 0.23001534E+00 0.22971465E+04</pdfrwt>
<totfact> 0.23359922E+00</totfact>
</mgrwt>
</event>
<event>
 6    1  0.6091287E-004  0.1848716E+04  0.7818608E-02  0.8680813E-01
          2   -1    0    0  501    0  0.00000000000E+00  0.00000000000E+00  0.12211693177E+04  0.12211693177E+04  0.00000000000E+00 0.  1.
         -2   -1    0    0    0  501 -0.00000000000E+00 -0.00000000000E+00 -0.69968833177E+03  0.69968833177E+03  0.00000000000E+00 0. -1.
         23    2    1    2    0    0 -0.17342836638E+03  0.52071011115E+03 -0.50845725483E+03  0.75381472057E+03  0.92148981794E+02 0.  0.
         13    1    3    3    0    0  0.97934979881E+01  0.44169067748E+02 -0.52468374921E+02  0.69280224562E+02  0.00000000000E+00 0. -1.
        -13    1    3    3    0    0 -0.18322186437E+03  0.47654104340E+03 -0.45598887991E+03  0.68453449601E+03  0.00000000000E+00 0.  1.
         22    1    1    2    0    0  0.17342836638E+03 -0.52071011115E+03  0.10299382407E+04  0.11670429289E+04  0.00000000000E+00 0.  1.
<mgrwt>
<rscale>  0 0.18487162E+04</rscale>
<asrwt>0</asrwt>
<pdfrwt beam="1">  1        2 0.18787220E+00 0.18487162E+04</pdfrwt>
<pdfrwt beam="2">  1       -2 0.10764436E+00 0.18487162E+04</pdfrwt>
<totfact> 0.11980534E+01</totfact>
</mgrwt>
</event>
<event>
 6    1  0.6091287E-004  0.1803035E+04  0.7818608E-02  0.8704687E-01
         -2   -1    0    0    0  501 -0.00000000000E+00  0.00000000000E+00  0.43107557192E+03  0.43107557192E+03  0.00000000000E+00 0.  1.
          2   -1    0    0  501    0  0.00000000000E+00 -0.00000000000E+00 -0.18853622085E+04  0.18853622085E+04  0.00000000000E+00 0. -1.
         23    2    1    2    0    0 -0.50830348192E+03  0.73979811686E+03 -0.79508920659E+03  0.12027884033E+04  0.94124456264E+02 0.  0.
         11    1    3    3    0    0 -0.24021663705E+03  0.41054137020E+03 -0.37747063441E+03  0.60723334000E+03  0.00000000000E+00 0.  1.
        -11    1    3    3    0    0 -0.26808684486E+03  0.32925674666E+03 -0.41761857217E+03  0.59555506331E+03  0.00000000000E+00 0. -1.
         22    1    1    2    0    0  0.50830348192E+03 -0.73979811686E+03 -0.65919743001E+03  0.11136493771E+04  0.00000000000E+00 0.  1.
<mgrwt>
<rscale>  0 0.18030348E+04</rscale>
<asrwt>0</asrwt>
<pdfrwt beam="1">  1        2 0.29005572E+00 0.18030348E+04</pdfrwt>
<pdfrwt beam="2">  1       -2 0.66319319E-01 0.18030348E+04</pdfrwt>
<totfact> 0.15264669E+01</totfact>
</mgrwt>
</event>
<event>
 6    1  0.6091287E-004  0.3206863E+04  0.7818608E-02  0.8187007E-01
          2   -1    0    0  501    0  0.00000000000E+00  0.00000000000E+00  0.10803922724E+04  0.10803922724E+04  0.00000000000E+00 0.  1.
         -2   -1    0    0    0  501 -0.00000000000E+00 -0.00000000000E+00 -0.23796848439E+04  0.23796848439E+04  0.00000000000E+00 0. -1.
         23    2    1    2    0    0 -0.24533273190E+03  0.13677728917E+04 -0.15109134545E+04  0.20544547521E+04  0.83270816190E+02 0.  0.
         13    1    3    3    0    0 -0.14085311399E+03  0.96190180909E+03 -0.10228434905E+04  0.14111355343E+04  0.00000000000E+00 0. -1.
        -13    1    3    3    0    0 -0.10447961791E+03  0.40587108265E+03 -0.48806996402E+03  0.64331921786E+03  0.00000000000E+00 0.  1.
         22    1    1    2    0    0  0.24533273190E+03 -0.13677728917E+04  0.21162088292E+03  0.14056223642E+04  0.00000000000E+00 0. -1.
<mgrwt>
<rscale>  0 0.32068633E+04</rscale>
<asrwt>0</asrwt>
<pdfrwt beam="1">  1        2 0.16621420E+00 0.32068633E+04</pdfrwt>
<pdfrwt beam="2">  1       -2 0.36610536E+00 0.32068633E+04</pdfrwt>
<totfact> 0.23170910E-01</totfact>
</mgrwt>
</event>
<event>
 6    1  0.6091287E-004  0.2081428E+04  0.7818608E-02  0.8569469E-01
         -2   -1    0    0    0  501 -0.00000000000E+00  0.00000000000E+00  0.56038279620E+03  0.56038279620E+03  0.00000000000E+00 0. -1.
          2   -1    0    0  501    0  0.00000000000E+00 -0.00000000000E+00 -0.19327607434E+04  0.19327607434E+04  0.00000000000E+00 0.  1.
         23    2    1    2    0    0  0.10217227063E+04 -0.15280296173E+03 -0.81728035485E+03  0.13203693198E+04  0.90343392812E+02 0.  0.
         11    1    3    3    0    0  0.67293420430E+03 -0.70973543765E+02 -0.57384583171E+03  0.88722980439E+03  0.00000000000E+00 0. -1.
        -11    1    3    3    0    0  0.34878850197E+03 -0.81829417967E+02 -0.24343452314E+03  0.43313951541E+03  0.00000000000E+00 0.  1.
         22    1    1    2    0    0 -0.10217227063E+04  0.15280296173E+03 -0.55509759235E+03  0.11727742198E+04  0.00000000000E+00 0. -1.
<mgrwt>
<rscale>  0 0.20814282E+04</rscale>
<asrwt>0</asrwt>
<pdfrwt beam="1">  1        2 0.29734781E+00 0.20814282E+04</pdfrwt>
<pdfrwt beam="2">  1       -2 0.86212736E-01 0.20814282E+04</pdfrwt>
<totfact> 0.78395699E+00</totfact>
</mgrwt>
</event>
<event>
 6    1  0.6091287E-004  0.2654512E+04  0.7818608E-02  0.8349917E-01
         -1   -1    0    0    0  501 -0.00000000000E+00  0.00000000000E+00  0.13379041195E+04  0.13379041195E+04  0.00000000000E+00 0. -1.
          1   -1    0    0  501    0  0.00000000000E+00 -0.00000000000E+00 -0.13166925996E+04  0.13166925996E+04  0.00000000000E+00 0.  1.
         23    2    1    2    0    0 -0.13527954111E+03 -0.17984001414E+03  0.13172439075E+04  0.13391717175E+04  0.87214633647E+02 0.  0.
         13    1    3    3    0    0 -0.12278454229E+03 -0.18821654855E+03  0.11891956921E+04  0.12102429125E+04  0.00000000000E+00 0. -1.
        -13    1    3    3    0    0 -0.12494998816E+02  0.83765344102E+01  0.12804821534E+03  0.12892880506E+03  0.00000000000E+00 0.  1.
         22    1    1    2    0    0  0.13527954111E+03  0.17984001414E+03 -0.12960323876E+04  0.13154250015E+04  0.00000000000E+00 0.  1.
<mgrwt>
<rscale>  0 0.26545120E+04</rscale>
<asrwt>0</asrwt>
<pdfrwt beam="1">  1        1 0.20256809E+00 0.26545120E+04</pdfrwt>
<pdfrwt beam="2">  1       -1 0.20583140E+00 0.26545120E+04</pdfrwt>
<totfact> 0.10588056E+00</totfact>
</mgrwt>
</event>
<event>
 6    1  0.6091287E-004  0.1761486E+04  0.7818608E-02  0.8727053E-01
          2   -1    0    0  501    0  0.00000000000E+00  0.00000000000E+00  0.15311679138E+04  0.15311679138E+04  0.00000000000E+00 0.  1.
         -2   -1    0    0    0  501 -0.00000000000E+00 -0.00000000000E+00 -0.50661231815E+03  0.50661231815E+03  0.00000000000E+00 0. -1.
         23    2    1    2    0    0 -0.42940242888E+03  0.93090023445E+01 -0.37271904381E+03  0.57598355611E+03  0.91457464632E+02 0.  0.
         11    1    3    3    0    0 -0.13294767917E+03  0.19499683050E+02 -0.17003983916E+03  0.21672302586E+03  0.00000000000E+00 0. -1.
        -11    1    3    3    0    0 -0.29645474971E+03 -0.10190680706E+02 -0.20267920465E+03  0.35926053025E+03  0.00000000000E+00 0.  1.
         22    1    1    2    0    0  0.42940242888E+03 -0.93090023445E+01  0.13972746395E+04  0.14617966759E+04  0.00000000000E+00 0.  1.
<mgrwt>
<rscale>  0 0.17614863E+04</rscale>
<asrwt>0</asrwt>
<pdfrwt beam="1">  1        2 0.23556429E+00 0.17614863E+04</pdfrwt>
<pdfrwt beam="2">  1       -2 0.77940357E-01 0.17614863E+04</pdfrwt>
<totfact> 0.16918035E+01</totfact>
</mgrwt>
</event>
<event>
 6    1  0.6091287E-004  0.1492230E+04  0.7818608E-02  0.8889636E-01
          2   -1    0    0  501    0  0.00000000000E+00  0.00000000000E+00  0.18040865082E+04  0.18040865082E+04  0.00000000000E+00 0.  1.
         -2   -1    0    0    0  501 -0.00000000000E+00 -0.00000000000E+00 -0.30857028223E+03  0.30857028223E+03  0.00000000000E+00 0. -1.
         23    2    1    2    0    0  0.25705624505E+03 -0.33674118769E+03 -0.11561485777E+03  0.44675886151E+03  0.82183601774E+02 0.  0.
         11    1    3    3    0    0  0.65910864663E+02 -0.57358313762E+02 -0.53911659777E+02  0.10266783965E+03  0.00000000000E+00 0. -1.
        -11    1    3    3    0    0  0.19114538039E+03 -0.27938287392E+03 -0.61703197988E+02  0.34409102187E+03  0.00000000000E+00 0.  1.
         22    1    1    2    0    0 -0.25705624505E+03  0.33674118769E+03  0.16111310837E+04  0.16658979289E+04  0.00000000000E+00 0.  1.
<mgrwt>
<rscale>  0 0.14922299E+04</rscale>
<asrwt>0</asrwt>
<pdfrwt beam="1">  1        2 0.27755176E+00 0.14922299E+04</pdfrwt>
<pdfrwt beam="2">  1       -2 0.47472352E-01 0.14922299E+04</pdfrwt>
<totfact> 0.34895888E+01</totfact>
</mgrwt>
</event>
<event>
 6    1  0.6091287E-004  0.1495944E+04  0.7818608E-02  0.8887154E-01
         -2   -1    0    0    0  501 -0.00000000000E+00  0.00000000000E+00  0.35504746230E+03  0.35504746230E+03  0.00000000000E+00 0. -1.
          2   -1    0    0  501    0  0.00000000000E+00 -0.00000000000E+00 -0.15757398023E+04  0.15757398023E+04  0.00000000000E+00 0.  1.
         23    2    1    2    0    0 -0.33742589941E+03  0.51110829918E+03 -0.64338805512E+02  0.62226083085E+03  0.89337162733E+02 0.  0.
         11    1    3    3    0    0 -0.25992207505E+03  0.43852394501E+03 -0.29952483837E+02  0.51064653796E+03  0.00000000000E+00 0. -1.
        -11    1    3    3    0    0 -0.77503824356E+02  0.72584354167E+02 -0.34386321675E+02  0.11161429289E+03  0.00000000000E+00 0.  1.
         22    1    1    2    0    0  0.33742589941E+03 -0.51110829918E+03 -0.11563535345E+04  0.13085264338E+04  0.00000000000E+00 0.  1.
<mgrwt>
<rscale>  0 0.14959444E+04</rscale>
<asrwt>0</asrwt>
<pdfrwt beam="1">  1        2 0.24242151E+00 0.14959444E+04</pdfrwt>
<pdfrwt beam="2">  1       -2 0.54622686E-01 0.14959444E+04</pdfrwt>
<totfact> 0.35067679E+01</totfact>
</mgrwt>
</event>
<event>
 6    1  0.6091287E-004  0.3796093E+04  0.7818608E-02  0.8046994E-01
          2   -1    0    0  501    0  0.00000000000E+00  0.00000000000E+00  0.18209344053E+04  0.18209344053E+04  0.00000000000E+00 0.  1.
         -2   -1    0    0    0  501 -0.00000000000E+00 -0.00000000000E+00 -0.19784237919E+04  0.19784237919E+04  0.00000000000E+00 0. -1.
         23    2    1    2    0    0 -0.17732106829E+04  0.51126389079E+03  0.36085798938E+03  0.18824985534E+04  0.88968664139E+02 0.  0.
         13    1    3    3    0    0 -0.23671614587E+03  0.37188778083E+02  0.47078858265E+02  0.24420065075E+03  0.00000000000E+00 0.  1.
        -13    1    3    3    0    0 -0.15364945370E+04  0.47407511271E+03  0.31377913111E+03  0.16382979026E+04  0.00000000000E+00 0. -1.
         22    1    1    2    0    0  0.17732106829E+04 -0.51126389079E+03 -0.51834737603E+03  0.19168596438E+04  0.00000000000E+00 0. -1.
<mgrwt>
<rscale>  0 0.37960927E+04</rscale>
<asrwt>0</asrwt>
<pdfrwt beam="1">  1        2 0.28014375E+00 0.37960927E+04</pdfrwt>
<pdfrwt beam="2">  1       -2 0.30437289E+00 0.37960927E+04</pdfrwt>
<totfact> 0.20133651E-01</totfact>
</mgrwt>
</event>
<event>
 6    1  0.6091287E-004  0.1430258E+04  0.7818608E-02  0.8932203E-01
         -2   -1    0    0    0  501 -0.00000000000E+00  0.00000000000E+00  0.51626167836E+03  0.51626167836E+03  0.00000000000E+00 0. -1.
          2   -1    0    0  501    0  0.00000000000E+00 -0.00000000000E+00 -0.99060125795E+03  0.99060125795E+03  0.00000000000E+00 0.  1.
         23    2    1    2    0    0 -0.18502559948E+03  0.26426129266E+03  0.43082192319E+03  0.54593325659E+03  0.91471787394E+02 0.  0.
         11    1    3    3    0    0 -0.62368439899E+02  0.16810028916E+03  0.23884204246E+03  0.29865205634E+03  0.00000000000E+00 0. -1.
        -11    1    3    3    0    0 -0.12265715958E+03  0.96161003494E+02  0.19197988073E+03  0.24728120024E+03  0.00000000000E+00 0.  1.
         22    1    1    2    0    0  0.18502559948E+03 -0.26426129266E+03 -0.90516150278E+03  0.96092967973E+03  0.00000000000E+00 0.  1.
<mgrwt>
<rscale>  0 0.14302580E+04</rscale>
<asrwt>0</asrwt>
<pdfrwt beam="1">  1        2 0.15240019E+00 0.14302580E+04</pdfrwt>
<pdfrwt beam="2">  1       -2 0.79424874E-01 0.14302580E+04</pdfrwt>
<totfact> 0.34859949E+01</totfact>
</mgrwt>
</event>
<event>
 6    1  0.6091287E-004  0.5125773E+04  0.7818608E-02  0.7809393E-01
         -2   -1    0    0    0  501 -0.00000000000E+00  0.00000000000E+00  0.24907577129E+04  0.24907577129E+04  0.00000000000E+00 0. -1.
          2   -1    0    0  501    0  0.00000000000E+00 -0.00000000000E+00 -0.26371042042E+04  0.26371042042E+04  0.00000000000E+00 0.  1.
         23    2    1    2    0    0  0.85527535315E+03 -0.45945683145E+03  0.22987709399E+04  0.24970453591E+04  0.91055926622E+02 0.  0.
         11    1    3    3    0    0  0.70641323140E+03 -0.33879236735E+03  0.18576254230E+04  0.20160784047E+04  0.00000000000E+00 0. -1.
        -11    1    3    3    0    0  0.14886212175E+03 -0.12066446410E+03  0.44114551690E+03  0.48096695445E+03  0.00000000000E+00 0.  1.
         22    1    1    2    0    0 -0.85527535315E+03  0.45945683145E+03 -0.24451174312E+04  0.26308165580E+04  0.00000000000E+00 0.  1.
<mgrwt>
<rscale>  0 0.51257732E+04</rscale>
<asrwt>0</asrwt>
<pdfrwt beam="1">  1        2 0.40570834E+00 0.51257732E+04</pdfrwt>
<pdfrwt beam="2">  1       -2 0.38319350E+00 0.51257732E+04</pdfrwt>
<totfact> 0.19923434E-02</totfact>
</mgrwt>
</event>
<event>
 6    1  0.6091287E-004  0.2024790E+04  0.7818608E-02  0.8595118E-01
          2   -1    0    0  501    0  0.00000000000E+00  0.00000000000E+00  0.10700569610E+04  0.10700569610E+04  0.00000000000E+00 0.  1.
         -2   -1    0    0    0  501 -0.00000000000E+00 -0.00000000000E+00 -0.95783984092E+03  0.95783984092E+03  0.00000000000E+00 0. -1.
         23    2    1    2    0    0  0.97895888668E+03 -0.14546431647E+03  0.25951247200E+03  0.10272888418E+04  0.91952553622E+02 0.  0.
         11    1    3    3    0    0  0.91992905352E+03 -0.13741899348E+03  0.21999598125E+03  0.95579897209E+03  0.00000000000E+00 0.  1.
        -11    1    3    3    0    0  0.59029833156E+02 -0.80453229956E+01  0.39516490758E+02  0.71489869677E+02  0.00000000000E+00 0. -1.
         22    1    1    2    0    0 -0.97895888668E+03  0.14546431647E+03 -0.14729535194E+03  0.10006079601E+04  0.00000000000E+00 0.  1.
<mgrwt>
<rscale>  0 0.20247896E+04</rscale>
<asrwt>0</asrwt>
<pdfrwt beam="1">  1        2 0.16462415E+00 0.20247896E+04</pdfrwt>
<pdfrwt beam="2">  1       -2 0.14735998E+00 0.20247896E+04</pdfrwt>
<totfact> 0.66211350E+00</totfact>
</mgrwt>
</event>
<event>
 6    1  0.6091287E-004  0.2451142E+04  0.7818608E-02  0.8420601E-01
         -2   -1    0    0    0  501 -0.00000000000E+00  0.00000000000E+00  0.46783393727E+03  0.46783393727E+03  0.00000000000E+00 0. -1.
          2   -1    0    0  501    0  0.00000000000E+00 -0.00000000000E+00 -0.32105928018E+04  0.32105928018E+04  0.00000000000E+00 0.  1.
         23    2    1    2    0    0  0.68994658488E+03  0.17252381525E+03  0.12131648333E+03  0.72737296880E+03  0.92536424098E+02 0.  0.
         13    1    3    3    0    0  0.52010410092E+03  0.10917978827E+03  0.12548774226E+03  0.54605464509E+03  0.00000000000E+00 0. -1.
        -13    1    3    3    0    0  0.16984248396E+03  0.63344026977E+02 -0.41712589216E+01  0.18131832371E+03  0.00000000000E+00 0.  1.
         22    1    1    2    0    0 -0.68994658488E+03 -0.17252381525E+03 -0.28640753478E+04  0.29510537702E+04  0.00000000000E+00 0.  1.
<mgrwt>
<rscale>  0 0.24511420E+04</rscale>
<asrwt>0</asrwt>
<pdfrwt beam="1">  1        2 0.49393734E+00 0.24511420E+04</pdfrwt>
<pdfrwt beam="2">  1       -2 0.71974454E-01 0.24511420E+04</pdfrwt>
<totfact> 0.20001957E+00</totfact>
</mgrwt>
</event>
<event>
 6    1  0.6091287E-004  0.4123848E+04  0.7818608E-02  0.7980018E-01
         -2   -1    0    0    0  501 -0.00000000000E+00  0.00000000000E+00  0.22391730698E+04  0.22391730698E+04  0.00000000000E+00 0. -1.
          2   -1    0    0  501    0  0.00000000000E+00 -0.00000000000E+00 -0.18987053177E+04  0.18987053177E+04  0.00000000000E+00 0.  1.
         23    2    1    2    0    0 -0.81196827427E+03 -0.12295824466E+04  0.16160880919E+04  0.21889369510E+04  0.92405538815E+02 0.  0.
         11    1    3    3    0    0 -0.60958776547E+03 -0.84955038924E+03  0.11284177436E+04  0.15383951741E+04  0.00000000000E+00 0.  1.
        -11    1    3    3    0    0 -0.20238050880E+03 -0.38003205734E+03  0.48767034827E+03  0.65054177693E+03  0.00000000000E+00 0. -1.
         22    1    1    2    0    0  0.81196827427E+03  0.12295824466E+04 -0.12756203398E+04  0.19489414364E+04  0.00000000000E+00 0.  1.
<mgrwt>
<rscale>  0 0.41238476E+04</rscale>
<asrwt>0</asrwt>
<pdfrwt beam="1">  1        2 0.29210851E+00 0.41238476E+04</pdfrwt>
<pdfrwt beam="2">  1       -2 0.34448816E+00 0.41238476E+04</pdfrwt>
<totfact> 0.10009711E-01</totfact>
</mgrwt>
</event>
<event>
 6    1  0.6091287E-004  0.2974759E+04  0.7818608E-02  0.8250975E-01
         -2   -1    0    0    0  501 -0.00000000000E+00  0.00000000000E+00  0.49997710961E+03  0.49997710961E+03  0.00000000000E+00 0.  1.
          2   -1    0    0  501    0  0.00000000000E+00 -0.00000000000E+00 -0.44247992891E+04  0.44247992891E+04  0.00000000000E+00 0. -1.
         23    2    1    2    0    0  0.44534029275E+03 -0.11654640092E+04 -0.62854470618E+03  0.14002793404E+04  0.95286149882E+02 0.  0.
         13    1    3    3    0    0  0.24295135301E+03 -0.63464405973E+03 -0.39528824924E+03  0.78616235121E+03  0.00000000000E+00 0. -1.
        -13    1    3    3    0    0  0.20238893974E+03 -0.53081994947E+03 -0.23325645693E+03  0.61411698917E+03  0.00000000000E+00 0.  1.
         22    1    1    2    0    0 -0.44534029275E+03  0.11654640092E+04 -0.32962774734E+04  0.35244970584E+04  0.00000000000E+00 0. -1.
<mgrwt>
<rscale>  0 0.29747594E+04</rscale>
<asrwt>0</asrwt>
<pdfrwt beam="1">  1        2 0.68073838E+00 0.29747594E+04</pdfrwt>
<pdfrwt beam="2">  1       -2 0.76919552E-01 0.29747594E+04</pdfrwt>
<totfact> 0.18820924E-01</totfact>
</mgrwt>
</event>
<event>
 6    1  0.6091287E-004  0.4052214E+04  0.7818608E-02  0.7994095E-01
          2   -1    0    0  501    0  0.00000000000E+00  0.00000000000E+00  0.13326893554E+04  0.13326893554E+04  0.00000000000E+00 0.  1.
         -2   -1    0    0    0  501 -0.00000000000E+00 -0.00000000000E+00 -0.30803195743E+04  0.30803195743E+04  0.00000000000E+00 0. -1.
         23    2    1    2    0    0 -0.69141132761E+03 -0.15715281568E+04 -0.20436694395E+04  0.26707719791E+04  0.93208449378E+02 0.  0.
         13    1    3    3    0    0 -0.58573707151E+03 -0.14046212402E+04 -0.18134567333E+04  0.23674192846E+04  0.00000000000E+00 0.  1.
        -13    1    3    3    0    0 -0.10567425609E+03 -0.16690691662E+03 -0.23021270619E+03  0.30335269458E+03  0.00000000000E+00 0. -1.
         22    1    1    2    0    0  0.69141132761E+03  0.15715281568E+04  0.29603922063E+03  0.17422369505E+04  0.00000000000E+00 0.  1.
<mgrwt>
<rscale>  0 0.40522138E+04</rscale>
<asrwt>0</asrwt>
<pdfrwt beam="1">  1        2 0.20502913E+00 0.40522138E+04</pdfrwt>
<pdfrwt beam="2">  1       -2 0.47389531E+00 0.40522138E+04</pdfrwt>
<totfact> 0.30084199E-02</totfact>
</mgrwt>
</event>
<event>
 6    1  0.6091287E-004  0.1797579E+04  0.7818608E-02  0.8707588E-01
          4   -1    0    0  501    0  0.00000000000E+00  0.00000000000E+00  0.16374025630E+04  0.16374025630E+04  0.00000000000E+00 0.  1.
         -4   -1    0    0    0  501 -0.00000000000E+00 -0.00000000000E+00 -0.49335623582E+03  0.49335623582E+03  0.00000000000E+00 0. -1.
         23    2    1    2    0    0 -0.38675517005E+03 -0.15246133673E+03 -0.36819796082E+03  0.56241355387E+03  0.88967670942E+02 0.  0.
         11    1    3    3    0    0 -0.90189621044E+02 -0.43066099544E+01 -0.51538574060E+02  0.10396604854E+03  0.00000000000E+00 0. -1.
        -11    1    3    3    0    0 -0.29656554900E+03 -0.14815472677E+03 -0.31665938676E+03  0.45844750533E+03  0.00000000000E+00 0.  1.
         22    1    1    2    0    0  0.38675517005E+03  0.15246133673E+03  0.15122442880E+04  0.15683452449E+04  0.00000000000E+00 0.  1.
<mgrwt>
<rscale>  0 0.17975792E+04</rscale>
<asrwt>0</asrwt>
<pdfrwt beam="1">  1        4 0.25190808E+00 0.17975792E+04</pdfrwt>
<pdfrwt beam="2">  1       -4 0.75900960E-01 0.17975792E+04</pdfrwt>
<totfact> 0.18161460E-01</totfact>
</mgrwt>
</event>
<event>
 6    1  0.6091287E-004  0.2149973E+04  0.7818608E-02  0.8539544E-01
         -2   -1    0    0    0  501 -0.00000000000E+00  0.00000000000E+00  0.77477188890E+03  0.77477188890E+03  0.00000000000E+00 0. -1.
          2   -1    0    0  501    0  0.00000000000E+00 -0.00000000000E+00 -0.14915306431E+04  0.14915306431E+04  0.00000000000E+00 0.  1.
         23    2    1    2    0    0  0.10615292987E+04  0.11704928642E+03 -0.24920393868E+03  0.11004755753E+04  0.91645519118E+02 0.  0.
         13    1    3    3    0    0  0.33073242771E+03  0.70981471882E+02 -0.52933088779E+02  0.34238022720E+03  0.00000000000E+00 0.  1.
        -13    1    3    3    0    0  0.73079687102E+03  0.46067814539E+02 -0.19627084990E+03  0.75809534806E+03  0.00000000000E+00 0. -1.
         22    1    1    2    0    0 -0.10615292987E+04 -0.11704928642E+03 -0.46755481550E+03  0.11658269567E+04  0.00000000000E+00 0. -1.
<mgrwt>
<rscale>  0 0.21499730E+04</rscale>
<asrwt>0</asrwt>
<pdfrwt beam="1">  1        2 0.22946625E+00 0.21499730E+04</pdfrwt>
<pdfrwt beam="2">  1       -2 0.11919568E+00 0.21499730E+04</pdfrwt>
<totfact> 0.63614680E+00</totfact>
</mgrwt>
</event>
<event>
 6    1  0.6091287E-004  0.1017726E+04  0.7818608E-02  0.9289314E-01
          2   -1    0    0  501    0  0.00000000000E+00  0.00000000000E+00  0.11991533817E+04  0.11991533817E+04  0.00000000000E+00 0.  1.
         -2   -1    0    0    0  501 -0.00000000000E+00 -0.00000000000E+00 -0.21593698956E+03  0.21593698956E+03  0.00000000000E+00 0. -1.
         23    2    1    2    0    0  0.19930159767E+03  0.80251322445E+02  0.11306791553E+04  0.11545012922E+04  0.90975159720E+02 0.  0.
         13    1    3    3    0    0  0.59369936600E+02  0.58873629573E+02  0.28332546421E+03  0.29540516634E+03  0.00000000000E+00 0. -1.
        -13    1    3    3    0    0  0.13993166107E+03  0.21377692872E+02  0.84735369113E+03  0.85909612582E+03  0.00000000000E+00 0.  1.
         22    1    1    2    0    0 -0.19930159767E+03 -0.80251322445E+02 -0.14746276324E+03  0.26058907907E+03  0.00000000000E+00 0. -1.
<mgrwt>
<rscale>  0 0.10177260E+04</rscale>
<asrwt>0</asrwt>
<pdfrwt beam="1">  1        2 0.18448513E+00 0.10177260E+04</pdfrwt>
<pdfrwt beam="2">  1       -2 0.33221076E-01 0.10177260E+04</pdfrwt>
<totfact> 0.15985210E+02</totfact>
</mgrwt>
</event>
<event>
 6    1  0.6091287E-004  0.3567849E+04  0.7818608E-02  0.8097896E-01
         -2   -1    0    0    0  501 -0.00000000000E+00  0.00000000000E+00  0.13787404304E+04  0.13787404304E+04  0.00000000000E+00 0. -1.
          2   -1    0    0  501    0  0.00000000000E+00 -0.00000000000E+00 -0.23081838735E+04  0.23081838735E+04  0.00000000000E+00 0.  1.
         23    2    1    2    0    0 -0.45130613112E+03  0.38750997305E+03 -0.22018115906E+04  0.22823738755E+04  0.86110532435E+02 0.  0.
         11    1    3    3    0    0 -0.17163722205E+03  0.94752097760E+02 -0.73978913434E+03  0.76532689703E+03  0.00000000000E+00 0. -1.
        -11    1    3    3    0    0 -0.27966890907E+03  0.29275787529E+03 -0.14620224563E+04  0.15170469785E+04  0.00000000000E+00 0.  1.
         22    1    1    2    0    0  0.45130613112E+03 -0.38750997305E+03  0.12723681475E+04  0.14045504284E+04  0.00000000000E+00 0. -1.
<mgrwt>
<rscale>  0 0.35678489E+04</rscale>
<asrwt>0</asrwt>
<pdfrwt beam="1">  1        2 0.35510521E+00 0.35678489E+04</pdfrwt>
<pdfrwt beam="2">  1       -2 0.21211391E+00 0.35678489E+04</pdfrwt>
<totfact> 0.40677143E-01</totfact>
</mgrwt>
</event>
<event>
 6    1  0.6091287E-004  0.2503746E+04  0.7818608E-02  0.8401652E-01
         -2   -1    0    0    0  501 -0.00000000000E+00  0.00000000000E+00  0.50188579061E+03  0.50188579061E+03  0.00000000000E+00 0. -1.
          2   -1    0    0  501    0  0.00000000000E+00 -0.00000000000E+00 -0.31225951044E+04  0.31225951044E+04  0.00000000000E+00 0.  1.
         23    2    1    2    0    0  0.12412034192E+04 -0.38971271395E+02 -0.10998422453E+04  0.16610295134E+04  0.85213802369E+02 0.  0.
         11    1    3    3    0    0  0.55878325498E+03 -0.59238868688E+02 -0.48609045872E+03  0.74298849498E+03  0.00000000000E+00 0. -1.
        -11    1    3    3    0    0  0.68242016421E+03  0.20267597294E+02 -0.61375178655E+03  0.91804101843E+03  0.00000000000E+00 0.  1.
         22    1    1    2    0    0 -0.12412034192E+04  0.38971271395E+02 -0.15208670686E+04  0.19634513816E+04  0.00000000000E+00 0.  1.
<mgrwt>
<rscale>  0 0.25037461E+04</rscale>
<asrwt>0</asrwt>
<pdfrwt beam="1">  1        2 0.48039925E+00 0.25037461E+04</pdfrwt>
<pdfrwt beam="2">  1       -2 0.77213198E-01 0.25037461E+04</pdfrwt>
<totfact> 0.19429493E+00</totfact>
</mgrwt>
</event>
<event>
 6    1  0.6091287E-004  0.3506263E+04  0.7818608E-02  0.8112307E-01
         -1   -1    0    0    0  501 -0.00000000000E+00  0.00000000000E+00  0.14359410945E+04  0.14359410945E+04  0.00000000000E+00 0. -1.
          1   -1    0    0  501    0  0.00000000000E+00 -0.00000000000E+00 -0.21403874781E+04  0.21403874781E+04  0.00000000000E+00 0.  1.
         23    2    1    2    0    0  0.15964482922E+03  0.13131156034E+04  0.81926226880E+03  0.15585458496E+04  0.90085741099E+02 0.  0.
         11    1    3    3    0    0  0.10651378924E+03  0.95408417678E+03  0.54773646034E+03  0.11052769036E+04  0.00000000000E+00 0.  1.
        -11    1    3    3    0    0  0.53131039987E+02  0.35903142666E+03  0.27152580846E+03  0.45326894599E+03  0.00000000000E+00 0. -1.
         22    1    1    2    0    0 -0.15964482922E+03 -0.13131156034E+04 -0.15237086525E+04  0.20177827230E+04  0.00000000000E+00 0.  1.
<mgrwt>
<rscale>  0 0.35062632E+04</rscale>
<asrwt>0</asrwt>
<pdfrwt beam="1">  1        1 0.32929038E+00 0.35062632E+04</pdfrwt>
<pdfrwt beam="2">  1       -1 0.22091401E+00 0.35062632E+04</pdfrwt>
<totfact> 0.21167348E-01</totfact>
</mgrwt>
</event>
<event>
 6    1  0.6091287E-004  0.2935367E+04  0.7818608E-02  0.8262432E-01
         -2   -1    0    0    0  501 -0.00000000000E+00  0.00000000000E+00  0.64158151162E+03  0.64158151162E+03  0.00000000000E+00 0. -1.
          2   -1    0    0  501    0  0.00000000000E+00 -0.00000000000E+00 -0.33574773722E+04  0.33574773722E+04  0.00000000000E+00 0.  1.
         23    2    1    2    0    0 -0.47231507101E+03 -0.31223982824E+03 -0.32019024343E+04  0.32528835516E+04  0.92178983601E+02 0.  0.
         11    1    3    3    0    0 -0.64094710189E+02 -0.33176965347E+02 -0.60795620050E+03  0.61222510944E+03  0.00000000000E+00 0.  1.
        -11    1    3    3    0    0 -0.40822036082E+03 -0.27906286290E+03 -0.25939462338E+04  0.26406584422E+04  0.00000000000E+00 0. -1.
         22    1    1    2    0    0  0.47231507101E+03  0.31223982824E+03  0.48600657374E+03  0.74617533218E+03  0.00000000000E+00 0. -1.
<mgrwt>
<rscale>  0 0.29353674E+04</rscale>
<asrwt>0</asrwt>
<pdfrwt beam="1">  1        2 0.51653497E+00 0.29353674E+04</pdfrwt>
<pdfrwt beam="2">  1       -2 0.98704849E-01 0.29353674E+04</pdfrwt>
<totfact> 0.74658776E-01</totfact>
</mgrwt>
</event>
<event>
 6    1  0.6091287E-004  0.1534496E+04  0.7818608E-02  0.8861832E-01
          2   -1    0    0  501    0  0.00000000000E+00  0.00000000000E+00  0.83501663213E+03  0.83501663213E+03  0.00000000000E+00 0.  1.
         -2   -1    0    0    0  501 -0.00000000000E+00 -0.00000000000E+00 -0.70497932378E+03  0.70497932378E+03  0.00000000000E+00 0. -1.
         23    2    1    2    0    0 -0.35186965419E+03 -0.27379880847E+03 -0.55806822859E+03  0.72007689221E+03  0.91063394824E+02 0.  0.
         13    1    3    3    0    0 -0.22984214020E+03 -0.14217558023E+03 -0.38774791105E+03  0.47264124613E+03  0.00000000000E+00 0. -1.
        -13    1    3    3    0    0 -0.12202751399E+03 -0.13162322823E+03 -0.17032031754E+03  0.24743564607E+03  0.00000000000E+00 0.  1.
         22    1    1    2    0    0  0.35186965419E+03  0.27379880847E+03  0.68810553694E+03  0.81991906371E+03  0.00000000000E+00 0.  1.
<mgrwt>
<rscale>  0 0.15344960E+04</rscale>
<asrwt>0</asrwt>
<pdfrwt beam="1">  1        2 0.12846410E+00 0.15344960E+04</pdfrwt>
<pdfrwt beam="2">  1       -2 0.10845836E+00 0.15344960E+04</pdfrwt>
<totfact> 0.21307044E+01</totfact>
</mgrwt>
</event>
<event>
 6    1  0.6091287E-004  0.2564524E+04  0.7818608E-02  0.8380352E-01
          1   -1    0    0  501    0  0.00000000000E+00  0.00000000000E+00  0.17455610882E+04  0.17455610882E+04  0.00000000000E+00 0.  1.
         -1   -1    0    0    0  501 -0.00000000000E+00 -0.00000000000E+00 -0.94192963092E+03  0.94192963092E+03  0.00000000000E+00 0. -1.
         23    2    1    2    0    0 -0.55724150490E+03  0.11421671531E+03 -0.80006069726E+03  0.98590555246E+03  0.91373334308E+02 0.  0.
         13    1    3    3    0    0 -0.17780520964E+03  0.15294789278E+02 -0.31642371872E+03  0.36328032279E+03  0.00000000000E+00 0. -1.
        -13    1    3    3    0    0 -0.37943629526E+03  0.98921926032E+02 -0.48363697854E+03  0.62262522967E+03  0.00000000000E+00 0.  1.
         22    1    1    2    0    0  0.55724150490E+03 -0.11421671531E+03  0.16036921546E+04  0.17015851667E+04  0.00000000000E+00 0.  1.
<mgrwt>
<rscale>  0 0.25645239E+04</rscale>
<asrwt>0</asrwt>
<pdfrwt beam="1">  1        1 0.26854786E+00 0.25645239E+04</pdfrwt>
<pdfrwt beam="2">  1       -1 0.14491225E+00 0.25645239E+04</pdfrwt>
<totfact> 0.15000406E+00</totfact>
</mgrwt>
</event>
<event>
 6    1  0.6091287E-004  0.3597505E+04  0.7818608E-02  0.8091064E-01
          2   -1    0    0  501    0  0.00000000000E+00  0.00000000000E+00  0.15770833499E+04  0.15770833499E+04  0.00000000000E+00 0.  1.
         -2   -1    0    0    0  501 -0.00000000000E+00 -0.00000000000E+00 -0.20515781650E+04  0.20515781650E+04  0.00000000000E+00 0. -1.
         23    2    1    2    0    0  0.15676703837E+04  0.18874783565E+03 -0.11039285452E+04  0.19288371128E+04  0.92402366856E+02 0.  0.
         11    1    3    3    0    0  0.11976965219E+04  0.10898501845E+03 -0.81728949758E+03  0.14540690546E+04  0.00000000000E+00 0. -1.
        -11    1    3    3    0    0  0.36997386183E+03  0.79762817209E+02 -0.28663904759E+03  0.47476805816E+03  0.00000000000E+00 0.  1.
         22    1    1    2    0    0 -0.15676703837E+04 -0.18874783565E+03  0.62943373003E+03  0.16998244021E+04  0.00000000000E+00 0.  1.
<mgrwt>
<rscale>  0 0.35975046E+04</rscale>
<asrwt>0</asrwt>
<pdfrwt beam="1">  1        2 0.24262821E+00 0.35975046E+04</pdfrwt>
<pdfrwt beam="2">  1       -2 0.31562741E+00 0.35975046E+04</pdfrwt>
<totfact> 0.23854562E-01</totfact>
</mgrwt>
</event>
<event>
 6    1  0.6091287E-004  0.2274974E+04  0.7818608E-02  0.8487854E-01
         -2   -1    0    0    0  501 -0.00000000000E+00  0.00000000000E+00  0.35685774392E+03  0.35685774392E+03  0.00000000000E+00 0. -1.
          2   -1    0    0  501    0  0.00000000000E+00 -0.00000000000E+00 -0.36257483308E+04  0.36257483308E+04  0.00000000000E+00 0.  1.
         23    2    1    2    0    0 -0.83786383064E+03  0.64544856885E+03 -0.23610250611E+04  0.25887483105E+04  0.92513905203E+02 0.  0.
         13    1    3    3    0    0 -0.54320370202E+03  0.44548200615E+03 -0.14716274685E+04  0.16307090132E+04  0.00000000000E+00 0. -1.
        -13    1    3    3    0    0 -0.29466012862E+03  0.19996656270E+03 -0.88939759258E+03  0.95803929736E+03  0.00000000000E+00 0.  1.
         22    1    1    2    0    0  0.83786383064E+03 -0.64544856885E+03 -0.90786552578E+03  0.13938577641E+04  0.00000000000E+00 0. -1.
<mgrwt>
<rscale>  0 0.22749737E+04</rscale>
<asrwt>0</asrwt>
<pdfrwt beam="1">  1        2 0.55780744E+00 0.22749737E+04</pdfrwt>
<pdfrwt beam="2">  1       -2 0.54901191E-01 0.22749737E+04</pdfrwt>
<totfact> 0.18819992E+00</totfact>
</mgrwt>
</event>
<event>
 6    1  0.6091287E-004  0.1850757E+04  0.7818608E-02  0.8679764E-01
         -2   -1    0    0    0  501 -0.00000000000E+00  0.00000000000E+00  0.27396892041E+03  0.27396892041E+03  0.00000000000E+00 0. -1.
          2   -1    0    0  501    0  0.00000000000E+00 -0.00000000000E+00 -0.31256293427E+04  0.31256293427E+04  0.00000000000E+00 0.  1.
         23    2    1    2    0    0 -0.91280915443E+03  0.67509829229E+02 -0.12091094236E+04  0.15192387462E+04  0.91447473047E+02 0.  0.
         11    1    3    3    0    0 -0.57627336789E+03  0.86609038670E+02 -0.75949006808E+03  0.95729686285E+03  0.00000000000E+00 0. -1.
        -11    1    3    3    0    0 -0.33653578654E+03 -0.19099209441E+02 -0.44961935552E+03  0.56194188336E+03  0.00000000000E+00 0.  1.
         22    1    1    2    0    0  0.91280915443E+03 -0.67509829229E+02 -0.16425509987E+04  0.18803595169E+04  0.00000000000E+00 0.  1.
<mgrwt>
<rscale>  0 0.18507569E+04</rscale>
<asrwt>0</asrwt>
<pdfrwt beam="1">  1        2 0.48086603E+00 0.18507569E+04</pdfrwt>
<pdfrwt beam="2">  1       -2 0.42149066E-01 0.18507569E+04</pdfrwt>
<totfact> 0.72994047E+00</totfact>
</mgrwt>
</event>
<event>
 6    1  0.6091287E-004  0.2844575E+04  0.7818608E-02  0.8289562E-01
          2   -1    0    0  501    0  0.00000000000E+00  0.00000000000E+00  0.21783686432E+04  0.21783686432E+04  0.00000000000E+00 0.  1.
         -2   -1    0    0    0  501 -0.00000000000E+00 -0.00000000000E+00 -0.92863120937E+03  0.92863120937E+03  0.00000000000E+00 0. -1.
         23    2    1    2    0    0 -0.96170153387E+03  0.11200005669E+03  0.17613010344E+04  0.20119605061E+04  0.91596349338E+02 0.  0.
         13    1    3    3    0    0 -0.23984785750E+03  0.65417245614E+02  0.42120237380E+03  0.48909901909E+03  0.00000000000E+00 0. -1.
        -13    1    3    3    0    0 -0.72185367636E+03  0.46582811081E+02  0.13400986606E+04  0.15228614870E+04  0.00000000000E+00 0.  1.
         22    1    1    2    0    0  0.96170153387E+03 -0.11200005669E+03 -0.51156360059E+03  0.10950393465E+04  0.00000000000E+00 0. -1.
<mgrwt>
<rscale>  0 0.28445746E+04</rscale>
<asrwt>0</asrwt>
<pdfrwt beam="1">  1        2 0.33513364E+00 0.28445746E+04</pdfrwt>
<pdfrwt beam="2">  1       -2 0.14286634E+00 0.28445746E+04</pdfrwt>
<totfact> 0.15684386E+00</totfact>
</mgrwt>
</event>
<event>
 6    1  0.6091287E-004  0.2001621E+04  0.7818608E-02  0.8605863E-01
         -2   -1    0    0    0  501 -0.00000000000E+00  0.00000000000E+00  0.72732110212E+03  0.72732110212E+03  0.00000000000E+00 0. -1.
          2   -1    0    0  501    0  0.00000000000E+00 -0.00000000000E+00 -0.13771388190E+04  0.13771388190E+04  0.00000000000E+00 0.  1.
         23    2    1    2    0    0  0.77866726266E+03 -0.61288899083E+02  0.32881016323E+03  0.85234508502E+03  0.91087789684E+02 0.  0.
         13    1    3    3    0    0  0.71945670936E+03 -0.72226365754E+02  0.32273024277E+03  0.79182663138E+03  0.00000000000E+00 0. -1.
        -13    1    3    3    0    0  0.59210553291E+02  0.10937466671E+02  0.60799204560E+01  0.60518453639E+02  0.00000000000E+00 0.  1.
         22    1    1    2    0    0 -0.77866726266E+03  0.61288899083E+02 -0.97862788012E+03  0.12521148361E+04  0.00000000000E+00 0.  1.
<mgrwt>
<rscale>  0 0.20016215E+04</rscale>
<asrwt>0</asrwt>
<pdfrwt beam="1">  1        2 0.21186751E+00 0.20016215E+04</pdfrwt>
<pdfrwt beam="2">  1       -2 0.11189555E+00 0.20016215E+04</pdfrwt>
<totfact> 0.87345214E+00</totfact>
</mgrwt>
</event>
<event>
 6    1  0.6091287E-004  0.4338095E+04  0.7818608E-02  0.7939611E-01
         -2   -1    0    0    0  501 -0.00000000000E+00  0.00000000000E+00  0.17680916014E+04  0.17680916014E+04  0.00000000000E+00 0. -1.
          2   -1    0    0  501    0  0.00000000000E+00 -0.00000000000E+00 -0.26609288820E+04  0.26609288820E+04  0.00000000000E+00 0.  1.
         23    2    1    2    0    0  0.18442496009E+04 -0.36560927084E+03  0.65611007526E+03  0.19930063947E+04  0.81653714483E+02 0.  0.
         13    1    3    3    0    0  0.14646048611E+04 -0.25690276910E+03  0.51278924529E+03  0.15729015360E+04  0.00000000000E+00 0.  1.
        -13    1    3    3    0    0  0.37964473980E+03 -0.10870650174E+03  0.14332082997E+03  0.42010485867E+03  0.00000000000E+00 0. -1.
         22    1    1    2    0    0 -0.18442496009E+04  0.36560927084E+03 -0.15489473558E+04  0.24360140887E+04  0.00000000000E+00 0.  1.
<mgrwt>
<rscale>  0 0.43380945E+04</rscale>
<asrwt>0</asrwt>
<pdfrwt beam="1">  1        2 0.40937367E+00 0.43380945E+04</pdfrwt>
<pdfrwt beam="2">  1       -2 0.27201409E+00 0.43380945E+04</pdfrwt>
<totfact> 0.10131081E-01</totfact>
</mgrwt>
</event>
<event>
 6    1  0.6091287E-004  0.4074866E+04  0.7818608E-02  0.7989612E-01
          2   -1    0    0  501    0  0.00000000000E+00  0.00000000000E+00  0.27120008225E+04  0.27120008225E+04  0.00000000000E+00 0.  1.
         -2   -1    0    0    0  501 -0.00000000000E+00 -0.00000000000E+00 -0.15306536357E+04  0.15306536357E+04  0.00000000000E+00 0. -1.
         23    2    1    2    0    0  0.47197594686E+03  0.16327527416E+04 -0.57686270720E+03  0.17972618843E+04  0.93471322784E+02 0.  0.
         11    1    3    3    0    0  0.36879792091E+03  0.11983709892E+04 -0.38806093679E+03  0.13125152285E+04  0.00000000000E+00 0. -1.
        -11    1    3    3    0    0  0.10317802596E+03  0.43438175233E+03 -0.18880177041E+03  0.48474665580E+03  0.00000000000E+00 0.  1.
         22    1    1    2    0    0 -0.47197594686E+03 -0.16327527416E+04  0.17582098940E+04  0.24453925740E+04  0.00000000000E+00 0.  1.
<mgrwt>
<rscale>  0 0.40748663E+04</rscale>
<asrwt>0</asrwt>
<pdfrwt beam="1">  1        2 0.41723089E+00 0.40748663E+04</pdfrwt>
<pdfrwt beam="2">  1       -2 0.23548518E+00 0.40748663E+04</pdfrwt>
<totfact> 0.16181493E-01</totfact>
</mgrwt>
</event>
<event>
 6    1  0.9542838E-004  0.4436669E+04  0.7818608E-02  0.7921819E-01
         -2   -1    0    0    0  501 -0.00000000000E+00  0.00000000000E+00  0.25533183443E+04  0.25533183443E+04  0.00000000000E+00 0. -1.
          2   -1    0    0  501    0  0.00000000000E+00 -0.00000000000E+00 -0.19272986457E+04  0.19272986457E+04  0.00000000000E+00 0.  1.
         23    2    1    2    0    0  0.13599989264E+04  0.90791860009E+03 -0.11993932240E+04  0.20298935045E+04  0.89500110480E+02 0.  0.
         13    1    3    3    0    0  0.31269933374E+03  0.16839773025E+03 -0.24143839890E+03  0.42945450206E+03  0.00000000000E+00 0.  1.
        -13    1    3    3    0    0  0.10472995926E+04  0.73952086984E+03 -0.95795482505E+03  0.16004390024E+04  0.00000000000E+00 0. -1.
         22    1    1    2    0    0 -0.13599989264E+04 -0.90791860009E+03  0.18254129226E+04  0.24507234854E+04  0.00000000000E+00 0. -1.
<mgrwt>
<rscale>  0 0.44366686E+04</rscale>
<asrwt>0</asrwt>
<pdfrwt beam="1">  1        2 0.29650748E+00 0.44366686E+04</pdfrwt>
<pdfrwt beam="2">  1       -2 0.39281821E+00 0.44366686E+04</pdfrwt>
<totfact> 0.46176756E-02</totfact>
</mgrwt>
</event>
<event>
 6    1  0.6091287E-004  0.1652712E+04  0.7818608E-02  0.8788804E-01
         -2   -1    0    0    0  501 -0.00000000000E+00  0.00000000000E+00  0.30366783401E+03  0.30366783401E+03  0.00000000000E+00 0. -1.
          2   -1    0    0  501    0  0.00000000000E+00 -0.00000000000E+00 -0.22487199728E+04  0.22487199728E+04  0.00000000000E+00 0.  1.
         23    2    1    2    0    0  0.64264438766E+03 -0.45204816452E+03 -0.59478831639E+03  0.99016127326E+03  0.96472035930E+02 0.  0.
         11    1    3    3    0    0  0.54132913969E+03 -0.41182009599E+03 -0.48447818462E+03  0.83507612845E+03  0.00000000000E+00 0. -1.
        -11    1    3    3    0    0  0.10131524798E+03 -0.40228068524E+02 -0.11031013177E+03  0.15508514481E+03  0.00000000000E+00 0.  1.
         22    1    1    2    0    0 -0.64264438766E+03  0.45204816452E+03 -0.13502638224E+04  0.15622265335E+04  0.00000000000E+00 0.  1.
<mgrwt>
<rscale>  0 0.16527116E+04</rscale>
<asrwt>0</asrwt>
<pdfrwt beam="1">  1        2 0.34595692E+00 0.16527116E+04</pdfrwt>
<pdfrwt beam="2">  1       -2 0.46718127E-01 0.16527116E+04</pdfrwt>
<totfact> 0.20123147E+01</totfact>
</mgrwt>
</event>
<event>
 6    1  0.6601445E-004  0.3819771E+04  0.7818608E-02  0.8041925E-01
          2   -1    0    0  501    0  0.00000000000E+00  0.00000000000E+00  0.25931849430E+04  0.25931849430E+04  0.00000000000E+00 0.  1.
         -2   -1    0    0    0  501 -0.00000000000E+00 -0.00000000000E+00 -0.14066338457E+04  0.14066338457E+04  0.00000000000E+00 0. -1.
         23    2    1    2    0    0  0.16100802875E+04 -0.79094073363E+03  0.12769048502E+04  0.22036813838E+04  0.88203564335E+02 0.  0.
         11    1    3    3    0    0  0.52449667672E+03 -0.21451847325E+03  0.41948854463E+03  0.70504296205E+03  0.00000000000E+00 0.  1.
        -11    1    3    3    0    0  0.10855836108E+04 -0.57642226037E+03  0.85741630558E+03  0.14986384218E+04  0.00000000000E+00 0. -1.
         22    1    1    2    0    0 -0.16100802875E+04  0.79094073363E+03 -0.90353752941E+02  0.17961374048E+04  0.00000000000E+00 0. -1.
<mgrwt>
<rscale>  0 0.38197705E+04</rscale>
<asrwt>0</asrwt>
<pdfrwt beam="1">  1        2 0.39895153E+00 0.38197705E+04</pdfrwt>
<pdfrwt beam="2">  1       -2 0.21640521E+00 0.38197705E+04</pdfrwt>
<totfact> 0.25611434E-01</totfact>
</mgrwt>
</event>
<event>
 6    1  0.6091287E-004  0.1037296E+04  0.7818608E-02  0.9268559E-01
          2   -1    0    0  501    0  0.00000000000E+00  0.00000000000E+00  0.84202193243E+03  0.84202193243E+03  0.00000000000E+00 0.  1.
         -2   -1    0    0    0  501 -0.00000000000E+00 -0.00000000000E+00 -0.31946436781E+03  0.31946436781E+03  0.00000000000E+00 0. -1.
         23    2    1    2    0    0  0.23815054195E+03 -0.30615296823E+03 -0.11546636736E+03  0.41481377606E+03  0.91064077620E+02 0.  0.
         13    1    3    3    0    0  0.12243367210E+03 -0.22404826087E+03 -0.89635051486E+02  0.27059576811E+03  0.00000000000E+00 0.  1.
        -13    1    3    3    0    0  0.11571686985E+03 -0.82104707353E+02 -0.25831315871E+02  0.14421800795E+03  0.00000000000E+00 0. -1.
         22    1    1    2    0    0 -0.23815054195E+03  0.30615296823E+03  0.63802393198E+03  0.74667252418E+03  0.00000000000E+00 0.  1.
<mgrwt>
<rscale>  0 0.10372965E+04</rscale>
<asrwt>0</asrwt>
<pdfrwt beam="1">  1        2 0.12954183E+00 0.10372965E+04</pdfrwt>
<pdfrwt beam="2">  1       -2 0.49148365E-01 0.10372965E+04</pdfrwt>
<totfact> 0.12553703E+02</totfact>
</mgrwt>
</event>
<event>
 6    1  0.6091287E-004  0.2925940E+04  0.7818608E-02  0.8265201E-01
         -2   -1    0    0    0  501 -0.00000000000E+00  0.00000000000E+00  0.14908881059E+04  0.14908881059E+04  0.00000000000E+00 0. -1.
          2   -1    0    0  501    0  0.00000000000E+00 -0.00000000000E+00 -0.14355747931E+04  0.14355747931E+04  0.00000000000E+00 0.  1.
         23    2    1    2    0    0  0.14538280240E+03 -0.99797232899E+03  0.10857545291E+04  0.14846258663E+04  0.90366680119E+02 0.  0.
         11    1    3    3    0    0  0.35213604283E+02 -0.55369026639E+03  0.59442856725E+03  0.81311636965E+03  0.00000000000E+00 0. -1.
        -11    1    3    3    0    0  0.11016919811E+03 -0.44428206260E+03  0.49132596180E+03  0.67150949666E+03  0.00000000000E+00 0.  1.
         22    1    1    2    0    0 -0.14538280240E+03  0.99797232899E+03 -0.10304412163E+04  0.14418370327E+04  0.00000000000E+00 0.  1.
<mgrwt>
<rscale>  0 0.29259401E+04</rscale>
<asrwt>0</asrwt>
<pdfrwt beam="1">  1        2 0.22085766E+00 0.29259401E+04</pdfrwt>
<pdfrwt beam="2">  1       -2 0.22936740E+00 0.29259401E+04</pdfrwt>
<totfact> 0.10261745E+00</totfact>
</mgrwt>
</event>
<event>
 6    1  0.6091287E-004  0.3482450E+04  0.7818608E-02  0.8117962E-01
         -2   -1    0    0    0  501 -0.00000000000E+00  0.00000000000E+00  0.89041102877E+03  0.89041102877E+03  0.00000000000E+00 0. -1.
          2   -1    0    0  501    0  0.00000000000E+00 -0.00000000000E+00 -0.34050162387E+04  0.34050162387E+04  0.00000000000E+00 0.  1.
         23    2    1    2    0    0  0.61459013550E+03 -0.14721381836E+04 -0.21151930045E+04  0.26509085001E+04  0.91447052867E+02 0.  0.
         11    1    3    3    0    0  0.48044740638E+03 -0.12229317380E+04 -0.17745819887E+04  0.22080609096E+04  0.00000000000E+00 0.  1.
        -11    1    3    3    0    0  0.13414272912E+03 -0.24920644563E+03 -0.34061101580E+03  0.44284759049E+03  0.00000000000E+00 0. -1.
         22    1    1    2    0    0 -0.61459013550E+03  0.14721381836E+04 -0.39941220540E+03  0.16445187673E+04  0.00000000000E+00 0. -1.
<mgrwt>
<rscale>  0 0.34824497E+04</rscale>
<asrwt>0</asrwt>
<pdfrwt beam="1">  1        2 0.52384865E+00 0.34824497E+04</pdfrwt>
<pdfrwt beam="2">  1       -2 0.13698631E+00 0.34824497E+04</pdfrwt>
<totfact> 0.29537122E-01</totfact>
</mgrwt>
</event>
<event>
 6    1  0.6091287E-004  0.1106472E+04  0.7818608E-02  0.9198906E-01
         -2   -1    0    0    0  501 -0.00000000000E+00  0.00000000000E+00  0.17759523318E+03  0.17759523318E+03  0.00000000000E+00 0. -1.
          2   -1    0    0  501    0  0.00000000000E+00 -0.00000000000E+00 -0.17234152741E+04  0.17234152741E+04  0.00000000000E+00 0.  1.
         23    2    1    2    0    0 -0.43039380696E+02  0.54011979987E+03 -0.61749232295E+03  0.82612719339E+03  0.87221466693E+02 0.  0.
         11    1    3    3    0    0  0.65232348343E+01  0.27848405994E+03 -0.26609311488E+03  0.38522911367E+03  0.00000000000E+00 0.  1.
        -11    1    3    3    0    0 -0.49562615530E+02  0.26163573993E+03 -0.35139920807E+03  0.44089807972E+03  0.00000000000E+00 0. -1.
         22    1    1    2    0    0  0.43039380696E+02 -0.54011979987E+03 -0.92832771795E+03  0.10748833139E+04  0.00000000000E+00 0. -1.
<mgrwt>
<rscale>  0 0.11064725E+04</rscale>
<asrwt>0</asrwt>
<pdfrwt beam="1">  1        2 0.26514082E+00 0.11064725E+04</pdfrwt>
<pdfrwt beam="2">  1       -2 0.27322343E-01 0.11064725E+04</pdfrwt>
<totfact> 0.11520621E+02</totfact>
</mgrwt>
</event>
<event>
 6    1  0.6091287E-004  0.5733500E+04  0.7818608E-02  0.7724352E-01
         -2   -1    0    0    0  501 -0.00000000000E+00  0.00000000000E+00  0.22974365052E+04  0.22974365052E+04  0.00000000000E+00 0. -1.
          2   -1    0    0  501    0  0.00000000000E+00 -0.00000000000E+00 -0.35771411613E+04  0.35771411613E+04  0.00000000000E+00 0.  1.
         23    2    1    2    0    0  0.13227913311E+04  0.25215015223E+03  0.19522150505E+04  0.23733405144E+04  0.90801920560E+02 0.  0.
         11    1    3    3    0    0  0.54383006893E+03  0.11154159150E+03  0.88292958955E+03  0.10429560540E+04  0.00000000000E+00 0. -1.
        -11    1    3    3    0    0  0.77896126216E+03  0.14060856073E+03  0.10692854610E+04  0.13303844603E+04  0.00000000000E+00 0.  1.
         22    1    1    2    0    0 -0.13227913311E+04 -0.25215015223E+03 -0.32319197066E+04  0.35012371520E+04  0.00000000000E+00 0.  1.
<mgrwt>
<rscale>  0 0.57334997E+04</rscale>
<asrwt>0</asrwt>
<pdfrwt beam="1">  1        2 0.55032940E+00 0.57334997E+04</pdfrwt>
<pdfrwt beam="2">  1       -2 0.35345177E+00 0.57334997E+04</pdfrwt>
<totfact> 0.72720485E-03</totfact>
</mgrwt>
</event>
<event>
 6    1  0.6091287E-004  0.2469514E+04  0.7818608E-02  0.8413928E-01
         -2   -1    0    0    0  501 -0.00000000000E+00  0.00000000000E+00  0.29000193907E+03  0.29000193907E+03  0.00000000000E+00 0. -1.
          2   -1    0    0  501    0  0.00000000000E+00 -0.00000000000E+00 -0.52572898214E+04  0.52572898214E+04  0.00000000000E+00 0.  1.
         23    2    1    2    0    0  0.76294476958E+03 -0.51937362473E+03 -0.64944385448E+03  0.11319083420E+04  0.87209466249E+02 0.  0.
         11    1    3    3    0    0  0.17106376282E+03 -0.16194098808E+03 -0.15912928827E+03  0.28427068958E+03  0.00000000000E+00 0. -1.
        -11    1    3    3    0    0  0.59188100676E+03 -0.35743263665E+03 -0.49031456621E+03  0.84763765239E+03  0.00000000000E+00 0.  1.
         22    1    1    2    0    0 -0.76294476958E+03  0.51937362473E+03 -0.43178440279E+04  0.44153834185E+04  0.00000000000E+00 0.  1.
<mgrwt>
<rscale>  0 0.24695135E+04</rscale>
<asrwt>0</asrwt>
<pdfrwt beam="1">  1        2 0.80881383E+00 0.24695135E+04</pdfrwt>
<pdfrwt beam="2">  1       -2 0.44615683E-01 0.24695135E+04</pdfrwt>
<totfact> 0.65501903E-02</totfact>
</mgrwt>
</event>
<event>
 6    1  0.6091287E-004  0.1596509E+04  0.7818608E-02  0.8822696E-01
          1   -1    0    0  501    0  0.00000000000E+00  0.00000000000E+00  0.14981447763E+04  0.14981447763E+04  0.00000000000E+00 0.  1.
         -1   -1    0    0    0  501 -0.00000000000E+00 -0.00000000000E+00 -0.42533286917E+03  0.42533286917E+03  0.00000000000E+00 0. -1.
         23    2    1    2    0    0  0.71662914634E+03 -0.10052143185E+02  0.12206576597E+03  0.73285738531E+03  0.92312063172E+02 0.  0.
         13    1    3    3    0    0  0.57442332536E+02 -0.11884337852E+02 -0.12737029296E+02  0.60025752546E+02  0.00000000000E+00 0.  1.
        -13    1    3    3    0    0  0.65918681380E+03  0.18321946667E+01  0.13480279526E+03  0.67283163276E+03  0.00000000000E+00 0. -1.
         22    1    1    2    0    0 -0.71662914634E+03  0.10052143185E+02  0.95074614116E+03  0.11906202602E+04  0.00000000000E+00 0.  1.
<mgrwt>
<rscale>  0 0.15965090E+04</rscale>
<asrwt>0</asrwt>
<pdfrwt beam="1">  1        1 0.23048381E+00 0.15965090E+04</pdfrwt>
<pdfrwt beam="2">  1       -1 0.65435827E-01 0.15965090E+04</pdfrwt>
<totfact> 0.14908239E+01</totfact>
</mgrwt>
</event>
<event>
 6    1  0.6091287E-004  0.1656599E+04  0.7818608E-02  0.8786512E-01
          2   -1    0    0  501    0  0.00000000000E+00  0.00000000000E+00  0.14961409500E+04  0.14961409500E+04  0.00000000000E+00 0.  1.
         -2   -1    0    0    0  501 -0.00000000000E+00 -0.00000000000E+00 -0.45856650063E+03  0.45856650063E+03  0.00000000000E+00 0. -1.
         23    2    1    2    0    0  0.59716402199E+03 -0.12364678383E+03  0.11774762615E+04  0.13290350817E+04  0.89389628054E+02 0.  0.
         11    1    3    3    0    0  0.49953736491E+03 -0.11067767504E+03  0.10492501805E+04  0.11673530177E+04  0.00000000000E+00 0. -1.
        -11    1    3    3    0    0  0.97626657080E+02 -0.12969108790E+02  0.12822608099E+03  0.16168206395E+03  0.00000000000E+00 0.  1.
         22    1    1    2    0    0 -0.59716402199E+03  0.12364678383E+03 -0.13990181209E+03  0.62567236901E+03  0.00000000000E+00 0. -1.
<mgrwt>
<rscale>  0 0.16565991E+04</rscale>
<asrwt>0</asrwt>
<pdfrwt beam="1">  1        2 0.23017553E+00 0.16565991E+04</pdfrwt>
<pdfrwt beam="2">  1       -2 0.70548693E-01 0.16565991E+04</pdfrwt>
<totfact> 0.22257938E+01</totfact>
</mgrwt>
</event>
<event>
 6    1  0.6091287E-004  0.1263852E+04  0.7818608E-02  0.9058732E-01
         -2   -1    0    0    0  501 -0.00000000000E+00  0.00000000000E+00  0.12639903525E+04  0.12639903525E+04  0.00000000000E+00 0. -1.
          2   -1    0    0  501    0  0.00000000000E+00 -0.00000000000E+00 -0.31592864466E+03  0.31592864466E+03  0.00000000000E+00 0.  1.
         23    2    1    2    0    0  0.31044692920E+03 -0.36826579417E+03 -0.28592995273E+02  0.49095095350E+03  0.90654775680E+02 0.  0.
         13    1    3    3    0    0  0.18520947402E+03 -0.20683318477E+03  0.27717510415E+02  0.27901751912E+03  0.00000000000E+00 0. -1.
        -13    1    3    3    0    0  0.12523745518E+03 -0.16143260940E+03 -0.56310505688E+02  0.21193343438E+03  0.00000000000E+00 0.  1.
         22    1    1    2    0    0 -0.31044692920E+03  0.36826579417E+03  0.97665470311E+03  0.10889680437E+04  0.00000000000E+00 0. -1.
<mgrwt>
<rscale>  0 0.12638525E+04</rscale>
<asrwt>0</asrwt>
<pdfrwt beam="1">  1        2 0.48604407E-01 0.12638525E+04</pdfrwt>
<pdfrwt beam="2">  1       -2 0.19446005E+00 0.12638525E+04</pdfrwt>
<totfact> 0.14721489E+01</totfact>
</mgrwt>
</event>
<event>
 6    1  0.6091287E-004  0.1919304E+04  0.7818608E-02  0.8645307E-01
          2   -1    0    0  501    0  0.00000000000E+00  0.00000000000E+00  0.14233548917E+04  0.14233548917E+04  0.00000000000E+00 0.  1.
         -2   -1    0    0    0  501 -0.00000000000E+00 -0.00000000000E+00 -0.64701506550E+03  0.64701506550E+03  0.00000000000E+00 0. -1.
         23    2    1    2    0    0  0.67664787034E+03  0.47639011365E+03 -0.13046603877E+03  0.84273126542E+03  0.91513483308E+02 0.  0.
         13    1    3    3    0    0  0.15791897639E+03  0.83866259931E+02  0.22797955059E+01  0.17882155945E+03  0.00000000000E+00 0.  1.
        -13    1    3    3    0    0  0.51872889395E+03  0.39252385372E+03 -0.13274583428E+03  0.66390970597E+03  0.00000000000E+00 0. -1.
         22    1    1    2    0    0 -0.67664787034E+03 -0.47639011365E+03  0.90680586501E+03  0.12276386918E+04  0.00000000000E+00 0.  1.
<mgrwt>
<rscale>  0 0.19193041E+04</rscale>
<asrwt>0</asrwt>
<pdfrwt beam="1">  1        2 0.21897768E+00 0.19193041E+04</pdfrwt>
<pdfrwt beam="2">  1       -2 0.99540779E-01 0.19193041E+04</pdfrwt>
<totfact> 0.10958983E+01</totfact>
</mgrwt>
</event>
<event>
 6    1  0.6091287E-004  0.1307840E+04  0.7818608E-02  0.9023371E-01
         -2   -1    0    0    0  501 -0.00000000000E+00  0.00000000000E+00  0.63628734262E+03  0.63628734262E+03  0.00000000000E+00 0. -1.
          2   -1    0    0  501    0  0.00000000000E+00 -0.00000000000E+00 -0.67204085553E+03  0.67204085553E+03  0.00000000000E+00 0.  1.
         23    2    1    2    0    0  0.52913516814E+03 -0.25452848850E+03 -0.29848001955E+03  0.66505998432E+03  0.91900397480E+02 0.  0.
         11    1    3    3    0    0  0.28554079494E+03 -0.13841545574E+03 -0.21226060576E+03  0.38176818715E+03  0.00000000000E+00 0. -1.
        -11    1    3    3    0    0  0.24359437320E+03 -0.11611303276E+03 -0.86219413792E+02  0.28329179717E+03  0.00000000000E+00 0.  1.
         22    1    1    2    0    0 -0.52913516814E+03  0.25452848850E+03  0.26272650664E+03  0.64326821382E+03  0.00000000000E+00 0. -1.
<mgrwt>
<rscale>  0 0.13078396E+04</rscale>
<asrwt>0</asrwt>
<pdfrwt beam="1">  1        2 0.10339090E+00 0.13078396E+04</pdfrwt>
<pdfrwt beam="2">  1       -2 0.97890361E-01 0.13078396E+04</pdfrwt>
<totfact> 0.36716490E+01</totfact>
</mgrwt>
</event>
<event>
 6    1  0.6091287E-004  0.2117963E+04  0.7818608E-02  0.8553371E-01
          2   -1    0    0  501    0  0.00000000000E+00  0.00000000000E+00  0.17900088309E+04  0.17900088309E+04  0.00000000000E+00 0.  1.
         -2   -1    0    0    0  501 -0.00000000000E+00 -0.00000000000E+00 -0.62650092694E+03  0.62650092694E+03  0.00000000000E+00 0. -1.
         23    2    1    2    0    0 -0.21930860222E+03  0.60998785906E+03 -0.36945988214E+03  0.75212648334E+03  0.94932561456E+02 0.  0.
         11    1    3    3    0    0 -0.78762535446E+02  0.30490159263E+03 -0.22192032659E+03  0.38524946403E+03  0.00000000000E+00 0.  1.
        -11    1    3    3    0    0 -0.14054606677E+03  0.30508626643E+03 -0.14753955554E+03  0.36687701931E+03  0.00000000000E+00 0. -1.
         22    1    1    2    0    0  0.21930860222E+03 -0.60998785906E+03  0.15329677861E+04  0.16643832745E+04  0.00000000000E+00 0.  1.
<mgrwt>
<rscale>  0 0.21179634E+04</rscale>
<asrwt>0</asrwt>
<pdfrwt beam="1">  1        2 0.27538597E+00 0.21179634E+04</pdfrwt>
<pdfrwt beam="2">  1       -2 0.96384759E-01 0.21179634E+04</pdfrwt>
<totfact> 0.72455492E+00</totfact>
</mgrwt>
</event>
<event>
 6    1  0.6091287E-004  0.3333381E+04  0.7818608E-02  0.8154453E-01
         -2   -1    0    0    0  501 -0.00000000000E+00  0.00000000000E+00  0.16080218702E+04  0.16080218702E+04  0.00000000000E+00 0. -1.
          2   -1    0    0  501    0  0.00000000000E+00 -0.00000000000E+00 -0.17274992834E+04  0.17274992834E+04  0.00000000000E+00 0.  1.
         23    2    1    2    0    0 -0.13852746445E+04 -0.67776712555E+03  0.56974273747E+03  0.16463265132E+04  0.86197934963E+02 0.  0.
         11    1    3    3    0    0 -0.11338408249E+04 -0.52263813910E+03  0.44159950148E+03  0.13242944387E+04  0.00000000000E+00 0. -1.
        -11    1    3    3    0    0 -0.25143381952E+03 -0.15512898645E+03  0.12814323599E+03  0.32203207444E+03  0.00000000000E+00 0.  1.
         22    1    1    2    0    0  0.13852746445E+04  0.67776712555E+03 -0.68922015068E+03  0.16891946404E+04  0.00000000000E+00 0.  1.
<mgrwt>
<rscale>  0 0.33333806E+04</rscale>
<asrwt>0</asrwt>
<pdfrwt beam="1">  1        2 0.26576912E+00 0.33333806E+04</pdfrwt>
<pdfrwt beam="2">  1       -2 0.24738798E+00 0.33333806E+04</pdfrwt>
<totfact> 0.52591137E-01</totfact>
</mgrwt>
</event>
<event>
 6    1  0.6091287E-004  0.3126565E+04  0.7818608E-02  0.8208485E-01
         -2   -1    0    0    0  501 -0.00000000000E+00  0.00000000000E+00  0.17103572890E+04  0.17103572890E+04  0.00000000000E+00 0. -1.
          2   -1    0    0  501    0  0.00000000000E+00 -0.00000000000E+00 -0.14288545644E+04  0.14288545644E+04  0.00000000000E+00 0.  1.
         23    2    1    2    0    0  0.83455110984E+03 -0.10618889443E+04  0.92860959967E+03  0.16416034290E+04  0.91991002166E+02 0.  0.
         13    1    3    3    0    0  0.57418129780E+03 -0.72338023549E+03  0.68581535072E+03  0.11503503045E+04  0.00000000000E+00 0.  1.
        -13    1    3    3    0    0  0.26036981204E+03 -0.33850870881E+03  0.24279424894E+03  0.49125312445E+03  0.00000000000E+00 0. -1.
         22    1    1    2    0    0 -0.83455110984E+03  0.10618889443E+04 -0.64710687513E+03  0.14976084244E+04  0.00000000000E+00 0.  1.
<mgrwt>
<rscale>  0 0.31265648E+04</rscale>
<asrwt>0</asrwt>
<pdfrwt beam="1">  1        2 0.21982378E+00 0.31265648E+04</pdfrwt>
<pdfrwt beam="2">  1       -2 0.26313189E+00 0.31265648E+04</pdfrwt>
<totfact> 0.63005226E-01</totfact>
</mgrwt>
</event>
<event>
 6    1  0.6091287E-004  0.2138497E+04  0.7818608E-02  0.8544472E-01
         -2   -1    0    0    0  501 -0.00000000000E+00  0.00000000000E+00  0.13561585878E+04  0.13561585878E+04  0.00000000000E+00 0. -1.
          2   -1    0    0  501    0  0.00000000000E+00 -0.00000000000E+00 -0.84303750163E+03  0.84303750163E+03  0.00000000000E+00 0.  1.
         23    2    1    2    0    0 -0.48351561239E+03 -0.31199905650E+03 -0.66739919024E+03  0.88589533115E+03  0.90874088373E+02 0.  0.
         13    1    3    3    0    0 -0.20707650982E+03 -0.15139981085E+03 -0.23308149651E+03  0.34659712587E+03  0.00000000000E+00 0. -1.
        -13    1    3    3    0    0 -0.27643910257E+03 -0.16059924565E+03 -0.43431769373E+03  0.53929820528E+03  0.00000000000E+00 0.  1.
         22    1    1    2    0    0  0.48351561239E+03  0.31199905650E+03  0.11805202764E+04  0.13133007583E+04  0.00000000000E+00 0. -1.
<mgrwt>
<rscale>  0 0.21384972E+04</rscale>
<asrwt>0</asrwt>
<pdfrwt beam="1">  1        2 0.12969808E+00 0.21384972E+04</pdfrwt>
<pdfrwt beam="2">  1       -2 0.20863978E+00 0.21384972E+04</pdfrwt>
<totfact> 0.34438683E+00</totfact>
</mgrwt>
</event>
<event>
 6    1  0.6091287E-004  0.4500555E+04  0.7818608E-02  0.7910540E-01
         -2   -1    0    0    0  501 -0.00000000000E+00  0.00000000000E+00  0.13771847902E+04  0.13771847902E+04  0.00000000000E+00 0. -1.
          2   -1    0    0  501    0  0.00000000000E+00 -0.00000000000E+00 -0.36768843824E+04  0.36768843824E+04  0.00000000000E+00 0.  1.
         23    2    1    2    0    0 -0.18072745607E+02 -0.14625561987E+04 -0.30693310524E+04  0.34012746170E+04  0.92079600187E+02 0.  0.
         11    1    3    3    0    0 -0.54057846468E+02 -0.10683474222E+04 -0.22423442962E+04  0.24844308016E+04  0.00000000000E+00 0.  1.
        -11    1    3    3    0    0  0.35985100861E+02 -0.39420877644E+03 -0.82698675617E+03  0.91684381537E+03  0.00000000000E+00 0. -1.
         22    1    1    2    0    0  0.18072745607E+02  0.14625561987E+04  0.76963146015E+03  0.16527945555E+04  0.00000000000E+00 0. -1.
<mgrwt>
<rscale>  0 0.45005552E+04</rscale>
<asrwt>0</asrwt>
<pdfrwt beam="1">  1        2 0.56567452E+00 0.45005552E+04</pdfrwt>
<pdfrwt beam="2">  1       -2 0.21187458E+00 0.45005552E+04</pdfrwt>
<totfact> 0.51091685E-02</totfact>
</mgrwt>
</event>
<event>
 6    1  0.6091287E-004  0.3118528E+04  0.7818608E-02  0.8210671E-01
         -2   -1    0    0    0  501 -0.00000000000E+00  0.00000000000E+00  0.10615462612E+04  0.10615462612E+04  0.00000000000E+00 0. -1.
          2   -1    0    0  501    0  0.00000000000E+00 -0.00000000000E+00 -0.22903420590E+04  0.22903420590E+04  0.00000000000E+00 0.  1.
         23    2    1    2    0    0 -0.91738889456E+02  0.87648189547E+03 -0.19958164343E+04  0.21835744952E+04  0.89876578766E+02 0.  0.
         13    1    3    3    0    0 -0.22430003699E+02  0.15279480953E+03 -0.43914373156E+03  0.46550679464E+03  0.00000000000E+00 0.  1.
        -13    1    3    3    0    0 -0.69308885757E+02  0.72368708594E+03 -0.15566727028E+04  0.17180677005E+04  0.00000000000E+00 0. -1.
         22    1    1    2    0    0  0.91738889456E+02 -0.87648189547E+03  0.76702063654E+03  0.11683138251E+04  0.00000000000E+00 0. -1.
<mgrwt>
<rscale>  0 0.31185279E+04</rscale>
<asrwt>0</asrwt>
<pdfrwt beam="1">  1        2 0.35236031E+00 0.31185279E+04</pdfrwt>
<pdfrwt beam="2">  1       -2 0.16331481E+00 0.31185279E+04</pdfrwt>
<totfact> 0.92683957E-01</totfact>
</mgrwt>
</event>
<event>
 6    1  0.6091287E-004  0.4941119E+04  0.7818608E-02  0.7837655E-01
          2   -1    0    0  501    0  0.00000000000E+00  0.00000000000E+00  0.20853391424E+04  0.20853391424E+04  0.00000000000E+00 0.  1.
         -2   -1    0    0    0  501 -0.00000000000E+00 -0.00000000000E+00 -0.29269408389E+04  0.29269408389E+04  0.00000000000E+00 0. -1.
         23    2    1    2    0    0  0.57295885722E+03 -0.23939744202E+04 -0.62340254907E+03  0.25410442084E+04  0.94231385950E+02 0.  0.
         11    1    3    3    0    0  0.17577145421E+03 -0.89182339022E+03 -0.20235245586E+03  0.93123094872E+03  0.00000000000E+00 0.  1.
        -11    1    3    3    0    0  0.39718740301E+03 -0.15021510300E+04 -0.42105009321E+03  0.16098132597E+04  0.00000000000E+00 0. -1.
         22    1    1    2    0    0 -0.57295885722E+03  0.23939744202E+04 -0.21819914742E+03  0.24712357728E+04  0.00000000000E+00 0. -1.
<mgrwt>
<rscale>  0 0.49411190E+04</rscale>
<asrwt>0</asrwt>
<pdfrwt beam="1">  1        2 0.32082141E+00 0.49411190E+04</pdfrwt>
<pdfrwt beam="2">  1       -2 0.45029859E+00 0.49411190E+04</pdfrwt>
<totfact> 0.15171811E-02</totfact>
</mgrwt>
</event>
<event>
 6    1  0.6091287E-004  0.5496556E+04  0.7818608E-02  0.7756163E-01
         -2   -1    0    0    0  501 -0.00000000000E+00  0.00000000000E+00  0.27283024373E+04  0.27283024373E+04  0.00000000000E+00 0. -1.
          2   -1    0    0  501    0  0.00000000000E+00 -0.00000000000E+00 -0.27684003110E+04  0.27684003110E+04  0.00000000000E+00 0.  1.
         23    2    1    2    0    0 -0.79413913437E+03  0.24834386010E+04  0.84636229903E+03  0.27428080720E+04  0.92426884561E+02 0.  0.
         13    1    3    3    0    0 -0.35399928090E+03  0.10467628788E+04  0.31475762582E+03  0.11489562126E+04  0.00000000000E+00 0.  1.
        -13    1    3    3    0    0 -0.44013985347E+03  0.14366757222E+04  0.53160467322E+03  0.15938518595E+04  0.00000000000E+00 0. -1.
         22    1    1    2    0    0  0.79413913437E+03 -0.24834386010E+04 -0.88646017273E+03  0.27538946762E+04  0.00000000000E+00 0.  1.
<mgrwt>
<rscale>  0 0.54965565E+04</rscale>
<asrwt>0</asrwt>
<pdfrwt beam="1">  1        2 0.42590774E+00 0.54965565E+04</pdfrwt>
<pdfrwt beam="2">  1       -2 0.41973884E+00 0.54965565E+04</pdfrwt>
<totfact> 0.93271719E-03</totfact>
</mgrwt>
</event>
<event>
 6    1  0.6091287E-004  0.3384681E+04  0.7818608E-02  0.8141676E-01
          2   -1    0    0  501    0  0.00000000000E+00  0.00000000000E+00  0.95804755276E+03  0.95804755276E+03  0.00000000000E+00 0.  1.
         -2   -1    0    0    0  501 -0.00000000000E+00 -0.00000000000E+00 -0.29894299330E+04  0.29894299330E+04  0.00000000000E+00 0. -1.
         23    2    1    2    0    0  0.21147310429E+03 -0.48283372881E+03 -0.28904835785E+04  0.29395567784E+04  0.90826495551E+02 0.  0.
         11    1    3    3    0    0  0.19398121906E+02 -0.14404625451E+03 -0.76214325549E+03  0.77587882589E+03  0.00000000000E+00 0.  1.
        -11    1    3    3    0    0  0.19207498238E+03 -0.33878747429E+03 -0.21283403230E+04  0.21636779525E+04  0.00000000000E+00 0. -1.
         22    1    1    2    0    0 -0.21147310429E+03  0.48283372881E+03  0.85910119826E+03  0.10079207074E+04  0.00000000000E+00 0.  1.
<mgrwt>
<rscale>  0 0.33846808E+04</rscale>
<asrwt>0</asrwt>
<pdfrwt beam="1">  1        2 0.14739193E+00 0.33846808E+04</pdfrwt>
<pdfrwt beam="2">  1       -2 0.45991229E+00 0.33846808E+04</pdfrwt>
<totfact> 0.66332565E-02</totfact>
</mgrwt>
</event>
<event>
 6    1  0.6091287E-004  0.1807852E+04  0.7818608E-02  0.8702135E-01
         -2   -1    0    0    0  501 -0.00000000000E+00  0.00000000000E+00  0.13559224521E+04  0.13559224521E+04  0.00000000000E+00 0. -1.
          2   -1    0    0  501    0  0.00000000000E+00 -0.00000000000E+00 -0.60260236324E+03  0.60260236324E+03  0.00000000000E+00 0.  1.
         23    2    1    2    0    0 -0.85677159481E+03  0.26204194771E+03  0.48719242125E+03  0.10238871939E+04  0.90911948560E+02 0.  0.
         13    1    3    3    0    0 -0.78329882760E+03  0.26136733707E+03  0.43156177096E+03  0.93172715983E+03  0.00000000000E+00 0. -1.
        -13    1    3    3    0    0 -0.73472767210E+02  0.67461064472E+00  0.55630650293E+02  0.92160034034E+02  0.00000000000E+00 0.  1.
         22    1    1    2    0    0  0.85677159481E+03 -0.26204194771E+03  0.26612766762E+03  0.93463762150E+03  0.00000000000E+00 0. -1.
<mgrwt>
<rscale>  0 0.18078518E+04</rscale>
<asrwt>0</asrwt>
<pdfrwt beam="1">  1        2 0.92708057E-01 0.18078518E+04</pdfrwt>
<pdfrwt beam="2">  1       -2 0.20860345E+00 0.18078518E+04</pdfrwt>
<totfact> 0.54375534E+00</totfact>
</mgrwt>
</event>
<event>
 6    1  0.6091287E-004  0.8154775E+03  0.7818608E-02  0.9537880E-01
          2   -1    0    0  501    0  0.00000000000E+00  0.00000000000E+00  0.16892553275E+04  0.16892553275E+04  0.00000000000E+00 0.  1.
         -2   -1    0    0    0  501 -0.00000000000E+00 -0.00000000000E+00 -0.98416664700E+02  0.98416664700E+02  0.00000000000E+00 0. -1.
         23    2    1    2    0    0  0.18930945514E+03 -0.22619188504E+03  0.20425113780E+03  0.37005927952E+03  0.90689053396E+02 0.  0.
         13    1    3    3    0    0  0.17444942737E+03 -0.14744223517E+03  0.14874250180E+03  0.27257319616E+03  0.00000000000E+00 0.  1.
        -13    1    3    3    0    0  0.14860027771E+02 -0.78749649866E+02  0.55508636000E+02  0.97486083366E+02  0.00000000000E+00 0. -1.
         22    1    1    2    0    0 -0.18930945514E+03  0.22619188504E+03  0.13865875250E+04  0.14176127127E+04  0.00000000000E+00 0.  1.
<mgrwt>
<rscale>  0 0.81547747E+03</rscale>
<asrwt>0</asrwt>
<pdfrwt beam="1">  1        2 0.25988541E+00 0.81547747E+03</pdfrwt>
<pdfrwt beam="2">  1       -2 0.15141027E-01 0.81547747E+03</pdfrwt>
<totfact> 0.34700991E+02</totfact>
</mgrwt>
</event>
<event>
 6    1  0.6091287E-004  0.1615042E+04  0.7818608E-02  0.8811360E-01
          2   -1    0    0  501    0  0.00000000000E+00  0.00000000000E+00  0.13757662409E+04  0.13757662409E+04  0.00000000000E+00 0.  1.
         -2   -1    0    0    0  501 -0.00000000000E+00 -0.00000000000E+00 -0.47398324919E+03  0.47398324919E+03  0.00000000000E+00 0. -1.
         23    2    1    2    0    0 -0.30417559950E+03  0.39179362596E+03 -0.27373986218E+03  0.57386586660E+03  0.91452064114E+02 0.  0.
         11    1    3    3    0    0 -0.69600510183E+02  0.15426939604E+03 -0.11174441452E+03  0.20280555157E+03  0.00000000000E+00 0.  1.
        -11    1    3    3    0    0 -0.23457508932E+03  0.23752422992E+03 -0.16199544767E+03  0.37106031503E+03  0.00000000000E+00 0. -1.
         22    1    1    2    0    0  0.30417559950E+03 -0.39179362596E+03  0.11755228539E+04  0.12758836235E+04  0.00000000000E+00 0.  1.
<mgrwt>
<rscale>  0 0.16150420E+04</rscale>
<asrwt>0</asrwt>
<pdfrwt beam="1">  1        2 0.21165634E+00 0.16150420E+04</pdfrwt>
<pdfrwt beam="2">  1       -2 0.72920500E-01 0.16150420E+04</pdfrwt>
<totfact> 0.24320093E+01</totfact>
</mgrwt>
</event>
<event>
 6    1  0.6091287E-004  0.5415900E+04  0.7818608E-02  0.7767368E-01
          2   -1    0    0  501    0  0.00000000000E+00  0.00000000000E+00  0.43395961736E+04  0.43395961736E+04  0.00000000000E+00 0.  1.
         -2   -1    0    0    0  501 -0.00000000000E+00 -0.00000000000E+00 -0.16897872408E+04  0.16897872408E+04  0.00000000000E+00 0. -1.
         23    2    1    2    0    0  0.10289374609E+04  0.25016289371E+04  0.12035495064E+04  0.29620513544E+04  0.91417582387E+02 0.  0.
         11    1    3    3    0    0  0.30753873851E+03  0.65006797723E+03  0.33720068714E+03  0.79427498646E+03  0.00000000000E+00 0.  1.
        -11    1    3    3    0    0  0.72139872243E+03  0.18515609599E+04  0.86634881925E+03  0.21677763680E+04  0.00000000000E+00 0. -1.
         22    1    1    2    0    0 -0.10289374609E+04 -0.25016289371E+04  0.14462594264E+04  0.30673320600E+04  0.00000000000E+00 0. -1.
<mgrwt>
<rscale>  0 0.54159004E+04</rscale>
<asrwt>0</asrwt>
<pdfrwt beam="1">  1        2 0.66763018E+00 0.54159004E+04</pdfrwt>
<pdfrwt beam="2">  1       -2 0.25996727E+00 0.54159004E+04</pdfrwt>
<totfact> 0.68075838E-03</totfact>
</mgrwt>
</event>
<event>
 6    1  0.6091287E-004  0.2470739E+04  0.7818608E-02  0.8413485E-01
         -2   -1    0    0    0  501 -0.00000000000E+00  0.00000000000E+00  0.11661308574E+04  0.11661308574E+04  0.00000000000E+00 0. -1.
          2   -1    0    0  501    0  0.00000000000E+00 -0.00000000000E+00 -0.13087190577E+04  0.13087190577E+04  0.00000000000E+00 0.  1.
         23    2    1    2    0    0 -0.40604928992E+03 -0.50703889674E+03  0.97909109088E+03  0.11786520517E+04  0.92934525675E+02 0.  0.
         11    1    3    3    0    0 -0.34033363392E+03 -0.36897263714E+03  0.71766340956E+03  0.87579024815E+03  0.00000000000E+00 0. -1.
        -11    1    3    3    0    0 -0.65715656005E+02 -0.13806625960E+03  0.26142768132E+03  0.30286180354E+03  0.00000000000E+00 0.  1.
         22    1    1    2    0    0  0.40604928992E+03  0.50703889674E+03 -0.11216792913E+04  0.12961978634E+04  0.00000000000E+00 0.  1.
<mgrwt>
<rscale>  0 0.24707389E+04</rscale>
<asrwt>0</asrwt>
<pdfrwt beam="1">  1        2 0.20134139E+00 0.24707389E+04</pdfrwt>
<pdfrwt beam="2">  1       -2 0.17940475E+00 0.24707389E+04</pdfrwt>
<totfact> 0.26741753E+00</totfact>
</mgrwt>
</event>
<event>
 6    1  0.6091287E-004  0.2090845E+04  0.7818608E-02  0.8565287E-01
         -2   -1    0    0    0  501 -0.00000000000E+00  0.00000000000E+00  0.90889818480E+03  0.90889818480E+03  0.00000000000E+00 0.  1.
          2   -1    0    0  501    0  0.00000000000E+00 -0.00000000000E+00 -0.12024543384E+04  0.12024543384E+04  0.00000000000E+00 0. -1.
         23    2    1    2    0    0 -0.40123994500E+03  0.83174493726E+03  0.34429577908E+03  0.98901201243E+03  0.82535102374E+02 0.  0.
         13    1    3    3    0    0 -0.24378140520E+03  0.54501007473E+03  0.18421871913E+03  0.62482148776E+03  0.00000000000E+00 0.  1.
        -13    1    3    3    0    0 -0.15745853980E+03  0.28673486253E+03  0.16007705994E+03  0.36419052468E+03  0.00000000000E+00 0. -1.
         22    1    1    2    0    0  0.40123994500E+03 -0.83174493726E+03 -0.63785193272E+03  0.11223405108E+04  0.00000000000E+00 0.  1.
<mgrwt>
<rscale>  0 0.20908453E+04</rscale>
<asrwt>0</asrwt>
<pdfrwt beam="1">  1        2 0.18499297E+00 0.20908453E+04</pdfrwt>
<pdfrwt beam="2">  1       -2 0.13983049E+00 0.20908453E+04</pdfrwt>
<totfact> 0.62730513E+00</totfact>
</mgrwt>
</event>
<event>
 6    1  0.6091287E-004  0.2158504E+04  0.7818608E-02  0.8535901E-01
         -2   -1    0    0    0  501 -0.00000000000E+00  0.00000000000E+00  0.54767896219E+03  0.54767896219E+03  0.00000000000E+00 0. -1.
          2   -1    0    0  501    0  0.00000000000E+00 -0.00000000000E+00 -0.21267656709E+04  0.21267656709E+04  0.00000000000E+00 0.  1.
         23    2    1    2    0    0 -0.10205817233E+04  0.27708558582E+03 -0.10452984186E+04  0.14898377723E+04  0.92759517796E+02 0.  0.
         11    1    3    3    0    0 -0.26015425735E+03  0.30065177497E+02 -0.26908868338E+03  0.37549017569E+03  0.00000000000E+00 0.  1.
        -11    1    3    3    0    0 -0.76042746599E+03  0.24702040832E+03 -0.77620973518E+03  0.11143475966E+04  0.00000000000E+00 0. -1.
         22    1    1    2    0    0  0.10205817233E+04 -0.27708558582E+03 -0.53378829018E+03  0.11846068608E+04  0.00000000000E+00 0.  1.
<mgrwt>
<rscale>  0 0.21585039E+04</rscale>
<asrwt>0</asrwt>
<pdfrwt beam="1">  1        2 0.32719472E+00 0.21585039E+04</pdfrwt>
<pdfrwt beam="2">  1       -2 0.84258302E-01 0.21585039E+04</pdfrwt>
<totfact> 0.63989846E+00</totfact>
</mgrwt>
</event>
<event>
 6    1  0.6091287E-004  0.2487746E+04  0.7818608E-02  0.8407364E-01
         -2   -1    0    0    0  501 -0.00000000000E+00  0.00000000000E+00  0.10197109537E+04  0.10197109537E+04  0.00000000000E+00 0. -1.
          2   -1    0    0  501    0  0.00000000000E+00 -0.00000000000E+00 -0.15173118350E+04  0.15173118350E+04  0.00000000000E+00 0.  1.
         23    2    1    2    0    0 -0.95521290830E+02  0.12016731270E+04 -0.55488758765E+03  0.13301986971E+04  0.91573564902E+02 0.  0.
         11    1    3    3    0    0 -0.86848229116E+02  0.63108683285E+03 -0.32285357509E+03  0.71417619426E+03  0.00000000000E+00 0. -1.
        -11    1    3    3    0    0 -0.86730617138E+01  0.57058629414E+03 -0.23203401255E+03  0.61602250287E+03  0.00000000000E+00 0.  1.
         22    1    1    2    0    0  0.95521290830E+02 -0.12016731270E+04  0.57286706354E+02  0.12068240915E+04  0.00000000000E+00 0. -1.
<mgrwt>
<rscale>  0 0.24877456E+04</rscale>
<asrwt>0</asrwt>
<pdfrwt beam="1">  1        2 0.23343259E+00 0.24877456E+04</pdfrwt>
<pdfrwt beam="2">  1       -2 0.15687861E+00 0.24877456E+04</pdfrwt>
<totfact> 0.29450035E+00</totfact>
</mgrwt>
</event>
<event>
 6    1  0.6091287E-004  0.3346933E+04  0.7818608E-02  0.8151055E-01
         -2   -1    0    0    0  501 -0.00000000000E+00  0.00000000000E+00  0.25765074409E+04  0.25765074409E+04  0.00000000000E+00 0. -1.
          2   -1    0    0  501    0  0.00000000000E+00 -0.00000000000E+00 -0.10869328335E+04  0.10869328335E+04  0.00000000000E+00 0.  1.
         23    2    1    2    0    0 -0.14617416923E+04 -0.18568978702E+03  0.16107724948E+04  0.21849753948E+04  0.91432893650E+02 0.  0.
         11    1    3    3    0    0 -0.10495220584E+04 -0.94217415099E+02  0.11288165146E+04  0.15442150744E+04  0.00000000000E+00 0. -1.
        -11    1    3    3    0    0 -0.41221963388E+03 -0.91472371922E+02  0.48195598018E+03  0.64076032041E+03  0.00000000000E+00 0.  1.
         22    1    1    2    0    0  0.14617416923E+04  0.18568978702E+03 -0.12119788741E+03  0.14784648795E+04  0.00000000000E+00 0.  1.
<mgrwt>
<rscale>  0 0.33469332E+04</rscale>
<asrwt>0</asrwt>
<pdfrwt beam="1">  1        2 0.16722044E+00 0.33469332E+04</pdfrwt>
<pdfrwt beam="2">  1       -2 0.39638576E+00 0.33469332E+04</pdfrwt>
<totfact> 0.14461004E-01</totfact>
</mgrwt>
</event>
<event>
 6    1  0.6091287E-004  0.1812291E+04  0.7818608E-02  0.8699790E-01
         -2   -1    0    0    0  501 -0.00000000000E+00  0.00000000000E+00  0.84694339020E+03  0.84694339020E+03  0.00000000000E+00 0.  1.
          2   -1    0    0  501    0  0.00000000000E+00 -0.00000000000E+00 -0.96948625450E+03  0.96948625450E+03  0.00000000000E+00 0. -1.
         23    2    1    2    0    0  0.45583017692E+03 -0.25914175032E+03  0.67354561019E+03  0.86317602883E+03  0.12834940897E+03 0.  0.
         11    1    3    3    0    0  0.15849005828E+03 -0.15728150228E+03  0.31888792845E+03  0.38928919898E+03  0.00000000000E+00 0.  1.
        -11    1    3    3    0    0  0.29734011864E+03 -0.10186024804E+03  0.35465768175E+03  0.47388682985E+03  0.00000000000E+00 0. -1.
         22    1    1    2    0    0 -0.45583017692E+03  0.25914175032E+03 -0.79608847449E+03  0.95325361587E+03  0.00000000000E+00 0. -1.
<mgrwt>
<rscale>  0 0.18122913E+04</rscale>
<asrwt>0</asrwt>
<pdfrwt beam="1">  1        2 0.14915173E+00 0.18122913E+04</pdfrwt>
<pdfrwt beam="2">  1       -2 0.13029898E+00 0.18122913E+04</pdfrwt>
<totfact> 0.10735250E+01</totfact>
</mgrwt>
</event>
<event>
 6    1  0.6091287E-004  0.2107206E+04  0.7818608E-02  0.8558075E-01
         -2   -1    0    0    0  501 -0.00000000000E+00  0.00000000000E+00  0.48098620822E+03  0.48098620822E+03  0.00000000000E+00 0.  1.
          2   -1    0    0  501    0  0.00000000000E+00 -0.00000000000E+00 -0.23079243933E+04  0.23079243933E+04  0.00000000000E+00 0. -1.
         23    2    1    2    0    0 -0.70461025565E+03  0.76784792297E+03 -0.72823552595E+03  0.12745745826E+04  0.90262617468E+02 0.  0.
         11    1    3    3    0    0 -0.46375952085E+03  0.46352957808E+03 -0.49752065174E+03  0.82307919537E+03  0.00000000000E+00 0. -1.
        -11    1    3    3    0    0 -0.24085073480E+03  0.30431834488E+03 -0.23071487421E+03  0.45149538720E+03  0.00000000000E+00 0.  1.
         22    1    1    2    0    0  0.70461025565E+03 -0.76784792297E+03 -0.10987026592E+04  0.15143360190E+04  0.00000000000E+00 0. -1.
<mgrwt>
<rscale>  0 0.21072065E+04</rscale>
<asrwt>0</asrwt>
<pdfrwt beam="1">  1        2 0.35506529E+00 0.21072065E+04</pdfrwt>
<pdfrwt beam="2">  1       -2 0.73997878E-01 0.21072065E+04</pdfrwt>
<totfact> 0.67985301E+00</totfact>
</mgrwt>
</event>
<event>
 6    1  0.6091287E-004  0.3280264E+04  0.7818608E-02  0.8167935E-01
          1   -1    0    0  501    0  0.00000000000E+00  0.00000000000E+00  0.31352081815E+04  0.31352081815E+04  0.00000000000E+00 0. -1.
         -1   -1    0    0    0  501 -0.00000000000E+00 -0.00000000000E+00 -0.85800775791E+03  0.85800775791E+03  0.00000000000E+00 0.  1.
         23    2    1    2    0    0 -0.28948311196E+03  0.35288714367E+03  0.30550077850E+04  0.30913766524E+04  0.12331760733E+03 0.  0.
         11    1    3    3    0    0 -0.19463877254E+03  0.20849764805E+03  0.22523779603E+04  0.22703660491E+04  0.00000000000E+00 0. -1.
        -11    1    3    3    0    0 -0.94844339418E+02  0.14438949563E+03  0.80262982470E+03  0.82101060326E+03  0.00000000000E+00 0.  1.
         22    1    1    2    0    0  0.28948311196E+03 -0.35288714367E+03 -0.77780736136E+03  0.90183928705E+03  0.00000000000E+00 0.  1.
<mgrwt>
<rscale>  0 0.32802640E+04</rscale>
<asrwt>0</asrwt>
<pdfrwt beam="1">  1        1 0.48233971E+00 0.32802640E+04</pdfrwt>
<pdfrwt beam="2">  1       -1 0.13200120E+00 0.32802640E+04</pdfrwt>
<totfact> 0.19246342E-01</totfact>
</mgrwt>
</event>
<event>
 6    1  0.6091287E-004  0.2605877E+04  0.7818608E-02  0.8366208E-01
         -2   -1    0    0    0  501 -0.00000000000E+00  0.00000000000E+00  0.89971476744E+03  0.89971476744E+03  0.00000000000E+00 0. -1.
          2   -1    0    0  501    0  0.00000000000E+00 -0.00000000000E+00 -0.18868743788E+04  0.18868743788E+04  0.00000000000E+00 0.  1.
         23    2    1    2    0    0 -0.95063610178E+02 -0.12292992473E+04 -0.48613452695E+02  0.12370464327E+04  0.87788834737E+02 0.  0.
         13    1    3    3    0    0 -0.12955792560E+02 -0.28075857324E+03 -0.46983191571E+02  0.28495727627E+03  0.00000000000E+00 0. -1.
        -13    1    3    3    0    0 -0.82107817617E+02 -0.94854067401E+03 -0.16302611235E+01  0.95208915639E+03  0.00000000000E+00 0.  1.
         22    1    1    2    0    0  0.95063610178E+02  0.12292992473E+04 -0.93854615867E+03  0.15495427136E+04  0.00000000000E+00 0.  1.
<mgrwt>
<rscale>  0 0.26058770E+04</rscale>
<asrwt>0</asrwt>
<pdfrwt beam="1">  1        2 0.29028836E+00 0.26058770E+04</pdfrwt>
<pdfrwt beam="2">  1       -2 0.13841766E+00 0.26058770E+04</pdfrwt>
<totfact> 0.25257709E+00</totfact>
</mgrwt>
</event>
<event>
 6    1  0.6091287E-004  0.3138434E+04  0.7818608E-02  0.8205269E-01
         -2   -1    0    0    0  501 -0.00000000000E+00  0.00000000000E+00  0.97152501929E+03  0.97152501929E+03  0.00000000000E+00 0. -1.
          2   -1    0    0  501    0  0.00000000000E+00 -0.00000000000E+00 -0.25346143852E+04  0.25346143852E+04  0.00000000000E+00 0.  1.
         23    2    1    2    0    0  0.12601255425E+03 -0.53292017856E+03 -0.24234242052E+04  0.24863065180E+04  0.94085824748E+02 0.  0.
         13    1    3    3    0    0  0.96753959040E+02 -0.31563023833E+03 -0.12684178019E+04  0.13106744432E+04  0.00000000000E+00 0. -1.
        -13    1    3    3    0    0  0.29258595206E+02 -0.21728994023E+03 -0.11550064033E+04  0.11756320748E+04  0.00000000000E+00 0.  1.
         22    1    1    2    0    0 -0.12601255425E+03  0.53292017856E+03  0.86033483934E+03  0.10198328865E+04  0.00000000000E+00 0. -1.
<mgrwt>
<rscale>  0 0.31384336E+04</rscale>
<asrwt>0</asrwt>
<pdfrwt beam="1">  1        2 0.38994067E+00 0.31384336E+04</pdfrwt>
<pdfrwt beam="2">  1       -2 0.14946539E+00 0.31384336E+04</pdfrwt>
<totfact> 0.85058972E-01</totfact>
</mgrwt>
</event>
<event>
 6    1  0.6091287E-004  0.1073085E+04  0.7818608E-02  0.9231829E-01
          2   -1    0    0  501    0  0.00000000000E+00  0.00000000000E+00  0.51908393342E+03  0.51908393342E+03  0.00000000000E+00 0.  1.
         -2   -1    0    0    0  501 -0.00000000000E+00 -0.00000000000E+00 -0.55458839441E+03  0.55458839441E+03  0.00000000000E+00 0. -1.
         23    2    1    2    0    0 -0.27449381401E+03  0.24198654893E+03  0.36946668315E+03  0.52786469563E+03  0.90725757898E+02 0.  0.
         11    1    3    3    0    0 -0.20637684506E+03  0.22775800971E+03  0.30515421511E+03  0.43310992619E+03  0.00000000000E+00 0.  1.
        -11    1    3    3    0    0 -0.68116968948E+02  0.14228539219E+02  0.64312468033E+02  0.94754769439E+02  0.00000000000E+00 0. -1.
         22    1    1    2    0    0  0.27449381401E+03 -0.24198654893E+03 -0.40497114413E+03  0.54580763220E+03  0.00000000000E+00 0. -1.
<mgrwt>
<rscale>  0 0.10730851E+04</rscale>
<asrwt>0</asrwt>
<pdfrwt beam="1">  1        2 0.79859066E-01 0.10730851E+04</pdfrwt>
<pdfrwt beam="2">  1       -2 0.85321292E-01 0.10730851E+04</pdfrwt>
<totfact> 0.70058889E+01</totfact>
</mgrwt>
</event>
<event>
 6    1  0.6091287E-004  0.2448776E+04  0.7818608E-02  0.8421465E-01
          2   -1    0    0  501    0  0.00000000000E+00  0.00000000000E+00  0.13042056508E+04  0.13042056508E+04  0.00000000000E+00 0.  1.
         -2   -1    0    0    0  501 -0.00000000000E+00 -0.00000000000E+00 -0.11494556268E+04  0.11494556268E+04  0.00000000000E+00 0. -1.
         23    2    1    2    0    0  0.31897631572E+03 -0.13913762207E+03 -0.10971598879E+04  0.11542831204E+04  0.86628716909E+02 0.  0.
         13    1    3    3    0    0  0.27449424553E+03 -0.90820723649E+02 -0.82105879984E+03  0.87047863125E+03  0.00000000000E+00 0. -1.
        -13    1    3    3    0    0  0.44482070190E+02 -0.48316898416E+02 -0.27610108803E+03  0.28380448913E+03  0.00000000000E+00 0.  1.
         22    1    1    2    0    0 -0.31897631572E+03  0.13913762207E+03  0.12519099119E+04  0.12993781572E+04  0.00000000000E+00 0.  1.
<mgrwt>
<rscale>  0 0.24487764E+04</rscale>
<asrwt>0</asrwt>
<pdfrwt beam="1">  1        2 0.20064702E+00 0.24487764E+04</pdfrwt>
<pdfrwt beam="2">  1       -2 0.17683933E+00 0.24487764E+04</pdfrwt>
<totfact> 0.28083563E+00</totfact>
</mgrwt>
</event>
<event>
 6    1  0.6091287E-004  0.4690364E+04  0.7818608E-02  0.7878132E-01
         -2   -1    0    0    0  501 -0.00000000000E+00  0.00000000000E+00  0.17587938652E+04  0.17587938652E+04  0.00000000000E+00 0. -1.
          2   -1    0    0  501    0  0.00000000000E+00 -0.00000000000E+00 -0.31270735920E+04  0.31270735920E+04  0.00000000000E+00 0.  1.
         23    2    1    2    0    0 -0.65716480744E+03 -0.17621910358E+04 -0.21422110043E+04  0.28521141652E+04  0.91128446259E+02 0.  0.
         11    1    3    3    0    0 -0.16952536826E+03 -0.53794041913E+03 -0.68788857734E+03  0.88955575421E+03  0.00000000000E+00 0. -1.
        -11    1    3    3    0    0 -0.48763943918E+03 -0.12242506166E+04 -0.14543224269E+04  0.19625584110E+04  0.00000000000E+00 0.  1.
         22    1    1    2    0    0  0.65716480744E+03  0.17621910358E+04  0.77393127744E+03  0.20337532920E+04  0.00000000000E+00 0. -1.
<mgrwt>
<rscale>  0 0.46903637E+04</rscale>
<asrwt>0</asrwt>
<pdfrwt beam="1">  1        2 0.48108824E+00 0.46903637E+04</pdfrwt>
<pdfrwt beam="2">  1       -2 0.27058368E+00 0.46903637E+04</pdfrwt>
<totfact> 0.51819465E-02</totfact>
</mgrwt>
</event>
<event>
 6    1  0.6091287E-004  0.3949720E+04  0.7818608E-02  0.8014767E-01
          2   -1    0    0  501    0  0.00000000000E+00  0.00000000000E+00  0.21326174199E+04  0.21326174199E+04  0.00000000000E+00 0.  1.
         -2   -1    0    0    0  501 -0.00000000000E+00 -0.00000000000E+00 -0.18287726911E+04  0.18287726911E+04  0.00000000000E+00 0. -1.
         23    2    1    2    0    0 -0.34409460563E+03  0.10427007015E+04 -0.14930013486E+04  0.18556166958E+04  0.92921710807E+02 0.  0.
         11    1    3    3    0    0 -0.14578369812E+03  0.50108035514E+03 -0.63780428554E+03  0.82409266202E+03  0.00000000000E+00 0.  1.
        -11    1    3    3    0    0 -0.19831090751E+03  0.54162034634E+03 -0.85519706306E+03  0.10315240338E+04  0.00000000000E+00 0. -1.
         22    1    1    2    0    0  0.34409460563E+03 -0.10427007015E+04  0.17968460774E+04  0.21057734152E+04  0.00000000000E+00 0.  1.
<mgrwt>
<rscale>  0 0.39497202E+04</rscale>
<asrwt>0</asrwt>
<pdfrwt beam="1">  1        2 0.32809499E+00 0.39497202E+04</pdfrwt>
<pdfrwt beam="2">  1       -2 0.28134964E+00 0.39497202E+04</pdfrwt>
<totfact> 0.18441343E-01</totfact>
</mgrwt>
</event>
<event>
 6    1  0.6091287E-004  0.1907085E+04  0.7818608E-02  0.8651338E-01
          1   -1    0    0  501    0  0.00000000000E+00  0.00000000000E+00  0.17070081788E+04  0.17070081788E+04  0.00000000000E+00 0.  1.
         -1   -1    0    0    0  501 -0.00000000000E+00 -0.00000000000E+00 -0.53265311749E+03  0.53265311749E+03  0.00000000000E+00 0. -1.
         23    2    1    2    0    0 -0.44412485640E+03 -0.66338664463E+03  0.11963645640E+04  0.14410292492E+04  0.89153793133E+02 0.  0.
         13    1    3    3    0    0 -0.20255722532E+03 -0.32547536933E+03  0.65103364651E+03  0.75551866585E+03  0.00000000000E+00 0.  1.
        -13    1    3    3    0    0 -0.24156763108E+03 -0.33791127530E+03  0.54533091745E+03  0.68551058335E+03  0.00000000000E+00 0. -1.
         22    1    1    2    0    0  0.44412485640E+03  0.66338664463E+03 -0.22009502699E+02  0.79863204704E+03  0.00000000000E+00 0. -1.
<mgrwt>
<rscale>  0 0.19070849E+04</rscale>
<asrwt>0</asrwt>
<pdfrwt beam="1">  1        1 0.26261664E+00 0.19070849E+04</pdfrwt>
<pdfrwt beam="2">  1       -1 0.81946635E-01 0.19070849E+04</pdfrwt>
<totfact> 0.65299870E+00</totfact>
</mgrwt>
</event>
<event>
 6    1  0.6091287E-004  0.2591646E+04  0.7818608E-02  0.8371044E-01
          2   -1    0    0  501    0  0.00000000000E+00  0.00000000000E+00  0.16431602429E+04  0.16431602429E+04  0.00000000000E+00 0.  1.
         -2   -1    0    0    0  501 -0.00000000000E+00 -0.00000000000E+00 -0.10219075283E+04  0.10219075283E+04  0.00000000000E+00 0. -1.
         23    2    1    2    0    0 -0.31670777322E+03  0.82077130041E+03 -0.66529384931E+03  0.11064878398E+04  0.87920944848E+02 0.  0.
         11    1    3    3    0    0 -0.22519895846E+03  0.57823775678E+03 -0.51807082893E+03  0.80837544374E+03  0.00000000000E+00 0.  1.
        -11    1    3    3    0    0 -0.91508814759E+02  0.24253354363E+03 -0.14722302038E+03  0.29811239608E+03  0.00000000000E+00 0. -1.
         22    1    1    2    0    0  0.31670777322E+03 -0.82077130041E+03  0.12865465640E+04  0.15585799314E+04  0.00000000000E+00 0.  1.
<mgrwt>
<rscale>  0 0.25916464E+04</rscale>
<asrwt>0</asrwt>
<pdfrwt beam="1">  1        2 0.25279388E+00 0.25916464E+04</pdfrwt>
<pdfrwt beam="2">  1       -2 0.15721654E+00 0.25916464E+04</pdfrwt>
<totfact> 0.24674161E+00</totfact>
</mgrwt>
</event>
<event>
 6    1  0.6091287E-004  0.6257268E+03  0.7818608E-02  0.9853423E-01
          2   -1    0    0  501    0  0.00000000000E+00  0.00000000000E+00  0.99769929900E+03  0.99769929900E+03  0.00000000000E+00 0.  1.
         -2   -1    0    0    0  501 -0.00000000000E+00 -0.00000000000E+00 -0.98109241219E+02  0.98109241219E+02  0.00000000000E+00 0. -1.
         23    2    1    2    0    0 -0.12266178330E+03  0.18890548087E+03  0.82178396776E+03  0.85751254480E+03  0.96268795795E+02 0.  0.
         11    1    3    3    0    0 -0.99120445353E+02  0.66135420876E+02  0.36690256224E+03  0.38576708875E+03  0.00000000000E+00 0. -1.
        -11    1    3    3    0    0 -0.23541337947E+02  0.12277006000E+03  0.45488140552E+03  0.47174545606E+03  0.00000000000E+00 0.  1.
         22    1    1    2    0    0  0.12266178330E+03 -0.18890548087E+03  0.77806090021E+02  0.23829599541E+03  0.00000000000E+00 0. -1.
<mgrwt>
<rscale>  0 0.62572685E+03</rscale>
<asrwt>0</asrwt>
<pdfrwt beam="1">  1        2 0.15349219E+00 0.62572685E+03</pdfrwt>
<pdfrwt beam="2">  1       -2 0.15093730E-01 0.62572685E+03</pdfrwt>
<totfact> 0.88310520E+02</totfact>
</mgrwt>
</event>
<event>
 6    1  0.6091287E-004  0.3429521E+04  0.7818608E-02  0.8130699E-01
         -2   -1    0    0    0  501 -0.00000000000E+00  0.00000000000E+00  0.92202670719E+03  0.92202670719E+03  0.00000000000E+00 0. -1.
          2   -1    0    0  501    0  0.00000000000E+00 -0.00000000000E+00 -0.31890650552E+04  0.31890650552E+04  0.00000000000E+00 0.  1.
         23    2    1    2    0    0 -0.24034840310E+03  0.93661791725E+03 -0.28301074070E+04  0.29921336564E+04  0.91298438022E+02 0.  0.
         11    1    3    3    0    0 -0.14798364928E+03  0.53525589785E+03 -0.14877990170E+04  0.15880629558E+04  0.00000000000E+00 0. -1.
        -11    1    3    3    0    0 -0.92364753817E+02  0.40136201941E+03 -0.13423083901E+04  0.14040707007E+04  0.00000000000E+00 0.  1.
         22    1    1    2    0    0  0.24034840310E+03 -0.93661791725E+03  0.56306905899E+03  0.11189581060E+04  0.00000000000E+00 0. -1.
<mgrwt>
<rscale>  0 0.34295208E+04</rscale>
<asrwt>0</asrwt>
<pdfrwt beam="1">  1        2 0.49062540E+00 0.34295208E+04</pdfrwt>
<pdfrwt beam="2">  1       -2 0.14185026E+00 0.34295208E+04</pdfrwt>
<totfact> 0.37774403E-01</totfact>
</mgrwt>
</event>
<event>
 6    1  0.6091287E-004  0.2049751E+04  0.7818608E-02  0.8583707E-01
          2   -1    0    0  501    0  0.00000000000E+00  0.00000000000E+00  0.17204533852E+04  0.17204533852E+04  0.00000000000E+00 0.  1.
         -2   -1    0    0    0  501 -0.00000000000E+00 -0.00000000000E+00 -0.61051943537E+03  0.61051943537E+03  0.00000000000E+00 0. -1.
         23    2    1    2    0    0 -0.38619494614E+03  0.39742580939E+03  0.15337412399E+04  0.16333293375E+04  0.91152200547E+02 0.  0.
         13    1    3    3    0    0 -0.25269321447E+03  0.27620862196E+03  0.90858255131E+03  0.98268373143E+03  0.00000000000E+00 0. -1.
        -13    1    3    3    0    0 -0.13350173166E+03  0.12121718743E+03  0.62515868855E+03  0.65064560611E+03  0.00000000000E+00 0.  1.
         22    1    1    2    0    0  0.38619494614E+03 -0.39742580939E+03 -0.42380728999E+03  0.69764348305E+03  0.00000000000E+00 0. -1.
<mgrwt>
<rscale>  0 0.20497514E+04</rscale>
<asrwt>0</asrwt>
<pdfrwt beam="1">  1        2 0.26468513E+00 0.20497514E+04</pdfrwt>
<pdfrwt beam="2">  1       -2 0.93926068E-01 0.20497514E+04</pdfrwt>
<totfact> 0.84605845E+00</totfact>
</mgrwt>
</event>
<event>
 6    1  0.6091287E-004  0.7201846E+04  0.7818608E-02  0.7556970E-01
          2   -1    0    0  501    0  0.00000000000E+00  0.00000000000E+00  0.43630693323E+04  0.43630693323E+04  0.00000000000E+00 0.  1.
         -2   -1    0    0    0  501 -0.00000000000E+00 -0.00000000000E+00 -0.29719089771E+04  0.29719089771E+04  0.00000000000E+00 0. -1.
         23    2    1    2    0    0 -0.18448960847E+04 -0.16451892344E+04  0.33617408777E+04  0.41737322298E+04  0.91922885894E+02 0.  0.
         11    1    3    3    0    0 -0.75607402048E+03 -0.62752578012E+03  0.12879380697E+04  0.16199447523E+04  0.00000000000E+00 0.  1.
        -11    1    3    3    0    0 -0.10888220642E+04 -0.10176634543E+04  0.20738028080E+04  0.25537874775E+04  0.00000000000E+00 0. -1.
         22    1    1    2    0    0  0.18448960847E+04  0.16451892344E+04 -0.19705805224E+04  0.31612460796E+04  0.00000000000E+00 0. -1.
<mgrwt>
<rscale>  0 0.72018456E+04</rscale>
<asrwt>0</asrwt>
<pdfrwt beam="1">  1        2 0.67124144E+00 0.72018456E+04</pdfrwt>
<pdfrwt beam="2">  1       -2 0.45721676E+00 0.72018456E+04</pdfrwt>
<totfact> 0.31630767E-04</totfact>
</mgrwt>
</event>
<event>
 6    1  0.6091287E-004  0.2482229E+04  0.7818608E-02  0.8409344E-01
          2   -1    0    0  501    0  0.00000000000E+00  0.00000000000E+00  0.16253640168E+04  0.16253640168E+04  0.00000000000E+00 0.  1.
         -2   -1    0    0    0  501 -0.00000000000E+00 -0.00000000000E+00 -0.94770445508E+03  0.94770445508E+03  0.00000000000E+00 0. -1.
         23    2    1    2    0    0 -0.30606096087E+03  0.45032275956E+03  0.14935237809E+04  0.15922023630E+04  0.89616857274E+02 0.  0.
         13    1    3    3    0    0 -0.26139019043E+03  0.32833244868E+03  0.10765511506E+04  0.11554606910E+04  0.00000000000E+00 0.  1.
        -13    1    3    3    0    0 -0.44670770443E+02  0.12199031087E+03  0.41697263023E+03  0.43674167198E+03  0.00000000000E+00 0. -1.
         22    1    1    2    0    0  0.30606096087E+03 -0.45032275956E+03 -0.81586421913E+03  0.98086610891E+03  0.00000000000E+00 0. -1.
<mgrwt>
<rscale>  0 0.24822286E+04</rscale>
<asrwt>0</asrwt>
<pdfrwt beam="1">  1        2 0.25005600E+00 0.24822286E+04</pdfrwt>
<pdfrwt beam="2">  1       -2 0.14580069E+00 0.24822286E+04</pdfrwt>
<totfact> 0.31140772E+00</totfact>
</mgrwt>
</event>
<event>
 6    1  0.6091287E-004  0.1287313E+04  0.7818608E-02  0.9039687E-01
          2   -1    0    0  501    0  0.00000000000E+00  0.00000000000E+00  0.63888238515E+03  0.63888238515E+03  0.00000000000E+00 0.  1.
         -2   -1    0    0    0  501 -0.00000000000E+00 -0.00000000000E+00 -0.64846591550E+03  0.64846591550E+03  0.00000000000E+00 0. -1.
         23    2    1    2    0    0  0.40280837577E+03  0.31352278214E+03  0.38198970694E+03  0.64401267854E+03  0.91022367610E+02 0.  0.
         11    1    3    3    0    0  0.17874034033E+02  0.45772382441E+02  0.44453185784E+02  0.66262189922E+02  0.00000000000E+00 0.  1.
        -11    1    3    3    0    0  0.38493434174E+03  0.26775039969E+03  0.33753652116E+03  0.57775048862E+03  0.00000000000E+00 0. -1.
         22    1    1    2    0    0 -0.40280837577E+03 -0.31352278214E+03 -0.39157323729E+03  0.64333562211E+03  0.00000000000E+00 0. -1.
<mgrwt>
<rscale>  0 0.12873126E+04</rscale>
<asrwt>0</asrwt>
<pdfrwt beam="1">  1        2 0.98289598E-01 0.12873126E+04</pdfrwt>
<pdfrwt beam="2">  1       -2 0.99763986E-01 0.12873126E+04</pdfrwt>
<totfact> 0.37438605E+01</totfact>
</mgrwt>
</event>
<event>
 6    1  0.6091287E-004  0.1725641E+04  0.7818608E-02  0.8746874E-01
         -2   -1    0    0    0  501 -0.00000000000E+00  0.00000000000E+00  0.66019767176E+03  0.66019767176E+03  0.00000000000E+00 0. -1.
          2   -1    0    0  501    0  0.00000000000E+00 -0.00000000000E+00 -0.11276310362E+04  0.11276310362E+04  0.00000000000E+00 0.  1.
         23    2    1    2    0    0  0.69978595944E+03  0.46262722534E+03 -0.43307844385E+03  0.94824273899E+03  0.88786343906E+02 0.  0.
         13    1    3    3    0    0  0.38986719666E+03  0.21028550358E+03 -0.25008070672E+03  0.50868141692E+03  0.00000000000E+00 0. -1.
        -13    1    3    3    0    0  0.30991876278E+03  0.25234172176E+03 -0.18299773713E+03  0.43956132207E+03  0.00000000000E+00 0.  1.
         22    1    1    2    0    0 -0.69978595944E+03 -0.46262722534E+03 -0.34354920541E+02  0.83958596893E+03  0.00000000000E+00 0. -1.
<mgrwt>
<rscale>  0 0.17256412E+04</rscale>
<asrwt>0</asrwt>
<pdfrwt beam="1">  1        2 0.17348170E+00 0.17256412E+04</pdfrwt>
<pdfrwt beam="2">  1       -2 0.10156887E+00 0.17256412E+04</pdfrwt>
<totfact> 0.15838378E+01</totfact>
</mgrwt>
</event>
<event>
 6    1  0.6091287E-004  0.3287515E+04  0.7818608E-02  0.8166079E-01
          2   -1    0    0  501    0  0.00000000000E+00  0.00000000000E+00  0.18578730083E+04  0.18578730083E+04  0.00000000000E+00 0. -1.
         -2   -1    0    0    0  501 -0.00000000000E+00 -0.00000000000E+00 -0.14543186835E+04  0.14543186835E+04  0.00000000000E+00 0.  1.
         23    2    1    2    0    0 -0.10708405124E+04 -0.33456716697E+03  0.14106173904E+04  0.18046073292E+04  0.90175375594E+02 0.  0.
         13    1    3    3    0    0 -0.92184219496E+03 -0.26223412945E+03  0.11688123752E+04  0.15115165032E+04  0.00000000000E+00 0. -1.
        -13    1    3    3    0    0 -0.14899831748E+03 -0.72333037511E+02  0.24180501521E+03  0.29309082604E+03  0.00000000000E+00 0.  1.
         22    1    1    2    0    0  0.10708405124E+04  0.33456716697E+03 -0.10070630656E+04  0.15075843626E+04  0.00000000000E+00 0.  1.
<mgrwt>
<rscale>  0 0.32875154E+04</rscale>
<asrwt>0</asrwt>
<pdfrwt beam="1">  1        2 0.28582662E+00 0.32875154E+04</pdfrwt>
<pdfrwt beam="2">  1       -2 0.22374134E+00 0.32875154E+04</pdfrwt>
<totfact> 0.62712728E-01</totfact>
</mgrwt>
</event>
<event>
 6    1  0.6091287E-004  0.2219089E+04  0.7818608E-02  0.8510525E-01
         -2   -1    0    0    0  501 -0.00000000000E+00  0.00000000000E+00  0.79806768376E+03  0.79806768376E+03  0.00000000000E+00 0.  1.
          2   -1    0    0  501    0  0.00000000000E+00 -0.00000000000E+00 -0.15425871292E+04  0.15425871292E+04  0.00000000000E+00 0. -1.
         23    2    1    2    0    0  0.75275138700E+03 -0.25737483038E+03 -0.11858867075E+04  0.14308847795E+04  0.90705651657E+02 0.  0.
         13    1    3    3    0    0  0.62386943311E+03 -0.22517254083E+03 -0.10407577408E+04  0.12341363044E+04  0.00000000000E+00 0. -1.
        -13    1    3    3    0    0  0.12888195390E+03 -0.32202289547E+02 -0.14512896663E+03  0.19674847508E+03  0.00000000000E+00 0.  1.
         22    1    1    2    0    0 -0.75275138700E+03  0.25737483038E+03  0.44136726199E+03  0.90977003353E+03  0.00000000000E+00 0.  1.
<mgrwt>
<rscale>  0 0.22190889E+04</rscale>
<asrwt>0</asrwt>
<pdfrwt beam="1">  1        2 0.23732110E+00 0.22190889E+04</pdfrwt>
<pdfrwt beam="2">  1       -2 0.12277964E+00 0.22190889E+04</pdfrwt>
<totfact> 0.54981267E+00</totfact>
</mgrwt>
</event>
<event>
 6    1  0.6091287E-004  0.5031707E+04  0.7818608E-02  0.7823635E-01
          2   -1    0    0  501    0  0.00000000000E+00  0.00000000000E+00  0.20277697623E+04  0.20277697623E+04  0.00000000000E+00 0.  1.
         -2   -1    0    0    0  501 -0.00000000000E+00 -0.00000000000E+00 -0.31214183669E+04  0.31214183669E+04  0.00000000000E+00 0. -1.
         23    2    1    2    0    0 -0.20720791058E+04  0.61216464979E+03  0.77035922083E+03  0.22956320053E+04  0.90639922374E+02 0.  0.
         13    1    3    3    0    0 -0.37954624047E+03  0.13703815963E+03  0.17166922569E+03  0.43852608690E+03  0.00000000000E+00 0.  1.
        -13    1    3    3    0    0 -0.16925328653E+04  0.47512649016E+03  0.59868999514E+03  0.18571059184E+04  0.00000000000E+00 0. -1.
         22    1    1    2    0    0  0.20720791058E+04 -0.61216464979E+03 -0.18640078254E+04  0.28535561239E+04  0.00000000000E+00 0.  1.
<mgrwt>
<rscale>  0 0.50317066E+04</rscale>
<asrwt>0</asrwt>
<pdfrwt beam="1">  1        2 0.31196458E+00 0.50317066E+04</pdfrwt>
<pdfrwt beam="2">  1       -2 0.48021821E+00 0.50317066E+04</pdfrwt>
<totfact> 0.10358930E-02</totfact>
</mgrwt>
</event>
<event>
 6    1  0.6091287E-004  0.3737997E+04  0.7818608E-02  0.8059593E-01
          2   -1    0    0  501    0  0.00000000000E+00  0.00000000000E+00  0.28066715051E+04  0.28066715051E+04  0.00000000000E+00 0.  1.
         -2   -1    0    0    0  501 -0.00000000000E+00 -0.00000000000E+00 -0.12445903533E+04  0.12445903533E+04  0.00000000000E+00 0. -1.
         23    2    1    2    0    0  0.17419377069E+04 -0.50384528861E+03  0.12670437377E+04  0.22140753885E+04  0.92319787064E+02 0.  0.
         13    1    3    3    0    0  0.77295329860E+03 -0.26498652372E+03  0.54244304632E+03  0.98077475400E+03  0.00000000000E+00 0. -1.
        -13    1    3    3    0    0  0.96898440826E+03 -0.23885876490E+03  0.72460069141E+03  0.12333006345E+04  0.00000000000E+00 0.  1.
         22    1    1    2    0    0 -0.17419377069E+04  0.50384528861E+03  0.29503741410E+03  0.18371864699E+04  0.00000000000E+00 0. -1.
<mgrwt>
<rscale>  0 0.37379975E+04</rscale>
<asrwt>0</asrwt>
<pdfrwt beam="1">  1        2 0.43179561E+00 0.37379975E+04</pdfrwt>
<pdfrwt beam="2">  1       -2 0.19147544E+00 0.37379975E+04</pdfrwt>
<totfact> 0.27963158E-01</totfact>
</mgrwt>
</event>
<event>
 6    1  0.6091287E-004  0.3460409E+04  0.7818608E-02  0.8123237E-01
          1   -1    0    0  501    0  0.00000000000E+00  0.00000000000E+00  0.18870628246E+04  0.18870628246E+04  0.00000000000E+00 0.  1.
         -1   -1    0    0    0  501 -0.00000000000E+00 -0.00000000000E+00 -0.15863848483E+04  0.15863848483E+04  0.00000000000E+00 0. -1.
         23    2    1    2    0    0 -0.32657894350E+03  0.34663908199E+03 -0.15179098031E+04  0.15935343848E+04  0.92136885964E+02 0.  0.
         11    1    3    3    0    0 -0.21527224730E+03  0.21522491770E+03 -0.11046753709E+04  0.11458497200E+04  0.00000000000E+00 0. -1.
        -11    1    3    3    0    0 -0.11130669620E+03  0.13141416429E+03 -0.41323443216E+03  0.44768466483E+03  0.00000000000E+00 0.  1.
         22    1    1    2    0    0  0.32657894350E+03 -0.34663908199E+03  0.18185877794E+04  0.18799132881E+04  0.00000000000E+00 0.  1.
<mgrwt>
<rscale>  0 0.34604092E+04</rscale>
<asrwt>0</asrwt>
<pdfrwt beam="1">  1        1 0.29031736E+00 0.34604092E+04</pdfrwt>
<pdfrwt beam="2">  1       -1 0.24405921E+00 0.34604092E+04</pdfrwt>
<totfact> 0.22191199E-01</totfact>
</mgrwt>
</event>
<event>
 6    1  0.6091287E-004  0.2091790E+04  0.7818608E-02  0.8564868E-01
          2   -1    0    0  501    0  0.00000000000E+00  0.00000000000E+00  0.21063157672E+04  0.21063157672E+04  0.00000000000E+00 0.  1.
         -2   -1    0    0    0  501 -0.00000000000E+00 -0.00000000000E+00 -0.51934127091E+03  0.51934127091E+03  0.00000000000E+00 0. -1.
         23    2    1    2    0    0  0.28261637573E+03  0.23936543514E+03 -0.43076260633E+03  0.57421100111E+03  0.83630278071E+02 0.  0.
         13    1    3    3    0    0  0.80361777942E+02  0.55077191628E+02 -0.63760454255E+02  0.11643413554E+03  0.00000000000E+00 0.  1.
        -13    1    3    3    0    0  0.20225459779E+03  0.18428824352E+03 -0.36700215208E+03  0.45777686557E+03  0.00000000000E+00 0. -1.
         22    1    1    2    0    0 -0.28261637573E+03 -0.23936543514E+03  0.20177371026E+04  0.20514460369E+04  0.00000000000E+00 0.  1.
<mgrwt>
<rscale>  0 0.20917903E+04</rscale>
<asrwt>0</asrwt>
<pdfrwt beam="1">  1        2 0.32404857E+00 0.20917903E+04</pdfrwt>
<pdfrwt beam="2">  1       -2 0.79898659E-01 0.20917903E+04</pdfrwt>
<totfact> 0.74499149E+00</totfact>
</mgrwt>
</event>
<event>
 6    1  0.6091287E-004  0.5065101E+04  0.7818608E-02  0.7818543E-01
          2   -1    0    0  501    0  0.00000000000E+00  0.00000000000E+00  0.28996111778E+04  0.28996111778E+04  0.00000000000E+00 0.  1.
         -2   -1    0    0    0  501 -0.00000000000E+00 -0.00000000000E+00 -0.22119559578E+04  0.22119559578E+04  0.00000000000E+00 0. -1.
         23    2    1    2    0    0 -0.22154245075E+04  0.12116588400E+04  0.15941188900E+03  0.25317873176E+04  0.91170051882E+02 0.  0.
         13    1    3    3    0    0 -0.11502016260E+04  0.59086293573E+03  0.11254017335E+03  0.12979784590E+04  0.00000000000E+00 0.  1.
        -13    1    3    3    0    0 -0.10652228815E+04  0.62079590423E+03  0.46871715642E+02  0.12338088586E+04  0.00000000000E+00 0. -1.
         22    1    1    2    0    0  0.22154245075E+04 -0.12116588400E+04  0.52824333095E+03  0.25797798180E+04  0.00000000000E+00 0.  1.
<mgrwt>
<rscale>  0 0.50651011E+04</rscale>
<asrwt>0</asrwt>
<pdfrwt beam="1">  1        2 0.44609403E+00 0.50651011E+04</pdfrwt>
<pdfrwt beam="2">  1       -2 0.34030092E+00 0.50651011E+04</pdfrwt>
<totfact> 0.26058658E-02</totfact>
</mgrwt>
</event>
<event>
 6    1  0.6091287E-004  0.4191422E+04  0.7818608E-02  0.7967006E-01
         -2   -1    0    0    0  501 -0.00000000000E+00  0.00000000000E+00  0.13885586653E+04  0.13885586653E+04  0.00000000000E+00 0. -1.
          2   -1    0    0  501    0  0.00000000000E+00 -0.00000000000E+00 -0.31629949720E+04  0.31629949720E+04  0.00000000000E+00 0.  1.
         23    2    1    2    0    0  0.70659296945E+03 -0.11470110806E+04  0.85361873398E+03  0.15983212826E+04  0.10515672146E+03 0.  0.
         11    1    3    3    0    0  0.19322985700E+03 -0.40817458671E+03  0.28372362450E+03  0.53333232226E+03  0.00000000000E+00 0.  1.
        -11    1    3    3    0    0  0.51336311245E+03 -0.73883649385E+03  0.56989510948E+03  0.10649889604E+04  0.00000000000E+00 0. -1.
         22    1    1    2    0    0 -0.70659296945E+03  0.11470110806E+04 -0.26280550407E+04  0.29532323546E+04  0.00000000000E+00 0.  1.
<mgrwt>
<rscale>  0 0.41914218E+04</rscale>
<asrwt>0</asrwt>
<pdfrwt beam="1">  1        2 0.48661461E+00 0.41914218E+04</pdfrwt>
<pdfrwt beam="2">  1       -2 0.21362441E+00 0.41914218E+04</pdfrwt>
<totfact> 0.11545083E-01</totfact>
</mgrwt>
</event>
<event>
 6    1  0.6091287E-004  0.2010787E+04  0.7818608E-02  0.8601594E-01
          2   -1    0    0  501    0  0.00000000000E+00  0.00000000000E+00  0.56321754718E+03  0.56321754718E+03  0.00000000000E+00 0.  1.
         -2   -1    0    0    0  501 -0.00000000000E+00 -0.00000000000E+00 -0.17947172033E+04  0.17947172033E+04  0.00000000000E+00 0. -1.
         23    2    1    2    0    0 -0.25593462899E+02 -0.41513454898E+03  0.45373694474E+03  0.62213115562E+03  0.90433625783E+02 0.  0.
         13    1    3    3    0    0 -0.54605397867E+02 -0.16743650373E+03  0.19550363887E+03  0.26313191572E+03  0.00000000000E+00 0. -1.
        -13    1    3    3    0    0  0.29011934968E+02 -0.24769804524E+03  0.25823330587E+03  0.35899923990E+03  0.00000000000E+00 0.  1.
         22    1    1    2    0    0  0.25593462899E+02  0.41513454898E+03 -0.16852366008E+04  0.17358035948E+04  0.00000000000E+00 0. -1.
<mgrwt>
<rscale>  0 0.20107871E+04</rscale>
<asrwt>0</asrwt>
<pdfrwt beam="1">  1        2 0.86648853E-01 0.20107871E+04</pdfrwt>
<pdfrwt beam="2">  1       -2 0.27611034E+00 0.20107871E+04</pdfrwt>
<totfact> 0.22103407E+00</totfact>
</mgrwt>
</event>
<event>
 6    1  0.6091287E-004  0.4772215E+04  0.7818608E-02  0.7864639E-01
          2   -1    0    0  501    0  0.00000000000E+00  0.00000000000E+00  0.38596061832E+04  0.38596061832E+04  0.00000000000E+00 0.  1.
         -2   -1    0    0    0  501 -0.00000000000E+00 -0.00000000000E+00 -0.14751529146E+04  0.14751529146E+04  0.00000000000E+00 0. -1.
         23    2    1    2    0    0 -0.17529861908E+04  0.57913249748E+03 -0.49597769656E+03  0.19134672979E+04  0.83714930746E+02 0.  0.
         11    1    3    3    0    0 -0.13902366562E+04  0.48417751250E+03 -0.37029970902E+03  0.15179946305E+04  0.00000000000E+00 0. -1.
        -11    1    3    3    0    0 -0.36274953466E+03  0.94954984981E+02 -0.12567798754E+03  0.39547266734E+03  0.00000000000E+00 0.  1.
         22    1    1    2    0    0  0.17529861908E+04 -0.57913249748E+03  0.28804309652E+04  0.34212917999E+04  0.00000000000E+00 0.  1.
<mgrwt>
<rscale>  0 0.47722151E+04</rscale>
<asrwt>0</asrwt>
<pdfrwt beam="1">  1        2 0.59378556E+00 0.47722151E+04</pdfrwt>
<pdfrwt beam="2">  1       -2 0.22694660E+00 0.47722151E+04</pdfrwt>
<totfact> 0.29169795E-02</totfact>
</mgrwt>
</event>
<event>
 6    1  0.6091287E-004  0.2071728E+04  0.7818608E-02  0.8573801E-01
         -2   -1    0    0    0  501 -0.00000000000E+00  0.00000000000E+00  0.40151704765E+03  0.40151704765E+03  0.00000000000E+00 0. -1.
          2   -1    0    0  501    0  0.00000000000E+00 -0.00000000000E+00 -0.26723989256E+04  0.26723989256E+04  0.00000000000E+00 0.  1.
         23    2    1    2    0    0 -0.29548155785E+03 -0.28903541458E+03 -0.25436828312E+04  0.25786673670E+04  0.91390490581E+02 0.  0.
         13    1    3    3    0    0 -0.20081221104E+03 -0.25051230979E+03 -0.19118663756E+04  0.19386374080E+04  0.00000000000E+00 0. -1.
        -13    1    3    3    0    0 -0.94669346807E+02 -0.38523104794E+02 -0.63181645558E+03  0.64002995896E+03  0.00000000000E+00 0.  1.
         22    1    1    2    0    0  0.29548155785E+03  0.28903541458E+03  0.27280095327E+03  0.49524860628E+03  0.00000000000E+00 0. -1.
<mgrwt>
<rscale>  0 0.20717275E+04</rscale>
<asrwt>0</asrwt>
<pdfrwt beam="1">  1        2 0.41113831E+00 0.20717275E+04</pdfrwt>
<pdfrwt beam="2">  1       -2 0.61771851E-01 0.20717275E+04</pdfrwt>
<totfact> 0.62069615E+00</totfact>
</mgrwt>
</event>
<event>
 6    1  0.6091287E-004  0.1820461E+04  0.7818608E-02  0.8695494E-01
          2   -1    0    0  501    0  0.00000000000E+00  0.00000000000E+00  0.10286550465E+04  0.10286550465E+04  0.00000000000E+00 0.  1.
         -2   -1    0    0    0  501 -0.00000000000E+00 -0.00000000000E+00 -0.80543934828E+03  0.80543934828E+03  0.00000000000E+00 0. -1.
         23    2    1    2    0    0  0.55144340606E+02  0.81198740198E+03 -0.29380719547E+03  0.86989674292E+03  0.89628321108E+02 0.  0.
         13    1    3    3    0    0  0.42034996883E+02  0.50692223402E+03 -0.22857916006E+03  0.55766076132E+03  0.00000000000E+00 0. -1.
        -13    1    3    3    0    0  0.13109343724E+02  0.30506516796E+03 -0.65228035415E+02  0.31223598159E+03  0.00000000000E+00 0.  1.
         22    1    1    2    0    0 -0.55144340606E+02 -0.81198740198E+03  0.51702289371E+03  0.96419765189E+03  0.00000000000E+00 0.  1.
<mgrwt>
<rscale>  0 0.18204607E+04</rscale>
<asrwt>0</asrwt>
<pdfrwt beam="1">  1        2 0.15825462E+00 0.18204607E+04</pdfrwt>
<pdfrwt beam="2">  1       -2 0.12391375E+00 0.18204607E+04</pdfrwt>
<totfact> 0.11155328E+01</totfact>
</mgrwt>
</event>
<event>
 6    1  0.6091287E-004  0.3630560E+04  0.7818608E-02  0.8083527E-01
         -2   -1    0    0    0  501 -0.00000000000E+00  0.00000000000E+00  0.10674106233E+04  0.10674106233E+04  0.00000000000E+00 0. -1.
          2   -1    0    0  501    0  0.00000000000E+00 -0.00000000000E+00 -0.30871356201E+04  0.30871356201E+04  0.00000000000E+00 0.  1.
         23    2    1    2    0    0 -0.14427623894E+04  0.44062541433E+03  0.14257015750E+03  0.15180268708E+04  0.91461809387E+02 0.  0.
         11    1    3    3    0    0 -0.35365616245E+03  0.10996824983E+03  0.74653485512E+02  0.37780794077E+03  0.00000000000E+00 0.  1.
        -11    1    3    3    0    0 -0.10891062270E+04  0.33065716450E+03  0.67916671984E+02  0.11402189301E+04  0.00000000000E+00 0. -1.
         22    1    1    2    0    0  0.14427623894E+04 -0.44062541433E+03 -0.21622951543E+04  0.26365193726E+04  0.00000000000E+00 0.  1.
<mgrwt>
<rscale>  0 0.36305599E+04</rscale>
<asrwt>0</asrwt>
<pdfrwt beam="1">  1        2 0.47494394E+00 0.36305599E+04</pdfrwt>
<pdfrwt beam="2">  1       -2 0.16421702E+00 0.36305599E+04</pdfrwt>
<totfact> 0.29222179E-01</totfact>
</mgrwt>
</event>
<event>
 6    1  0.6091287E-004  0.1765223E+04  0.7818608E-02  0.8725015E-01
          1   -1    0    0  501    0  0.00000000000E+00  0.00000000000E+00  0.60427432519E+03  0.60427432519E+03  0.00000000000E+00 0.  1.
         -1   -1    0    0    0  501 -0.00000000000E+00 -0.00000000000E+00 -0.12891547571E+04  0.12891547571E+04  0.00000000000E+00 0. -1.
         23    2    1    2    0    0  0.34912104993E+03 -0.31318185336E+03  0.45581553502E+03  0.66007768477E+03  0.89254507968E+02 0.  0.
         11    1    3    3    0    0  0.11552487417E+03 -0.75956135673E+02  0.87643973435E+02  0.16369727297E+03  0.00000000000E+00 0. -1.
        -11    1    3    3    0    0  0.23359617575E+03 -0.23722571769E+03  0.36817156158E+03  0.49638041180E+03  0.00000000000E+00 0.  1.
         22    1    1    2    0    0 -0.34912104993E+03  0.31318185336E+03 -0.11406959669E+04  0.12333513975E+04  0.00000000000E+00 0. -1.
<mgrwt>
<rscale>  0 0.17652231E+04</rscale>
<asrwt>0</asrwt>
<pdfrwt beam="1">  1        1 0.92965281E-01 0.17652231E+04</pdfrwt>
<pdfrwt beam="2">  1       -1 0.19833150E+00 0.17652231E+04</pdfrwt>
<totfact> 0.49574148E+00</totfact>
</mgrwt>
</event>
<event>
 6    1  0.6091287E-004  0.5194840E+03  0.7818608E-02  0.1008815E+00
         -2   -1    0    0    0  501 -0.00000000000E+00  0.00000000000E+00  0.44466152802E+02  0.44466152802E+02  0.00000000000E+00 0. -1.
          2   -1    0    0  501    0  0.00000000000E+00 -0.00000000000E+00 -0.15172417684E+04  0.15172417684E+04  0.00000000000E+00 0.  1.
         23    2    1    2    0    0 -0.45060714818E+02 -0.21968169705E+03 -0.41594449860E+03  0.48134570143E+03  0.91615186167E+02 0.  0.
         13    1    3    3    0    0 -0.31154989099E+01  0.84372451997E+01 -0.78258606566E+01  0.11922144733E+02  0.00000000000E+00 0.  1.
        -13    1    3    3    0    0 -0.41945215908E+02 -0.22811894225E+03 -0.40811863794E+03  0.46942355670E+03  0.00000000000E+00 0. -1.
         22    1    1    2    0    0  0.45060714818E+02  0.21968169705E+03 -0.10568311170E+04  0.10803622198E+04  0.00000000000E+00 0.  1.
<mgrwt>
<rscale>  0 0.51948399E+03</rscale>
<asrwt>0</asrwt>
<pdfrwt beam="1">  1        2 0.23342182E+00 0.51948399E+03</pdfrwt>
<pdfrwt beam="2">  1       -2 0.68409464E-02 0.51948399E+03</pdfrwt>
<totfact> 0.15984882E+03</totfact>
</mgrwt>
</event>
<event>
 6    1  0.6091287E-004  0.3326737E+04  0.7818608E-02  0.8156125E-01
         -1   -1    0    0    0  501 -0.00000000000E+00  0.00000000000E+00  0.25251619081E+04  0.25251619081E+04  0.00000000000E+00 0. -1.
          1   -1    0    0  501    0  0.00000000000E+00 -0.00000000000E+00 -0.10956903349E+04  0.10956903349E+04  0.00000000000E+00 0.  1.
         23    2    1    2    0    0  0.38668636565E+03  0.12750343082E+04  0.17966962830E+04  0.22387911662E+04  0.93965525533E+02 0.  0.
         11    1    3    3    0    0  0.32589982877E+03  0.10574616387E+04  0.14305855033E+04  0.18085935690E+04  0.00000000000E+00 0. -1.
        -11    1    3    3    0    0  0.60786536876E+02  0.21757266952E+03  0.36611077977E+03  0.43019759721E+03  0.00000000000E+00 0.  1.
         22    1    1    2    0    0 -0.38668636565E+03 -0.12750343082E+04 -0.36722470990E+03  0.13820610768E+04  0.00000000000E+00 0.  1.
<mgrwt>
<rscale>  0 0.33267374E+04</rscale>
<asrwt>0</asrwt>
<pdfrwt beam="1">  1        1 0.16856774E+00 0.33267374E+04</pdfrwt>
<pdfrwt beam="2">  1       -1 0.38848645E+00 0.33267374E+04</pdfrwt>
<totfact> 0.90553998E-02</totfact>
</mgrwt>
</event>
<event>
 6    1  0.6091287E-004  0.3648098E+04  0.7818608E-02  0.8079562E-01
         -2   -1    0    0    0  501 -0.00000000000E+00  0.00000000000E+00  0.27825527762E+04  0.27825527762E+04  0.00000000000E+00 0. -1.
          2   -1    0    0  501    0  0.00000000000E+00 -0.00000000000E+00 -0.11957204467E+04  0.11957204467E+04  0.00000000000E+00 0.  1.
         23    2    1    2    0    0  0.17556668011E+04 -0.12158425626E+03  0.13093005855E+04  0.21966524674E+04  0.11775139619E+03 0.  0.
         13    1    3    3    0    0  0.10496802045E+04 -0.62950953118E+02  0.71083949091E+03  0.12692848916E+04  0.00000000000E+00 0. -1.
        -13    1    3    3    0    0  0.70598659656E+03 -0.58633303146E+02  0.59846109461E+03  0.92736757573E+03  0.00000000000E+00 0.  1.
         22    1    1    2    0    0 -0.17556668011E+04  0.12158425626E+03  0.27753174390E+03  0.17816207556E+04  0.00000000000E+00 0.  1.
<mgrwt>
<rscale>  0 0.36480983E+04</rscale>
<asrwt>0</asrwt>
<pdfrwt beam="1">  1        2 0.18395699E+00 0.36480983E+04</pdfrwt>
<pdfrwt beam="2">  1       -2 0.42808504E+00 0.36480983E+04</pdfrwt>
<totfact> 0.74922567E-02</totfact>
</mgrwt>
</event>
<event>
 6    1  0.6091287E-004  0.8871304E+03  0.7818608E-02  0.9441814E-01
         -2   -1    0    0    0  501 -0.00000000000E+00  0.00000000000E+00  0.32961512970E+03  0.32961512970E+03  0.00000000000E+00 0. -1.
          2   -1    0    0  501    0  0.00000000000E+00 -0.00000000000E+00 -0.59690852693E+03  0.59690852693E+03  0.00000000000E+00 0.  1.
         23    2    1    2    0    0 -0.35599621990E+03 -0.46626575474E+02 -0.39838952930E+03  0.54430180748E+03  0.92967168670E+02 0.  0.
         13    1    3    3    0    0 -0.32732070557E+03 -0.38517667691E+02 -0.31562136338E+03  0.45633244465E+03  0.00000000000E+00 0.  1.
        -13    1    3    3    0    0 -0.28675514333E+02 -0.81089077830E+01 -0.82768165922E+02  0.87969362836E+02  0.00000000000E+00 0. -1.
         22    1    1    2    0    0  0.35599621990E+03  0.46626575474E+02  0.13109613206E+03  0.38222184915E+03  0.00000000000E+00 0. -1.
<mgrwt>
<rscale>  0 0.88713039E+03</rscale>
<asrwt>0</asrwt>
<pdfrwt beam="1">  1        2 0.91832080E-01 0.88713039E+03</pdfrwt>
<pdfrwt beam="2">  1       -2 0.50710021E-01 0.88713039E+03</pdfrwt>
<totfact> 0.18421437E+02</totfact>
</mgrwt>
</event>
<event>
 6    1  0.6091287E-004  0.1479769E+04  0.7818608E-02  0.8898019E-01
          2   -1    0    0  501    0  0.00000000000E+00  0.00000000000E+00  0.17016029106E+04  0.17016029106E+04  0.00000000000E+00 0.  1.
         -2   -1    0    0    0  501 -0.00000000000E+00 -0.00000000000E+00 -0.32171386580E+03  0.32171386580E+03  0.00000000000E+00 0. -1.
         23    2    1    2    0    0  0.13294363953E+03  0.62181957375E+03  0.18251586012E+03  0.66757486253E+03  0.89501755858E+02 0.  0.
         13    1    3    3    0    0  0.12001123937E+03  0.35459794527E+03  0.97250850120E+02  0.38678175786E+03  0.00000000000E+00 0. -1.
        -13    1    3    3    0    0  0.12932400157E+02  0.26722162849E+03  0.85265009997E+02  0.28079310468E+03  0.00000000000E+00 0.  1.
         22    1    1    2    0    0 -0.13294363953E+03 -0.62181957375E+03  0.11973731847E+04  0.13557419139E+04  0.00000000000E+00 0.  1.
<mgrwt>
<rscale>  0 0.14797692E+04</rscale>
<asrwt>0</asrwt>
<pdfrwt beam="1">  1        2 0.26178506E+00 0.14797692E+04</pdfrwt>
<pdfrwt beam="2">  1       -2 0.49494442E-01 0.14797692E+04</pdfrwt>
<totfact> 0.36584226E+01</totfact>
</mgrwt>
</event>
<event>
 6    1  0.6091287E-004  0.2140493E+04  0.7818608E-02  0.8543613E-01
         -2   -1    0    0    0  501 -0.00000000000E+00  0.00000000000E+00  0.37811796587E+03  0.37811796587E+03  0.00000000000E+00 0.  1.
          2   -1    0    0  501    0  0.00000000000E+00 -0.00000000000E+00 -0.30292870061E+04  0.30292870061E+04  0.00000000000E+00 0. -1.
         23    2    1    2    0    0  0.25127439519E+03  0.87210164009E+03 -0.22250352416E+04  0.24047634076E+04  0.91679483728E+02 0.  0.
         13    1    3    3    0    0  0.14587719217E+03  0.52655202472E+03 -0.14545664649E+04  0.15538020436E+04  0.00000000000E+00 0. -1.
        -13    1    3    3    0    0  0.10539720302E+03  0.34554961537E+03 -0.77046877672E+03  0.85096136399E+03  0.00000000000E+00 0.  1.
         22    1    1    2    0    0 -0.25127439519E+03 -0.87210164009E+03 -0.42613379865E+03  0.10026415644E+04  0.00000000000E+00 0.  1.
<mgrwt>
<rscale>  0 0.21404933E+04</rscale>
<asrwt>0</asrwt>
<pdfrwt beam="1">  1        2 0.46604415E+00 0.21404933E+04</pdfrwt>
<pdfrwt beam="2">  1       -2 0.58171996E-01 0.21404933E+04</pdfrwt>
<totfact> 0.42449340E+00</totfact>
</mgrwt>
</event>
<event>
 6    1  0.6091287E-004  0.1911119E+04  0.7818608E-02  0.8649342E-01
          2   -1    0    0  501    0  0.00000000000E+00  0.00000000000E+00  0.60293553771E+03  0.60293553771E+03  0.00000000000E+00 0.  1.
         -2   -1    0    0    0  501 -0.00000000000E+00 -0.00000000000E+00 -0.15144134314E+04  0.15144134314E+04  0.00000000000E+00 0. -1.
         23    2    1    2    0    0 -0.56618011520E+02  0.17526497359E+03 -0.14931305129E+04  0.15072316200E+04  0.91569741049E+02 0.  0.
         13    1    3    3    0    0 -0.35457010998E+02  0.26907668471E+02 -0.59701197146E+03  0.59866895386E+03  0.00000000000E+00 0. -1.
        -13    1    3    3    0    0 -0.21161000522E+02  0.14835730512E+03 -0.89611854145E+03  0.90856266612E+03  0.00000000000E+00 0.  1.
         22    1    1    2    0    0  0.56618011520E+02 -0.17526497359E+03  0.58165261925E+03  0.61011734911E+03  0.00000000000E+00 0.  1.
<mgrwt>
<rscale>  0 0.19111187E+04</rscale>
<asrwt>0</asrwt>
<pdfrwt beam="1">  1        2 0.92759314E-01 0.19111187E+04</pdfrwt>
<pdfrwt beam="2">  1       -2 0.23298668E+00 0.19111187E+04</pdfrwt>
<totfact> 0.37767071E+00</totfact>
</mgrwt>
</event>
<event>
 6    1  0.6091287E-004  0.1661294E+04  0.7818608E-02  0.8783753E-01
         -2   -1    0    0    0  501 -0.00000000000E+00  0.00000000000E+00  0.36867610633E+03  0.36867610633E+03  0.00000000000E+00 0. -1.
          2   -1    0    0  501    0  0.00000000000E+00 -0.00000000000E+00 -0.18714924695E+04  0.18714924695E+04  0.00000000000E+00 0.  1.
         23    2    1    2    0    0 -0.40493716105E+03 -0.33701594633E+03  0.10772854934E+03  0.54564540760E+03  0.92572231323E+02 0.  0.
         13    1    3    3    0    0 -0.10905964302E+03 -0.46951613714E+02  0.42961596538E+02  0.12627018074E+03  0.00000000000E+00 0. -1.
        -13    1    3    3    0    0 -0.29587751803E+03 -0.29006433262E+03  0.64766952799E+02  0.41937522686E+03  0.00000000000E+00 0.  1.
         22    1    1    2    0    0  0.40493716105E+03  0.33701594633E+03 -0.16105449125E+04  0.16945231682E+04  0.00000000000E+00 0.  1.
<mgrwt>
<rscale>  0 0.16612941E+04</rscale>
<asrwt>0</asrwt>
<pdfrwt beam="1">  1        2 0.28792192E+00 0.16612941E+04</pdfrwt>
<pdfrwt beam="2">  1       -2 0.56719400E-01 0.16612941E+04</pdfrwt>
<totfact> 0.21912843E+01</totfact>
</mgrwt>
</event>
<event>
 6    1  0.6091287E-004  0.2891125E+04  0.7818608E-02  0.8275523E-01
          1   -1    0    0  501    0  0.00000000000E+00  0.00000000000E+00  0.12867718747E+04  0.12867718747E+04  0.00000000000E+00 0.  1.
         -1   -1    0    0    0  501 -0.00000000000E+00 -0.00000000000E+00 -0.16239479885E+04  0.16239479885E+04  0.00000000000E+00 0. -1.
         23    2    1    2    0    0  0.65911245913E+02  0.10655232348E+04 -0.11478943200E+04  0.15702169479E+04  0.90751513814E+02 0.  0.
         11    1    3    3    0    0  0.27018359137E+02  0.49037744213E+03 -0.46228351499E+03  0.67446725326E+03  0.00000000000E+00 0.  1.
        -11    1    3    3    0    0  0.38892886775E+02  0.57514579272E+03 -0.68561080497E+03  0.89574969463E+03  0.00000000000E+00 0. -1.
         22    1    1    2    0    0 -0.65911245913E+02 -0.10655232348E+04  0.81071820611E+03  0.13405029154E+04  0.00000000000E+00 0.  1.
<mgrwt>
<rscale>  0 0.28911248E+04</rscale>
<asrwt>0</asrwt>
<pdfrwt beam="1">  1        1 0.19796490E+00 0.28911248E+04</pdfrwt>
<pdfrwt beam="2">  1       -1 0.24983815E+00 0.28911248E+04</pdfrwt>
<totfact> 0.55502880E-01</totfact>
</mgrwt>
</event>
<event>
 6    1  0.6091287E-004  0.2056152E+04  0.7818608E-02  0.8580809E-01
         -1   -1    0    0    0  501 -0.00000000000E+00  0.00000000000E+00  0.10590577227E+04  0.10590577227E+04  0.00000000000E+00 0. -1.
          1   -1    0    0  501    0  0.00000000000E+00 -0.00000000000E+00 -0.99800050558E+03  0.99800050558E+03  0.00000000000E+00 0.  1.
         23    2    1    2    0    0 -0.96070165915E+01 -0.36299152140E+03 -0.92950738247E+03  0.10020353066E+04  0.90750438794E+02 0.  0.
         13    1    3    3    0    0  0.29939333425E+02 -0.15870593088E+03 -0.32908612102E+03  0.36658097500E+03  0.00000000000E+00 0. -1.
        -13    1    3    3    0    0 -0.39546350016E+02 -0.20428559052E+03 -0.60042126145E+03  0.63545433156E+03  0.00000000000E+00 0.  1.
         22    1    1    2    0    0  0.96070165915E+01  0.36299152140E+03  0.99056459955E+03  0.10550229217E+04  0.00000000000E+00 0. -1.
<mgrwt>
<rscale>  0 0.20561519E+04</rscale>
<asrwt>0</asrwt>
<pdfrwt beam="1">  1        1 0.15353854E+00 0.20561519E+04</pdfrwt>
<pdfrwt beam="2">  1       -1 0.16293196E+00 0.20561519E+04</pdfrwt>
<totfact> 0.38935186E+00</totfact>
</mgrwt>
</event>
<event>
 6    1  0.6091287E-004  0.5971079E+03  0.7818608E-02  0.9911424E-01
          2   -1    0    0  501    0  0.00000000000E+00  0.00000000000E+00  0.12139904707E+04  0.12139904707E+04  0.00000000000E+00 0.  1.
         -2   -1    0    0    0  501 -0.00000000000E+00 -0.00000000000E+00 -0.73422710427E+02  0.73422710427E+02  0.00000000000E+00 0. -1.
         23    2    1    2    0    0  0.58571851691E+02 -0.28419078559E+03  0.62729537017E+03  0.69780007843E+03  0.96074989456E+02 0.  0.
         11    1    3    3    0    0  0.15712106515E+02 -0.88735419334E+02  0.30864662721E+03  0.32153317935E+03  0.00000000000E+00 0.  1.
        -11    1    3    3    0    0  0.42859745177E+02 -0.19545536625E+03  0.31864874297E+03  0.37626689909E+03  0.00000000000E+00 0. -1.
         22    1    1    2    0    0 -0.58571851691E+02  0.28419078559E+03  0.51327239008E+03  0.58961310268E+03  0.00000000000E+00 0. -1.
<mgrwt>
<rscale>  0 0.59710793E+03</rscale>
<asrwt>0</asrwt>
<pdfrwt beam="1">  1        2 0.18676775E+00 0.59710793E+03</pdfrwt>
<pdfrwt beam="2">  1       -2 0.11295803E-01 0.59710793E+03</pdfrwt>
<totfact> 0.10573931E+03</totfact>
</mgrwt>
</event>
<event>
 6    1  0.6091287E-004  0.8247968E+03  0.7818608E-02  0.9524802E-01
          2   -1    0    0  501    0  0.00000000000E+00  0.00000000000E+00  0.87934432888E+03  0.87934432888E+03  0.00000000000E+00 0.  1.
         -2   -1    0    0    0  501 -0.00000000000E+00 -0.00000000000E+00 -0.19340824428E+03  0.19340824428E+03  0.00000000000E+00 0. -1.
         23    2    1    2    0    0 -0.25249987116E+02 -0.10545242604E+03  0.85797590948E+03  0.86939211155E+03  0.89231196177E+02 0.  0.
         13    1    3    3    0    0 -0.42201539352E+02 -0.39600970983E+02  0.20902991064E+03  0.21689331564E+03  0.00000000000E+00 0.  1.
        -13    1    3    3    0    0  0.16951552236E+02 -0.65851455055E+02  0.64894599884E+03  0.65249879591E+03  0.00000000000E+00 0. -1.
         22    1    1    2    0    0  0.25249987116E+02  0.10545242604E+03 -0.17203982488E+03  0.20336046162E+03  0.00000000000E+00 0. -1.
<mgrwt>
<rscale>  0 0.82479681E+03</rscale>
<asrwt>0</asrwt>
<pdfrwt beam="1">  1        2 0.13528374E+00 0.82479681E+03</pdfrwt>
<pdfrwt beam="2">  1       -2 0.29755115E-01 0.82479681E+03</pdfrwt>
<totfact> 0.31650804E+02</totfact>
</mgrwt>
</event>
<event>
 6    1  0.6091287E-004  0.1871837E+04  0.7818608E-02  0.8669003E-01
          2   -1    0    0  501    0  0.00000000000E+00  0.00000000000E+00  0.20455155587E+04  0.20455155587E+04  0.00000000000E+00 0.  1.
         -2   -1    0    0    0  501 -0.00000000000E+00 -0.00000000000E+00 -0.42822616753E+03  0.42822616753E+03  0.00000000000E+00 0. -1.
         23    2    1    2    0    0 -0.68866952026E+03 -0.59070481753E+03  0.11019207921E+04  0.14302846440E+04  0.91032088920E+02 0.  0.
         11    1    3    3    0    0 -0.47935085034E+03 -0.38173785244E+03  0.79883580707E+03  0.10067967384E+04  0.00000000000E+00 0. -1.
        -11    1    3    3    0    0 -0.20931866992E+03 -0.20896696509E+03  0.30308498502E+03  0.42348790563E+03  0.00000000000E+00 0.  1.
         22    1    1    2    0    0  0.68866952026E+03  0.59070481753E+03  0.51536859913E+03  0.10434570823E+04  0.00000000000E+00 0. -1.
<mgrwt>
<rscale>  0 0.18718368E+04</rscale>
<asrwt>0</asrwt>
<pdfrwt beam="1">  1        2 0.31469470E+00 0.18718368E+04</pdfrwt>
<pdfrwt beam="2">  1       -2 0.65880950E-01 0.18718368E+04</pdfrwt>
<totfact> 0.12545416E+01</totfact>
</mgrwt>
</event>
<event>
 6    1  0.6091287E-004  0.1756304E+04  0.7818608E-02  0.8729888E-01
          1   -1    0    0  501    0  0.00000000000E+00  0.00000000000E+00  0.30899650526E+04  0.30899650526E+04  0.00000000000E+00 0.  1.
         -1   -1    0    0    0  501 -0.00000000000E+00 -0.00000000000E+00 -0.24956617114E+03  0.24956617114E+03  0.00000000000E+00 0. -1.
         23    2    1    2    0    0  0.81049632719E+03 -0.26249504365E+03  0.18119603189E+04  0.20040560943E+04  0.85045209192E+02 0.  0.
         13    1    3    3    0    0  0.30521470203E+03 -0.57169453563E+02  0.63427687480E+03  0.70620925699E+03  0.00000000000E+00 0. -1.
        -13    1    3    3    0    0  0.50528162517E+03 -0.20532559009E+03  0.11776834441E+04  0.12978468373E+04  0.00000000000E+00 0.  1.
         22    1    1    2    0    0 -0.81049632719E+03  0.26249504365E+03  0.10284385626E+04  0.13354751295E+04  0.00000000000E+00 0. -1.
<mgrwt>
<rscale>  0 0.17563038E+04</rscale>
<asrwt>0</asrwt>
<pdfrwt beam="1">  1        1 0.47537921E+00 0.17563038E+04</pdfrwt>
<pdfrwt beam="2">  1       -1 0.38394798E-01 0.17563038E+04</pdfrwt>
<totfact> 0.32045063E+00</totfact>
</mgrwt>
</event>
<event>
 6    1  0.6091287E-004  0.2464934E+04  0.7818608E-02  0.8415586E-01
          2   -1    0    0  501    0  0.00000000000E+00  0.00000000000E+00  0.19384777575E+04  0.19384777575E+04  0.00000000000E+00 0.  1.
         -2   -1    0    0    0  501 -0.00000000000E+00 -0.00000000000E+00 -0.78359136032E+03  0.78359136032E+03  0.00000000000E+00 0. -1.
         23    2    1    2    0    0 -0.33012957411E+03  0.11134998222E+04  0.12848875103E+03  0.11721144353E+04  0.92062482350E+02 0.  0.
         11    1    3    3    0    0 -0.12298707075E+03  0.32858383715E+03  0.42385825043E+01  0.35087194699E+03  0.00000000000E+00 0. -1.
        -11    1    3    3    0    0 -0.20714250336E+03  0.78491598505E+03  0.12425016853E+03  0.82124248835E+03  0.00000000000E+00 0.  1.
         22    1    1    2    0    0  0.33012957411E+03 -0.11134998222E+04  0.10263976462E+04  0.15499546825E+04  0.00000000000E+00 0. -1.
<mgrwt>
<rscale>  0 0.24649336E+04</rscale>
<asrwt>0</asrwt>
<pdfrwt beam="1">  1        2 0.29822735E+00 0.24649336E+04</pdfrwt>
<pdfrwt beam="2">  1       -2 0.12055252E+00 0.24649336E+04</pdfrwt>
<totfact> 0.33944407E+00</totfact>
</mgrwt>
</event>
<event>
 6    1  0.6091287E-004  0.1161731E+04  0.7818608E-02  0.9147029E-01
         -2   -1    0    0    0  501 -0.00000000000E+00  0.00000000000E+00  0.16673606642E+03  0.16673606642E+03  0.00000000000E+00 0. -1.
          2   -1    0    0  501    0  0.00000000000E+00 -0.00000000000E+00 -0.20235851627E+04  0.20235851627E+04  0.00000000000E+00 0.  1.
         23    2    1    2    0    0  0.11694043130E+03 -0.51101404081E+03 -0.47667496165E+03  0.71394354835E+03  0.87669588759E+02 0.  0.
         11    1    3    3    0    0  0.12387652937E+03 -0.37481484870E+03 -0.36580568557E+03  0.53818710959E+03  0.00000000000E+00 0. -1.
        -11    1    3    3    0    0 -0.69360980685E+01 -0.13619919211E+03 -0.11086927608E+03  0.17575643876E+03  0.00000000000E+00 0.  1.
         22    1    1    2    0    0 -0.11694043130E+03  0.51101404081E+03 -0.13801741346E+04  0.14763776808E+04  0.00000000000E+00 0.  1.
<mgrwt>
<rscale>  0 0.11617308E+04</rscale>
<asrwt>0</asrwt>
<pdfrwt beam="1">  1        2 0.31132077E+00 0.11617308E+04</pdfrwt>
<pdfrwt beam="2">  1       -2 0.25651704E-01 0.11617308E+04</pdfrwt>
<totfact> 0.87937023E+01</totfact>
</mgrwt>
</event>
<event>
 6    1  0.6091287E-004  0.1123183E+04  0.7818608E-02  0.9182887E-01
         -2   -1    0    0    0  501 -0.00000000000E+00  0.00000000000E+00  0.15826071212E+03  0.15826071212E+03  0.00000000000E+00 0. -1.
          2   -1    0    0  501    0  0.00000000000E+00 -0.00000000000E+00 -0.19928177248E+04  0.19928177248E+04  0.00000000000E+00 0.  1.
         23    2    1    2    0    0  0.22421544459E+03  0.51075094038E+03 -0.90307793170E+03  0.10653563882E+04  0.91079056421E+02 0.  0.
         13    1    3    3    0    0  0.13697765879E+03  0.26129833559E+03 -0.55246684503E+03  0.62630608655E+03  0.00000000000E+00 0.  1.
        -13    1    3    3    0    0  0.87237785807E+02  0.24945260479E+03 -0.35061108667E+03  0.43905030168E+03  0.00000000000E+00 0. -1.
         22    1    1    2    0    0 -0.22421544459E+03 -0.51075094038E+03 -0.93147908095E+03  0.10857220487E+04  0.00000000000E+00 0. -1.
<mgrwt>
<rscale>  0 0.11231825E+04</rscale>
<asrwt>0</asrwt>
<pdfrwt beam="1">  1        2 0.30658735E+00 0.11231825E+04</pdfrwt>
<pdfrwt beam="2">  1       -2 0.24347802E-01 0.11231825E+04</pdfrwt>
<totfact> 0.10080951E+02</totfact>
</mgrwt>
</event>
<event>
 6    1  0.6091287E-004  0.2441191E+04  0.7818608E-02  0.8424241E-01
          1   -1    0    0  501    0  0.00000000000E+00  0.00000000000E+00  0.38345612311E+04  0.38345612311E+04  0.00000000000E+00 0.  1.
         -1   -1    0    0    0  501 -0.00000000000E+00 -0.00000000000E+00 -0.38853293200E+03  0.38853293200E+03  0.00000000000E+00 0. -1.
         23    2    1    2    0    0  0.11261989066E+04 -0.42550535151E+02  0.25286000500E+04  0.27698876680E+04  0.91241190149E+02 0.  0.
         11    1    3    3    0    0  0.39960637324E+03  0.83676304883E+01  0.80745083198E+03  0.90096177324E+03  0.00000000000E+00 0. -1.
        -11    1    3    3    0    0  0.72659253339E+03 -0.50918165639E+02  0.17211492180E+04  0.18689258947E+04  0.00000000000E+00 0.  1.
         22    1    1    2    0    0 -0.11261989066E+04  0.42550535151E+02  0.91742824907E+03  0.14532064951E+04  0.00000000000E+00 0. -1.
<mgrwt>
<rscale>  0 0.24411910E+04</rscale>
<asrwt>0</asrwt>
<pdfrwt beam="1">  1        1 0.58993247E+00 0.24411910E+04</pdfrwt>
<pdfrwt beam="2">  1       -1 0.59774300E-01 0.24411910E+04</pdfrwt>
<totfact> 0.33853645E-01</totfact>
</mgrwt>
</event>
<event>
 6    1  0.6091287E-004  0.1652848E+04  0.7818608E-02  0.8788724E-01
         -2   -1    0    0    0  501 -0.00000000000E+00  0.00000000000E+00  0.16132209881E+04  0.16132209881E+04  0.00000000000E+00 0. -1.
          2   -1    0    0  501    0  0.00000000000E+00 -0.00000000000E+00 -0.42336201027E+03  0.42336201027E+03  0.00000000000E+00 0.  1.
         23    2    1    2    0    0 -0.20506087705E+03  0.26639606403E+03 -0.33046640221E+03  0.47953255364E+03  0.87901085207E+02 0.  0.
         13    1    3    3    0    0 -0.18584394767E+03  0.26027326993E+03 -0.27955560362E+03  0.42477227245E+03  0.00000000000E+00 0. -1.
        -13    1    3    3    0    0 -0.19216929381E+02  0.61227940936E+01 -0.50910798592E+02  0.54760281187E+02  0.00000000000E+00 0.  1.
         22    1    1    2    0    0  0.20506087705E+03 -0.26639606403E+03  0.15203253800E+04  0.15570504447E+04  0.00000000000E+00 0. -1.
<mgrwt>
<rscale>  0 0.16528478E+04</rscale>
<asrwt>0</asrwt>
<pdfrwt beam="1">  1        2 0.65132618E-01 0.16528478E+04</pdfrwt>
<pdfrwt beam="2">  1       -2 0.24818784E+00 0.16528478E+04</pdfrwt>
<totfact> 0.46958004E+00</totfact>
</mgrwt>
</event>
<event>
 6    1  0.6091287E-004  0.1420505E+04  0.7818608E-02  0.8939108E-01
          2   -1    0    0  501    0  0.00000000000E+00  0.00000000000E+00  0.13712898084E+04  0.13712898084E+04  0.00000000000E+00 0.  1.
         -2   -1    0    0    0  501 -0.00000000000E+00 -0.00000000000E+00 -0.36787154975E+03  0.36787154975E+03  0.00000000000E+00 0. -1.
         23    2    1    2    0    0 -0.51462893217E+03 -0.16642881861E+03  0.10619137715E+04  0.11951363454E+04  0.90269244402E+02 0.  0.
         11    1    3    3    0    0 -0.28610660750E+03 -0.78857858421E+02  0.48699045048E+03  0.57029400449E+03  0.00000000000E+00 0.  1.
        -11    1    3    3    0    0 -0.22852232466E+03 -0.87570960194E+02  0.57492332099E+03  0.62484234088E+03  0.00000000000E+00 0. -1.
         22    1    1    2    0    0  0.51462893217E+03  0.16642881861E+03 -0.58495512846E+02  0.54402501276E+03  0.00000000000E+00 0. -1.
<mgrwt>
<rscale>  0 0.14205048E+04</rscale>
<asrwt>0</asrwt>
<pdfrwt beam="1">  1        2 0.21096766E+00 0.14205048E+04</pdfrwt>
<pdfrwt beam="2">  1       -2 0.56595624E-01 0.14205048E+04</pdfrwt>
<totfact> 0.42777576E+01</totfact>
</mgrwt>
</event>
<event>
 6    1  0.6091287E-004  0.1521417E+04  0.7818608E-02  0.8870335E-01
          2   -1    0    0  501    0  0.00000000000E+00  0.00000000000E+00  0.87023421516E+03  0.87023421516E+03  0.00000000000E+00 0.  1.
         -2   -1    0    0    0  501 -0.00000000000E+00 -0.00000000000E+00 -0.66496709806E+03  0.66496709806E+03  0.00000000000E+00 0. -1.
         23    2    1    2    0    0 -0.98439569921E+02 -0.71258924886E+03  0.34386148903E+03  0.80261535482E+03  0.92070069092E+02 0.  0.
         11    1    3    3    0    0 -0.76284107198E+02 -0.48956536993E+03  0.28204326629E+03  0.57012447808E+03  0.00000000000E+00 0. -1.
        -11    1    3    3    0    0 -0.22155462723E+02 -0.22302387893E+03  0.61818222750E+02  0.23249087673E+03  0.00000000000E+00 0.  1.
         22    1    1    2    0    0  0.98439569921E+02  0.71258924886E+03 -0.13859437193E+03  0.73258595840E+03  0.00000000000E+00 0. -1.
<mgrwt>
<rscale>  0 0.15214166E+04</rscale>
<asrwt>0</asrwt>
<pdfrwt beam="1">  1        2 0.13388219E+00 0.15214166E+04</pdfrwt>
<pdfrwt beam="2">  1       -2 0.10230263E+00 0.15214166E+04</pdfrwt>
<totfact> 0.23195816E+01</totfact>
</mgrwt>
</event>
<event>
 6    1  0.6091287E-004  0.9380485E+03  0.7818608E-02  0.9379230E-01
          2   -1    0    0  501    0  0.00000000000E+00  0.00000000000E+00  0.28427122710E+04  0.28427122710E+04  0.00000000000E+00 0.  1.
         -2   -1    0    0    0  501 -0.00000000000E+00 -0.00000000000E+00 -0.77385159022E+02  0.77385159022E+02  0.00000000000E+00 0. -1.
         23    2    1    2    0    0  0.47275404383E+02 -0.39867976775E+03  0.21231029545E+04  0.21627121981E+04  0.92614120551E+02 0.  0.
         11    1    3    3    0    0  0.54611222350E+02 -0.15547148021E+03  0.10071007150E+04  0.10204928304E+04  0.00000000000E+00 0.  1.
        -11    1    3    3    0    0 -0.73358179673E+01 -0.24320828754E+03  0.11160022395E+04  0.11422193677E+04  0.00000000000E+00 0. -1.
         22    1    1    2    0    0 -0.47275404383E+02  0.39867976775E+03  0.64222415743E+03  0.75738523187E+03  0.00000000000E+00 0. -1.
<mgrwt>
<rscale>  0 0.93804849E+03</rscale>
<asrwt>0</asrwt>
<pdfrwt beam="1">  1        2 0.43734027E+00 0.93804849E+03</pdfrwt>
<pdfrwt beam="2">  1       -2 0.11905411E-01 0.93804849E+03</pdfrwt>
<totfact> 0.11548651E+02</totfact>
</mgrwt>
</event>
<event>
 6    1  0.6091287E-004  0.2813187E+04  0.7818608E-02  0.8299186E-01
          2   -1    0    0  501    0  0.00000000000E+00  0.00000000000E+00  0.19153390924E+04  0.19153390924E+04  0.00000000000E+00 0.  1.
         -2   -1    0    0    0  501 -0.00000000000E+00 -0.00000000000E+00 -0.10329793902E+04  0.10329793902E+04  0.00000000000E+00 0. -1.
         23    2    1    2    0    0  0.11180166749E+04 -0.77252938948E+03  0.81670829060E+03  0.15877770275E+04  0.85208651486E+02 0.  0.
         11    1    3    3    0    0  0.11227657606E+03 -0.61262301776E+02  0.10221406064E+03  0.16372786367E+03  0.00000000000E+00 0. -1.
        -11    1    3    3    0    0  0.10057400988E+04 -0.71126708771E+03  0.71449422996E+03  0.14240491639E+04  0.00000000000E+00 0.  1.
         22    1    1    2    0    0 -0.11180166749E+04  0.77252938948E+03  0.65651411578E+02  0.13605414550E+04  0.00000000000E+00 0. -1.
<mgrwt>
<rscale>  0 0.28131874E+04</rscale>
<asrwt>0</asrwt>
<pdfrwt beam="1">  1        2 0.29466755E+00 0.28131874E+04</pdfrwt>
<pdfrwt beam="2">  1       -2 0.15891991E+00 0.28131874E+04</pdfrwt>
<totfact> 0.16608138E+00</totfact>
</mgrwt>
</event>
<event>
 6    1  0.6091287E-004  0.1932849E+04  0.7818608E-02  0.8638676E-01
          2   -1    0    0  501    0  0.00000000000E+00  0.00000000000E+00  0.10869402738E+04  0.10869402738E+04  0.00000000000E+00 0. -1.
         -2   -1    0    0    0  501 -0.00000000000E+00 -0.00000000000E+00 -0.85927071042E+03  0.85927071042E+03  0.00000000000E+00 0.  1.
         23    2    1    2    0    0  0.29416464211E+03  0.23984245031E+03 -0.77848534931E+03  0.87084827985E+03  0.90994778979E+02 0.  0.
         11    1    3    3    0    0  0.23196971040E+03  0.18586348774E+03 -0.51312503905E+03  0.59300294124E+03  0.00000000000E+00 0.  1.
        -11    1    3    3    0    0  0.62194931703E+02  0.53978962575E+02 -0.26536031026E+03  0.27784533861E+03  0.00000000000E+00 0. -1.
         22    1    1    2    0    0 -0.29416464211E+03 -0.23984245031E+03  0.10061549126E+04  0.10753627043E+04  0.00000000000E+00 0. -1.
<mgrwt>
<rscale>  0 0.19328486E+04</rscale>
<asrwt>0</asrwt>
<pdfrwt beam="1">  1        2 0.16722158E+00 0.19328486E+04</pdfrwt>
<pdfrwt beam="2">  1       -2 0.13219549E+00 0.19328486E+04</pdfrwt>
<totfact> 0.86300439E+00</totfact>
</mgrwt>
</event>
<event>
 6    1  0.6091287E-004  0.1511848E+04  0.7818608E-02  0.8876612E-01
          2   -1    0    0  501    0  0.00000000000E+00  0.00000000000E+00  0.21888069615E+04  0.21888069615E+04  0.00000000000E+00 0.  1.
         -2   -1    0    0    0  501 -0.00000000000E+00 -0.00000000000E+00 -0.26106500843E+03  0.26106500843E+03  0.00000000000E+00 0. -1.
         23    2    1    2    0    0  0.43262771305E+03 -0.33052385739E+03  0.18106657411E+04  0.18929881420E+04  0.92091917541E+02 0.  0.
         11    1    3    3    0    0  0.33963587060E+03 -0.26561715975E+03  0.12911659927E+04  0.13612547965E+04  0.00000000000E+00 0.  1.
        -11    1    3    3    0    0  0.92991842450E+02 -0.64906697639E+02  0.51949974838E+03  0.53173334551E+03  0.00000000000E+00 0. -1.
         22    1    1    2    0    0 -0.43262771305E+03  0.33052385739E+03  0.11707621194E+03  0.55688382793E+03  0.00000000000E+00 0. -1.
<mgrwt>
<rscale>  0 0.15118478E+04</rscale>
<asrwt>0</asrwt>
<pdfrwt beam="1">  1        2 0.33673952E+00 0.15118478E+04</pdfrwt>
<pdfrwt beam="2">  1       -2 0.40163849E-01 0.15118478E+04</pdfrwt>
<totfact> 0.29702833E+01</totfact>
</mgrwt>
</event>
<event>
 6    1  0.6091287E-004  0.1061888E+04  0.7818608E-02  0.9243156E-01
         -2   -1    0    0    0  501 -0.00000000000E+00  0.00000000000E+00  0.11975189251E+04  0.11975189251E+04  0.00000000000E+00 0.  1.
          2   -1    0    0  501    0  0.00000000000E+00 -0.00000000000E+00 -0.23540455527E+03  0.23540455527E+03  0.00000000000E+00 0. -1.
         23    2    1    2    0    0 -0.60806435611E+02 -0.95932988811E+02  0.11790779788E+04  0.11880280567E+04  0.91023197406E+02 0.  0.
         13    1    3    3    0    0 -0.40063222622E+02 -0.20550536491E+02  0.78378543986E+03  0.78507770449E+03  0.00000000000E+00 0.  1.
        -13    1    3    3    0    0 -0.20743212989E+02 -0.75382452319E+02  0.39529253892E+03  0.40295035219E+03  0.00000000000E+00 0. -1.
         22    1    1    2    0    0  0.60806435611E+02  0.95932988811E+02 -0.21696360893E+03  0.24489542371E+03  0.00000000000E+00 0. -1.
<mgrwt>
<rscale>  0 0.10618878E+04</rscale>
<asrwt>0</asrwt>
<pdfrwt beam="1">  1        2 0.36216086E-01 0.10618878E+04</pdfrwt>
<pdfrwt beam="2">  1       -2 0.18423368E+00 0.10618878E+04</pdfrwt>
<totfact> 0.24283861E+01</totfact>
</mgrwt>
</event>
<event>
 6    1  0.6091287E-004  0.6623747E+03  0.7818608E-02  0.9783832E-01
          2   -1    0    0  501    0  0.00000000000E+00  0.00000000000E+00  0.76139987412E+03  0.76139987412E+03  0.00000000000E+00 0.  1.
         -2   -1    0    0    0  501 -0.00000000000E+00 -0.00000000000E+00 -0.14405709349E+03  0.14405709349E+03  0.00000000000E+00 0. -1.
         23    2    1    2    0    0 -0.20609478444E+03  0.11248034691E+03  0.72938305070E+01  0.25178532974E+03  0.90640850029E+02 0.  0.
         11    1    3    3    0    0 -0.73315846189E+02  0.53612993827E+02 -0.39706069193E+02  0.99126880009E+02  0.00000000000E+00 0. -1.
        -11    1    3    3    0    0 -0.13277893825E+03  0.58867353078E+02  0.46999899700E+02  0.15265844973E+03  0.00000000000E+00 0.  1.
         22    1    1    2    0    0  0.20609478444E+03 -0.11248034691E+03  0.61004895012E+03  0.65367163787E+03  0.00000000000E+00 0.  1.
<mgrwt>
<rscale>  0 0.66237468E+03</rscale>
<asrwt>0</asrwt>
<pdfrwt beam="1">  1        2 0.11713844E+00 0.66237468E+03</pdfrwt>
<pdfrwt beam="2">  1       -2 0.22162630E-01 0.66237468E+03</pdfrwt>
<totfact> 0.65819123E+02</totfact>
</mgrwt>
</event>
<event>
 6    1  0.6091287E-004  0.4752600E+04  0.7818608E-02  0.7867847E-01
         -2   -1    0    0    0  501 -0.00000000000E+00  0.00000000000E+00  0.15840097983E+04  0.15840097983E+04  0.00000000000E+00 0. -1.
          2   -1    0    0  501    0  0.00000000000E+00 -0.00000000000E+00 -0.35648774056E+04  0.35648774056E+04  0.00000000000E+00 0.  1.
         23    2    1    2    0    0  0.88350025558E+03  0.11665825302E+04 -0.30179713209E+04  0.33552675079E+04  0.90452498254E+02 0.  0.
         11    1    3    3    0    0  0.44440770602E+03  0.60719075187E+03 -0.16509717831E+04  0.18143557112E+04  0.00000000000E+00 0.  1.
        -11    1    3    3    0    0  0.43909254956E+03  0.55939177836E+03 -0.13669995378E+04  0.15409117967E+04  0.00000000000E+00 0. -1.
         22    1    1    2    0    0 -0.88350025558E+03 -0.11665825302E+04  0.10371037135E+04  0.17936196960E+04  0.00000000000E+00 0. -1.
<mgrwt>
<rscale>  0 0.47525996E+04</rscale>
<asrwt>0</asrwt>
<pdfrwt beam="1">  1        2 0.54844267E+00 0.47525996E+04</pdfrwt>
<pdfrwt beam="2">  1       -2 0.24369382E+00 0.47525996E+04</pdfrwt>
<totfact> 0.38086903E-02</totfact>
</mgrwt>
</event>
<event>
 6    1  0.6091287E-004  0.1520673E+04  0.7818608E-02  0.8870821E-01
         -2   -1    0    0    0  501 -0.00000000000E+00  0.00000000000E+00  0.37369411266E+03  0.37369411266E+03  0.00000000000E+00 0. -1.
          2   -1    0    0  501    0  0.00000000000E+00 -0.00000000000E+00 -0.15470174897E+04  0.15470174897E+04  0.00000000000E+00 0.  1.
         23    2    1    2    0    0  0.51521337315E+03  0.24656052723E+03  0.40135011049E+02  0.57954860961E+03  0.89603896820E+02 0.  0.
         11    1    3    3    0    0  0.20405302386E+03  0.50028584001E+02  0.17496826777E+02  0.21082370528E+03  0.00000000000E+00 0.  1.
        -11    1    3    3    0    0  0.31116034930E+03  0.19653194323E+03  0.22638184272E+02  0.36872490433E+03  0.00000000000E+00 0. -1.
         22    1    1    2    0    0 -0.51521337315E+03 -0.24656052723E+03 -0.12134583880E+04  0.13411629927E+04  0.00000000000E+00 0.  1.
<mgrwt>
<rscale>  0 0.15206727E+04</rscale>
<asrwt>0</asrwt>
<pdfrwt beam="1">  1        2 0.23800269E+00 0.15206727E+04</pdfrwt>
<pdfrwt beam="2">  1       -2 0.57491403E-01 0.15206727E+04</pdfrwt>
<totfact> 0.32643525E+01</totfact>
</mgrwt>
</event>
<event>
 6    1  0.6091287E-004  0.3494897E+04  0.7818608E-02  0.8115000E-01
         -2   -1    0    0    0  501 -0.00000000000E+00  0.00000000000E+00  0.26280758188E+04  0.26280758188E+04  0.00000000000E+00 0. -1.
          2   -1    0    0  501    0  0.00000000000E+00 -0.00000000000E+00 -0.11619058973E+04  0.11619058973E+04  0.00000000000E+00 0.  1.
         23    2    1    2    0    0  0.77239414573E+03  0.87588596517E+03 -0.67426087740E+03  0.13517009805E+04  0.93267730412E+02 0.  0.
         11    1    3    3    0    0  0.43184716718E+03  0.52666885816E+03 -0.43758302605E+03  0.80953750169E+03  0.00000000000E+00 0. -1.
        -11    1    3    3    0    0  0.34054697855E+03  0.34921710701E+03 -0.23667785135E+03  0.54216347880E+03  0.00000000000E+00 0.  1.
         22    1    1    2    0    0 -0.77239414573E+03 -0.87588596517E+03  0.21404307989E+04  0.24382807355E+04  0.00000000000E+00 0. -1.
<mgrwt>
<rscale>  0 0.34948973E+04</rscale>
<asrwt>0</asrwt>
<pdfrwt beam="1">  1        2 0.17875475E+00 0.34948973E+04</pdfrwt>
<pdfrwt beam="2">  1       -2 0.40431935E+00 0.34948973E+04</pdfrwt>
<totfact> 0.11404801E-01</totfact>
</mgrwt>
</event>
<event>
 6    1  0.6091287E-004  0.1416714E+04  0.7818608E-02  0.8941808E-01
         -2   -1    0    0    0  501 -0.00000000000E+00  0.00000000000E+00  0.69303302857E+03  0.69303302857E+03  0.00000000000E+00 0. -1.
          2   -1    0    0  501    0  0.00000000000E+00 -0.00000000000E+00 -0.72402022194E+03  0.72402022194E+03  0.00000000000E+00 0.  1.
         23    2    1    2    0    0 -0.43456351521E+03  0.44748916304E+03 -0.34125630896E+03  0.72037619198E+03  0.11573240588E+03 0.  0.
         11    1    3    3    0    0 -0.37796961291E+03  0.39557307714E+03 -0.25123132450E+03  0.60204340877E+03  0.00000000000E+00 0. -1.
        -11    1    3    3    0    0 -0.56593902305E+02  0.51916085904E+02 -0.90024984463E+02  0.11833278321E+03  0.00000000000E+00 0.  1.
         22    1    1    2    0    0  0.43456351521E+03 -0.44748916304E+03  0.31026911560E+03  0.69667705853E+03  0.00000000000E+00 0. -1.
<mgrwt>
<rscale>  0 0.14167144E+04</rscale>
<asrwt>0</asrwt>
<pdfrwt beam="1">  1        2 0.11138773E+00 0.14167144E+04</pdfrwt>
<pdfrwt beam="2">  1       -2 0.10662047E+00 0.14167144E+04</pdfrwt>
<totfact> 0.27034366E+01</totfact>
</mgrwt>
</event>
<event>
 6    1  0.6091287E-004  0.3082625E+04  0.7818608E-02  0.8220523E-01
          1   -1    0    0  501    0  0.00000000000E+00  0.00000000000E+00  0.19854163575E+04  0.19854163575E+04  0.00000000000E+00 0.  1.
         -1   -1    0    0    0  501 -0.00000000000E+00 -0.00000000000E+00 -0.11965471698E+04  0.11965471698E+04  0.00000000000E+00 0. -1.
         23    2    1    2    0    0 -0.85598349497E+03  0.12194017203E+04  0.79694253119E+03  0.16920932383E+04  0.91726931947E+02 0.  0.
         11    1    3    3    0    0 -0.49436364153E+03  0.66702627118E+03  0.48940394709E+03  0.96376121520E+03  0.00000000000E+00 0. -1.
        -11    1    3    3    0    0 -0.36161985344E+03  0.55237544912E+03  0.30753858410E+03  0.72833202312E+03  0.00000000000E+00 0.  1.
         22    1    1    2    0    0  0.85598349497E+03 -0.12194017203E+04 -0.80733435043E+01  0.14898702890E+04  0.00000000000E+00 0. -1.
<mgrwt>
<rscale>  0 0.30826251E+04</rscale>
<asrwt>0</asrwt>
<pdfrwt beam="1">  1        1 0.30544867E+00 0.30826251E+04</pdfrwt>
<pdfrwt beam="2">  1       -1 0.18408418E+00 0.30826251E+04</pdfrwt>
<totfact> 0.50128906E-01</totfact>
</mgrwt>
</event>
<event>
 6    1  0.6091287E-004  0.1962104E+04  0.7818608E-02  0.8624546E-01
         -2   -1    0    0    0  501 -0.00000000000E+00  0.00000000000E+00  0.13235329320E+04  0.13235329320E+04  0.00000000000E+00 0. -1.
          2   -1    0    0  501    0  0.00000000000E+00 -0.00000000000E+00 -0.72719244749E+03  0.72719244749E+03  0.00000000000E+00 0.  1.
         23    2    1    2    0    0 -0.90946766756E+02 -0.63383190505E+03  0.10727031146E+04  0.12526429566E+04  0.91696272745E+02 0.  0.
         11    1    3    3    0    0 -0.39470855508E+02 -0.12146744250E+03  0.16033138244E+03  0.20498399990E+03  0.00000000000E+00 0.  1.
        -11    1    3    3    0    0 -0.51475911247E+02 -0.51236446255E+03  0.91237173219E+03  0.10476589567E+04  0.00000000000E+00 0. -1.
         22    1    1    2    0    0  0.90946766756E+02  0.63383190505E+03 -0.47636263013E+03  0.79808242283E+03  0.00000000000E+00 0.  1.
<mgrwt>
<rscale>  0 0.19621041E+04</rscale>
<asrwt>0</asrwt>
<pdfrwt beam="1">  1        2 0.11187576E+00 0.19621041E+04</pdfrwt>
<pdfrwt beam="2">  1       -2 0.20362045E+00 0.19621041E+04</pdfrwt>
<totfact> 0.45774546E+00</totfact>
</mgrwt>
</event>
<event>
 6    1  0.6091287E-004  0.2108465E+04  0.7818608E-02  0.8557523E-01
         -1   -1    0    0    0  501 -0.00000000000E+00  0.00000000000E+00  0.20053335703E+04  0.20053335703E+04  0.00000000000E+00 0. -1.
          1   -1    0    0  501    0  0.00000000000E+00 -0.00000000000E+00 -0.55422529580E+03  0.55422529580E+03  0.00000000000E+00 0.  1.
         23    2    1    2    0    0  0.42503669068E+03 -0.69835960817E+03 -0.77129623109E+02  0.82639026425E+03  0.92787711137E+02 0.  0.
         13    1    3    3    0    0  0.37182438883E+03 -0.65590173809E+03 -0.80392251480E+02  0.75823702116E+03  0.00000000000E+00 0.  1.
        -13    1    3    3    0    0  0.53212301849E+02 -0.42457870081E+02  0.32626283712E+01  0.68153243091E+02  0.00000000000E+00 0. -1.
         22    1    1    2    0    0 -0.42503669068E+03  0.69835960817E+03  0.15282378976E+04  0.17331686019E+04  0.00000000000E+00 0. -1.
<mgrwt>
<rscale>  0 0.21084654E+04</rscale>
<asrwt>0</asrwt>
<pdfrwt beam="1">  1        1 0.85265431E-01 0.21084654E+04</pdfrwt>
<pdfrwt beam="2">  1       -1 0.30851285E+00 0.21084654E+04</pdfrwt>
<totfact> 0.10260351E+00</totfact>
</mgrwt>
</event>
<event>
 6    1  0.1020330E-003  0.4071985E+04  0.7818608E-02  0.7990180E-01
          2   -1    0    0  501    0  0.00000000000E+00  0.00000000000E+00  0.17018655383E+04  0.17018655383E+04  0.00000000000E+00 0.  1.
         -2   -1    0    0    0  501 -0.00000000000E+00 -0.00000000000E+00 -0.24357179957E+04  0.24357179957E+04  0.00000000000E+00 0. -1.
         23    2    1    2    0    0  0.90086472942E+03  0.11431812635E+04  0.10779465702E+04  0.18135705439E+04  0.92998105795E+02 0.  0.
         13    1    3    3    0    0  0.48808968362E+03  0.68222673173E+03  0.58981355699E+03  0.10254486261E+04  0.00000000000E+00 0. -1.
        -13    1    3    3    0    0  0.41277504580E+03  0.46095453173E+03  0.48813301317E+03  0.78812191779E+03  0.00000000000E+00 0.  1.
         22    1    1    2    0    0 -0.90086472942E+03 -0.11431812635E+04 -0.18117990276E+04  0.23240129901E+04  0.00000000000E+00 0. -1.
<mgrwt>
<rscale>  0 0.40719845E+04</rscale>
<asrwt>0</asrwt>
<pdfrwt beam="1">  1        2 0.26182547E+00 0.40719845E+04</pdfrwt>
<pdfrwt beam="2">  1       -2 0.37472584E+00 0.40719845E+04</pdfrwt>
<totfact> 0.83050457E-02</totfact>
</mgrwt>
</event>
<event>
 6    1  0.6091287E-004  0.1796994E+04  0.7818608E-02  0.8707900E-01
         -2   -1    0    0    0  501 -0.00000000000E+00  0.00000000000E+00  0.37559182814E+03  0.37559182814E+03  0.00000000000E+00 0. -1.
          2   -1    0    0  501    0  0.00000000000E+00 -0.00000000000E+00 -0.21493985834E+04  0.21493985834E+04  0.00000000000E+00 0.  1.
         23    2    1    2    0    0  0.68367572328E+03 -0.41320328847E+03 -0.14599653793E+04  0.16667096524E+04  0.90954408860E+02 0.  0.
         13    1    3    3    0    0  0.36021605137E+03 -0.26939054545E+03 -0.83573902562E+03  0.94909777609E+03  0.00000000000E+00 0. -1.
        -13    1    3    3    0    0  0.32345967191E+03 -0.14381274302E+03 -0.62422635370E+03  0.71761187634E+03  0.00000000000E+00 0.  1.
         22    1    1    2    0    0 -0.68367572328E+03  0.41320328847E+03 -0.31384137596E+03  0.85828075912E+03  0.00000000000E+00 0. -1.
<mgrwt>
<rscale>  0 0.17969936E+04</rscale>
<asrwt>0</asrwt>
<pdfrwt beam="1">  1        2 0.33067670E+00 0.17969936E+04</pdfrwt>
<pdfrwt beam="2">  1       -2 0.57783359E-01 0.17969936E+04</pdfrwt>
<totfact> 0.14600665E+01</totfact>
</mgrwt>
</event>
<event>
 6    1  0.6091287E-004  0.3431938E+04  0.7818608E-02  0.8130112E-01
         -2   -1    0    0    0  501 -0.00000000000E+00  0.00000000000E+00  0.14994978369E+04  0.14994978369E+04  0.00000000000E+00 0. -1.
          2   -1    0    0  501    0  0.00000000000E+00 -0.00000000000E+00 -0.19636906589E+04  0.19636906589E+04  0.00000000000E+00 0.  1.
         23    2    1    2    0    0 -0.11004261193E+04  0.57024946202E+03  0.96318094340E+03  0.15728134117E+04  0.99510829781E+02 0.  0.
         13    1    3    3    0    0 -0.36024939648E+03  0.23999235928E+03  0.33233618439E+03  0.54573189355E+03  0.00000000000E+00 0.  1.
        -13    1    3    3    0    0 -0.74017672279E+03  0.33025710274E+03  0.63084475901E+03  0.10270815181E+04  0.00000000000E+00 0. -1.
         22    1    1    2    0    0  0.11004261193E+04 -0.57024946202E+03 -0.14273737654E+04  0.18903750842E+04  0.00000000000E+00 0.  1.
<mgrwt>
<rscale>  0 0.34319382E+04</rscale>
<asrwt>0</asrwt>
<pdfrwt beam="1">  1        2 0.30210625E+00 0.34319382E+04</pdfrwt>
<pdfrwt beam="2">  1       -2 0.23069198E+00 0.34319382E+04</pdfrwt>
<totfact> 0.48959933E-01</totfact>
</mgrwt>
</event>
<event>
 6    1  0.6091287E-004  0.3507020E+04  0.7818608E-02  0.8112128E-01
          2   -1    0    0  501    0  0.00000000000E+00  0.00000000000E+00  0.31344396977E+04  0.31344396977E+04  0.00000000000E+00 0. -1.
         -2   -1    0    0    0  501 -0.00000000000E+00 -0.00000000000E+00 -0.98097173136E+03  0.98097173136E+03  0.00000000000E+00 0.  1.
         23    2    1    2    0    0  0.70119047190E+03  0.10706435668E+04 -0.32732829457E+03  0.13239430318E+04  0.87952339222E+02 0.  0.
         11    1    3    3    0    0  0.38162412856E+03  0.64737923000E+03 -0.21756241373E+03  0.78234918470E+03  0.00000000000E+00 0.  1.
        -11    1    3    3    0    0  0.31956634334E+03  0.42326433676E+03 -0.10976588085E+03  0.54159384705E+03  0.00000000000E+00 0. -1.
         22    1    1    2    0    0 -0.70119047190E+03 -0.10706435668E+04  0.24807962609E+04  0.27914683973E+04  0.00000000000E+00 0. -1.
<mgrwt>
<rscale>  0 0.35070197E+04</rscale>
<asrwt>0</asrwt>
<pdfrwt beam="1">  1        2 0.48222149E+00 0.35070197E+04</pdfrwt>
<pdfrwt beam="2">  1       -2 0.15091873E+00 0.35070197E+04</pdfrwt>
<totfact> 0.34592004E-01</totfact>
</mgrwt>
</event>
<event>
 6    1  0.6091287E-004  0.2587267E+04  0.7818608E-02  0.8372539E-01
          2   -1    0    0  501    0  0.00000000000E+00  0.00000000000E+00  0.12107945665E+04  0.12107945665E+04  0.00000000000E+00 0.  1.
         -2   -1    0    0    0  501 -0.00000000000E+00 -0.00000000000E+00 -0.13821403728E+04  0.13821403728E+04  0.00000000000E+00 0. -1.
         23    2    1    2    0    0  0.20113999238E+03 -0.86817999909E+03  0.85167323501E+03  0.12361881809E+04  0.92844558357E+02 0.  0.
         11    1    3    3    0    0  0.10725647540E+03 -0.35498541803E+03  0.30097321565E+03  0.47760179550E+03  0.00000000000E+00 0. -1.
        -11    1    3    3    0    0  0.93883516984E+02 -0.51319458106E+03  0.55070001936E+03  0.75858638540E+03  0.00000000000E+00 0.  1.
         22    1    1    2    0    0 -0.20113999238E+03  0.86817999909E+03 -0.10230190414E+04  0.13567467584E+04  0.00000000000E+00 0. -1.
<mgrwt>
<rscale>  0 0.25872673E+04</rscale>
<asrwt>0</asrwt>
<pdfrwt beam="1">  1        2 0.18627609E+00 0.25872673E+04</pdfrwt>
<pdfrwt beam="2">  1       -2 0.21263698E+00 0.25872673E+04</pdfrwt>
<totfact> 0.18196940E+00</totfact>
</mgrwt>
</event>
<event>
 6    1  0.6091287E-004  0.1348880E+04  0.7818608E-02  0.8991676E-01
          2   -1    0    0  501    0  0.00000000000E+00  0.00000000000E+00  0.16638199235E+04  0.16638199235E+04  0.00000000000E+00 0.  1.
         -2   -1    0    0    0  501 -0.00000000000E+00 -0.00000000000E+00 -0.27338857104E+03  0.27338857104E+03  0.00000000000E+00 0. -1.
         23    2    1    2    0    0 -0.33569862358E+03 -0.48331772939E+03  0.11626618366E+04  0.13062025153E+04  0.89960388179E+02 0.  0.
         13    1    3    3    0    0 -0.12776541629E+03 -0.12455543446E+03  0.40302941459E+03  0.44076157600E+03  0.00000000000E+00 0. -1.
        -13    1    3    3    0    0 -0.20793320730E+03 -0.35876229493E+03  0.75963242196E+03  0.86544093932E+03  0.00000000000E+00 0.  1.
         22    1    1    2    0    0  0.33569862358E+03  0.48331772939E+03  0.22776951588E+03  0.63100597920E+03  0.00000000000E+00 0. -1.
<mgrwt>
<rscale>  0 0.13488801E+04</rscale>
<asrwt>0</asrwt>
<pdfrwt beam="1">  1        2 0.25597229E+00 0.13488801E+04</pdfrwt>
<pdfrwt beam="2">  1       -2 0.42059781E-01 0.13488801E+04</pdfrwt>
<totfact> 0.53751555E+01</totfact>
</mgrwt>
</event>
<event>
 6    1  0.6091287E-004  0.4317596E+04  0.7818608E-02  0.7943372E-01
         -2   -1    0    0    0  501 -0.00000000000E+00  0.00000000000E+00  0.20418662965E+04  0.20418662965E+04  0.00000000000E+00 0. -1.
          2   -1    0    0  501    0  0.00000000000E+00 -0.00000000000E+00 -0.22824258932E+04  0.22824258932E+04  0.00000000000E+00 0.  1.
         23    2    1    2    0    0 -0.15868468344E+04  0.38041361061E+02  0.13437896209E+04  0.20815946032E+04  0.87951836967E+02 0.  0.
         11    1    3    3    0    0 -0.13235258898E+03 -0.23484478575E+00  0.14535547342E+03  0.19658452791E+03  0.00000000000E+00 0.  1.
        -11    1    3    3    0    0 -0.14544942455E+04  0.38276205847E+02  0.11984341475E+04  0.18850100753E+04  0.00000000000E+00 0. -1.
         22    1    1    2    0    0  0.15868468344E+04 -0.38041361061E+02 -0.15843492177E+04  0.22426975865E+04  0.00000000000E+00 0.  1.
<mgrwt>
<rscale>  0 0.43175959E+04</rscale>
<asrwt>0</asrwt>
<pdfrwt beam="1">  1        2 0.35114244E+00 0.43175959E+04</pdfrwt>
<pdfrwt beam="2">  1       -2 0.31413328E+00 0.43175959E+04</pdfrwt>
<totfact> 0.92833587E-02</totfact>
</mgrwt>
</event>
<event>
 6    1  0.6091287E-004  0.3602853E+04  0.7818608E-02  0.8089839E-01
          2   -1    0    0  501    0  0.00000000000E+00  0.00000000000E+00  0.16396787356E+04  0.16396787356E+04  0.00000000000E+00 0.  1.
         -2   -1    0    0    0  501 -0.00000000000E+00 -0.00000000000E+00 -0.19791299462E+04  0.19791299462E+04  0.00000000000E+00 0. -1.
         23    2    1    2    0    0  0.74804007773E+02 -0.15423342472E+04 -0.10994430658E+04  0.18977688247E+04  0.91437887560E+02 0.  0.
         11    1    3    3    0    0  0.22981649194E+02 -0.52270970018E+03 -0.32011945417E+03  0.61337594654E+03  0.00000000000E+00 0. -1.
        -11    1    3    3    0    0  0.51822358580E+02 -0.10196245470E+04 -0.77932361158E+03  0.12843928781E+04  0.00000000000E+00 0.  1.
         22    1    1    2    0    0 -0.74804007773E+02  0.15423342472E+04  0.75999185515E+03  0.17210398571E+04  0.00000000000E+00 0.  1.
<mgrwt>
<rscale>  0 0.36028529E+04</rscale>
<asrwt>0</asrwt>
<pdfrwt beam="1">  1        2 0.25225827E+00 0.36028529E+04</pdfrwt>
<pdfrwt beam="2">  1       -2 0.30448153E+00 0.36028529E+04</pdfrwt>
<totfact> 0.25758921E-01</totfact>
</mgrwt>
</event>
<event>
 6    1  0.6091287E-004  0.4260440E+04  0.7818608E-02  0.7953974E-01
          2   -1    0    0  501    0  0.00000000000E+00  0.00000000000E+00  0.14419779861E+04  0.14419779861E+04  0.00000000000E+00 0.  1.
         -2   -1    0    0    0  501 -0.00000000000E+00 -0.00000000000E+00 -0.31469526156E+04  0.31469526156E+04  0.00000000000E+00 0. -1.
         23    2    1    2    0    0 -0.35759314005E+03  0.20560894896E+04 -0.39875937491E+03  0.21269039701E+04  0.96615816234E+02 0.  0.
         13    1    3    3    0    0 -0.99418741681E+02  0.84476723118E+03 -0.17042641795E+03  0.86750269452E+03  0.00000000000E+00 0. -1.
        -13    1    3    3    0    0 -0.25817439837E+03  0.12113222585E+04 -0.22833295696E+03  0.12594012756E+04  0.00000000000E+00 0.  1.
         22    1    1    2    0    0  0.35759314005E+03 -0.20560894896E+04 -0.13062152545E+04  0.24620266315E+04  0.00000000000E+00 0. -1.
<mgrwt>
<rscale>  0 0.42604396E+04</rscale>
<asrwt>0</asrwt>
<pdfrwt beam="1">  1        2 0.22184277E+00 0.42604396E+04</pdfrwt>
<pdfrwt beam="2">  1       -2 0.48414655E+00 0.42604396E+04</pdfrwt>
<totfact> 0.22012137E-02</totfact>
</mgrwt>
</event>
<event>
 6    1  0.6091287E-004  0.9868246E+03  0.7818608E-02  0.9323115E-01
         -2   -1    0    0    0  501 -0.00000000000E+00  0.00000000000E+00  0.31018739976E+03  0.31018739976E+03  0.00000000000E+00 0. -1.
          2   -1    0    0  501    0  0.00000000000E+00 -0.00000000000E+00 -0.78486649072E+03  0.78486649072E+03  0.00000000000E+00 0.  1.
         23    2    1    2    0    0  0.30275319276E+03 -0.32636880248E+03 -0.15290771991E+02  0.45535574404E+03  0.94546046763E+02 0.  0.
         11    1    3    3    0    0  0.13322751719E+02 -0.52928128337E+02 -0.17053397889E+02  0.57181298185E+02  0.00000000000E+00 0. -1.
        -11    1    3    3    0    0  0.28943044105E+03 -0.27344067414E+03  0.17626258973E+01  0.39817444585E+03  0.00000000000E+00 0.  1.
         22    1    1    2    0    0 -0.30275319276E+03  0.32636880248E+03 -0.45938831897E+03  0.63969814644E+03  0.00000000000E+00 0. -1.
<mgrwt>
<rscale>  0 0.98682460E+03</rscale>
<asrwt>0</asrwt>
<pdfrwt beam="1">  1        2 0.12074869E+00 0.98682460E+03</pdfrwt>
<pdfrwt beam="2">  1       -2 0.47721139E-01 0.98682460E+03</pdfrwt>
<totfact> 0.14685169E+02</totfact>
</mgrwt>
</event>
<event>
 6    1  0.6091287E-004  0.2437937E+04  0.7818608E-02  0.8425436E-01
          2   -1    0    0  501    0  0.00000000000E+00  0.00000000000E+00  0.16717128241E+04  0.16717128241E+04  0.00000000000E+00 0.  1.
         -2   -1    0    0    0  501 -0.00000000000E+00 -0.00000000000E+00 -0.88883912635E+03  0.88883912635E+03  0.00000000000E+00 0. -1.
         23    2    1    2    0    0 -0.95704992306E+03 -0.28307288817E+03  0.11239555485E+04  0.15058426805E+04  0.90616157392E+02 0.  0.
         11    1    3    3    0    0 -0.91670961129E+03 -0.27565653328E+03  0.10470383467E+04  0.14186727372E+04  0.00000000000E+00 0. -1.
        -11    1    3    3    0    0 -0.40340311768E+02 -0.74163548875E+01  0.76917201820E+02  0.87169943267E+02  0.00000000000E+00 0.  1.
         22    1    1    2    0    0  0.95704992306E+03  0.28307288817E+03 -0.34108185080E+03  0.10547092700E+04  0.00000000000E+00 0. -1.
<mgrwt>
<rscale>  0 0.24379366E+04</rscale>
<asrwt>0</asrwt>
<pdfrwt beam="1">  1        2 0.25718659E+00 0.24379366E+04</pdfrwt>
<pdfrwt beam="2">  1       -2 0.13674448E+00 0.24379366E+04</pdfrwt>
<totfact> 0.34805905E+00</totfact>
</mgrwt>
</event>
<event>
 6    1  0.6091287E-004  0.3479925E+04  0.7818608E-02  0.8118564E-01
          2   -1    0    0  501    0  0.00000000000E+00  0.00000000000E+00  0.19097077494E+04  0.19097077494E+04  0.00000000000E+00 0.  1.
         -2   -1    0    0    0  501 -0.00000000000E+00 -0.00000000000E+00 -0.15853052311E+04  0.15853052311E+04  0.00000000000E+00 0. -1.
         23    2    1    2    0    0  0.72785883574E+03 -0.53736517821E+03 -0.13289571986E+04  0.16103012857E+04  0.91668835309E+02 0.  0.
         13    1    3    3    0    0  0.55437858066E+03 -0.45021589182E+03 -0.10121366636E+04  0.12387294240E+04  0.00000000000E+00 0.  1.
        -13    1    3    3    0    0  0.17348025508E+03 -0.87149286388E+02 -0.31682053498E+03  0.37157186170E+03  0.00000000000E+00 0. -1.
         22    1    1    2    0    0 -0.72785883574E+03  0.53736517821E+03  0.16533597169E+04  0.18847116949E+04  0.00000000000E+00 0.  1.
<mgrwt>
<rscale>  0 0.34799251E+04</rscale>
<asrwt>0</asrwt>
<pdfrwt beam="1">  1        2 0.29380119E+00 0.34799251E+04</pdfrwt>
<pdfrwt beam="2">  1       -2 0.24389311E+00 0.34799251E+04</pdfrwt>
<totfact> 0.43261679E-01</totfact>
</mgrwt>
</event>
<event>
 6    1  0.6091287E-004  0.3662000E+04  0.7818608E-02  0.8076436E-01
         -2   -1    0    0    0  501 -0.00000000000E+00  0.00000000000E+00  0.13959030202E+04  0.13959030202E+04  0.00000000000E+00 0. -1.
          2   -1    0    0  501    0  0.00000000000E+00 -0.00000000000E+00 -0.24017149944E+04  0.24017149944E+04  0.00000000000E+00 0.  1.
         23    2    1    2    0    0  0.12956233705E+03  0.19157333763E+03 -0.23856470599E+04  0.23985355987E+04  0.90412284055E+02 0.  0.
         11    1    3    3    0    0  0.74493884920E+02  0.36633564636E+02 -0.70845928785E+03  0.71330632935E+03  0.00000000000E+00 0. -1.
        -11    1    3    3    0    0  0.55068452134E+02  0.15493977299E+03 -0.16771877720E+04  0.16852292693E+04  0.00000000000E+00 0.  1.
         22    1    1    2    0    0 -0.12956233705E+03 -0.19157333763E+03  0.13798350857E+04  0.13990824159E+04  0.00000000000E+00 0. -1.
<mgrwt>
<rscale>  0 0.36620001E+04</rscale>
<asrwt>0</asrwt>
<pdfrwt beam="1">  1        2 0.36949462E+00 0.36620001E+04</pdfrwt>
<pdfrwt beam="2">  1       -2 0.21475431E+00 0.36620001E+04</pdfrwt>
<totfact> 0.34331140E-01</totfact>
</mgrwt>
</event>
<event>
 6    1  0.6091287E-004  0.2325225E+04  0.7818608E-02  0.8468041E-01
          2   -1    0    0  501    0  0.00000000000E+00  0.00000000000E+00  0.16385367132E+04  0.16385367132E+04  0.00000000000E+00 0.  1.
         -2   -1    0    0    0  501 -0.00000000000E+00 -0.00000000000E+00 -0.82492353958E+03  0.82492353958E+03  0.00000000000E+00 0. -1.
         23    2    1    2    0    0  0.28225034571E+03  0.91565654239E+03  0.11018242809E+04  0.14628815185E+04  0.88957460403E+02 0.  0.
         13    1    3    3    0    0  0.22820179216E+02  0.11761672379E+03  0.18091512021E+03  0.21699017262E+03  0.00000000000E+00 0.  1.
        -13    1    3    3    0    0  0.25943016649E+03  0.79803981861E+03  0.92090916070E+03  0.12458913458E+04  0.00000000000E+00 0. -1.
         22    1    1    2    0    0 -0.28225034571E+03 -0.91565654239E+03 -0.28821110726E+03  0.10005787343E+04  0.00000000000E+00 0. -1.
<mgrwt>
<rscale>  0 0.23252247E+04</rscale>
<asrwt>0</asrwt>
<pdfrwt beam="1">  1        2 0.25208257E+00 0.23252247E+04</pdfrwt>
<pdfrwt beam="2">  1       -2 0.12691131E+00 0.23252247E+04</pdfrwt>
<totfact> 0.44317889E+00</totfact>
</mgrwt>
</event>
<event>
 6    1  0.6091287E-004  0.2682948E+04  0.7818608E-02  0.8340559E-01
         -2   -1    0    0    0  501 -0.00000000000E+00  0.00000000000E+00  0.64599652427E+03  0.64599652427E+03  0.00000000000E+00 0. -1.
          2   -1    0    0  501    0  0.00000000000E+00 -0.00000000000E+00 -0.27857009326E+04  0.27857009326E+04  0.00000000000E+00 0.  1.
         23    2    1    2    0    0  0.65288510620E+03 -0.10504545172E+04 -0.17300391893E+04  0.21288009735E+04  0.95101701095E+02 0.  0.
         13    1    3    3    0    0  0.56033166011E+03 -0.87936339964E+03 -0.15109871653E+04  0.18358468813E+04  0.00000000000E+00 0.  1.
        -13    1    3    3    0    0  0.92553446086E+02 -0.17109111758E+03 -0.21905202400E+03  0.29295409216E+03  0.00000000000E+00 0. -1.
         22    1    1    2    0    0 -0.65288510620E+03  0.10504545172E+04 -0.40966521896E+03  0.13028964833E+04  0.00000000000E+00 0. -1.
<mgrwt>
<rscale>  0 0.26829485E+04</rscale>
<asrwt>0</asrwt>
<pdfrwt beam="1">  1        2 0.42856937E+00 0.26829485E+04</pdfrwt>
<pdfrwt beam="2">  1       -2 0.99384082E-01 0.26829485E+04</pdfrwt>
<totfact> 0.17365017E+00</totfact>
</mgrwt>
</event>
<event>
 6    1  0.6091287E-004  0.2588143E+04  0.7818608E-02  0.8372240E-01
         -1   -1    0    0    0  501 -0.00000000000E+00  0.00000000000E+00  0.20320418816E+04  0.20320418816E+04  0.00000000000E+00 0. -1.
          1   -1    0    0  501    0  0.00000000000E+00 -0.00000000000E+00 -0.82410770360E+03  0.82410770360E+03  0.00000000000E+00 0.  1.
         23    2    1    2    0    0  0.56276941342E+03 -0.10879770555E+04  0.10593566265E+04  0.16222619182E+04  0.95361330544E+02 0.  0.
         13    1    3    3    0    0  0.41278014678E+03 -0.70702503353E+03  0.68426241623E+03  0.10669990168E+04  0.00000000000E+00 0.  1.
        -13    1    3    3    0    0  0.14998926664E+03 -0.38095202192E+03  0.37509421027E+03  0.55526290142E+03  0.00000000000E+00 0. -1.
         22    1    1    2    0    0 -0.56276941342E+03  0.10879770555E+04  0.14857755150E+03  0.12338876670E+04  0.00000000000E+00 0. -1.
<mgrwt>
<rscale>  0 0.25881432E+04</rscale>
<asrwt>0</asrwt>
<pdfrwt beam="1">  1        1 0.12678580E+00 0.25881432E+04</pdfrwt>
<pdfrwt beam="2">  1       -1 0.31262183E+00 0.25881432E+04</pdfrwt>
<totfact> 0.50796974E-01</totfact>
</mgrwt>
</event>
<event>
 6    1  0.1096041E-003  0.2930862E+04  0.7818608E-02  0.8263754E-01
          2   -1    0    0  501    0  0.00000000000E+00  0.00000000000E+00  0.19457863812E+04  0.19457863812E+04  0.00000000000E+00 0.  1.
         -2   -1    0    0    0  501 -0.00000000000E+00 -0.00000000000E+00 -0.11036606040E+04  0.11036606040E+04  0.00000000000E+00 0. -1.
         23    2    1    2    0    0 -0.78641922435E+03  0.85346014502E+03 -0.50708881239E+03  0.12697758290E+04  0.91335517345E+02 0.  0.
         13    1    3    3    0    0 -0.49450019261E+03  0.49934740262E+03 -0.34668780697E+03  0.78362663591E+03  0.00000000000E+00 0.  1.
        -13    1    3    3    0    0 -0.29191903174E+03  0.35411274239E+03 -0.16040100542E+03  0.48614919310E+03  0.00000000000E+00 0. -1.
         22    1    1    2    0    0  0.78641922435E+03 -0.85346014502E+03  0.13492145895E+04  0.17796711562E+04  0.00000000000E+00 0.  1.
<mgrwt>
<rscale>  0 0.29308618E+04</rscale>
<asrwt>0</asrwt>
<pdfrwt beam="1">  1        2 0.29935175E+00 0.29308618E+04</pdfrwt>
<pdfrwt beam="2">  1       -2 0.16979394E+00 0.29308618E+04</pdfrwt>
<totfact> 0.13186028E+00</totfact>
</mgrwt>
</event>
<event>
 6    1  0.6091287E-004  0.4738583E+04  0.7818608E-02  0.7870149E-01
         -2   -1    0    0    0  501 -0.00000000000E+00  0.00000000000E+00  0.28556957801E+04  0.28556957801E+04  0.00000000000E+00 0. -1.
          2   -1    0    0  501    0  0.00000000000E+00 -0.00000000000E+00 -0.19657350909E+04  0.19657350909E+04  0.00000000000E+00 0.  1.
         23    2    1    2    0    0  0.13344202611E+04 -0.24621343138E+03 -0.15297588571E+04  0.20472028397E+04  0.97871441272E+02 0.  0.
         11    1    3    3    0    0  0.11250190869E+04 -0.18818347239E+03 -0.13288392255E+04  0.17512551648E+04  0.00000000000E+00 0. -1.
        -11    1    3    3    0    0  0.20940117419E+03 -0.58029958990E+02 -0.20091963161E+03  0.29594767487E+03  0.00000000000E+00 0.  1.
         22    1    1    2    0    0 -0.13344202611E+04  0.24621343138E+03  0.24197195463E+04  0.27742280313E+04  0.00000000000E+00 0. -1.
<mgrwt>
<rscale>  0 0.47385827E+04</rscale>
<asrwt>0</asrwt>
<pdfrwt beam="1">  1        2 0.30242078E+00 0.47385827E+04</pdfrwt>
<pdfrwt beam="2">  1       -2 0.43933781E+00 0.47385827E+04</pdfrwt>
<totfact> 0.21219936E-02</totfact>
</mgrwt>
</event>
<event>
 6    1  0.6091287E-004  0.2100490E+04  0.7818608E-02  0.8561028E-01
          2   -1    0    0  501    0  0.00000000000E+00  0.00000000000E+00  0.18381590105E+04  0.18381590105E+04  0.00000000000E+00 0.  1.
         -2   -1    0    0    0  501 -0.00000000000E+00 -0.00000000000E+00 -0.60006458641E+03  0.60006458641E+03  0.00000000000E+00 0. -1.
         23    2    1    2    0    0  0.84348083260E+03 -0.62009830195E+03  0.55918071155E+03  0.11904633442E+04  0.92401768263E+02 0.  0.
         13    1    3    3    0    0  0.57421318701E+03 -0.38591548165E+03  0.33155130070E+03  0.76718824816E+03  0.00000000000E+00 0.  1.
        -13    1    3    3    0    0  0.26926764559E+03 -0.23418282030E+03  0.22762941085E+03  0.42327509609E+03  0.00000000000E+00 0. -1.
         22    1    1    2    0    0 -0.84348083260E+03  0.62009830195E+03  0.67891371251E+03  0.12477602526E+04  0.00000000000E+00 0. -1.
<mgrwt>
<rscale>  0 0.21004896E+04</rscale>
<asrwt>0</asrwt>
<pdfrwt beam="1">  1        2 0.28279369E+00 0.21004896E+04</pdfrwt>
<pdfrwt beam="2">  1       -2 0.92317629E-01 0.21004896E+04</pdfrwt>
<totfact> 0.75451884E+00</totfact>
</mgrwt>
</event>
<event>
 6    1  0.6091287E-004  0.3183070E+04  0.7818608E-02  0.8193303E-01
          2   -1    0    0  501    0  0.00000000000E+00  0.00000000000E+00  0.17294032174E+04  0.17294032174E+04  0.00000000000E+00 0.  1.
         -2   -1    0    0    0  501 -0.00000000000E+00 -0.00000000000E+00 -0.14646576232E+04  0.14646576232E+04  0.00000000000E+00 0. -1.
         23    2    1    2    0    0 -0.57510446822E+03 -0.83869920999E+03 -0.10943199208E+04  0.14966449845E+04  0.90821838498E+02 0.  0.
         13    1    3    3    0    0 -0.28887135423E+03 -0.37880436971E+03 -0.56859159774E+03  0.74177881800E+03  0.00000000000E+00 0. -1.
        -13    1    3    3    0    0 -0.28623311399E+03 -0.45989484028E+03 -0.52572832311E+03  0.75486616654E+03  0.00000000000E+00 0.  1.
         22    1    1    2    0    0  0.57510446822E+03  0.83869920999E+03  0.13590655151E+04  0.16974158561E+04  0.00000000000E+00 0.  1.
<mgrwt>
<rscale>  0 0.31830700E+04</rscale>
<asrwt>0</asrwt>
<pdfrwt beam="1">  1        2 0.26606203E+00 0.31830700E+04</pdfrwt>
<pdfrwt beam="2">  1       -2 0.22533194E+00 0.31830700E+04</pdfrwt>
<totfact> 0.72845225E-01</totfact>
</mgrwt>
</event>
<event>
 6    1  0.6091287E-004  0.1068116E+04  0.7818608E-02  0.9236838E-01
          2   -1    0    0  501    0  0.00000000000E+00  0.00000000000E+00  0.22082330474E+04  0.22082330474E+04  0.00000000000E+00 0.  1.
         -2   -1    0    0    0  501 -0.00000000000E+00 -0.00000000000E+00 -0.12916116953E+03  0.12916116953E+03  0.00000000000E+00 0. -1.
         23    2    1    2    0    0 -0.10300808109E+03  0.13457243197E+03  0.21464636636E+04  0.21550153338E+04  0.89802146656E+02 0.  0.
         11    1    3    3    0    0 -0.91503273299E+02  0.86923035470E+02  0.10668196261E+04  0.10742590831E+04  0.00000000000E+00 0. -1.
        -11    1    3    3    0    0 -0.11504807795E+02  0.47649396499E+02  0.10796440375E+04  0.10807562507E+04  0.00000000000E+00 0.  1.
         22    1    1    2    0    0  0.10300808109E+03 -0.13457243197E+03 -0.67391785748E+02  0.18237888311E+03  0.00000000000E+00 0. -1.
<mgrwt>
<rscale>  0 0.10681160E+04</rscale>
<asrwt>0</asrwt>
<pdfrwt beam="1">  1        2 0.33972813E+00 0.10681160E+04</pdfrwt>
<pdfrwt beam="2">  1       -2 0.19870951E-01 0.10681160E+04</pdfrwt>
<totfact> 0.11043129E+02</totfact>
</mgrwt>
</event>
<event>
 6    1  0.6091287E-004  0.2011858E+04  0.7818608E-02  0.8601097E-01
          1   -1    0    0  501    0  0.00000000000E+00  0.00000000000E+00  0.58500166861E+03  0.58500166861E+03  0.00000000000E+00 0. -1.
         -1   -1    0    0    0  501 -0.00000000000E+00 -0.00000000000E+00 -0.17297263077E+04  0.17297263077E+04  0.00000000000E+00 0.  1.
         23    2    1    2    0    0  0.67890578883E+03 -0.43406697624E+03 -0.12620370327E+04  0.15004249568E+04  0.95970667687E+02 0.  0.
         13    1    3    3    0    0  0.53646674839E+03 -0.29409389800E+03 -0.95457824214E+03  0.11338021932E+04  0.00000000000E+00 0. -1.
        -13    1    3    3    0    0  0.14243904044E+03 -0.13997307824E+03 -0.30745879053E+03  0.36662276354E+03  0.00000000000E+00 0.  1.
         22    1    1    2    0    0 -0.67890578883E+03  0.43406697624E+03  0.11731239358E+03  0.81430301956E+03  0.00000000000E+00 0. -1.
<mgrwt>
<rscale>  0 0.20118576E+04</rscale>
<asrwt>0</asrwt>
<pdfrwt beam="1">  1        1 0.90000257E-01 0.20118576E+04</pdfrwt>
<pdfrwt beam="2">  1       -1 0.26611174E+00 0.20118576E+04</pdfrwt>
<totfact> 0.18029500E+00</totfact>
</mgrwt>
</event>
<event>
 6    1  0.6091287E-004  0.1604888E+04  0.7818608E-02  0.8817551E-01
         -2   -1    0    0    0  501 -0.00000000000E+00  0.00000000000E+00  0.45884373723E+03  0.45884373723E+03  0.00000000000E+00 0. -1.
          2   -1    0    0  501    0  0.00000000000E+00 -0.00000000000E+00 -0.14033463555E+04  0.14033463555E+04  0.00000000000E+00 0.  1.
         23    2    1    2    0    0 -0.46601263770E+03 -0.60649290014E+03 -0.20211836953E+03  0.79629338609E+03  0.90718823889E+02 0.  0.
         11    1    3    3    0    0 -0.10954770289E+03 -0.18370536811E+03 -0.23601698068E+02  0.21518689931E+03  0.00000000000E+00 0. -1.
        -11    1    3    3    0    0 -0.35646493481E+03 -0.42278753203E+03 -0.17851667146E+03  0.58110648678E+03  0.00000000000E+00 0.  1.
         22    1    1    2    0    0  0.46601263770E+03  0.60649290014E+03 -0.74238424869E+03  0.10658967066E+04  0.00000000000E+00 0.  1.
<mgrwt>
<rscale>  0 0.16048884E+04</rscale>
<asrwt>0</asrwt>
<pdfrwt beam="1">  1        2 0.21589944E+00 0.16048884E+04</pdfrwt>
<pdfrwt beam="2">  1       -2 0.70591344E-01 0.16048884E+04</pdfrwt>
<totfact> 0.25202849E+01</totfact>
</mgrwt>
</event>
<event>
 6    1  0.6091287E-004  0.2102947E+04  0.7818608E-02  0.8559946E-01
          2   -1    0    0  501    0  0.00000000000E+00  0.00000000000E+00  0.99232188514E+03  0.99232188514E+03  0.00000000000E+00 0.  1.
         -2   -1    0    0    0  501 -0.00000000000E+00 -0.00000000000E+00 -0.11141511628E+04  0.11141511628E+04  0.00000000000E+00 0. -1.
         23    2    1    2    0    0 -0.69906592400E+03 -0.63907622629E+03  0.39178668786E+03  0.10290163439E+04  0.90918854277E+02 0.  0.
         13    1    3    3    0    0 -0.38883759270E+03 -0.30046619777E+03  0.18044841654E+03  0.52348470898E+03  0.00000000000E+00 0.  1.
        -13    1    3    3    0    0 -0.31022833130E+03 -0.33861002853E+03  0.21133827132E+03  0.50553163489E+03  0.00000000000E+00 0. -1.
         22    1    1    2    0    0  0.69906592400E+03  0.63907622629E+03 -0.51361596550E+03  0.10774567041E+04  0.00000000000E+00 0. -1.
<mgrwt>
<rscale>  0 0.21029471E+04</rscale>
<asrwt>0</asrwt>
<pdfrwt beam="1">  1        2 0.15266491E+00 0.21029471E+04</pdfrwt>
<pdfrwt beam="2">  1       -2 0.17140787E+00 0.21029471E+04</pdfrwt>
<totfact> 0.48879947E+00</totfact>
</mgrwt>
</event>
<event>
 6    1  0.6091287E-004  0.3533300E+04  0.7818608E-02  0.8105943E-01
          2   -1    0    0  501    0  0.00000000000E+00  0.00000000000E+00  0.23020540013E+04  0.23020540013E+04  0.00000000000E+00 0.  1.
         -2   -1    0    0    0  501 -0.00000000000E+00 -0.00000000000E+00 -0.13557681651E+04  0.13557681651E+04  0.00000000000E+00 0. -1.
         23    2    1    2    0    0 -0.73162269372E+03  0.23827603195E+03 -0.11715650030E+04  0.14045269326E+04  0.89911705466E+02 0.  0.
         11    1    3    3    0    0 -0.38496650798E+03  0.78112503756E+02 -0.59583150316E+03  0.71366375533E+03  0.00000000000E+00 0.  1.
        -11    1    3    3    0    0 -0.34665618574E+03  0.16016352819E+03 -0.57573349985E+03  0.69086317728E+03  0.00000000000E+00 0. -1.
         22    1    1    2    0    0  0.73162269372E+03 -0.23827603195E+03  0.21178508392E+04  0.22532952338E+04  0.00000000000E+00 0.  1.
<mgrwt>
<rscale>  0 0.35332996E+04</rscale>
<asrwt>0</asrwt>
<pdfrwt beam="1">  1        2 0.35416215E+00 0.35332996E+04</pdfrwt>
<pdfrwt beam="2">  1       -2 0.20857972E+00 0.35332996E+04</pdfrwt>
<totfact> 0.43332280E-01</totfact>
</mgrwt>
</event>
<event>
 6    1  0.6091287E-004  0.3547251E+04  0.7818608E-02  0.8102682E-01
          2   -1    0    0  501    0  0.00000000000E+00  0.00000000000E+00  0.21012081492E+04  0.21012081492E+04  0.00000000000E+00 0.  1.
         -2   -1    0    0    0  501 -0.00000000000E+00 -0.00000000000E+00 -0.14971137202E+04  0.14971137202E+04  0.00000000000E+00 0. -1.
         23    2    1    2    0    0  0.12935615162E+04 -0.78897897939E+03 -0.63062501071E+03  0.16437576415E+04  0.91989422712E+02 0.  0.
         11    1    3    3    0    0  0.94252804786E+03 -0.62044423346E+03 -0.45804006158E+03  0.12178303929E+04  0.00000000000E+00 0.  1.
        -11    1    3    3    0    0  0.35103346830E+03 -0.16853474593E+03 -0.17258494913E+03  0.42592724862E+03  0.00000000000E+00 0. -1.
         22    1    1    2    0    0 -0.12935615162E+04  0.78897897939E+03  0.12347194397E+04  0.19545642278E+04  0.00000000000E+00 0.  1.
<mgrwt>
<rscale>  0 0.35472511E+04</rscale>
<asrwt>0</asrwt>
<pdfrwt beam="1">  1        2 0.32326279E+00 0.35472511E+04</pdfrwt>
<pdfrwt beam="2">  1       -2 0.23032519E+00 0.35472511E+04</pdfrwt>
<totfact> 0.40868724E-01</totfact>
</mgrwt>
</event>
<event>
 6    1  0.1512856E-003  0.4143367E+04  0.7818608E-02  0.7976233E-01
         -2   -1    0    0    0  501 -0.00000000000E+00  0.00000000000E+00  0.22363921371E+04  0.22363921371E+04  0.00000000000E+00 0. -1.
          2   -1    0    0  501    0  0.00000000000E+00 -0.00000000000E+00 -0.19191054184E+04  0.19191054184E+04  0.00000000000E+00 0.  1.
         23    2    1    2    0    0 -0.10545384069E+04 -0.17417447492E+04 -0.21968318126E+03  0.20497761360E+04  0.87152076156E+02 0.  0.
         11    1    3    3    0    0 -0.35062857857E+03 -0.56040509832E+03 -0.31511670836E+02  0.66180605900E+03  0.00000000000E+00 0.  1.
        -11    1    3    3    0    0 -0.70390982837E+03 -0.11813396509E+04 -0.18817151043E+03  0.13879700770E+04  0.00000000000E+00 0. -1.
         22    1    1    2    0    0  0.10545384069E+04  0.17417447492E+04  0.53696990001E+03  0.21057214195E+04  0.00000000000E+00 0. -1.
<mgrwt>
<rscale>  0 0.41433669E+04</rscale>
<asrwt>0</asrwt>
<pdfrwt beam="1">  1        2 0.29524699E+00 0.41433669E+04</pdfrwt>
<pdfrwt beam="2">  1       -2 0.34406033E+00 0.41433669E+04</pdfrwt>
<totfact> 0.97972002E-02</totfact>
</mgrwt>
</event>
<event>
 6    1  0.6091287E-004  0.2305325E+04  0.7818608E-02  0.8475825E-01
          2   -1    0    0  501    0  0.00000000000E+00  0.00000000000E+00  0.79775955032E+03  0.79775955032E+03  0.00000000000E+00 0. -1.
         -2   -1    0    0    0  501 -0.00000000000E+00 -0.00000000000E+00 -0.16654524995E+04  0.16654524995E+04  0.00000000000E+00 0.  1.
         23    2    1    2    0    0 -0.28260551160E+03  0.10193206126E+04  0.50213732518E+02  0.10627003352E+04  0.89051654687E+02 0.  0.
         11    1    3    3    0    0 -0.25420886663E+02  0.21452727976E+03  0.24594555089E+02  0.21742370473E+03  0.00000000000E+00 0. -1.
        -11    1    3    3    0    0 -0.25718462494E+03  0.80479333280E+03  0.25619177429E+02  0.84527663050E+03  0.00000000000E+00 0.  1.
         22    1    1    2    0    0  0.28260551160E+03 -0.10193206126E+04 -0.91790668168E+03  0.14005117146E+04  0.00000000000E+00 0.  1.
<mgrwt>
<rscale>  0 0.23053248E+04</rscale>
<asrwt>0</asrwt>
<pdfrwt beam="1">  1        2 0.12273224E+00 0.23053248E+04</pdfrwt>
<pdfrwt beam="2">  1       -2 0.25622346E+00 0.23053248E+04</pdfrwt>
<totfact> 0.18435557E+00</totfact>
</mgrwt>
</event>
<event>
 6    1  0.6091287E-004  0.3118089E+04  0.7818608E-02  0.8210791E-01
          2   -1    0    0  501    0  0.00000000000E+00  0.00000000000E+00  0.30441986006E+04  0.30441986006E+04  0.00000000000E+00 0.  1.
         -2   -1    0    0    0  501 -0.00000000000E+00 -0.00000000000E+00 -0.79844303195E+03  0.79844303195E+03  0.00000000000E+00 0. -1.
         23    2    1    2    0    0  0.46848551868E+03  0.12852589342E+04  0.20420501671E+04  0.24595779682E+04  0.90474789406E+02 0.  0.
         13    1    3    3    0    0  0.29748854969E+03  0.74573493527E+03  0.12644102376E+04  0.14977827879E+04  0.00000000000E+00 0. -1.
        -13    1    3    3    0    0  0.17099696899E+03  0.53952399891E+03  0.77763992954E+03  0.96179518029E+03  0.00000000000E+00 0.  1.
         22    1    1    2    0    0 -0.46848551868E+03 -0.12852589342E+04  0.20370540157E+03  0.13830636644E+04  0.00000000000E+00 0.  1.
<mgrwt>
<rscale>  0 0.31180886E+04</rscale>
<asrwt>0</asrwt>
<pdfrwt beam="1">  1        2 0.46833824E+00 0.31180886E+04</pdfrwt>
<pdfrwt beam="2">  1       -2 0.12283739E+00 0.31180886E+04</pdfrwt>
<totfact> 0.69298689E-01</totfact>
</mgrwt>
</event>
<event>
 6    1  0.6091287E-004  0.1862022E+04  0.7818608E-02  0.8673995E-01
         -2   -1    0    0    0  501 -0.00000000000E+00  0.00000000000E+00  0.81242935329E+03  0.81242935329E+03  0.00000000000E+00 0. -1.
          2   -1    0    0  501    0  0.00000000000E+00 -0.00000000000E+00 -0.10669003977E+04  0.10669003977E+04  0.00000000000E+00 0.  1.
         23    2    1    2    0    0  0.94898219920E+02 -0.86661263864E+03 -0.45080814085E+03  0.98570153236E+03  0.91413311118E+02 0.  0.
         13    1    3    3    0    0  0.21080539365E+02 -0.54998609038E+03 -0.25978797165E+03  0.60862047202E+03  0.00000000000E+00 0.  1.
        -13    1    3    3    0    0  0.73817680556E+02 -0.31662654827E+03 -0.19102016920E+03  0.37708106034E+03  0.00000000000E+00 0. -1.
         22    1    1    2    0    0 -0.94898219920E+02  0.86661263864E+03  0.19633709648E+03  0.89362821859E+03  0.00000000000E+00 0. -1.
<mgrwt>
<rscale>  0 0.18620217E+04</rscale>
<asrwt>0</asrwt>
<pdfrwt beam="1">  1        2 0.16413852E+00 0.18620217E+04</pdfrwt>
<pdfrwt beam="2">  1       -2 0.12498913E+00 0.18620217E+04</pdfrwt>
<totfact> 0.10292445E+01</totfact>
</mgrwt>
</event>
<event>
 6    1  0.6091287E-004  0.8088218E+03  0.7818608E-02  0.9547335E-01
          2   -1    0    0  501    0  0.00000000000E+00  0.00000000000E+00  0.34199676862E+03  0.34199676862E+03  0.00000000000E+00 0.  1.
         -2   -1    0    0    0  501 -0.00000000000E+00 -0.00000000000E+00 -0.47821560016E+03  0.47821560016E+03  0.00000000000E+00 0. -1.
         23    2    1    2    0    0  0.30505686205E+03  0.49040188779E+02  0.18706723146E+03  0.37302280301E+03  0.93205328631E+02 0.  0.
         13    1    3    3    0    0  0.13819074286E+03 -0.14080468704E+02  0.11604187080E+03  0.18099905190E+03  0.00000000000E+00 0.  1.
        -13    1    3    3    0    0  0.16686611919E+03  0.63120657484E+02  0.71025360657E+02  0.19202375111E+03  0.00000000000E+00 0. -1.
         22    1    1    2    0    0 -0.30505686205E+03 -0.49040188779E+02 -0.32328606300E+03  0.44718956576E+03  0.00000000000E+00 0. -1.
<mgrwt>
<rscale>  0 0.80882183E+03</rscale>
<asrwt>0</asrwt>
<pdfrwt beam="1">  1        2 0.52614888E-01 0.80882183E+03</pdfrwt>
<pdfrwt beam="2">  1       -2 0.73571631E-01 0.80882183E+03</pdfrwt>
<totfact> 0.15920023E+02</totfact>
</mgrwt>
</event>
<event>
 6    1  0.6091287E-004  0.8721616E+03  0.7818608E-02  0.9461066E-01
          2   -1    0    0  501    0  0.00000000000E+00  0.00000000000E+00  0.13449749924E+04  0.13449749924E+04  0.00000000000E+00 0.  1.
         -2   -1    0    0    0  501 -0.00000000000E+00 -0.00000000000E+00 -0.14139033978E+03  0.14139033978E+03  0.00000000000E+00 0. -1.
         23    2    1    2    0    0 -0.34141120437E+03  0.16964779785E+03  0.26508330266E+03  0.47338617659E+03  0.92104989294E+02 0.  0.
         13    1    3    3    0    0 -0.20235157760E+03  0.65315281108E+02  0.18555977170E+03  0.28221388304E+03  0.00000000000E+00 0.  1.
        -13    1    3    3    0    0 -0.13905962676E+03  0.10433251674E+03  0.79523530952E+02  0.19117229355E+03  0.00000000000E+00 0. -1.
         22    1    1    2    0    0  0.34141120437E+03 -0.16964779785E+03  0.93850134999E+03  0.10129791556E+04  0.00000000000E+00 0.  1.
<mgrwt>
<rscale>  0 0.87216162E+03</rscale>
<asrwt>0</asrwt>
<pdfrwt beam="1">  1        2 0.20691922E+00 0.87216162E+03</pdfrwt>
<pdfrwt beam="2">  1       -2 0.21752361E-01 0.87216162E+03</pdfrwt>
<totfact> 0.28755259E+02</totfact>
</mgrwt>
</event>
<event>
 6    1  0.6091287E-004  0.3087505E+04  0.7818608E-02  0.8219175E-01
         -2   -1    0    0    0  501 -0.00000000000E+00  0.00000000000E+00  0.93814375421E+03  0.93814375421E+03  0.00000000000E+00 0. -1.
          2   -1    0    0  501    0  0.00000000000E+00 -0.00000000000E+00 -0.25403059902E+04  0.25403059902E+04  0.00000000000E+00 0.  1.
         23    2    1    2    0    0 -0.17985335731E+03  0.83208819317E+03  0.64747455258E+03  0.10731257180E+04  0.87507251997E+02 0.  0.
         13    1    3    3    0    0 -0.21509970390E+02  0.14158588004E+03  0.15060663407E+03  0.20782588500E+03  0.00000000000E+00 0.  1.
        -13    1    3    3    0    0 -0.15834338692E+03  0.69050231314E+03  0.49686791851E+03  0.86529983305E+03  0.00000000000E+00 0. -1.
         22    1    1    2    0    0  0.17985335731E+03 -0.83208819317E+03 -0.22496367885E+04  0.24053240263E+04  0.00000000000E+00 0.  1.
<mgrwt>
<rscale>  0 0.30875053E+04</rscale>
<asrwt>0</asrwt>
<pdfrwt beam="1">  1        2 0.39081629E+00 0.30875053E+04</pdfrwt>
<pdfrwt beam="2">  1       -2 0.14432981E+00 0.30875053E+04</pdfrwt>
<totfact> 0.92953386E-01</totfact>
</mgrwt>
</event>
<event>
 6    1  0.6091287E-004  0.2370048E+04  0.7818608E-02  0.8450803E-01
          1   -1    0    0  501    0  0.00000000000E+00  0.00000000000E+00  0.52180615622E+03  0.52180615622E+03  0.00000000000E+00 0.  1.
         -1   -1    0    0    0  501 -0.00000000000E+00 -0.00000000000E+00 -0.26911956789E+04  0.26911956789E+04  0.00000000000E+00 0. -1.
         23    2    1    2    0    0  0.15688943504E+03  0.57955434815E+03 -0.24685614616E+04  0.25421804086E+04  0.91586041258E+02 0.  0.
         11    1    3    3    0    0  0.24981231087E+02  0.26482979142E+03 -0.10580074390E+04  0.10909347466E+04  0.00000000000E+00 0.  1.
        -11    1    3    3    0    0  0.13190820395E+03  0.31472455672E+03 -0.14105540226E+04  0.14512456620E+04  0.00000000000E+00 0. -1.
         22    1    1    2    0    0 -0.15688943504E+03 -0.57955434815E+03  0.29917193890E+03  0.67082142654E+03  0.00000000000E+00 0.  1.
<mgrwt>
<rscale>  0 0.23700485E+04</rscale>
<asrwt>0</asrwt>
<pdfrwt beam="1">  1        1 0.80277869E-01 0.23700485E+04</pdfrwt>
<pdfrwt beam="2">  1       -1 0.41403011E+00 0.23700485E+04</pdfrwt>
<totfact> 0.21514339E-01</totfact>
</mgrwt>
</event>
<event>
 6    1  0.6091287E-004  0.1303960E+04  0.7818608E-02  0.9026431E-01
         -2   -1    0    0    0  501 -0.00000000000E+00  0.00000000000E+00  0.14886844117E+04  0.14886844117E+04  0.00000000000E+00 0. -1.
          2   -1    0    0  501    0  0.00000000000E+00 -0.00000000000E+00 -0.28553930885E+03  0.28553930885E+03  0.00000000000E+00 0.  1.
         23    2    1    2    0    0 -0.62153038046E+03  0.64131141222E+02  0.36695137155E+03  0.73036895414E+03  0.91502366006E+02 0.  0.
         11    1    3    3    0    0 -0.33518444308E+03  0.77658659196E+02  0.18222287545E+03  0.38933874013E+03  0.00000000000E+00 0.  1.
        -11    1    3    3    0    0 -0.28634593737E+03 -0.13527517973E+02  0.18472849610E+03  0.34103021401E+03  0.00000000000E+00 0. -1.
         22    1    1    2    0    0  0.62153038046E+03 -0.64131141222E+02  0.83619373128E+03  0.10438547664E+04  0.00000000000E+00 0. -1.
<mgrwt>
<rscale>  0 0.13039600E+04</rscale>
<asrwt>0</asrwt>
<pdfrwt beam="1">  1        2 0.43929125E-01 0.13039600E+04</pdfrwt>
<pdfrwt beam="2">  1       -2 0.22902837E+00 0.13039600E+04</pdfrwt>
<totfact> 0.98608642E+00</totfact>
</mgrwt>
</event>
<event>
 6    1  0.6091287E-004  0.8816199E+03  0.7818608E-02  0.9448854E-01
         -2   -1    0    0    0  501 -0.00000000000E+00  0.00000000000E+00  0.66844098381E+02  0.66844098381E+02  0.00000000000E+00 0. -1.
          2   -1    0    0  501    0  0.00000000000E+00 -0.00000000000E+00 -0.29069643418E+04  0.29069643418E+04  0.00000000000E+00 0.  1.
         23    2    1    2    0    0 -0.99008681752E+02 -0.42044957829E+03 -0.12307741263E+04  0.13075024984E+04  0.90428238894E+02 0.  0.
         13    1    3    3    0    0 -0.86121077093E+02 -0.30681370249E+03 -0.10066476120E+04  0.10558839437E+04  0.00000000000E+00 0. -1.
        -13    1    3    3    0    0 -0.12887604658E+02 -0.11363587580E+03 -0.22412651435E+03  0.25161855468E+03  0.00000000000E+00 0.  1.
         22    1    1    2    0    0  0.99008681752E+02  0.42044957829E+03 -0.16093461170E+04  0.16663059417E+04  0.00000000000E+00 0.  1.
<mgrwt>
<rscale>  0 0.88161990E+03</rscale>
<asrwt>0</asrwt>
<pdfrwt beam="1">  1        2 0.44722534E+00 0.88161990E+03</pdfrwt>
<pdfrwt beam="2">  1       -2 0.10283706E-01 0.88161990E+03</pdfrwt>
<totfact> 0.13522745E+02</totfact>
</mgrwt>
</event>
<event>
 6    1  0.6091287E-004  0.4059888E+04  0.7818608E-02  0.7992573E-01
         -2   -1    0    0    0  501 -0.00000000000E+00  0.00000000000E+00  0.19454332736E+04  0.19454332736E+04  0.00000000000E+00 0. -1.
          2   -1    0    0  501    0  0.00000000000E+00 -0.00000000000E+00 -0.21181262134E+04  0.21181262134E+04  0.00000000000E+00 0.  1.
         23    2    1    2    0    0 -0.71487203638E+03  0.18653893679E+04 -0.44142412147E+03  0.20478869019E+04  0.90917464851E+02 0.  0.
         13    1    3    3    0    0 -0.36802375028E+03  0.84067862026E+03 -0.21777126350E+03  0.94318945421E+03  0.00000000000E+00 0.  1.
        -13    1    3    3    0    0 -0.34684828609E+03  0.10247107477E+04 -0.22365285797E+03  0.11046974476E+04  0.00000000000E+00 0. -1.
         22    1    1    2    0    0  0.71487203638E+03 -0.18653893679E+04  0.26873118165E+03  0.20156725851E+04  0.00000000000E+00 0.  1.
<mgrwt>
<rscale>  0 0.40598883E+04</rscale>
<asrwt>0</asrwt>
<pdfrwt beam="1">  1        2 0.32586557E+00 0.40598883E+04</pdfrwt>
<pdfrwt beam="2">  1       -2 0.29929743E+00 0.40598883E+04</pdfrwt>
<totfact> 0.14466549E-01</totfact>
</mgrwt>
</event>
<event>
 6    1  0.6091287E-004  0.5794718E+04  0.7818608E-02  0.7716388E-01
          2   -1    0    0  501    0  0.00000000000E+00  0.00000000000E+00  0.31562106436E+04  0.31562106436E+04  0.00000000000E+00 0.  1.
         -2   -1    0    0    0  501 -0.00000000000E+00 -0.00000000000E+00 -0.26597367624E+04  0.26597367624E+04  0.00000000000E+00 0. -1.
         23    2    1    2    0    0  0.20672008464E+04 -0.12254581658E+04 -0.13745004901E+04  0.27703584394E+04  0.10279703351E+03 0.  0.
         11    1    3    3    0    0  0.16875595243E+04 -0.10036254150E+04 -0.10765239674E+04  0.22392018610E+04  0.00000000000E+00 0. -1.
        -11    1    3    3    0    0  0.37964132211E+03 -0.22183275078E+03 -0.29797652270E+03  0.53115657847E+03  0.00000000000E+00 0.  1.
         22    1    1    2    0    0 -0.20672008464E+04  0.12254581658E+04  0.18709743713E+04  0.30455889666E+04  0.00000000000E+00 0.  1.
<mgrwt>
<rscale>  0 0.57947181E+04</rscale>
<asrwt>0</asrwt>
<pdfrwt beam="1">  1        2 0.48557087E+00 0.57947181E+04</pdfrwt>
<pdfrwt beam="2">  1       -2 0.40919027E+00 0.57947181E+04</pdfrwt>
<totfact> 0.61219245E-03</totfact>
</mgrwt>
</event>
<event>
 6    1  0.6091287E-004  0.1361068E+04  0.7818608E-02  0.8982492E-01
         -2   -1    0    0    0  501 -0.00000000000E+00  0.00000000000E+00  0.44288815383E+03  0.44288815383E+03  0.00000000000E+00 0. -1.
          2   -1    0    0  501    0  0.00000000000E+00 -0.00000000000E+00 -0.10456965097E+04  0.10456965097E+04  0.00000000000E+00 0.  1.
         23    2    1    2    0    0 -0.32157087555E+03  0.42383706061E+03  0.15703439373E+03  0.56100356946E+03  0.83782588802E+02 0.  0.
         11    1    3    3    0    0 -0.15165996066E+03  0.15544134639E+03  0.96433272389E+02  0.23761761690E+03  0.00000000000E+00 0. -1.
        -11    1    3    3    0    0 -0.16991091489E+03  0.26839571422E+03  0.60601121343E+02  0.32338595257E+03  0.00000000000E+00 0.  1.
         22    1    1    2    0    0  0.32157087555E+03 -0.42383706061E+03 -0.75984274962E+03  0.92758109408E+03  0.00000000000E+00 0.  1.
<mgrwt>
<rscale>  0 0.13610681E+04</rscale>
<asrwt>0</asrwt>
<pdfrwt beam="1">  1        2 0.16087639E+00 0.13610681E+04</pdfrwt>
<pdfrwt beam="2">  1       -2 0.68136639E-01 0.13610681E+04</pdfrwt>
<totfact> 0.45334591E+01</totfact>
</mgrwt>
</event>
<event>
 6    1  0.6091287E-004  0.2873617E+04  0.7818608E-02  0.8280771E-01
          2   -1    0    0  501    0  0.00000000000E+00  0.00000000000E+00  0.20076581920E+04  0.20076581920E+04  0.00000000000E+00 0.  1.
         -2   -1    0    0    0  501 -0.00000000000E+00 -0.00000000000E+00 -0.10282718297E+04  0.10282718297E+04  0.00000000000E+00 0. -1.
         23    2    1    2    0    0 -0.11687053224E+04  0.31062033967E+03 -0.32668876958E+03  0.12559891867E+04  0.91794112174E+02 0.  0.
         13    1    3    3    0    0 -0.62679436544E+03  0.12338351885E+03 -0.19171908380E+03  0.66697142095E+03  0.00000000000E+00 0. -1.
        -13    1    3    3    0    0 -0.54191095694E+03  0.18723682081E+03 -0.13496968578E+03  0.58901776577E+03  0.00000000000E+00 0.  1.
         22    1    1    2    0    0  0.11687053224E+04 -0.31062033967E+03  0.13060751318E+04  0.17799408350E+04  0.00000000000E+00 0.  1.
<mgrwt>
<rscale>  0 0.28736168E+04</rscale>
<asrwt>0</asrwt>
<pdfrwt beam="1">  1        2 0.30887049E+00 0.28736168E+04</pdfrwt>
<pdfrwt beam="2">  1       -2 0.15819567E+00 0.28736168E+04</pdfrwt>
<totfact> 0.14866834E+00</totfact>
</mgrwt>
</event>
<event>
 6    1  0.6091287E-004  0.2838173E+04  0.7818608E-02  0.8291514E-01
          2   -1    0    0  501    0  0.00000000000E+00  0.00000000000E+00  0.15935566704E+04  0.15935566704E+04  0.00000000000E+00 0.  1.
         -2   -1    0    0    0  501 -0.00000000000E+00 -0.00000000000E+00 -0.12637181623E+04  0.12637181623E+04  0.00000000000E+00 0. -1.
         23    2    1    2    0    0  0.11822452192E+04  0.70691648292E+03  0.50210388905E+03  0.14690709450E+04  0.92878705545E+02 0.  0.
         11    1    3    3    0    0  0.32242802024E+03  0.17695922211E+03  0.93223640172E+02  0.37942725470E+03  0.00000000000E+00 0. -1.
        -11    1    3    3    0    0  0.85981719899E+03  0.52995726081E+03  0.40888024888E+03  0.10896436903E+04  0.00000000000E+00 0.  1.
         22    1    1    2    0    0 -0.11822452192E+04 -0.70691648292E+03 -0.17226538095E+03  0.13882038876E+04  0.00000000000E+00 0. -1.
<mgrwt>
<rscale>  0 0.28381730E+04</rscale>
<asrwt>0</asrwt>
<pdfrwt beam="1">  1        2 0.24516256E+00 0.28381730E+04</pdfrwt>
<pdfrwt beam="2">  1       -2 0.19441818E+00 0.28381730E+04</pdfrwt>
<totfact> 0.14126448E+00</totfact>
</mgrwt>
</event>
<event>
 6    1  0.6091287E-004  0.1657953E+04  0.7818608E-02  0.8785715E-01
          2   -1    0    0  501    0  0.00000000000E+00  0.00000000000E+00  0.27417634933E+04  0.27417634933E+04  0.00000000000E+00 0.  1.
         -2   -1    0    0    0  501 -0.00000000000E+00 -0.00000000000E+00 -0.25064248128E+03  0.25064248128E+03  0.00000000000E+00 0. -1.
         23    2    1    2    0    0  0.69988596823E+03  0.55600058939E+02  0.20361777342E+04  0.21558026509E+04  0.92377320748E+02 0.  0.
         11    1    3    3    0    0  0.49338302437E+03  0.78937508809E+02  0.13946581920E+04  0.14814619170E+04  0.00000000000E+00 0. -1.
        -11    1    3    3    0    0  0.20650294386E+03 -0.23337449870E+02  0.64151954226E+03  0.67434073397E+03  0.00000000000E+00 0.  1.
         22    1    1    2    0    0 -0.69988596823E+03 -0.55600058939E+02  0.45494327775E+03  0.83660332360E+03  0.00000000000E+00 0. -1.
<mgrwt>
<rscale>  0 0.16579534E+04</rscale>
<asrwt>0</asrwt>
<pdfrwt beam="1">  1        2 0.42180975E+00 0.16579534E+04</pdfrwt>
<pdfrwt beam="2">  1       -2 0.38560384E-01 0.16579534E+04</pdfrwt>
<totfact> 0.15256578E+01</totfact>
</mgrwt>
</event>
<event>
 6    1  0.6091287E-004  0.9354557E+03  0.7818608E-02  0.9382314E-01
          2   -1    0    0  501    0  0.00000000000E+00  0.00000000000E+00  0.97501119562E+03  0.97501119562E+03  0.00000000000E+00 0.  1.
         -2   -1    0    0    0  501 -0.00000000000E+00 -0.00000000000E+00 -0.22437624061E+03  0.22437624061E+03  0.00000000000E+00 0. -1.
         23    2    1    2    0    0  0.84192959715E+00  0.45277991187E+03  0.50441092261E+03  0.68398794888E+03  0.91644846675E+02 0.  0.
         13    1    3    3    0    0 -0.16520289174E+01  0.13775046574E+02 -0.17290796797E+01  0.13981088091E+02  0.00000000000E+00 0. -1.
        -13    1    3    3    0    0  0.24939585146E+01  0.43900486529E+03  0.50614000229E+03  0.67000686079E+03  0.00000000000E+00 0.  1.
         22    1    1    2    0    0 -0.84192959715E+00 -0.45277991187E+03  0.24622403240E+03  0.51539948736E+03  0.00000000000E+00 0.  1.
<mgrwt>
<rscale>  0 0.93545571E+03</rscale>
<asrwt>0</asrwt>
<pdfrwt beam="1">  1        2 0.15000172E+00 0.93545571E+03</pdfrwt>
<pdfrwt beam="2">  1       -2 0.34519422E-01 0.93545571E+03</pdfrwt>
<totfact> 0.20567166E+02</totfact>
</mgrwt>
</event>
<event>
 6    1  0.6091287E-004  0.1630963E+04  0.7818608E-02  0.8801749E-01
          2   -1    0    0  501    0  0.00000000000E+00  0.00000000000E+00  0.29307991008E+04  0.29307991008E+04  0.00000000000E+00 0. -1.
         -2   -1    0    0    0  501 -0.00000000000E+00 -0.00000000000E+00 -0.22690392928E+03  0.22690392928E+03  0.00000000000E+00 0.  1.
         23    2    1    2    0    0 -0.32605134935E+02 -0.45491305654E+03  0.53044131014E+02  0.46790373966E+03  0.90062455626E+02 0.  0.
         13    1    3    3    0    0 -0.20986911901E+02 -0.41965580669E+03  0.71867292091E+02  0.42628201256E+03  0.00000000000E+00 0. -1.
        -13    1    3    3    0    0 -0.11618223034E+02 -0.35257249855E+02 -0.18823161078E+02  0.41621727099E+02  0.00000000000E+00 0.  1.
         22    1    1    2    0    0  0.32605134935E+02  0.45491305654E+03  0.26508510405E+04  0.26897992904E+04  0.00000000000E+00 0. -1.
<mgrwt>
<rscale>  0 0.16309627E+04</rscale>
<asrwt>0</asrwt>
<pdfrwt beam="1">  1        2 0.45089214E+00 0.16309627E+04</pdfrwt>
<pdfrwt beam="2">  1       -2 0.34908299E-01 0.16309627E+04</pdfrwt>
<totfact> 0.14234821E+01</totfact>
</mgrwt>
</event>
<event>
 6    1  0.6091287E-004  0.3449285E+04  0.7818608E-02  0.8125915E-01
         -2   -1    0    0    0  501 -0.00000000000E+00  0.00000000000E+00  0.73683483359E+03  0.73683483359E+03  0.00000000000E+00 0. -1.
          2   -1    0    0  501    0  0.00000000000E+00 -0.00000000000E+00 -0.40367145933E+04  0.40367145933E+04  0.00000000000E+00 0.  1.
         23    2    1    2    0    0 -0.12187343665E+04 -0.11622698252E+04 -0.11442234274E+04  0.20380350647E+04  0.90305427924E+02 0.  0.
         11    1    3    3    0    0 -0.49304620631E+03 -0.43809385989E+03 -0.40294013335E+03  0.77290461423E+03  0.00000000000E+00 0. -1.
        -11    1    3    3    0    0 -0.72568816020E+03 -0.72417596536E+03 -0.74128329405E+03  0.12651304505E+04  0.00000000000E+00 0.  1.
         22    1    1    2    0    0  0.12187343665E+04  0.11622698252E+04 -0.21556563324E+04  0.27355143622E+04  0.00000000000E+00 0.  1.
<mgrwt>
<rscale>  0 0.34492851E+04</rscale>
<asrwt>0</asrwt>
<pdfrwt beam="1">  1        2 0.62103301E+00 0.34492851E+04</pdfrwt>
<pdfrwt beam="2">  1       -2 0.11335921E+00 0.34492851E+04</pdfrwt>
<totfact> 0.16048760E-01</totfact>
</mgrwt>
</event>
<event>
 6    1  0.6091287E-004  0.5373918E+04  0.7818608E-02  0.7773280E-01
          2   -1    0    0  501    0  0.00000000000E+00  0.00000000000E+00  0.18972152571E+04  0.18972152571E+04  0.00000000000E+00 0.  1.
         -2   -1    0    0    0  501 -0.00000000000E+00 -0.00000000000E+00 -0.38054445942E+04  0.38054445942E+04  0.00000000000E+00 0. -1.
         23    2    1    2    0    0 -0.15010886907E+04 -0.17077867723E+04 -0.24721894426E+04  0.33600429561E+04  0.91460973989E+02 0.  0.
         13    1    3    3    0    0 -0.75303879378E+03 -0.85809411513E+03 -0.11737963972E+04  0.16374342483E+04  0.00000000000E+00 0.  1.
        -13    1    3    3    0    0 -0.74804989693E+03 -0.84969265719E+03 -0.12983930454E+04  0.17226087078E+04  0.00000000000E+00 0. -1.
         22    1    1    2    0    0  0.15010886907E+04  0.17077867723E+04  0.56396010544E+03  0.23426168952E+04  0.00000000000E+00 0.  1.
<mgrwt>
<rscale>  0 0.53739176E+04</rscale>
<asrwt>0</asrwt>
<pdfrwt beam="1">  1        2 0.29187927E+00 0.53739176E+04</pdfrwt>
<pdfrwt beam="2">  1       -2 0.58545301E+00 0.53739176E+04</pdfrwt>
<totfact> 0.31815962E-03</totfact>
</mgrwt>
</event>
<event>
 6    1  0.6091287E-004  0.3043034E+04  0.7818608E-02  0.8231548E-01
          2   -1    0    0  501    0  0.00000000000E+00  0.00000000000E+00  0.38266510970E+04  0.38266510970E+04  0.00000000000E+00 0.  1.
         -2   -1    0    0    0  501 -0.00000000000E+00 -0.00000000000E+00 -0.60497124509E+03  0.60497124509E+03  0.00000000000E+00 0. -1.
         23    2    1    2    0    0  0.68360417127E+03  0.39120815868E+03 -0.28117072850E+03  0.84131306919E+03  0.91609035730E+02 0.  0.
         13    1    3    3    0    0  0.40634371759E+03  0.19841149011E+03 -0.12441147925E+03  0.46899952281E+03  0.00000000000E+00 0. -1.
        -13    1    3    3    0    0  0.27726045368E+03  0.19279666857E+03 -0.15675924925E+03  0.37231354637E+03  0.00000000000E+00 0.  1.
         22    1    1    2    0    0 -0.68360417127E+03 -0.39120815868E+03  0.35028505804E+04  0.35903092729E+04  0.00000000000E+00 0.  1.
<mgrwt>
<rscale>  0 0.30430339E+04</rscale>
<asrwt>0</asrwt>
<pdfrwt beam="1">  1        2 0.58871554E+00 0.30430339E+04</pdfrwt>
<pdfrwt beam="2">  1       -2 0.93072502E-01 0.30430339E+04</pdfrwt>
<totfact> 0.39045865E-01</totfact>
</mgrwt>
</event>
<event>
 6    1  0.6091287E-004  0.2084884E+04  0.7818608E-02  0.8567931E-01
         -2   -1    0    0    0  501 -0.00000000000E+00  0.00000000000E+00  0.14279799663E+04  0.14279799663E+04  0.00000000000E+00 0. -1.
          2   -1    0    0  501    0  0.00000000000E+00 -0.00000000000E+00 -0.76099479425E+03  0.76099479425E+03  0.00000000000E+00 0.  1.
         23    2    1    2    0    0 -0.64933923226E+03  0.44317307712E+03  0.10490180692E+04  0.13149078584E+04  0.10246927300E+03 0.  0.
         11    1    3    3    0    0 -0.40794903975E+03  0.32364121830E+03  0.74172974439E+03  0.90627207335E+03  0.00000000000E+00 0. -1.
        -11    1    3    3    0    0 -0.24139019252E+03  0.11953185882E+03  0.30728832478E+03  0.40863578510E+03  0.00000000000E+00 0.  1.
         22    1    1    2    0    0  0.64933923226E+03 -0.44317307712E+03 -0.38203289713E+03  0.87406690209E+03  0.00000000000E+00 0.  1.
<mgrwt>
<rscale>  0 0.20848840E+04</rscale>
<asrwt>0</asrwt>
<pdfrwt beam="1">  1        2 0.11707612E+00 0.20848840E+04</pdfrwt>
<pdfrwt beam="2">  1       -2 0.21968922E+00 0.20848840E+04</pdfrwt>
<totfact> 0.33692188E+00</totfact>
</mgrwt>
</event>
<event>
 6    1  0.6091287E-004  0.3233994E+04  0.7818608E-02  0.8179897E-01
         -2   -1    0    0    0  501 -0.00000000000E+00  0.00000000000E+00  0.13626369838E+04  0.13626369838E+04  0.00000000000E+00 0. -1.
          2   -1    0    0  501    0  0.00000000000E+00 -0.00000000000E+00 -0.19188378729E+04  0.19188378729E+04  0.00000000000E+00 0.  1.
         23    2    1    2    0    0  0.13737637006E+03  0.13026433286E+04  0.68150553050E+03  0.14793458131E+04  0.90897404391E+02 0.  0.
         11    1    3    3    0    0  0.58755968353E+02  0.94318579636E+03  0.49619165887E+03  0.10673602356E+04  0.00000000000E+00 0. -1.
        -11    1    3    3    0    0  0.78620401707E+02  0.35945753219E+03  0.18531387162E+03  0.41198557745E+03  0.00000000000E+00 0.  1.
         22    1    1    2    0    0 -0.13737637006E+03 -0.13026433286E+04 -0.12377064196E+04  0.18021290435E+04  0.00000000000E+00 0.  1.
<mgrwt>
<rscale>  0 0.32339941E+04</rscale>
<asrwt>0</asrwt>
<pdfrwt beam="1">  1        2 0.29520583E+00 0.32339941E+04</pdfrwt>
<pdfrwt beam="2">  1       -2 0.20963646E+00 0.32339941E+04</pdfrwt>
<totfact> 0.71667935E-01</totfact>
</mgrwt>
</event>
<event>
 6    1  0.6091287E-004  0.1016074E+04  0.7818608E-02  0.9291089E-01
          2   -1    0    0  501    0  0.00000000000E+00  0.00000000000E+00  0.36811334599E+03  0.36811334599E+03  0.00000000000E+00 0.  1.
         -2   -1    0    0    0  501 -0.00000000000E+00 -0.00000000000E+00 -0.70114701897E+03  0.70114701897E+03  0.00000000000E+00 0. -1.
         23    2    1    2    0    0  0.10049068712E+03 -0.28510624764E+03 -0.59225011628E+03  0.67104294304E+03  0.90302162402E+02 0.  0.
         11    1    3    3    0    0  0.83404459413E+02 -0.24436632380E+03 -0.41833821465E+03  0.49160763409E+03  0.00000000000E+00 0. -1.
        -11    1    3    3    0    0  0.17086227707E+02 -0.40739923842E+02 -0.17391190163E+03  0.17943530895E+03  0.00000000000E+00 0.  1.
         22    1    1    2    0    0 -0.10049068712E+03  0.28510624764E+03  0.25921644329E+03  0.39821742191E+03  0.00000000000E+00 0.  1.
<mgrwt>
<rscale>  0 0.10160740E+04</rscale>
<asrwt>0</asrwt>
<pdfrwt beam="1">  1        2 0.56632823E-01 0.10160740E+04</pdfrwt>
<pdfrwt beam="2">  1       -2 0.10786877E+00 0.10160740E+04</pdfrwt>
<totfact> 0.60005231E+01</totfact>
</mgrwt>
</event>
<event>
 6    1  0.6091287E-004  0.7730556E+03  0.7818608E-02  0.9599858E-01
          2   -1    0    0  501    0  0.00000000000E+00  0.00000000000E+00  0.17287714098E+04  0.17287714098E+04  0.00000000000E+00 0.  1.
         -2   -1    0    0    0  501 -0.00000000000E+00 -0.00000000000E+00 -0.86421912229E+02  0.86421912229E+02  0.00000000000E+00 0. -1.
         23    2    1    2    0    0  0.24932875657E+03 -0.20587918497E+03  0.35902473572E+03  0.49176084848E+03  0.91536351163E+02 0.  0.
         13    1    3    3    0    0  0.18737767492E+03 -0.14062157429E+03  0.19557080117E+03  0.30517660212E+03  0.00000000000E+00 0. -1.
        -13    1    3    3    0    0  0.61951081652E+02 -0.65257610678E+02  0.16345393454E+03  0.18658424635E+03  0.00000000000E+00 0.  1.
         22    1    1    2    0    0 -0.24932875657E+03  0.20587918497E+03  0.12833247618E+04  0.13234324735E+04  0.00000000000E+00 0. -1.
<mgrwt>
<rscale>  0 0.77305558E+03</rscale>
<asrwt>0</asrwt>
<pdfrwt beam="1">  1        2 0.26596481E+00 0.77305558E+03</pdfrwt>
<pdfrwt beam="2">  1       -2 0.13295680E-01 0.77305558E+03</pdfrwt>
<totfact> 0.41198279E+02</totfact>
</mgrwt>
</event>
<event>
 6    1  0.6091287E-004  0.2202907E+04  0.7818608E-02  0.8517219E-01
          2   -1    0    0  501    0  0.00000000000E+00  0.00000000000E+00  0.13459540402E+04  0.13459540402E+04  0.00000000000E+00 0.  1.
         -2   -1    0    0    0  501 -0.00000000000E+00 -0.00000000000E+00 -0.90136811234E+03  0.90136811234E+03  0.00000000000E+00 0. -1.
         23    2    1    2    0    0  0.70089839477E+03  0.97676256091E+02 -0.63589192470E+03  0.95572174968E+03  0.90809207259E+02 0.  0.
         13    1    3    3    0    0  0.10667677182E+03  0.42953183698E+02 -0.79200138468E+02  0.13963370499E+03  0.00000000000E+00 0.  1.
        -13    1    3    3    0    0  0.59422162295E+03  0.54723072393E+02 -0.55669178623E+03  0.81608804469E+03  0.00000000000E+00 0. -1.
         22    1    1    2    0    0 -0.70089839477E+03 -0.97676256091E+02  0.10804778525E+04  0.12916004028E+04  0.00000000000E+00 0.  1.
<mgrwt>
<rscale>  0 0.22029072E+04</rscale>
<asrwt>0</asrwt>
<pdfrwt beam="1">  1        2 0.20706985E+00 0.22029072E+04</pdfrwt>
<pdfrwt beam="2">  1       -2 0.13867202E+00 0.22029072E+04</pdfrwt>
<totfact> 0.52309297E+00</totfact>
</mgrwt>
</event>
<event>
 6    1  0.6091287E-004  0.5543099E+04  0.7818608E-02  0.7749786E-01
         -1   -1    0    0    0  501 -0.00000000000E+00  0.00000000000E+00  0.18458113454E+04  0.18458113454E+04  0.00000000000E+00 0. -1.
          1   -1    0    0  501    0  0.00000000000E+00 -0.00000000000E+00 -0.41615779106E+04  0.41615779106E+04  0.00000000000E+00 0.  1.
         23    2    1    2    0    0  0.59544527861E+03  0.69041230497E+03  0.16774661897E+04  0.19113995020E+04  0.91274355853E+02 0.  0.
         11    1    3    3    0    0  0.32556655296E+03  0.40458323434E+03  0.10405372237E+04  0.11629268627E+04  0.00000000000E+00 0. -1.
        -11    1    3    3    0    0  0.26987872565E+03  0.28582907062E+03  0.63692896594E+03  0.74847263933E+03  0.00000000000E+00 0.  1.
         22    1    1    2    0    0 -0.59544527861E+03 -0.69041230497E+03 -0.39932327549E+04  0.40959897541E+04  0.00000000000E+00 0.  1.
<mgrwt>
<rscale>  0 0.55430994E+04</rscale>
<asrwt>0</asrwt>
<pdfrwt beam="1">  1        1 0.64024274E+00 0.55430994E+04</pdfrwt>
<pdfrwt beam="2">  1       -1 0.28397098E+00 0.55430994E+04</pdfrwt>
<totfact> 0.19825928E-03</totfact>
</mgrwt>
</event>
<event>
 6    1  0.6091287E-004  0.2189548E+04  0.7818608E-02  0.8522791E-01
          2   -1    0    0  501    0  0.00000000000E+00  0.00000000000E+00  0.17549826272E+04  0.17549826272E+04  0.00000000000E+00 0.  1.
         -2   -1    0    0    0  501 -0.00000000000E+00 -0.00000000000E+00 -0.68293011360E+03  0.68293011360E+03  0.00000000000E+00 0. -1.
         23    2    1    2    0    0 -0.35415073579E+03  0.61295810595E+03  0.14639472688E+04  0.16287638779E+04  0.92681070160E+02 0.  0.
         13    1    3    3    0    0 -0.89691214203E+02  0.11832686157E+03  0.38708128443E+03  0.41458133198E+03  0.00000000000E+00 0. -1.
        -13    1    3    3    0    0 -0.26445952158E+03  0.49463124439E+03  0.10768659844E+04  0.12141825459E+04  0.00000000000E+00 0.  1.
         22    1    1    2    0    0  0.35415073579E+03 -0.61295810595E+03 -0.39189475515E+03  0.80914886296E+03  0.00000000000E+00 0. -1.
<mgrwt>
<rscale>  0 0.21895483E+04</rscale>
<asrwt>0</asrwt>
<pdfrwt beam="1">  1        2 0.26999733E+00 0.21895483E+04</pdfrwt>
<pdfrwt beam="2">  1       -2 0.10506617E+00 0.21895483E+04</pdfrwt>
<totfact> 0.61374622E+00</totfact>
</mgrwt>
</event>
<event>
 6    1  0.6091287E-004  0.3195939E+04  0.7818608E-02  0.8189891E-01
          2   -1    0    0  501    0  0.00000000000E+00  0.00000000000E+00  0.41623606841E+04  0.41623606841E+04  0.00000000000E+00 0.  1.
         -2   -1    0    0    0  501 -0.00000000000E+00 -0.00000000000E+00 -0.61347536216E+03  0.61347536216E+03  0.00000000000E+00 0. -1.
         23    2    1    2    0    0 -0.88828626570E+03 -0.13004063678E+04  0.13827714526E+04  0.20977474543E+04  0.91532950111E+02 0.  0.
         13    1    3    3    0    0 -0.44053645475E+03 -0.61274657679E+03  0.60672741985E+03  0.96832272375E+03  0.00000000000E+00 0.  1.
        -13    1    3    3    0    0 -0.44774981095E+03 -0.68765979098E+03  0.77604403272E+03  0.11294247306E+04  0.00000000000E+00 0. -1.
         22    1    1    2    0    0  0.88828626570E+03  0.13004063678E+04  0.21661138694E+04  0.26780885920E+04  0.00000000000E+00 0. -1.
<mgrwt>
<rscale>  0 0.31959385E+04</rscale>
<asrwt>0</asrwt>
<pdfrwt beam="1">  1        2 0.64036316E+00 0.31959385E+04</pdfrwt>
<pdfrwt beam="2">  1       -2 0.94380828E-01 0.31959385E+04</pdfrwt>
<totfact> 0.19937497E-01</totfact>
</mgrwt>
</event>
<event>
 6    1  0.6091287E-004  0.4152088E+04  0.7818608E-02  0.7974549E-01
         -2   -1    0    0    0  501 -0.00000000000E+00  0.00000000000E+00  0.21936735117E+04  0.21936735117E+04  0.00000000000E+00 0. -1.
          2   -1    0    0  501    0  0.00000000000E+00 -0.00000000000E+00 -0.19647223391E+04  0.19647223391E+04  0.00000000000E+00 0.  1.
         23    2    1    2    0    0 -0.13675838514E+04  0.62432483652E+03  0.15470138556E+04  0.21590568780E+04  0.90596029996E+02 0.  0.
         11    1    3    3    0    0 -0.11878526772E+04  0.55997968763E+03  0.13125764093E+04  0.18567250910E+04  0.00000000000E+00 0. -1.
        -11    1    3    3    0    0 -0.17973117419E+03  0.64345148888E+02  0.23443744635E+03  0.30233178697E+03  0.00000000000E+00 0.  1.
         22    1    1    2    0    0  0.13675838514E+04 -0.62432483652E+03 -0.13180626829E+04  0.19993389728E+04  0.00000000000E+00 0.  1.
<mgrwt>
<rscale>  0 0.41520883E+04</rscale>
<asrwt>0</asrwt>
<pdfrwt beam="1">  1        2 0.30226498E+00 0.41520883E+04</pdfrwt>
<pdfrwt beam="2">  1       -2 0.33748823E+00 0.41520883E+04</pdfrwt>
<totfact> 0.10154148E-01</totfact>
</mgrwt>
</event>
<event>
 6    1  0.6091287E-004  0.2386621E+04  0.7818608E-02  0.8444530E-01
          2   -1    0    0  501    0  0.00000000000E+00  0.00000000000E+00  0.12640080270E+04  0.12640080270E+04  0.00000000000E+00 0.  1.
         -2   -1    0    0    0  501 -0.00000000000E+00 -0.00000000000E+00 -0.11265667199E+04  0.11265667199E+04  0.00000000000E+00 0. -1.
         23    2    1    2    0    0  0.85206517128E+03 -0.71205703245E+03  0.50169474177E+03  0.12219341527E+04  0.91570662097E+02 0.  0.
         11    1    3    3    0    0  0.55526496694E+03 -0.51308491331E+03  0.36273099518E+03  0.83853985394E+03  0.00000000000E+00 0.  1.
        -11    1    3    3    0    0  0.29680020434E+03 -0.19897211914E+03  0.13896374658E+03  0.38339429880E+03  0.00000000000E+00 0. -1.
         22    1    1    2    0    0 -0.85206517128E+03  0.71205703245E+03 -0.36425343468E+03  0.11686405941E+04  0.00000000000E+00 0.  1.
<mgrwt>
<rscale>  0 0.23866205E+04</rscale>
<asrwt>0</asrwt>
<pdfrwt beam="1">  1        2 0.19446277E+00 0.23866205E+04</pdfrwt>
<pdfrwt beam="2">  1       -2 0.17331796E+00 0.23866205E+04</pdfrwt>
<totfact> 0.31546131E+00</totfact>
</mgrwt>
</event>
<event>
 6    1  0.6091287E-004  0.4726301E+03  0.7818608E-02  0.1021181E+00
         -2   -1    0    0    0  501 -0.00000000000E+00  0.00000000000E+00  0.34029023550E+02  0.34029023550E+02  0.00000000000E+00 0. -1.
          2   -1    0    0  501    0  0.00000000000E+00 -0.00000000000E+00 -0.16410933614E+04  0.16410933614E+04  0.00000000000E+00 0.  1.
         23    2    1    2    0    0 -0.93250055306E+02  0.15360899046E+03 -0.13284207018E+04  0.13435600671E+04  0.90337134793E+02 0.  0.
         11    1    3    3    0    0 -0.96416679872E+01  0.42069863982E+02 -0.62330864858E+03  0.62480117366E+03  0.00000000000E+00 0.  1.
        -11    1    3    3    0    0 -0.83608387318E+02  0.11153912648E+03 -0.70511205327E+03  0.71875889339E+03  0.00000000000E+00 0. -1.
         22    1    1    2    0    0  0.93250055306E+02 -0.15360899046E+03 -0.27864363602E+03  0.33156231792E+03  0.00000000000E+00 0. -1.
<mgrwt>
<rscale>  0 0.47263011E+03</rscale>
<asrwt>0</asrwt>
<pdfrwt beam="1">  1        2 0.25247585E+00 0.47263011E+03</pdfrwt>
<pdfrwt beam="2">  1       -2 0.52352355E-02 0.47263011E+03</pdfrwt>
<totfact> 0.20808793E+03</totfact>
</mgrwt>
</event>
<event>
 6    1  0.6091287E-004  0.1621463E+04  0.7818608E-02  0.8807470E-01
         -2   -1    0    0    0  501 -0.00000000000E+00  0.00000000000E+00  0.10725619761E+04  0.10725619761E+04  0.00000000000E+00 0. -1.
          2   -1    0    0  501    0  0.00000000000E+00 -0.00000000000E+00 -0.61281846124E+03  0.61281846124E+03  0.00000000000E+00 0.  1.
         23    2    1    2    0    0  0.45134168764E+03  0.60294202410E+03 -0.74589571600E+02  0.76193024882E+03  0.87895940987E+02 0.  0.
         11    1    3    3    0    0  0.27517502301E+03  0.31006918001E+03 -0.67916770937E+02  0.42009151081E+03  0.00000000000E+00 0. -1.
        -11    1    3    3    0    0  0.17616666463E+03  0.29287284409E+03 -0.66728006625E+01  0.34183873800E+03  0.00000000000E+00 0.  1.
         22    1    1    2    0    0 -0.45134168764E+03 -0.60294202410E+03  0.53433308649E+03  0.92345018856E+03  0.00000000000E+00 0.  1.
<mgrwt>
<rscale>  0 0.16214633E+04</rscale>
<asrwt>0</asrwt>
<pdfrwt beam="1">  1        2 0.94279763E-01 0.16214633E+04</pdfrwt>
<pdfrwt beam="2">  1       -2 0.16500953E+00 0.16214633E+04</pdfrwt>
<totfact> 0.10703206E+01</totfact>
</mgrwt>
</event>
<event>
 6    1  0.6091287E-004  0.1456422E+04  0.7818608E-02  0.8913960E-01
          2   -1    0    0  501    0  0.00000000000E+00  0.00000000000E+00  0.22838040087E+04  0.22838040087E+04  0.00000000000E+00 0.  1.
         -2   -1    0    0    0  501 -0.00000000000E+00 -0.00000000000E+00 -0.23219658548E+03  0.23219658548E+03  0.00000000000E+00 0. -1.
         23    2    1    2    0    0  0.39658872564E+03  0.56451766014E+03  0.14171170118E+04  0.15786954742E+04  0.89977602694E+02 0.  0.
         13    1    3    3    0    0  0.16728972272E+03  0.24477206070E+03  0.71132147046E+03  0.77063444470E+03  0.00000000000E+00 0. -1.
        -13    1    3    3    0    0  0.22929900292E+03  0.31974559944E+03  0.70579554138E+03  0.80806102945E+03  0.00000000000E+00 0.  1.
         22    1    1    2    0    0 -0.39658872564E+03 -0.56451766014E+03  0.63449041143E+03  0.93730512007E+03  0.00000000000E+00 0. -1.
<mgrwt>
<rscale>  0 0.14564223E+04</rscale>
<asrwt>0</asrwt>
<pdfrwt beam="1">  1        2 0.35135445E+00 0.14564223E+04</pdfrwt>
<pdfrwt beam="2">  1       -2 0.35722553E-01 0.14564223E+04</pdfrwt>
<totfact> 0.33120019E+01</totfact>
</mgrwt>
</event>
<event>
 6    1  0.6091287E-004  0.8986313E+03  0.7818608E-02  0.9427294E-01
          2   -1    0    0  501    0  0.00000000000E+00  0.00000000000E+00  0.63964944486E+03  0.63964944486E+03  0.00000000000E+00 0.  1.
         -2   -1    0    0    0  501 -0.00000000000E+00 -0.00000000000E+00 -0.31561751588E+03  0.31561751588E+03  0.00000000000E+00 0. -1.
         23    2    1    2    0    0 -0.35684969962E+03 -0.10401785058E+03 -0.95680109538E+02  0.39462481405E+03  0.91720440193E+02 0.  0.
         11    1    3    3    0    0 -0.34741742502E+03 -0.83806156360E+02 -0.10160822506E+03  0.37154618886E+03  0.00000000000E+00 0. -1.
        -11    1    3    3    0    0 -0.94322745918E+01 -0.20211694222E+02  0.59281155218E+01  0.23078625196E+02  0.00000000000E+00 0.  1.
         22    1    1    2    0    0  0.35684969962E+03  0.10401785058E+03  0.41971203853E+03  0.56064214668E+03  0.00000000000E+00 0.  1.
<mgrwt>
<rscale>  0 0.89863133E+03</rscale>
<asrwt>0</asrwt>
<pdfrwt beam="1">  1        2 0.98407606E-01 0.89863133E+03</pdfrwt>
<pdfrwt beam="2">  1       -2 0.48556541E-01 0.89863133E+03</pdfrwt>
<totfact> 0.18483512E+02</totfact>
</mgrwt>
</event>
<event>
 6    1  0.6091287E-004  0.2547610E+04  0.7818608E-02  0.8386218E-01
         -2   -1    0    0    0  501 -0.00000000000E+00  0.00000000000E+00  0.11771136424E+04  0.11771136424E+04  0.00000000000E+00 0. -1.
          2   -1    0    0  501    0  0.00000000000E+00 -0.00000000000E+00 -0.13784389936E+04  0.13784389936E+04  0.00000000000E+00 0.  1.
         23    2    1    2    0    0  0.44268333545E+03  0.81732423710E+03  0.77036180931E+03  0.12108729783E+04  0.93640846780E+02 0.  0.
         11    1    3    3    0    0  0.29277529126E+03  0.60777589539E+03  0.59170717073E+03  0.89734401769E+03  0.00000000000E+00 0.  1.
        -11    1    3    3    0    0  0.14990804419E+03  0.20954834171E+03  0.17865463858E+03  0.31352896056E+03  0.00000000000E+00 0. -1.
         22    1    1    2    0    0 -0.44268333545E+03 -0.81732423710E+03 -0.97168716057E+03  0.13446796578E+04  0.00000000000E+00 0.  1.
<mgrwt>
<rscale>  0 0.25476101E+04</rscale>
<asrwt>0</asrwt>
<pdfrwt beam="1">  1        2 0.21206754E+00 0.25476101E+04</pdfrwt>
<pdfrwt beam="2">  1       -2 0.18109441E+00 0.25476101E+04</pdfrwt>
<totfact> 0.23573391E+00</totfact>
</mgrwt>
</event>
<event>
 6    1  0.6091287E-004  0.2775133E+04  0.7818608E-02  0.8311030E-01
         -2   -1    0    0    0  501 -0.00000000000E+00  0.00000000000E+00  0.79143070433E+03  0.79143070433E+03  0.00000000000E+00 0. -1.
          2   -1    0    0  501    0  0.00000000000E+00 -0.00000000000E+00 -0.24327339327E+04  0.24327339327E+04  0.00000000000E+00 0.  1.
         23    2    1    2    0    0 -0.65307555788E+03 -0.32126225115E+02 -0.22415503270E+04  0.23365631734E+04  0.86254370333E+02 0.  0.
         13    1    3    3    0    0 -0.25943774275E+03 -0.35103962974E+02 -0.10252174747E+04  0.10581167710E+04  0.00000000000E+00 0. -1.
        -13    1    3    3    0    0 -0.39363781514E+03  0.29777378581E+01 -0.12163328523E+04  0.12784464025E+04  0.00000000000E+00 0.  1.
         22    1    1    2    0    0  0.65307555788E+03  0.32126225115E+02  0.60024709867E+03  0.88760146355E+03  0.00000000000E+00 0. -1.
<mgrwt>
<rscale>  0 0.27751327E+04</rscale>
<asrwt>0</asrwt>
<pdfrwt beam="1">  1        2 0.37426675E+00 0.27751327E+04</pdfrwt>
<pdfrwt beam="2">  1       -2 0.12175857E+00 0.27751327E+04</pdfrwt>
<totfact> 0.16995348E+00</totfact>
</mgrwt>
</event>
<event>
 6    1  0.6091287E-004  0.1371938E+04  0.7818608E-02  0.8974386E-01
          2   -1    0    0  501    0  0.00000000000E+00  0.00000000000E+00  0.19209913120E+04  0.19209913120E+04  0.00000000000E+00 0. -1.
         -2   -1    0    0    0  501 -0.00000000000E+00 -0.00000000000E+00 -0.24495333135E+03  0.24495333135E+03  0.00000000000E+00 0.  1.
         23    2    1    2    0    0  0.12804328973E+03  0.54486319471E+03  0.22451606243E+03  0.61024966552E+03  0.93414169070E+02 0.  0.
         13    1    3    3    0    0  0.89255691379E+02  0.24968809318E+03  0.67272157884E+02  0.27356217857E+03  0.00000000000E+00 0.  1.
        -13    1    3    3    0    0  0.38787598353E+02  0.29517510153E+03  0.15724390455E+03  0.33668748695E+03  0.00000000000E+00 0. -1.
         22    1    1    2    0    0 -0.12804328973E+03 -0.54486319471E+03  0.14515219183E+04  0.15556949779E+04  0.00000000000E+00 0. -1.
<mgrwt>
<rscale>  0 0.13719376E+04</rscale>
<asrwt>0</asrwt>
<pdfrwt beam="1">  1        2 0.29553712E+00 0.13719376E+04</pdfrwt>
<pdfrwt beam="2">  1       -2 0.37685129E-01 0.13719376E+04</pdfrwt>
<totfact> 0.47914005E+01</totfact>
</mgrwt>
</event>
<event>
 6    1  0.6091287E-004  0.1579825E+04  0.7818608E-02  0.8833039E-01
         -2   -1    0    0    0  501 -0.00000000000E+00  0.00000000000E+00  0.19512702292E+03  0.19512702292E+03  0.00000000000E+00 0. -1.
          2   -1    0    0  501    0  0.00000000000E+00 -0.00000000000E+00 -0.31977217432E+04  0.31977217432E+04  0.00000000000E+00 0.  1.
         23    2    1    2    0    0 -0.55469418459E+03  0.11776843374E+02 -0.30679690864E+03  0.64054969558E+03  0.91406984986E+02 0.  0.
         13    1    3    3    0    0 -0.13432890057E+03 -0.62108980281E+01 -0.32688652658E+02  0.13838849951E+03  0.00000000000E+00 0.  1.
        -13    1    3    3    0    0 -0.42036528402E+03  0.17987741402E+02 -0.27410825598E+03  0.50216119608E+03  0.00000000000E+00 0. -1.
         22    1    1    2    0    0  0.55469418459E+03 -0.11776843374E+02 -0.26957978116E+04  0.27522990705E+04  0.00000000000E+00 0.  1.
<mgrwt>
<rscale>  0 0.15798252E+04</rscale>
<asrwt>0</asrwt>
<pdfrwt beam="1">  1        2 0.49195719E+00 0.15798252E+04</pdfrwt>
<pdfrwt beam="2">  1       -2 0.30019542E-01 0.15798252E+04</pdfrwt>
<totfact> 0.12906816E+01</totfact>
</mgrwt>
</event>
<event>
 6    1  0.6091287E-004  0.1395299E+04  0.7818608E-02  0.8957228E-01
         -2   -1    0    0    0  501 -0.00000000000E+00  0.00000000000E+00  0.20882833295E+03  0.20882833295E+03  0.00000000000E+00 0. -1.
          2   -1    0    0  501    0  0.00000000000E+00 -0.00000000000E+00 -0.23306945997E+04  0.23306945997E+04  0.00000000000E+00 0.  1.
         23    2    1    2    0    0  0.83537299714E+02 -0.91392388674E+02 -0.23094552818E+04  0.23147548573E+04  0.95787793890E+02 0.  0.
         11    1    3    3    0    0  0.44595110917E+02 -0.10507272082E+03 -0.18109658759E+04  0.18145595620E+04  0.00000000000E+00 0.  1.
        -11    1    3    3    0    0  0.38942188797E+02  0.13680332149E+02 -0.49848940592E+03  0.50019529523E+03  0.00000000000E+00 0. -1.
         22    1    1    2    0    0 -0.83537299714E+02  0.91392388674E+02  0.18758901504E+03  0.22476807539E+03  0.00000000000E+00 0. -1.
<mgrwt>
<rscale>  0 0.13952993E+04</rscale>
<asrwt>0</asrwt>
<pdfrwt beam="1">  1        2 0.35856841E+00 0.13952993E+04</pdfrwt>
<pdfrwt beam="2">  1       -2 0.32127435E-01 0.13952993E+04</pdfrwt>
<totfact> 0.38322125E+01</totfact>
</mgrwt>
</event>
<event>
 6    1  0.6091287E-004  0.1710189E+04  0.7818608E-02  0.8755574E-01
         -2   -1    0    0    0  501 -0.00000000000E+00  0.00000000000E+00  0.84015909971E+03  0.84015909971E+03  0.00000000000E+00 0. -1.
          2   -1    0    0  501    0  0.00000000000E+00 -0.00000000000E+00 -0.87029569837E+03  0.87029569837E+03  0.00000000000E+00 0.  1.
         23    2    1    2    0    0 -0.60781631126E+03 -0.58150239554E+03  0.12440815197E+03  0.85519472991E+03  0.91076525711E+02 0.  0.
         11    1    3    3    0    0 -0.51097583628E+03 -0.47484280803E+03  0.13594131373E+03  0.71067013331E+03  0.00000000000E+00 0.  1.
        -11    1    3    3    0    0 -0.96840474976E+02 -0.10665958752E+03 -0.11533161756E+02  0.14452459660E+03  0.00000000000E+00 0. -1.
         22    1    1    2    0    0  0.60781631126E+03  0.58150239554E+03 -0.15454475064E+03  0.85526006817E+03  0.00000000000E+00 0.  1.
<mgrwt>
<rscale>  0 0.17101893E+04</rscale>
<asrwt>0</asrwt>
<pdfrwt beam="1">  1        2 0.13389165E+00 0.17101893E+04</pdfrwt>
<pdfrwt beam="2">  1       -2 0.12925525E+00 0.17101893E+04</pdfrwt>
<totfact> 0.12872009E+01</totfact>
</mgrwt>
</event>
<event>
 6    1  0.6091287E-004  0.3597365E+04  0.7818608E-02  0.8091096E-01
          2   -1    0    0  501    0  0.00000000000E+00  0.00000000000E+00  0.32932664905E+04  0.32932664905E+04  0.00000000000E+00 0.  1.
         -2   -1    0    0    0  501 -0.00000000000E+00 -0.00000000000E+00 -0.98238584174E+03  0.98238584174E+03  0.00000000000E+00 0. -1.
         23    2    1    2    0    0  0.61325834399E+03  0.10798927312E+04  0.27005065809E+04  0.29740907800E+04  0.10112401825E+03 0.  0.
         13    1    3    3    0    0  0.15413823103E+03  0.36590332950E+03  0.84529212964E+03  0.93389647459E+03  0.00000000000E+00 0. -1.
        -13    1    3    3    0    0  0.45912011296E+03  0.71398940170E+03  0.18552144512E+04  0.20401943054E+04  0.00000000000E+00 0.  1.
         22    1    1    2    0    0 -0.61325834399E+03 -0.10798927312E+04 -0.38962593207E+03  0.13015615523E+04  0.00000000000E+00 0. -1.
<mgrwt>
<rscale>  0 0.35973648E+04</rscale>
<asrwt>0</asrwt>
<pdfrwt beam="1">  1        2 0.50665638E+00 0.35973648E+04</pdfrwt>
<pdfrwt beam="2">  1       -2 0.15113629E+00 0.35973648E+04</pdfrwt>
<totfact> 0.26909996E-01</totfact>
</mgrwt>
</event>
<event>
 6    1  0.6091287E-004  0.2738882E+04  0.7818608E-02  0.8322498E-01
         -2   -1    0    0    0  501 -0.00000000000E+00  0.00000000000E+00  0.14619576186E+04  0.14619576186E+04  0.00000000000E+00 0. -1.
          2   -1    0    0  501    0  0.00000000000E+00 -0.00000000000E+00 -0.12827792327E+04  0.12827792327E+04  0.00000000000E+00 0.  1.
         23    2    1    2    0    0 -0.50646189921E+03  0.11498601190E+04  0.63195305783E+03  0.14091894534E+04  0.88137958732E+02 0.  0.
         11    1    3    3    0    0 -0.13364645611E+03  0.39231483894E+03  0.23144123310E+03  0.47469711655E+03  0.00000000000E+00 0.  1.
        -11    1    3    3    0    0 -0.37281544311E+03  0.75754528004E+03  0.40051182473E+03  0.93449233687E+03  0.00000000000E+00 0. -1.
         22    1    1    2    0    0  0.50646189921E+03 -0.11498601190E+04 -0.45277467188E+03  0.13355473979E+04  0.00000000000E+00 0.  1.
<mgrwt>
<rscale>  0 0.27388822E+04</rscale>
<asrwt>0</asrwt>
<pdfrwt beam="1">  1        2 0.19735065E+00 0.27388822E+04</pdfrwt>
<pdfrwt beam="2">  1       -2 0.22491656E+00 0.27388822E+04</pdfrwt>
<totfact> 0.13614964E+00</totfact>
</mgrwt>
</event>
<event>
 6    1  0.6091287E-004  0.1648056E+04  0.7818608E-02  0.8791557E-01
          2   -1    0    0  501    0  0.00000000000E+00  0.00000000000E+00  0.39053545137E+03  0.39053545137E+03  0.00000000000E+00 0.  1.
         -2   -1    0    0    0  501 -0.00000000000E+00 -0.00000000000E+00 -0.17386953870E+04  0.17386953870E+04  0.00000000000E+00 0. -1.
         23    2    1    2    0    0  0.41460570057E+02 -0.33722145680E+03 -0.16425632464E+04  0.16796637142E+04  0.88424458246E+02 0.  0.
         11    1    3    3    0    0  0.55594785273E+02 -0.13051162756E+03 -0.75786692712E+03  0.77102940560E+03  0.00000000000E+00 0.  1.
        -11    1    3    3    0    0 -0.14134215217E+02 -0.20670982924E+03 -0.88469631925E+03  0.90863430864E+03  0.00000000000E+00 0. -1.
         22    1    1    2    0    0 -0.41460570057E+02  0.33722145680E+03  0.29440331070E+03  0.44956712418E+03  0.00000000000E+00 0.  1.
<mgrwt>
<rscale>  0 0.16480561E+04</rscale>
<asrwt>0</asrwt>
<pdfrwt beam="1">  1        2 0.60082377E-01 0.16480561E+04</pdfrwt>
<pdfrwt beam="2">  1       -2 0.26749160E+00 0.16480561E+04</pdfrwt>
<totfact> 0.39225277E+00</totfact>
</mgrwt>
</event>
<event>
 6    1  0.6091287E-004  0.1797014E+04  0.7818608E-02  0.8707889E-01
         -2   -1    0    0    0  501 -0.00000000000E+00  0.00000000000E+00  0.74618276105E+03  0.74618276105E+03  0.00000000000E+00 0.  1.
          2   -1    0    0  501    0  0.00000000000E+00 -0.00000000000E+00 -0.10819264674E+04  0.10819264674E+04  0.00000000000E+00 0. -1.
         23    2    1    2    0    0  0.11750193051E+03  0.88679879294E+03 -0.22435053209E+03  0.92665083110E+03  0.90165396287E+02 0.  0.
         13    1    3    3    0    0  0.99514713867E+02  0.85815018332E+03 -0.20581921116E+03  0.88808021208E+03  0.00000000000E+00 0. -1.
        -13    1    3    3    0    0  0.17987216641E+02  0.28648609625E+02 -0.18531320937E+02  0.38570619020E+02  0.00000000000E+00 0.  1.
         22    1    1    2    0    0 -0.11750193051E+03 -0.88679879294E+03 -0.11139317424E+03  0.90145839732E+03  0.00000000000E+00 0.  1.
<mgrwt>
<rscale>  0 0.17970141E+04</rscale>
<asrwt>0</asrwt>
<pdfrwt beam="1">  1        2 0.16645022E+00 0.17970141E+04</pdfrwt>
<pdfrwt beam="2">  1       -2 0.11479735E+00 0.17970141E+04</pdfrwt>
<totfact> 0.12503095E+01</totfact>
</mgrwt>
</event>
<event>
 6    1  0.6091287E-004  0.1882777E+04  0.7818608E-02  0.8663477E-01
          4   -1    0    0  501    0  0.00000000000E+00  0.00000000000E+00  0.26120673963E+04  0.26120673963E+04  0.00000000000E+00 0.  1.
         -4   -1    0    0    0  501 -0.00000000000E+00 -0.00000000000E+00 -0.33927625093E+03  0.33927625093E+03  0.00000000000E+00 0. -1.
         23    2    1    2    0    0  0.80075823327E+03 -0.47811757516E+03  0.13118059088E+04  0.16122010899E+04  0.92452410635E+02 0.  0.
         13    1    3    3    0    0  0.54449926795E+03 -0.29527149765E+03  0.92931391123E+03  0.11168209596E+04  0.00000000000E+00 0.  1.
        -13    1    3    3    0    0  0.25625896532E+03 -0.18284607751E+03  0.38249199755E+03  0.49538013036E+03  0.00000000000E+00 0. -1.
         22    1    1    2    0    0 -0.80075823327E+03  0.47811757516E+03  0.96098523656E+03  0.13391425573E+04  0.00000000000E+00 0. -1.
<mgrwt>
<rscale>  0 0.18827771E+04</rscale>
<asrwt>0</asrwt>
<pdfrwt beam="1">  1        4 0.40185651E+00 0.18827771E+04</pdfrwt>
<pdfrwt beam="2">  1       -4 0.52196348E-01 0.18827771E+04</pdfrwt>
<totfact> 0.44098167E-02</totfact>
</mgrwt>
</event>
<event>
 6    1  0.6091287E-004  0.3158820E+04  0.7818608E-02  0.8199778E-01
         -2   -1    0    0    0  501 -0.00000000000E+00  0.00000000000E+00  0.18705772912E+04  0.18705772912E+04  0.00000000000E+00 0. -1.
          2   -1    0    0  501    0  0.00000000000E+00 -0.00000000000E+00 -0.13335644811E+04  0.13335644811E+04  0.00000000000E+00 0.  1.
         23    2    1    2    0    0  0.73000084597E+03 -0.28879235150E+03  0.16573881481E+04  0.18360982220E+04  0.89548588372E+02 0.  0.
         13    1    3    3    0    0  0.28402483790E+03 -0.89358081442E+02  0.54170152367E+03  0.61813875142E+03  0.00000000000E+00 0.  1.
        -13    1    3    3    0    0  0.44597600808E+03 -0.19943427005E+03  0.11156866245E+04  0.12179594705E+04  0.00000000000E+00 0. -1.
         22    1    1    2    0    0 -0.73000084597E+03  0.28879235150E+03 -0.11203753380E+04  0.13680435503E+04  0.00000000000E+00 0.  1.
<mgrwt>
<rscale>  0 0.31588197E+04</rscale>
<asrwt>0</asrwt>
<pdfrwt beam="1">  1        2 0.20516377E+00 0.31588197E+04</pdfrwt>
<pdfrwt beam="2">  1       -2 0.28778112E+00 0.31588197E+04</pdfrwt>
<totfact> 0.50406058E-01</totfact>
</mgrwt>
</event>
<event>
 6    1  0.6091287E-004  0.1437726E+04  0.7818608E-02  0.8926954E-01
          2   -1    0    0  501    0  0.00000000000E+00  0.00000000000E+00  0.25074195033E+04  0.25074195033E+04  0.00000000000E+00 0.  1.
         -2   -1    0    0    0  501 -0.00000000000E+00 -0.00000000000E+00 -0.20609402689E+03  0.20609402689E+03  0.00000000000E+00 0. -1.
         23    2    1    2    0    0  0.37504911037E+03 -0.19388198771E+03  0.22467188520E+04  0.22877977286E+04  0.89558843960E+02 0.  0.
         11    1    3    3    0    0  0.23382889475E+03 -0.73580077620E+02  0.12032188239E+04  0.12279354698E+04  0.00000000000E+00 0. -1.
        -11    1    3    3    0    0  0.14122021562E+03 -0.12030191009E+03  0.10435000281E+04  0.10598622587E+04  0.00000000000E+00 0.  1.
         22    1    1    2    0    0 -0.37504911037E+03  0.19388198771E+03  0.54606624445E+02  0.42571580166E+03  0.00000000000E+00 0. -1.
<mgrwt>
<rscale>  0 0.14377262E+04</rscale>
<asrwt>0</asrwt>
<pdfrwt beam="1">  1        2 0.38575683E+00 0.14377262E+04</pdfrwt>
<pdfrwt beam="2">  1       -2 0.31706775E-01 0.14377262E+04</pdfrwt>
<totfact> 0.31028724E+01</totfact>
</mgrwt>
</event>
<event>
 6    1  0.6091287E-004  0.4231196E+04  0.7818608E-02  0.7959464E-01
         -2   -1    0    0    0  501 -0.00000000000E+00  0.00000000000E+00  0.16799119054E+04  0.16799119054E+04  0.00000000000E+00 0. -1.
          2   -1    0    0  501    0  0.00000000000E+00 -0.00000000000E+00 -0.26642800587E+04  0.26642800587E+04  0.00000000000E+00 0.  1.
         23    2    1    2    0    0  0.22906076260E+03  0.16988933452E+04  0.77870982369E+03  0.18850963205E+04  0.92150512487E+02 0.  0.
         11    1    3    3    0    0  0.16381919365E+03  0.12038194908E+04  0.59736954998E+03  0.13538347292E+04  0.00000000000E+00 0. -1.
        -11    1    3    3    0    0  0.65241568952E+02  0.49507385436E+03  0.18134027371E+03  0.53126159136E+03  0.00000000000E+00 0.  1.
         22    1    1    2    0    0 -0.22906076260E+03 -0.16988933452E+04 -0.17630779770E+04  0.24590956436E+04  0.00000000000E+00 0.  1.
<mgrwt>
<rscale>  0 0.42311964E+04</rscale>
<asrwt>0</asrwt>
<pdfrwt beam="1">  1        2 0.40988924E+00 0.42311964E+04</pdfrwt>
<pdfrwt beam="2">  1       -2 0.25844799E+00 0.42311964E+04</pdfrwt>
<totfact> 0.12312464E-01</totfact>
</mgrwt>
</event>
