<event>
 6    1  0.1878398E-004  0.1056296E+04  0.7818608E-02  0.9248868E-01
          2   -1    0    0  501    0  0.00000000000E+00  0.00000000000E+00  0.22219453654E+04  0.22219453654E+04  0.00000000000E+00 0.  1.
         -2   -1    0    0    0  501 -0.00000000000E+00 -0.00000000000E+00 -0.12553881153E+03  0.12553881153E+03  0.00000000000E+00 0. -1.
         23    2    1    2    0    0 -0.72818397180E+02 -0.48699137813E+03  0.14583801495E+04  0.15415432275E+04  0.83783890690E+02 0.  0.
         13    1    3    3    0    0 -0.22644430323E+02 -0.37355310051E+03  0.11398797258E+04  0.11997418383E+04  0.00000000000E+00 0.  1.
        -13    1    3    3    0    0 -0.50173966857E+02 -0.11343827762E+03  0.31850042370E+03  0.34180138922E+03  0.00000000000E+00 0. -1.
         22    1    1    2    0    0  0.72818397180E+02  0.48699137813E+03  0.63802640433E+03  0.80594094942E+03  0.00000000000E+00 0. -1.
<mgrwt>
<rscale>  0 0.10562961E+04</rscale>
<asrwt>0</asrwt>
<pdfrwt beam="1">  1        2 0.34183772E+00 0.10562961E+04</pdfrwt>
<pdfrwt beam="2">  1       -2 0.19313665E-01 0.10562961E+04</pdfrwt>
<totfact> 0.11416103E+02</totfact>
</mgrwt>
</event>
<event>
 6    1  0.1878398E-004  0.1024433E+04  0.7818608E-02  0.9282145E-01
          1   -1    0    0  501    0  0.00000000000E+00  0.00000000000E+00  0.17620550621E+04  0.17620550621E+04  0.00000000000E+00 0. -1.
         -1   -1    0    0    0  501 -0.00000000000E+00 -0.00000000000E+00 -0.14889766889E+03  0.14889766889E+03  0.00000000000E+00 0.  1.
         23    2    1    2    0    0 -0.29253514347E+03 -0.40298732602E+03  0.62480741311E+03  0.80424080899E+03  0.91887867978E+02 0.  0.
         13    1    3    3    0    0 -0.16971119316E+02 -0.62680124288E+02  0.51758476411E+02  0.83040693349E+02  0.00000000000E+00 0. -1.
        -13    1    3    3    0    0 -0.27556402416E+03 -0.34030720173E+03  0.57304893669E+03  0.72120011564E+03  0.00000000000E+00 0.  1.
         22    1    1    2    0    0  0.29253514347E+03  0.40298732602E+03  0.98834998010E+03  0.11067119220E+04  0.00000000000E+00 0. -1.
<mgrwt>
<rscale>  0 0.10244333E+04</rscale>
<asrwt>0</asrwt>
<pdfrwt beam="1">  1        1 0.27108538E+00 0.10244333E+04</pdfrwt>
<pdfrwt beam="2">  1       -1 0.22907335E-01 0.10244333E+04</pdfrwt>
<totfact> 0.70528690E+01</totfact>
</mgrwt>
</event>
<event>
 6    1  0.1878398E-004  0.3960497E+04  0.7818608E-02  0.8012563E-01
          1   -1    0    0  501    0  0.00000000000E+00  0.00000000000E+00  0.27616123387E+04  0.27616123387E+04  0.00000000000E+00 0.  1.
         -1   -1    0    0    0  501 -0.00000000000E+00 -0.00000000000E+00 -0.14199620719E+04  0.14199620719E+04  0.00000000000E+00 0. -1.
         23    2    1    2    0    0 -0.14630239037E+04 -0.21072650816E+02 -0.73621879568E+03  0.16402316867E+04  0.86364759471E+02 0.  0.
         11    1    3    3    0    0 -0.12311678538E+04 -0.48860029094E+02 -0.61302695279E+03  0.13762135123E+04  0.00000000000E+00 0.  1.
        -11    1    3    3    0    0 -0.23185604994E+03  0.27787378278E+02 -0.12319184288E+03  0.26401817444E+03  0.00000000000E+00 0. -1.
         22    1    1    2    0    0  0.14630239037E+04  0.21072650816E+02  0.20778690624E+04  0.25413427238E+04  0.00000000000E+00 0.  1.
<mgrwt>
<rscale>  0 0.39604973E+04</rscale>
<asrwt>0</asrwt>
<pdfrwt beam="1">  1        1 0.42486344E+00 0.39604973E+04</pdfrwt>
<pdfrwt beam="2">  1       -1 0.21845570E+00 0.39604973E+04</pdfrwt>
<totfact> 0.78526607E-02</totfact>
</mgrwt>
</event>
<event>
 6    1  0.1878398E-004  0.1985849E+04  0.7818608E-02  0.8613265E-01
         -2   -1    0    0    0  501 -0.00000000000E+00  0.00000000000E+00  0.97451118868E+03  0.97451118868E+03  0.00000000000E+00 0. -1.
          2   -1    0    0  501    0  0.00000000000E+00 -0.00000000000E+00 -0.10116858945E+04  0.10116858945E+04  0.00000000000E+00 0.  1.
         23    2    1    2    0    0  0.13548060844E+03 -0.27377540026E+03 -0.96165908371E+03  0.10125547823E+04  0.84681927719E+02 0.  0.
         13    1    3    3    0    0  0.85585459067E+02 -0.16307208058E+03 -0.44074482586E+03  0.47767496877E+03  0.00000000000E+00 0. -1.
        -13    1    3    3    0    0  0.49895149377E+02 -0.11070331968E+03 -0.52091425785E+03  0.53487981356E+03  0.00000000000E+00 0.  1.
         22    1    1    2    0    0 -0.13548060844E+03  0.27377540026E+03  0.92448437788E+03  0.97364230085E+03  0.00000000000E+00 0. -1.
<mgrwt>
<rscale>  0 0.19858492E+04</rscale>
<asrwt>0</asrwt>
<pdfrwt beam="1">  1        2 0.15564398E+00 0.19858492E+04</pdfrwt>
<pdfrwt beam="2">  1       -2 0.14992480E+00 0.19858492E+04</pdfrwt>
<totfact> 0.69079009E+00</totfact>
</mgrwt>
</event>
<event>
 6    1  0.1878398E-004  0.3203806E+04  0.7818608E-02  0.8187813E-01
         -2   -1    0    0    0  501 -0.00000000000E+00  0.00000000000E+00  0.41537947113E+04  0.41537947113E+04  0.00000000000E+00 0. -1.
          2   -1    0    0  501    0  0.00000000000E+00 -0.00000000000E+00 -0.61777068009E+03  0.61777068009E+03  0.00000000000E+00 0.  1.
         23    2    1    2    0    0  0.10322811760E+04 -0.68506492983E+03  0.32787675836E+04  0.35062198796E+04  0.91337793201E+02 0.  0.
         11    1    3    3    0    0  0.62127067989E+03 -0.37042547941E+03  0.18301774894E+04  0.19679283361E+04  0.00000000000E+00 0.  1.
        -11    1    3    3    0    0  0.41101049610E+03 -0.31463945042E+03  0.14485900942E+04  0.15382915435E+04  0.00000000000E+00 0. -1.
         22    1    1    2    0    0 -0.10322811760E+04  0.68506492983E+03  0.25725644760E+03  0.12653455118E+04  0.00000000000E+00 0.  1.
<mgrwt>
<rscale>  0 0.32038056E+04</rscale>
<asrwt>0</asrwt>
<pdfrwt beam="1">  1        2 0.95041646E-01 0.32038056E+04</pdfrwt>
<pdfrwt beam="2">  1       -2 0.63904532E+00 0.32038056E+04</pdfrwt>
<totfact> 0.14588580E-02</totfact>
</mgrwt>
</event>
<event>
 6    1  0.1878398E-004  0.3182923E+04  0.7818608E-02  0.8193342E-01
          2   -1    0    0  501    0  0.00000000000E+00  0.00000000000E+00  0.15000370465E+04  0.15000370465E+04  0.00000000000E+00 0.  1.
         -2   -1    0    0    0  501 -0.00000000000E+00 -0.00000000000E+00 -0.16884586174E+04  0.16884586174E+04  0.00000000000E+00 0. -1.
         23    2    1    2    0    0 -0.13465004613E+04  0.49770155483E+03  0.59103441071E+03  0.15549957535E+04  0.88993195236E+02 0.  0.
         11    1    3    3    0    0 -0.82011144429E+03  0.30013716938E+03  0.31243765244E+03  0.92751409055E+03  0.00000000000E+00 0. -1.
        -11    1    3    3    0    0 -0.52638901704E+03  0.19756438544E+03  0.27859675826E+03  0.62748166298E+03  0.00000000000E+00 0.  1.
         22    1    1    2    0    0  0.13465004613E+04 -0.49770155483E+03 -0.77945598160E+03  0.16334999104E+04  0.00000000000E+00 0. -1.
<mgrwt>
<rscale>  0 0.31829235E+04</rscale>
<asrwt>0</asrwt>
<pdfrwt beam="1">  1        2 0.23077493E+00 0.31829235E+04</pdfrwt>
<pdfrwt beam="2">  1       -2 0.25976286E+00 0.31829235E+04</pdfrwt>
<totfact> 0.59918230E-01</totfact>
</mgrwt>
</event>
<event>
 6    1  0.1878398E-004  0.8035836E+04  0.7818608E-02  0.7479123E-01
         -1   -1    0    0    0  501 -0.00000000000E+00  0.00000000000E+00  0.38459397141E+04  0.38459397141E+04  0.00000000000E+00 0. -1.
          1   -1    0    0  501    0  0.00000000000E+00 -0.00000000000E+00 -0.41975867147E+04  0.41975867147E+04  0.00000000000E+00 0.  1.
         23    2    1    2    0    0  0.37141551613E+04  0.13652564611E+04 -0.86972757438E+03  0.40526266245E+04  0.92101778958E+02 0.  0.
         13    1    3    3    0    0  0.21092293578E+04  0.77663462291E+03 -0.54067148535E+03  0.23117818834E+04  0.00000000000E+00 0.  1.
        -13    1    3    3    0    0  0.16049258034E+04  0.58862183817E+03 -0.32905608903E+03  0.17408447411E+04  0.00000000000E+00 0. -1.
         22    1    1    2    0    0 -0.37141551613E+04 -0.13652564611E+04  0.51808057376E+03  0.39908998042E+04  0.00000000000E+00 0.  1.
<mgrwt>
<rscale>  0 0.80358361E+04</rscale>
<asrwt>0</asrwt>
<pdfrwt beam="1">  1        1 0.64578257E+00 0.80358361E+04</pdfrwt>
<pdfrwt beam="2">  1       -1 0.59168304E+00 0.80358361E+04</pdfrwt>
<totfact> 0.17939438E-05</totfact>
</mgrwt>
</event>
<event>
 6    1  0.1878398E-004  0.1600284E+04  0.7818608E-02  0.8820374E-01
         -2   -1    0    0    0  501 -0.00000000000E+00  0.00000000000E+00  0.37891527248E+03  0.37891527248E+03  0.00000000000E+00 0. -1.
          2   -1    0    0  501    0  0.00000000000E+00 -0.00000000000E+00 -0.16896317385E+04  0.16896317385E+04  0.00000000000E+00 0.  1.
         23    2    1    2    0    0  0.48593997580E+03  0.62713279851E+03 -0.55380980592E+03  0.97203394713E+03  0.93335342688E+02 0.  0.
         13    1    3    3    0    0  0.31360796946E+03  0.47334731649E+03 -0.39894695511E+03  0.69394979179E+03  0.00000000000E+00 0.  1.
        -13    1    3    3    0    0  0.17233200634E+03  0.15378548202E+03 -0.15486285081E+03  0.27808415534E+03  0.00000000000E+00 0. -1.
         22    1    1    2    0    0 -0.48593997580E+03 -0.62713279851E+03 -0.75690666007E+03  0.10965130638E+04  0.00000000000E+00 0.  1.
<mgrwt>
<rscale>  0 0.16002841E+04</rscale>
<asrwt>0</asrwt>
<pdfrwt beam="1">  1        2 0.25994334E+00 0.16002841E+04</pdfrwt>
<pdfrwt beam="2">  1       -2 0.58294658E-01 0.16002841E+04</pdfrwt>
<totfact> 0.26227498E+01</totfact>
</mgrwt>
</event>
<event>
 6    1  0.1878398E-004  0.1914025E+04  0.7818608E-02  0.8647907E-01
         -2   -1    0    0    0  501 -0.00000000000E+00  0.00000000000E+00  0.52719947569E+03  0.52719947569E+03  0.00000000000E+00 0. -1.
          2   -1    0    0  501    0  0.00000000000E+00 -0.00000000000E+00 -0.17372415413E+04  0.17372415413E+04  0.00000000000E+00 0.  1.
         23    2    1    2    0    0  0.58723776903E+03 -0.39646986167E+03  0.15070419412E+03  0.73027449018E+03  0.92479880475E+02 0.  0.
         13    1    3    3    0    0  0.43955796804E+03 -0.33958778464E+03  0.13193364835E+03  0.57090941341E+03  0.00000000000E+00 0. -1.
        -13    1    3    3    0    0  0.14767980099E+03 -0.56882077030E+02  0.18770545771E+02  0.15936507677E+03  0.00000000000E+00 0.  1.
         22    1    1    2    0    0 -0.58723776903E+03  0.39646986167E+03 -0.13607462597E+04  0.15341665268E+04  0.00000000000E+00 0.  1.
<mgrwt>
<rscale>  0 0.19140249E+04</rscale>
<asrwt>0</asrwt>
<pdfrwt beam="1">  1        2 0.26726793E+00 0.19140249E+04</pdfrwt>
<pdfrwt beam="2">  1       -2 0.81107612E-01 0.19140249E+04</pdfrwt>
<totfact> 0.11721237E+01</totfact>
</mgrwt>
</event>
<event>
 6    1  0.1878398E-004  0.1884638E+04  0.7818608E-02  0.8662541E-01
         -2   -1    0    0    0  501 -0.00000000000E+00  0.00000000000E+00  0.11340815463E+04  0.11340815463E+04  0.00000000000E+00 0. -1.
          2   -1    0    0  501    0  0.00000000000E+00 -0.00000000000E+00 -0.78298157968E+03  0.78298157968E+03  0.00000000000E+00 0.  1.
         23    2    1    2    0    0 -0.23587055190E+03  0.85286775489E+03  0.49875263282E+03  0.10199457232E+04  0.92286320684E+02 0.  0.
         13    1    3    3    0    0 -0.26584925117E+02  0.40467413878E+02  0.11425203840E+02  0.49748418189E+02  0.00000000000E+00 0. -1.
        -13    1    3    3    0    0 -0.20928562678E+03  0.81240034101E+03  0.48732742898E+03  0.97019730503E+03  0.00000000000E+00 0.  1.
         22    1    1    2    0    0  0.23587055190E+03 -0.85286775489E+03 -0.14765266616E+03  0.89711740280E+03  0.00000000000E+00 0.  1.
<mgrwt>
<rscale>  0 0.18846379E+04</rscale>
<asrwt>0</asrwt>
<pdfrwt beam="1">  1        2 0.12045870E+00 0.18846379E+04</pdfrwt>
<pdfrwt beam="2">  1       -2 0.17447408E+00 0.18846379E+04</pdfrwt>
<totfact> 0.65824114E+00</totfact>
</mgrwt>
</event>
<event>
 6    1  0.1878398E-004  0.1163369E+04  0.7818608E-02  0.9145538E-01
         -1   -1    0    0    0  501 -0.00000000000E+00  0.00000000000E+00  0.29739147358E+03  0.29739147358E+03  0.00000000000E+00 0. -1.
          1   -1    0    0  501    0  0.00000000000E+00 -0.00000000000E+00 -0.11377486330E+04  0.11377486330E+04  0.00000000000E+00 0.  1.
         23    2    1    2    0    0  0.49415632973E+03  0.51471977617E+02 -0.78746903181E+03  0.93550324173E+03  0.90658681565E+02 0.  0.
         11    1    3    3    0    0  0.10144099563E+03  0.31258618485E+02 -0.22982351588E+03  0.25315257312E+03  0.00000000000E+00 0. -1.
        -11    1    3    3    0    0  0.39271533410E+03  0.20213359131E+02 -0.55764551593E+03  0.68235066862E+03  0.00000000000E+00 0.  1.
         22    1    1    2    0    0 -0.49415632973E+03 -0.51471977617E+02 -0.52888127625E+02  0.49963686487E+03  0.00000000000E+00 0. -1.
<mgrwt>
<rscale>  0 0.11633688E+04</rscale>
<asrwt>0</asrwt>
<pdfrwt beam="1">  1        1 0.17503826E+00 0.11633688E+04</pdfrwt>
<pdfrwt beam="2">  1       -1 0.45752533E-01 0.11633688E+04</pdfrwt>
<totfact> 0.55935466E+01</totfact>
</mgrwt>
</event>
<event>
 6    1  0.1878398E-004  0.6655317E+03  0.7818608E-02  0.9778064E-01
          3   -1    0    0  501    0  0.00000000000E+00  0.00000000000E+00  0.86208900520E+02  0.86208900520E+02  0.00000000000E+00 0. -1.
         -3   -1    0    0    0  501 -0.00000000000E+00 -0.00000000000E+00 -0.12844742832E+04  0.12844742832E+04  0.00000000000E+00 0.  1.
         23    2    1    2    0    0  0.20606392155E+03 -0.17321505538E+03 -0.99493499918E+03  0.10333272292E+04  0.73509964853E+02 0.  0.
         13    1    3    3    0    0  0.12698213410E+03 -0.59551867478E+02 -0.47550321362E+03  0.49575618349E+03  0.00000000000E+00 0.  1.
        -13    1    3    3    0    0  0.79081787453E+02 -0.11366318790E+03 -0.51943178555E+03  0.53757104575E+03  0.00000000000E+00 0. -1.
         22    1    1    2    0    0 -0.20606392155E+03  0.17321505538E+03 -0.20333038355E+03  0.33735595452E+03  0.00000000000E+00 0. -1.
<mgrwt>
<rscale>  0 0.66553171E+03</rscale>
<asrwt>0</asrwt>
<pdfrwt beam="1">  1        3 0.13262909E-01 0.66553171E+03</pdfrwt>
<pdfrwt beam="2">  1       -3 0.19761142E+00 0.66553171E+03</pdfrwt>
<totfact> 0.19145363E+01</totfact>
</mgrwt>
</event>
<event>
 6    1  0.2002846E-004  0.4524839E+04  0.7818608E-02  0.7906303E-01
         -1   -1    0    0    0  501 -0.00000000000E+00  0.00000000000E+00  0.18866934863E+04  0.18866934863E+04  0.00000000000E+00 0. -1.
          1   -1    0    0  501    0  0.00000000000E+00 -0.00000000000E+00 -0.27129692677E+04  0.27129692677E+04  0.00000000000E+00 0.  1.
         23    2    1    2    0    0 -0.31045320695E+02  0.11484786388E+04  0.15668053682E+04  0.19450809820E+04  0.92162730941E+02 0.  0.
         11    1    3    3    0    0 -0.27260037215E+02  0.83942293523E+03  0.12116285286E+04  0.14742515610E+04  0.00000000000E+00 0.  1.
        -11    1    3    3    0    0 -0.37852834804E+01  0.30905570356E+03  0.35517683965E+03  0.47082942102E+03  0.00000000000E+00 0. -1.
         22    1    1    2    0    0  0.31045320695E+02 -0.11484786388E+04 -0.23930811496E+04  0.26545817720E+04  0.00000000000E+00 0.  1.
<mgrwt>
<rscale>  0 0.45248388E+04</rscale>
<asrwt>0</asrwt>
<pdfrwt beam="1">  1        1 0.41737989E+00 0.45248388E+04</pdfrwt>
<pdfrwt beam="2">  1       -1 0.29026053E+00 0.45248388E+04</pdfrwt>
<totfact> 0.27520959E-02</totfact>
</mgrwt>
</event>
<event>
 6    1  0.1878398E-004  0.4812172E+03  0.7818608E-02  0.1018801E+00
          2   -1    0    0  501    0  0.00000000000E+00  0.00000000000E+00  0.39592178037E+03  0.39592178037E+03  0.00000000000E+00 0.  1.
         -2   -1    0    0    0  501 -0.00000000000E+00 -0.00000000000E+00 -0.14622205311E+03  0.14622205311E+03  0.00000000000E+00 0. -1.
         23    2    1    2    0    0  0.92103275285E+01 -0.23141836000E+03  0.14712339406E+03  0.28884323811E+03  0.90254283227E+02 0.  0.
         13    1    3    3    0    0  0.40318465347E+02 -0.74485949429E+02  0.75859734023E+02  0.11370327417E+03  0.00000000000E+00 0. -1.
        -13    1    3    3    0    0 -0.31108137818E+02 -0.15693241057E+03  0.71263660038E+02  0.17513996394E+03  0.00000000000E+00 0.  1.
         22    1    1    2    0    0 -0.92103275285E+01  0.23141836000E+03  0.10257633320E+03  0.25330059537E+03  0.00000000000E+00 0.  1.
<mgrwt>
<rscale>  0 0.48121719E+03</rscale>
<asrwt>0</asrwt>
<pdfrwt beam="1">  1        2 0.60911043E-01 0.48121719E+03</pdfrwt>
<pdfrwt beam="2">  1       -2 0.22495701E-01 0.48121719E+03</pdfrwt>
<totfact> 0.13914857E+03</totfact>
</mgrwt>
</event>
<event>
 6    1  0.1878398E-004  0.1501950E+04  0.7818608E-02  0.8883157E-01
         -1   -1    0    0    0  501 -0.00000000000E+00  0.00000000000E+00  0.51463569064E+03  0.51463569064E+03  0.00000000000E+00 0. -1.
          1   -1    0    0  501    0  0.00000000000E+00 -0.00000000000E+00 -0.10958496116E+04  0.10958496116E+04  0.00000000000E+00 0.  1.
         23    2    1    2    0    0  0.23124406445E+03  0.30509819622E+03  0.39781709880E+03  0.55926674060E+03  0.89230691829E+02 0.  0.
         11    1    3    3    0    0  0.15191055820E+03  0.12695978393E+03  0.20694309027E+03  0.28639316863E+03  0.00000000000E+00 0. -1.
        -11    1    3    3    0    0  0.79333506253E+02  0.17813841229E+03  0.19087400853E+03  0.27287357197E+03  0.00000000000E+00 0.  1.
         22    1    1    2    0    0 -0.23124406445E+03 -0.30509819622E+03 -0.97903101979E+03  0.10512185617E+04  0.00000000000E+00 0.  1.
<mgrwt>
<rscale>  0 0.15019498E+04</rscale>
<asrwt>0</asrwt>
<pdfrwt beam="1">  1        1 0.16859224E+00 0.15019498E+04</pdfrwt>
<pdfrwt beam="2">  1       -1 0.79174723E-01 0.15019498E+04</pdfrwt>
<totfact> 0.19700628E+01</totfact>
</mgrwt>
</event>
<event>
 6    1  0.1878398E-004  0.1685796E+04  0.7818608E-02  0.8769507E-01
          1   -1    0    0  501    0  0.00000000000E+00  0.00000000000E+00  0.18707666628E+04  0.18707666628E+04  0.00000000000E+00 0.  1.
         -1   -1    0    0    0  501 -0.00000000000E+00 -0.00000000000E+00 -0.37977856642E+03  0.37977856642E+03  0.00000000000E+00 0. -1.
         23    2    1    2    0    0  0.65109876006E+03  0.56894079555E+02  0.14535744856E+04  0.15958954680E+04  0.82686322065E+02 0.  0.
         13    1    3    3    0    0  0.30900151340E+03 -0.14379712390E+02  0.68702626489E+03  0.75345457730E+03  0.00000000000E+00 0. -1.
        -13    1    3    3    0    0  0.34209724665E+03  0.71273791945E+02  0.76654822076E+03  0.84244089071E+03  0.00000000000E+00 0.  1.
         22    1    1    2    0    0 -0.65109876006E+03 -0.56894079555E+02  0.37413610778E+02  0.65464976125E+03  0.00000000000E+00 0. -1.
<mgrwt>
<rscale>  0 0.16857961E+04</rscale>
<asrwt>0</asrwt>
<pdfrwt beam="1">  1        1 0.28781025E+00 0.16857961E+04</pdfrwt>
<pdfrwt beam="2">  1       -1 0.58427473E-01 0.16857961E+04</pdfrwt>
<totfact> 0.10315197E+01</totfact>
</mgrwt>
</event>
<event>
 6    1  0.1878398E-004  0.7847145E+03  0.7818608E-02  0.9582410E-01
          2   -1    0    0  501    0  0.00000000000E+00  0.00000000000E+00  0.43672180757E+03  0.43672180757E+03  0.00000000000E+00 0.  1.
         -2   -1    0    0    0  501 -0.00000000000E+00 -0.00000000000E+00 -0.35249944713E+03  0.35249944713E+03  0.00000000000E+00 0. -1.
         23    2    1    2    0    0  0.18099775214E+03  0.25817525261E+01  0.38647288585E+03  0.43691140267E+03  0.93613196513E+02 0.  0.
         13    1    3    3    0    0  0.87274315648E+02  0.11902597357E+00  0.87506731198E+02  0.12358903003E+03  0.00000000000E+00 0. -1.
        -13    1    3    3    0    0  0.93723436494E+02  0.24627265525E+01  0.29896615465E+03  0.31332237264E+03  0.00000000000E+00 0.  1.
         22    1    1    2    0    0 -0.18099775214E+03 -0.25817525261E+01 -0.30225052541E+03  0.35230985203E+03  0.00000000000E+00 0. -1.
<mgrwt>
<rscale>  0 0.78471446E+03</rscale>
<asrwt>0</asrwt>
<pdfrwt beam="1">  1        2 0.67187971E-01 0.78471446E+03</pdfrwt>
<pdfrwt beam="2">  1       -2 0.54230684E-01 0.78471446E+03</pdfrwt>
<totfact> 0.23220892E+02</totfact>
</mgrwt>
</event>
<event>
 6    1  0.1878398E-004  0.3087986E+04  0.7818608E-02  0.8219043E-01
          2   -1    0    0  501    0  0.00000000000E+00  0.00000000000E+00  0.23729220240E+04  0.23729220240E+04  0.00000000000E+00 0.  1.
         -2   -1    0    0    0  501 -0.00000000000E+00 -0.00000000000E+00 -0.10046321409E+04  0.10046321409E+04  0.00000000000E+00 0. -1.
         23    2    1    2    0    0 -0.82008292110E+02 -0.14142791912E+04  0.16839213538E+02  0.14196650203E+04  0.90852739194E+02 0.  0.
         13    1    3    3    0    0 -0.33237133838E+02 -0.41994429702E+03  0.45607306514E+02  0.42371918304E+03  0.00000000000E+00 0. -1.
        -13    1    3    3    0    0 -0.48771158272E+02 -0.99433489414E+03 -0.28768092976E+02  0.99594583726E+03  0.00000000000E+00 0.  1.
         22    1    1    2    0    0  0.82008292110E+02  0.14142791912E+04  0.13514506695E+04  0.19578891446E+04  0.00000000000E+00 0.  1.
<mgrwt>
<rscale>  0 0.30879856E+04</rscale>
<asrwt>0</asrwt>
<pdfrwt beam="1">  1        2 0.36506493E+00 0.30879856E+04</pdfrwt>
<pdfrwt beam="2">  1       -2 0.15455879E+00 0.30879856E+04</pdfrwt>
<totfact> 0.96848533E-01</totfact>
</mgrwt>
</event>
<event>
 6    1  0.1878398E-004  0.3961070E+04  0.7818608E-02  0.8012446E-01
         -1   -1    0    0    0  501 -0.00000000000E+00  0.00000000000E+00  0.77701584640E+03  0.77701584640E+03  0.00000000000E+00 0. -1.
          1   -1    0    0  501    0  0.00000000000E+00 -0.00000000000E+00 -0.50481846458E+04  0.50481846458E+04  0.00000000000E+00 0.  1.
         23    2    1    2    0    0 -0.33965721440E+03 -0.22885328591E+03 -0.49847800207E+04  0.50024114397E+04  0.91364697345E+02 0.  0.
         13    1    3    3    0    0 -0.25402924450E+03 -0.13181068173E+03 -0.30942799996E+04  0.31074867061E+04  0.00000000000E+00 0. -1.
        -13    1    3    3    0    0 -0.85627969900E+02 -0.97042604179E+02 -0.18905000211E+04  0.18949247336E+04  0.00000000000E+00 0.  1.
         22    1    1    2    0    0  0.33965721440E+03  0.22885328591E+03  0.71361122127E+03  0.82278905248E+03  0.00000000000E+00 0. -1.
<mgrwt>
<rscale>  0 0.39610703E+04</rscale>
<asrwt>0</asrwt>
<pdfrwt beam="1">  1        1 0.77664382E+00 0.39610703E+04</pdfrwt>
<pdfrwt beam="2">  1       -1 0.11954090E+00 0.39610703E+04</pdfrwt>
<totfact> 0.36352970E-03</totfact>
</mgrwt>
</event>
<event>
 6    1  0.1878398E-004  0.4771133E+04  0.7818608E-02  0.7864816E-01
         -4   -1    0    0    0  501 -0.00000000000E+00  0.00000000000E+00  0.14222874112E+04  0.14222874112E+04  0.00000000000E+00 0. -1.
          4   -1    0    0  501    0  0.00000000000E+00 -0.00000000000E+00 -0.40012503104E+04  0.40012503104E+04  0.00000000000E+00 0.  1.
         23    2    1    2    0    0 -0.21923700400E+03  0.22133435694E+04 -0.31247100032E+03  0.22480156940E+04  0.94772435567E+02 0.  0.
         13    1    3    3    0    0 -0.22336078535E+03  0.19859207381E+04 -0.29151661256E+03  0.20195923237E+04  0.00000000000E+00 0. -1.
        -13    1    3    3    0    0  0.41237813471E+01  0.22742283131E+03 -0.20954387769E+02  0.22842337039E+03  0.00000000000E+00 0.  1.
         22    1    1    2    0    0  0.21923700400E+03 -0.22133435694E+04 -0.22664918989E+04  0.31755220276E+04  0.00000000000E+00 0.  1.
<mgrwt>
<rscale>  0 0.47711332E+04</rscale>
<asrwt>0</asrwt>
<pdfrwt beam="1">  1        4 0.61557697E+00 0.47711332E+04</pdfrwt>
<pdfrwt beam="2">  1       -4 0.21881345E+00 0.47711332E+04</pdfrwt>
<totfact> 0.17245724E-05</totfact>
</mgrwt>
</event>
<event>
 6    1  0.1878398E-004  0.4307833E+04  0.7818608E-02  0.7945171E-01
          2   -1    0    0  501    0  0.00000000000E+00  0.00000000000E+00  0.26583464561E+04  0.26583464561E+04  0.00000000000E+00 0.  1.
         -2   -1    0    0    0  501 -0.00000000000E+00 -0.00000000000E+00 -0.17452037842E+04  0.17452037842E+04  0.00000000000E+00 0. -1.
         23    2    1    2    0    0 -0.52582232251E+03  0.20470569519E+04  0.87608458634E+03  0.22897137800E+04  0.91289169720E+02 0.  0.
         11    1    3    3    0    0 -0.33699120121E+03  0.13194420830E+04  0.61151228081E+03  0.14927952805E+04  0.00000000000E+00 0. -1.
        -11    1    3    3    0    0 -0.18883112130E+03  0.72761486896E+03  0.26457230553E+03  0.79691849945E+03  0.00000000000E+00 0.  1.
         22    1    1    2    0    0  0.52582232251E+03 -0.20470569519E+04  0.37058085587E+02  0.21138364603E+04  0.00000000000E+00 0. -1.
<mgrwt>
<rscale>  0 0.43078330E+04</rscale>
<asrwt>0</asrwt>
<pdfrwt beam="1">  1        2 0.40897637E+00 0.43078330E+04</pdfrwt>
<pdfrwt beam="2">  1       -2 0.26849289E+00 0.43078330E+04</pdfrwt>
<totfact> 0.10709157E-01</totfact>
</mgrwt>
</event>
<event>
 6    1  0.1878398E-004  0.8478548E+03  0.7818608E-02  0.9493221E-01
         -2   -1    0    0    0  501 -0.00000000000E+00  0.00000000000E+00  0.10087033534E+03  0.10087033534E+03  0.00000000000E+00 0. -1.
          2   -1    0    0  501    0  0.00000000000E+00 -0.00000000000E+00 -0.17816383646E+04  0.17816383646E+04  0.00000000000E+00 0.  1.
         23    2    1    2    0    0  0.22609829026E+03 -0.30350359349E+03 -0.44941516092E+03  0.59430655954E+03  0.89394808212E+02 0.  0.
         11    1    3    3    0    0  0.63352518013E+02 -0.10097255298E+03 -0.20750439205E+03  0.23930539216E+03  0.00000000000E+00 0.  1.
        -11    1    3    3    0    0  0.16274577225E+03 -0.20253104051E+03 -0.24191076886E+03  0.35500116739E+03  0.00000000000E+00 0. -1.
         22    1    1    2    0    0 -0.22609829026E+03  0.30350359349E+03 -0.12313528683E+04  0.12882021404E+04  0.00000000000E+00 0. -1.
<mgrwt>
<rscale>  0 0.84785484E+03</rscale>
<asrwt>0</asrwt>
<pdfrwt beam="1">  1        2 0.27409821E+00 0.84785484E+03</pdfrwt>
<pdfrwt beam="2">  1       -2 0.15518513E-01 0.84785484E+03</pdfrwt>
<totfact> 0.29553020E+02</totfact>
</mgrwt>
</event>
<event>
 6    1  0.1878398E-004  0.1480133E+04  0.7818608E-02  0.8897773E-01
          2   -1    0    0  501    0  0.00000000000E+00  0.00000000000E+00  0.13959239803E+04  0.13959239803E+04  0.00000000000E+00 0.  1.
         -2   -1    0    0    0  501 -0.00000000000E+00 -0.00000000000E+00 -0.39235525561E+03  0.39235525561E+03  0.00000000000E+00 0. -1.
         23    2    1    2    0    0  0.97790073251E+01  0.46469277879E+03 -0.18772138727E+03  0.50952705565E+03  0.91342725807E+02 0.  0.
         13    1    3    3    0    0  0.25331160675E+02  0.28824209585E+03 -0.15874448220E+03  0.33003785260E+03  0.00000000000E+00 0. -1.
        -13    1    3    3    0    0 -0.15552153350E+02  0.17645068294E+03 -0.28976905070E+02  0.17948920305E+03  0.00000000000E+00 0.  1.
         22    1    1    2    0    0 -0.97790073251E+01 -0.46469277879E+03  0.11912901119E+04  0.12787521802E+04  0.00000000000E+00 0.  1.
<mgrwt>
<rscale>  0 0.14801326E+04</rscale>
<asrwt>0</asrwt>
<pdfrwt beam="1">  1        2 0.21475753E+00 0.14801326E+04</pdfrwt>
<pdfrwt beam="2">  1       -2 0.60362348E-01 0.14801326E+04</pdfrwt>
<totfact> 0.35994595E+01</totfact>
</mgrwt>
</event>
<event>
 6    1  0.1878398E-004  0.2483132E+04  0.7818608E-02  0.8409020E-01
          1   -1    0    0  501    0  0.00000000000E+00  0.00000000000E+00  0.19928144040E+04  0.19928144040E+04  0.00000000000E+00 0.  1.
         -1   -1    0    0    0  501 -0.00000000000E+00 -0.00000000000E+00 -0.77352188895E+03  0.77352188895E+03  0.00000000000E+00 0. -1.
         23    2    1    2    0    0  0.47938215733E+03 -0.43744193614E+03 -0.56644318920E+03  0.86633242303E+03  0.92256600505E+02 0.  0.
         11    1    3    3    0    0  0.44863898630E+03 -0.38058831867E+03 -0.48571228355E+03  0.76291600503E+03  0.00000000000E+00 0. -1.
        -11    1    3    3    0    0  0.30743171028E+02 -0.56853617471E+02 -0.80730905659E+02  0.10341641800E+03  0.00000000000E+00 0.  1.
         22    1    1    2    0    0 -0.47938215733E+03  0.43744193614E+03  0.17857357042E+04  0.19000038699E+04  0.00000000000E+00 0.  1.
<mgrwt>
<rscale>  0 0.24831315E+04</rscale>
<asrwt>0</asrwt>
<pdfrwt beam="1">  1        1 0.30658683E+00 0.24831315E+04</pdfrwt>
<pdfrwt beam="2">  1       -1 0.11900337E+00 0.24831315E+04</pdfrwt>
<totfact> 0.16939011E+00</totfact>
</mgrwt>
</event>
<event>
 6    1  0.1878398E-004  0.2659830E+04  0.7818608E-02  0.8348158E-01
          2   -1    0    0  501    0  0.00000000000E+00  0.00000000000E+00  0.29289790190E+04  0.29289790190E+04  0.00000000000E+00 0.  1.
         -2   -1    0    0    0  501 -0.00000000000E+00 -0.00000000000E+00 -0.60385323627E+03  0.60385323627E+03  0.00000000000E+00 0. -1.
         23    2    1    2    0    0  0.27648559114E+03  0.50262375917E+03  0.27553528309E+04  0.28157756059E+04  0.86879885666E+02 0.  0.
         13    1    3    3    0    0  0.11559754459E+03  0.24064294856E+03  0.14803724117E+04  0.15042520727E+04  0.00000000000E+00 0. -1.
        -13    1    3    3    0    0  0.16088804656E+03  0.26198081061E+03  0.12749804192E+04  0.13115235332E+04  0.00000000000E+00 0.  1.
         22    1    1    2    0    0 -0.27648559114E+03 -0.50262375917E+03 -0.43022704819E+03  0.71705664936E+03  0.00000000000E+00 0. -1.
<mgrwt>
<rscale>  0 0.26598297E+04</rscale>
<asrwt>0</asrwt>
<pdfrwt beam="1">  1        2 0.45061215E+00 0.26598297E+04</pdfrwt>
<pdfrwt beam="2">  1       -2 0.92900500E-01 0.26598297E+04</pdfrwt>
<totfact> 0.16658437E+00</totfact>
</mgrwt>
</event>
<event>
 6    1  0.1878398E-004  0.1810836E+04  0.7818608E-02  0.8700558E-01
         -2   -1    0    0    0  501 -0.00000000000E+00  0.00000000000E+00  0.57956243754E+03  0.57956243754E+03  0.00000000000E+00 0. -1.
          2   -1    0    0  501    0  0.00000000000E+00 -0.00000000000E+00 -0.14144840395E+04  0.14144840395E+04  0.00000000000E+00 0.  1.
         23    2    1    2    0    0 -0.61268879558E+03  0.58651822892E+03 -0.77491377208E+02  0.85690456043E+03  0.94283185456E+02 0.  0.
         11    1    3    3    0    0 -0.43608710024E+03  0.42223802310E+03 -0.97878286977E+02  0.61484718931E+03  0.00000000000E+00 0.  1.
        -11    1    3    3    0    0 -0.17660169535E+03  0.16428020582E+03  0.20386909769E+02  0.24205737112E+03  0.00000000000E+00 0. -1.
         22    1    1    2    0    0  0.61268879558E+03 -0.58651822892E+03 -0.75743022471E+03  0.11371419166E+04  0.00000000000E+00 0.  1.
<mgrwt>
<rscale>  0 0.18108361E+04</rscale>
<asrwt>0</asrwt>
<pdfrwt beam="1">  1        2 0.21761292E+00 0.18108361E+04</pdfrwt>
<pdfrwt beam="2">  1       -2 0.89163454E-01 0.18108361E+04</pdfrwt>
<totfact> 0.14461447E+01</totfact>
</mgrwt>
</event>
<event>
 6    1  0.1878398E-004  0.6706948E+03  0.7818608E-02  0.9768703E-01
          2   -1    0    0  501    0  0.00000000000E+00  0.00000000000E+00  0.27509172311E+04  0.27509172311E+04  0.00000000000E+00 0.  1.
         -2   -1    0    0    0  501 -0.00000000000E+00 -0.00000000000E+00 -0.40880145051E+02  0.40880145051E+02  0.00000000000E+00 0. -1.
         23    2    1    2    0    0  0.11776112567E+03  0.47412466991E+02  0.26440214353E+04  0.26487110704E+04  0.93302516094E+02 0.  0.
         13    1    3    3    0    0  0.18135640189E+02  0.48021891612E+02  0.12944004263E+04  0.12954178735E+04  0.00000000000E+00 0. -1.
        -13    1    3    3    0    0  0.99625485483E+02 -0.60942462093E+00  0.13496210090E+04  0.13532931969E+04  0.00000000000E+00 0.  1.
         22    1    1    2    0    0 -0.11776112567E+03 -0.47412466991E+02  0.66015650766E+02  0.14308630574E+03  0.00000000000E+00 0. -1.
<mgrwt>
<rscale>  0 0.67069485E+03</rscale>
<asrwt>0</asrwt>
<pdfrwt beam="1">  1        2 0.42321789E+00 0.67069485E+03</pdfrwt>
<pdfrwt beam="2">  1       -2 0.62892552E-02 0.67069485E+03</pdfrwt>
<totfact> 0.37639435E+02</totfact>
</mgrwt>
</event>
<event>
 6    1  0.1878398E-004  0.9121107E+03  0.7818608E-02  0.9410568E-01
          2   -1    0    0  501    0  0.00000000000E+00  0.00000000000E+00  0.25308983537E+04  0.25308983537E+04  0.00000000000E+00 0.  1.
         -2   -1    0    0    0  501 -0.00000000000E+00 -0.00000000000E+00 -0.82178915777E+02  0.82178915777E+02  0.00000000000E+00 0. -1.
         23    2    1    2    0    0  0.24703274340E+03  0.36530567806E+03  0.15116599776E+04  0.15774355134E+04  0.93346110528E+02 0.  0.
         13    1    3    3    0    0  0.89059701222E+02  0.18919641238E+03  0.59250916482E+03  0.62832636681E+03  0.00000000000E+00 0.  1.
        -13    1    3    3    0    0  0.15797304217E+03  0.17610926568E+03  0.91915081279E+03  0.94910914660E+03  0.00000000000E+00 0. -1.
         22    1    1    2    0    0 -0.24703274340E+03 -0.36530567806E+03  0.93705946031E+03  0.10356417561E+04  0.00000000000E+00 0. -1.
<mgrwt>
<rscale>  0 0.91211070E+03</rscale>
<asrwt>0</asrwt>
<pdfrwt beam="1">  1        2 0.38936892E+00 0.91211070E+03</pdfrwt>
<pdfrwt beam="2">  1       -2 0.12642912E-01 0.91211070E+03</pdfrwt>
<totfact> 0.15942106E+02</totfact>
</mgrwt>
</event>
<event>
 6    1  0.1878398E-004  0.2036034E+04  0.7818608E-02  0.8589956E-01
          2   -1    0    0  501    0  0.00000000000E+00  0.00000000000E+00  0.14569930200E+04  0.14569930200E+04  0.00000000000E+00 0.  1.
         -2   -1    0    0    0  501 -0.00000000000E+00 -0.00000000000E+00 -0.71129988573E+03  0.71129988573E+03  0.00000000000E+00 0. -1.
         23    2    1    2    0    0  0.33126957725E+03  0.29051296420E+03 -0.60121180023E+03  0.75115133985E+03  0.92926806875E+02 0.  0.
         13    1    3    3    0    0  0.20016898387E+03  0.12433850161E+03 -0.27331274367E+03  0.36087053210E+03  0.00000000000E+00 0. -1.
        -13    1    3    3    0    0  0.13110059339E+03  0.16617446259E+03 -0.32789905656E+03  0.39028080775E+03  0.00000000000E+00 0.  1.
         22    1    1    2    0    0 -0.33126957725E+03 -0.29051296420E+03  0.13469049345E+04  0.14171415659E+04  0.00000000000E+00 0.  1.
<mgrwt>
<rscale>  0 0.20360344E+04</rscale>
<asrwt>0</asrwt>
<pdfrwt beam="1">  1        2 0.22415277E+00 0.20360344E+04</pdfrwt>
<pdfrwt beam="2">  1       -2 0.10943075E+00 0.20360344E+04</pdfrwt>
<totfact> 0.82764953E+00</totfact>
</mgrwt>
</event>
<event>
 6    1  0.1878398E-004  0.3676902E+04  0.7818608E-02  0.8073100E-01
          2   -1    0    0  501    0  0.00000000000E+00  0.00000000000E+00  0.26015192224E+04  0.26015192224E+04  0.00000000000E+00 0.  1.
         -2   -1    0    0    0  501 -0.00000000000E+00 -0.00000000000E+00 -0.12992029422E+04  0.12992029422E+04  0.00000000000E+00 0. -1.
         23    2    1    2    0    0 -0.61984409382E+02  0.11747408737E+04  0.21488531689E+04  0.24514178863E+04  0.89562963580E+02 0.  0.
         11    1    3    3    0    0 -0.13828254508E+02  0.13015534608E+03  0.30050666341E+03  0.32777414402E+03  0.00000000000E+00 0.  1.
        -11    1    3    3    0    0 -0.48156154874E+02  0.10445855276E+04  0.18483465055E+04  0.21236437423E+04  0.00000000000E+00 0. -1.
         22    1    1    2    0    0  0.61984409382E+02 -0.11747408737E+04 -0.84653688865E+03  0.14493042783E+04  0.00000000000E+00 0. -1.
<mgrwt>
<rscale>  0 0.36769016E+04</rscale>
<asrwt>0</asrwt>
<pdfrwt beam="1">  1        2 0.40023373E+00 0.36769016E+04</pdfrwt>
<pdfrwt beam="2">  1       -2 0.19987738E+00 0.36769016E+04</pdfrwt>
<totfact> 0.32770305E-01</totfact>
</mgrwt>
</event>
<event>
 6    1  0.1878398E-004  0.1023301E+04  0.7818608E-02  0.9283351E-01
         -2   -1    0    0    0  501 -0.00000000000E+00  0.00000000000E+00  0.33474924084E+03  0.33474924084E+03  0.00000000000E+00 0. -1.
          2   -1    0    0  501    0  0.00000000000E+00 -0.00000000000E+00 -0.78203717789E+03  0.78203717789E+03  0.00000000000E+00 0.  1.
         23    2    1    2    0    0  0.25137186601E+03 -0.33538581247E+03 -0.53701707410E+03  0.68815746933E+03  0.97477723033E+02 0.  0.
         11    1    3    3    0    0  0.15196788882E+03 -0.18248585565E+03 -0.37686938499E+03  0.44545017689E+03  0.00000000000E+00 0. -1.
        -11    1    3    3    0    0  0.99403977188E+02 -0.15289995682E+03 -0.16014768911E+03  0.24270729244E+03  0.00000000000E+00 0.  1.
         22    1    1    2    0    0 -0.25137186601E+03  0.33538581247E+03  0.89729137051E+02  0.42862894940E+03  0.00000000000E+00 0. -1.
<mgrwt>
<rscale>  0 0.10233012E+04</rscale>
<asrwt>0</asrwt>
<pdfrwt beam="1">  1        2 0.12031341E+00 0.10233012E+04</pdfrwt>
<pdfrwt beam="2">  1       -2 0.51499884E-01 0.10233012E+04</pdfrwt>
<totfact> 0.12609912E+02</totfact>
</mgrwt>
</event>
<event>
 6    1  0.1878398E-004  0.2851081E+04  0.7818608E-02  0.8287583E-01
         -2   -1    0    0    0  501 -0.00000000000E+00  0.00000000000E+00  0.79749095763E+03  0.79749095763E+03  0.00000000000E+00 0. -1.
          2   -1    0    0  501    0  0.00000000000E+00 -0.00000000000E+00 -0.25481992615E+04  0.25481992615E+04  0.00000000000E+00 0.  1.
         23    2    1    2    0    0 -0.43414716561E+03  0.20267235091E+03  0.69712134059E+03  0.85141080184E+03  0.96759220546E+02 0.  0.
         13    1    3    3    0    0 -0.17191245880E+03  0.10225729102E+03  0.21639939319E+03  0.29468482219E+03  0.00000000000E+00 0. -1.
        -13    1    3    3    0    0 -0.26223470681E+03  0.10041505989E+03  0.48072194739E+03  0.55672597965E+03  0.00000000000E+00 0.  1.
         22    1    1    2    0    0  0.43414716561E+03 -0.20267235091E+03 -0.24478296444E+04  0.24942794173E+04  0.00000000000E+00 0.  1.
<mgrwt>
<rscale>  0 0.28510811E+04</rscale>
<asrwt>0</asrwt>
<pdfrwt beam="1">  1        2 0.39203065E+00 0.28510811E+04</pdfrwt>
<pdfrwt beam="2">  1       -2 0.12269092E+00 0.28510811E+04</pdfrwt>
<totfact> 0.14204094E+00</totfact>
</mgrwt>
</event>
<event>
 6    1  0.1878398E-004  0.1861569E+04  0.7818608E-02  0.8674226E-01
          2   -1    0    0  501    0  0.00000000000E+00  0.00000000000E+00  0.11751699367E+04  0.11751699367E+04  0.00000000000E+00 0.  1.
         -2   -1    0    0    0  501 -0.00000000000E+00 -0.00000000000E+00 -0.73722057365E+03  0.73722057365E+03  0.00000000000E+00 0. -1.
         23    2    1    2    0    0 -0.67659089602E+03  0.58974587875E+03  0.46367926456E+03  0.10144832379E+04  0.92748787170E+02 0.  0.
         13    1    3    3    0    0 -0.26093074316E+03  0.20320154287E+03  0.12531839704E+03  0.35366710391E+03  0.00000000000E+00 0. -1.
        -13    1    3    3    0    0 -0.41566015286E+03  0.38654433587E+03  0.33836086752E+03  0.66081613399E+03  0.00000000000E+00 0.  1.
         22    1    1    2    0    0  0.67659089602E+03 -0.58974587875E+03 -0.25729901524E+02  0.89790727244E+03  0.00000000000E+00 0. -1.
<mgrwt>
<rscale>  0 0.18615686E+04</rscale>
<asrwt>0</asrwt>
<pdfrwt beam="1">  1        2 0.18079538E+00 0.18615686E+04</pdfrwt>
<pdfrwt beam="2">  1       -2 0.11341855E+00 0.18615686E+04</pdfrwt>
<totfact> 0.11233837E+01</totfact>
</mgrwt>
</event>
<event>
 6    1  0.1878398E-004  0.1559208E+04  0.7818608E-02  0.8846007E-01
          1   -1    0    0  501    0  0.00000000000E+00  0.00000000000E+00  0.20803491572E+04  0.20803491572E+04  0.00000000000E+00 0.  1.
         -1   -1    0    0    0  501 -0.00000000000E+00 -0.00000000000E+00 -0.29215420850E+03  0.29215420850E+03  0.00000000000E+00 0. -1.
         23    2    1    2    0    0 -0.65702356844E+03  0.10593631512E+03  0.15069916491E+04  0.16500230767E+04  0.93004573430E+02 0.  0.
         13    1    3    3    0    0 -0.54884018822E+03  0.53111881560E+02  0.12219725072E+04  0.13406204655E+04  0.00000000000E+00 0.  1.
        -13    1    3    3    0    0 -0.10818338022E+03  0.52824433563E+02  0.28501914196E+03  0.30940261121E+03  0.00000000000E+00 0. -1.
         22    1    1    2    0    0  0.65702356844E+03 -0.10593631512E+03  0.28120329958E+03  0.72248028904E+03  0.00000000000E+00 0. -1.
<mgrwt>
<rscale>  0 0.15592085E+04</rscale>
<asrwt>0</asrwt>
<pdfrwt beam="1">  1        1 0.32005371E+00 0.15592085E+04</pdfrwt>
<pdfrwt beam="2">  1       -1 0.44946803E-01 0.15592085E+04</pdfrwt>
<totfact> 0.12427172E+01</totfact>
</mgrwt>
</event>
<event>
 6    1  0.1878398E-004  0.1238588E+04  0.7818608E-02  0.9079736E-01
         -1   -1    0    0    0  501 -0.00000000000E+00  0.00000000000E+00  0.36456993297E+03  0.36456993297E+03  0.00000000000E+00 0. -1.
          1   -1    0    0  501    0  0.00000000000E+00 -0.00000000000E+00 -0.10519923204E+04  0.10519923204E+04  0.00000000000E+00 0.  1.
         23    2    1    2    0    0  0.10931326706E+03 -0.99115759591E+02 -0.10296080048E+04  0.10439172199E+04  0.88866159017E+02 0.  0.
         13    1    3    3    0    0  0.52752706003E+01  0.11144456435E+02 -0.21304512930E+03  0.21340162724E+03  0.00000000000E+00 0. -1.
        -13    1    3    3    0    0  0.10403799646E+03 -0.11026021603E+03 -0.81656287554E+03  0.83051559266E+03  0.00000000000E+00 0.  1.
         22    1    1    2    0    0 -0.10931326706E+03  0.99115759591E+02  0.34218561744E+03  0.37264503343E+03  0.00000000000E+00 0. -1.
<mgrwt>
<rscale>  0 0.12385875E+04</rscale>
<asrwt>0</asrwt>
<pdfrwt beam="1">  1        1 0.16184497E+00 0.12385875E+04</pdfrwt>
<pdfrwt beam="2">  1       -1 0.56087681E-01 0.12385875E+04</pdfrwt>
<totfact> 0.43769261E+01</totfact>
</mgrwt>
</event>
<event>
 6    1  0.1878398E-004  0.1336126E+04  0.7818608E-02  0.9001398E-01
          2   -1    0    0  501    0  0.00000000000E+00  0.00000000000E+00  0.11443752105E+04  0.11443752105E+04  0.00000000000E+00 0.  1.
         -2   -1    0    0    0  501 -0.00000000000E+00 -0.00000000000E+00 -0.39000137139E+03  0.39000137139E+03  0.00000000000E+00 0. -1.
         23    2    1    2    0    0 -0.56857395370E+03 -0.22159477579E+02 -0.16610792722E+02  0.57615704242E+03  0.88958618554E+02 0.  0.
         13    1    3    3    0    0 -0.29615203811E+03 -0.16288558087E+02  0.35555829659E+02  0.29872322277E+03  0.00000000000E+00 0.  1.
        -13    1    3    3    0    0 -0.27242191559E+03 -0.58709194917E+01 -0.52166622382E+02  0.27743381964E+03  0.00000000000E+00 0. -1.
         22    1    1    2    0    0  0.56857395370E+03  0.22159477579E+02  0.77098463179E+03  0.95821953943E+03  0.00000000000E+00 0.  1.
<mgrwt>
<rscale>  0 0.13361256E+04</rscale>
<asrwt>0</asrwt>
<pdfrwt beam="1">  1        2 0.17605772E+00 0.13361256E+04</pdfrwt>
<pdfrwt beam="2">  1       -2 0.60000211E-01 0.13361256E+04</pdfrwt>
<totfact> 0.51817946E+01</totfact>
</mgrwt>
</event>
<event>
 6    1  0.1878398E-004  0.2076284E+04  0.7818608E-02  0.8571763E-01
          2   -1    0    0  501    0  0.00000000000E+00  0.00000000000E+00  0.12867638121E+04  0.12867638121E+04  0.00000000000E+00 0.  1.
         -2   -1    0    0    0  501 -0.00000000000E+00 -0.00000000000E+00 -0.83755749321E+03  0.83755749321E+03  0.00000000000E+00 0. -1.
         23    2    1    2    0    0 -0.73938829082E+03 -0.41000887388E+03 -0.38773775857E+03  0.93466685546E+03  0.91974126949E+02 0.  0.
         11    1    3    3    0    0 -0.45493699195E+03 -0.20762549846E+03 -0.20310144159E+03  0.53974643105E+03  0.00000000000E+00 0.  1.
        -11    1    3    3    0    0 -0.28445129887E+03 -0.20238337542E+03 -0.18463631697E+03  0.39492042441E+03  0.00000000000E+00 0. -1.
         22    1    1    2    0    0  0.73938829082E+03  0.41000887388E+03  0.83694407749E+03  0.11896544499E+04  0.00000000000E+00 0.  1.
<mgrwt>
<rscale>  0 0.20762839E+04</rscale>
<asrwt>0</asrwt>
<pdfrwt beam="1">  1        2 0.19796366E+00 0.20762839E+04</pdfrwt>
<pdfrwt beam="2">  1       -2 0.12885500E+00 0.20762839E+04</pdfrwt>
<totfact> 0.69024011E+00</totfact>
</mgrwt>
</event>
<event>
 6    1  0.1878398E-004  0.1917884E+04  0.7818608E-02  0.8646005E-01
         -2   -1    0    0    0  501 -0.00000000000E+00  0.00000000000E+00  0.56910779659E+03  0.56910779659E+03  0.00000000000E+00 0. -1.
          2   -1    0    0  501    0  0.00000000000E+00 -0.00000000000E+00 -0.16158093478E+04  0.16158093478E+04  0.00000000000E+00 0.  1.
         23    2    1    2    0    0 -0.15720704806E+03 -0.94286350680E+03 -0.46420519928E+03  0.10655389025E+04  0.78619573006E+02 0.  0.
         13    1    3    3    0    0 -0.13868532100E+03 -0.63553337646E+03 -0.29553421699E+03  0.71447656663E+03  0.00000000000E+00 0.  1.
        -13    1    3    3    0    0 -0.18521727056E+02 -0.30733013034E+03 -0.16867098229E+03  0.35106233586E+03  0.00000000000E+00 0. -1.
         22    1    1    2    0    0  0.15720704806E+03  0.94286350680E+03 -0.58249635190E+03  0.11193782419E+04  0.00000000000E+00 0. -1.
<mgrwt>
<rscale>  0 0.19178839E+04</rscale>
<asrwt>0</asrwt>
<pdfrwt beam="1">  1        2 0.24858605E+00 0.19178839E+04</pdfrwt>
<pdfrwt beam="2">  1       -2 0.87555047E-01 0.19178839E+04</pdfrwt>
<totfact> 0.11506747E+01</totfact>
</mgrwt>
</event>
<event>
 6    1  0.1878398E-004  0.3665977E+04  0.7818608E-02  0.8075544E-01
         -1   -1    0    0    0  501 -0.00000000000E+00  0.00000000000E+00  0.13186174747E+04  0.13186174747E+04  0.00000000000E+00 0. -1.
          1   -1    0    0  501    0  0.00000000000E+00 -0.00000000000E+00 -0.25480075388E+04  0.25480075388E+04  0.00000000000E+00 0.  1.
         23    2    1    2    0    0  0.14672138739E+04 -0.48223263939E+02 -0.17707775418E+04  0.23019709189E+04  0.91514885454E+02 0.  0.
         11    1    3    3    0    0  0.19556658908E+03 -0.25913561572E+02 -0.27749579898E+03  0.34047279170E+03  0.00000000000E+00 0.  1.
        -11    1    3    3    0    0  0.12716472848E+04 -0.22309702367E+02 -0.14932817428E+04  0.19614981272E+04  0.00000000000E+00 0. -1.
         22    1    1    2    0    0 -0.14672138739E+04  0.48223263939E+02  0.54138747757E+03  0.15646540946E+04  0.00000000000E+00 0. -1.
<mgrwt>
<rscale>  0 0.36659772E+04</rscale>
<asrwt>0</asrwt>
<pdfrwt beam="1">  1        1 0.39200116E+00 0.36659772E+04</pdfrwt>
<pdfrwt beam="2">  1       -1 0.20286423E+00 0.36659772E+04</pdfrwt>
<totfact> 0.14514879E-01</totfact>
</mgrwt>
</event>
<event>
 6    1  0.1878398E-004  0.1706867E+04  0.7818608E-02  0.8757458E-01
         -2   -1    0    0    0  501 -0.00000000000E+00  0.00000000000E+00  0.45474970539E+03  0.45474970539E+03  0.00000000000E+00 0. -1.
          2   -1    0    0  501    0  0.00000000000E+00 -0.00000000000E+00 -0.16016475322E+04  0.16016475322E+04  0.00000000000E+00 0.  1.
         23    2    1    2    0    0  0.36532342755E+03 -0.74165339591E+03 -0.81582984842E+03  0.11658260879E+04  0.10030532981E+03 0.  0.
         13    1    3    3    0    0  0.33668158120E+03 -0.69644619907E+03 -0.79248117459E+03  0.11074376765E+04  0.00000000000E+00 0. -1.
        -13    1    3    3    0    0  0.28641846349E+02 -0.45207196839E+02 -0.23348673830E+02  0.58388411332E+02  0.00000000000E+00 0.  1.
         22    1    1    2    0    0 -0.36532342755E+03  0.74165339591E+03 -0.33106797835E+03  0.89057114969E+03  0.00000000000E+00 0.  1.
<mgrwt>
<rscale>  0 0.17068670E+04</rscale>
<asrwt>0</asrwt>
<pdfrwt beam="1">  1        2 0.24640731E+00 0.17068670E+04</pdfrwt>
<pdfrwt beam="2">  1       -2 0.69961494E-01 0.17068670E+04</pdfrwt>
<totfact> 0.19695567E+01</totfact>
</mgrwt>
</event>
<event>
 6    1  0.1878398E-004  0.1604710E+04  0.7818608E-02  0.8817660E-01
          2   -1    0    0  501    0  0.00000000000E+00  0.00000000000E+00  0.15177694962E+04  0.15177694962E+04  0.00000000000E+00 0.  1.
         -2   -1    0    0    0  501 -0.00000000000E+00 -0.00000000000E+00 -0.42415774350E+03  0.42415774350E+03  0.00000000000E+00 0. -1.
         23    2    1    2    0    0 -0.60117017494E+03 -0.86158685297E+02  0.11797942119E+04  0.13285298851E+04  0.65179560322E+02 0.  0.
         13    1    3    3    0    0 -0.11729851793E+03 -0.40015880272E+02  0.21329184768E+03  0.24668527574E+03  0.00000000000E+00 0.  1.
        -13    1    3    3    0    0 -0.48387165701E+03 -0.46142805025E+02  0.96650236418E+03  0.10818446094E+04  0.00000000000E+00 0. -1.
         22    1    1    2    0    0  0.60117017494E+03  0.86158685297E+02 -0.86182459169E+02  0.61339735454E+03  0.00000000000E+00 0. -1.
<mgrwt>
<rscale>  0 0.16047102E+04</rscale>
<asrwt>0</asrwt>
<pdfrwt beam="1">  1        2 0.23350300E+00 0.16047102E+04</pdfrwt>
<pdfrwt beam="2">  1       -2 0.65255038E-01 0.16047102E+04</pdfrwt>
<totfact> 0.25737595E+01</totfact>
</mgrwt>
</event>
<event>
 6    1  0.1878398E-004  0.1165059E+04  0.7818608E-02  0.9144002E-01
         -2   -1    0    0    0  501 -0.00000000000E+00  0.00000000000E+00  0.13282849320E+04  0.13282849320E+04  0.00000000000E+00 0. -1.
          2   -1    0    0  501    0  0.00000000000E+00 -0.00000000000E+00 -0.25547287377E+03  0.25547287377E+03  0.00000000000E+00 0.  1.
         23    2    1    2    0    0 -0.53703375510E+03 -0.90903572434E+02  0.80715954194E+03  0.97775452772E+03  0.88479809783E+02 0.  0.
         13    1    3    3    0    0 -0.31891864932E+03 -0.39786010545E+02  0.40090500752E+03  0.51382570641E+03  0.00000000000E+00 0.  1.
        -13    1    3    3    0    0 -0.21811510579E+03 -0.51117561889E+02  0.40625453442E+03  0.46392882131E+03  0.00000000000E+00 0. -1.
         22    1    1    2    0    0  0.53703375510E+03  0.90903572434E+02  0.26565251632E+03  0.60600327807E+03  0.00000000000E+00 0.  1.
<mgrwt>
<rscale>  0 0.11650593E+04</rscale>
<asrwt>0</asrwt>
<pdfrwt beam="1">  1        2 0.39303520E-01 0.11650593E+04</pdfrwt>
<pdfrwt beam="2">  1       -2 0.20435152E+00 0.11650593E+04</pdfrwt>
<totfact> 0.16179222E+01</totfact>
</mgrwt>
</event>
<event>
 6    1  0.1878398E-004  0.2953066E+04  0.7818608E-02  0.8257262E-01
         -2   -1    0    0    0  501 -0.00000000000E+00  0.00000000000E+00  0.20088948266E+04  0.20088948266E+04  0.00000000000E+00 0. -1.
          2   -1    0    0  501    0  0.00000000000E+00 -0.00000000000E+00 -0.10852479747E+04  0.10852479747E+04  0.00000000000E+00 0.  1.
         23    2    1    2    0    0  0.57741672313E+03  0.89534466665E+03  0.15311948446E+04  0.18676980582E+04  0.93200002697E+02 0.  0.
         13    1    3    3    0    0  0.31927775708E+03  0.41028009111E+03  0.73111645873E+03  0.89710607820E+03  0.00000000000E+00 0. -1.
        -13    1    3    3    0    0  0.25813896604E+03  0.48506457554E+03  0.80007838583E+03  0.97059198003E+03  0.00000000000E+00 0.  1.
         22    1    1    2    0    0 -0.57741672313E+03 -0.89534466665E+03 -0.60754799267E+03  0.12264447430E+04  0.00000000000E+00 0.  1.
<mgrwt>
<rscale>  0 0.29530656E+04</rscale>
<asrwt>0</asrwt>
<pdfrwt beam="1">  1        2 0.16696123E+00 0.29530656E+04</pdfrwt>
<pdfrwt beam="2">  1       -2 0.30906074E+00 0.29530656E+04</pdfrwt>
<totfact> 0.53462746E-01</totfact>
</mgrwt>
</event>
<event>
 6    1  0.1878398E-004  0.2020987E+04  0.7818608E-02  0.8596871E-01
         -2   -1    0    0    0  501 -0.00000000000E+00  0.00000000000E+00  0.88607625131E+03  0.88607625131E+03  0.00000000000E+00 0. -1.
          2   -1    0    0  501    0  0.00000000000E+00 -0.00000000000E+00 -0.11523801724E+04  0.11523801724E+04  0.00000000000E+00 0.  1.
         23    2    1    2    0    0  0.70256690205E+03  0.72230853405E+03 -0.15119087987E+03  0.10242666572E+04  0.10456401232E+03 0.  0.
         11    1    3    3    0    0  0.13331952659E+03  0.19031997753E+03 -0.58618108451E+02  0.23964947872E+03  0.00000000000E+00 0.  1.
        -11    1    3    3    0    0  0.56924737546E+03  0.53198855652E+03 -0.92572771416E+02  0.78461717847E+03  0.00000000000E+00 0. -1.
         22    1    1    2    0    0 -0.70256690205E+03 -0.72230853405E+03 -0.11511304120E+03  0.10141897665E+04  0.00000000000E+00 0. -1.
<mgrwt>
<rscale>  0 0.20209866E+04</rscale>
<asrwt>0</asrwt>
<pdfrwt beam="1">  1        2 0.17728926E+00 0.20209866E+04</pdfrwt>
<pdfrwt beam="2">  1       -2 0.13631942E+00 0.20209866E+04</pdfrwt>
<totfact> 0.72225954E+00</totfact>
</mgrwt>
</event>
<event>
 6    1  0.1878398E-004  0.3407180E+04  0.7818608E-02  0.8136146E-01
         -2   -1    0    0    0  501 -0.00000000000E+00  0.00000000000E+00  0.16365605913E+04  0.16365605913E+04  0.00000000000E+00 0. -1.
          2   -1    0    0  501    0  0.00000000000E+00 -0.00000000000E+00 -0.17733647505E+04  0.17733647505E+04  0.00000000000E+00 0.  1.
         23    2    1    2    0    0 -0.13391625856E+04 -0.11755604184E+03 -0.11139025766E+04  0.17480296859E+04  0.87481305691E+02 0.  0.
         11    1    3    3    0    0 -0.87871405170E+03 -0.95901193709E+02 -0.68341026280E+03  0.11173115102E+04  0.00000000000E+00 0. -1.
        -11    1    3    3    0    0 -0.46044853391E+03 -0.21654848130E+02 -0.43049231381E+03  0.63071817563E+03  0.00000000000E+00 0.  1.
         22    1    1    2    0    0  0.13391625856E+04  0.11755604184E+03  0.97709841746E+03  0.16618956559E+04  0.00000000000E+00 0. -1.
<mgrwt>
<rscale>  0 0.34071800E+04</rscale>
<asrwt>0</asrwt>
<pdfrwt beam="1">  1        2 0.27282534E+00 0.34071800E+04</pdfrwt>
<pdfrwt beam="2">  1       -2 0.25177855E+00 0.34071800E+04</pdfrwt>
<totfact> 0.46320922E-01</totfact>
</mgrwt>
</event>
<event>
 6    1  0.1878398E-004  0.1919237E+04  0.7818608E-02  0.8645340E-01
          2   -1    0    0  501    0  0.00000000000E+00  0.00000000000E+00  0.98779790179E+03  0.98779790179E+03  0.00000000000E+00 0.  1.
         -2   -1    0    0    0  501 -0.00000000000E+00 -0.00000000000E+00 -0.93224340082E+03  0.93224340082E+03  0.00000000000E+00 0. -1.
         23    2    1    2    0    0  0.42194727960E+03  0.40276840611E+03  0.78761413752E+03  0.98400006036E+03  0.87511104765E+02 0.  0.
         11    1    3    3    0    0  0.17469137818E+03  0.22352605004E+03  0.35429946515E+03  0.45388223546E+03  0.00000000000E+00 0.  1.
        -11    1    3    3    0    0  0.24725590141E+03  0.17924235607E+03  0.43331467237E+03  0.53011782491E+03  0.00000000000E+00 0. -1.
         22    1    1    2    0    0 -0.42194727960E+03 -0.40276840611E+03 -0.73205963656E+03  0.93604124225E+03  0.00000000000E+00 0. -1.
<mgrwt>
<rscale>  0 0.19192374E+04</rscale>
<asrwt>0</asrwt>
<pdfrwt beam="1">  1        2 0.15196891E+00 0.19192374E+04</pdfrwt>
<pdfrwt beam="2">  1       -2 0.14342206E+00 0.19192374E+04</pdfrwt>
<totfact> 0.80876232E+00</totfact>
</mgrwt>
</event>
<event>
 6    1  0.3016942E-004  0.3178128E+04  0.7818608E-02  0.8194618E-01
         -2   -1    0    0    0  501 -0.00000000000E+00  0.00000000000E+00  0.10712635020E+04  0.10712635020E+04  0.00000000000E+00 0. -1.
          2   -1    0    0  501    0  0.00000000000E+00 -0.00000000000E+00 -0.23571453553E+04  0.23571453553E+04  0.00000000000E+00 0.  1.
         23    2    1    2    0    0  0.15538161064E+04 -0.25045925123E+03 -0.41819230498E+03  0.16312000544E+04  0.94098270415E+02 0.  0.
         11    1    3    3    0    0  0.81202894435E+03 -0.17093834505E+03 -0.19394434094E+03  0.85218855404E+03  0.00000000000E+00 0.  1.
        -11    1    3    3    0    0  0.74178716206E+03 -0.79520906180E+02 -0.22424796404E+03  0.77901150036E+03  0.00000000000E+00 0. -1.
         22    1    1    2    0    0 -0.15538161064E+04  0.25045925123E+03 -0.86768954828E+03  0.17972088029E+04  0.00000000000E+00 0. -1.
<mgrwt>
<rscale>  0 0.31781276E+04</rscale>
<asrwt>0</asrwt>
<pdfrwt beam="1">  1        2 0.36263775E+00 0.31781276E+04</pdfrwt>
<pdfrwt beam="2">  1       -2 0.16480977E+00 0.31781276E+04</pdfrwt>
<totfact> 0.82406737E-01</totfact>
</mgrwt>
</event>
<event>
 6    1  0.1878398E-004  0.2561290E+04  0.7818608E-02  0.8381470E-01
         -2   -1    0    0    0  501 -0.00000000000E+00  0.00000000000E+00  0.68994334328E+03  0.68994334328E+03  0.00000000000E+00 0. -1.
          2   -1    0    0  501    0  0.00000000000E+00 -0.00000000000E+00 -0.23770808660E+04  0.23770808660E+04  0.00000000000E+00 0.  1.
         23    2    1    2    0    0 -0.68623296611E+03  0.10715097745E+04 -0.68912594497E+03  0.14499045508E+04  0.90993173686E+02 0.  0.
         13    1    3    3    0    0 -0.14204633414E+03  0.18058291961E+03 -0.94244396117E+02  0.24833315948E+03  0.00000000000E+00 0.  1.
        -13    1    3    3    0    0 -0.54418663198E+03  0.89092685490E+03 -0.59488154885E+03  0.12015713913E+04  0.00000000000E+00 0. -1.
         22    1    1    2    0    0  0.68623296611E+03 -0.10715097745E+04 -0.99801157779E+03  0.16171196585E+04  0.00000000000E+00 0.  1.
<mgrwt>
<rscale>  0 0.25612896E+04</rscale>
<asrwt>0</asrwt>
<pdfrwt beam="1">  1        2 0.36570474E+00 0.25612896E+04</pdfrwt>
<pdfrwt beam="2">  1       -2 0.10614513E+00 0.25612896E+04</pdfrwt>
<totfact> 0.26035128E+00</totfact>
</mgrwt>
</event>
<event>
 6    1  0.1878398E-004  0.2703601E+04  0.7818608E-02  0.8333837E-01
          2   -1    0    0  501    0  0.00000000000E+00  0.00000000000E+00  0.22193120727E+04  0.22193120727E+04  0.00000000000E+00 0.  1.
         -2   -1    0    0    0  501 -0.00000000000E+00 -0.00000000000E+00 -0.82339243583E+03  0.82339243583E+03  0.00000000000E+00 0. -1.
         23    2    1    2    0    0  0.13288190378E+04  0.23771565944E+03  0.66839568951E+03  0.15092248497E+04  0.93477693556E+02 0.  0.
         11    1    3    3    0    0  0.10242411962E+04  0.19075484071E+03  0.55799656088E+03  0.11818703817E+04  0.00000000000E+00 0. -1.
        -11    1    3    3    0    0  0.30457784166E+03  0.46960818729E+02  0.11039912863E+03  0.32735446801E+03  0.00000000000E+00 0.  1.
         22    1    1    2    0    0 -0.13288190378E+04 -0.23771565944E+03  0.72752394741E+03  0.15334796589E+04  0.00000000000E+00 0.  1.
<mgrwt>
<rscale>  0 0.27036011E+04</rscale>
<asrwt>0</asrwt>
<pdfrwt beam="1">  1        2 0.34143263E+00 0.27036011E+04</pdfrwt>
<pdfrwt beam="2">  1       -2 0.12667576E+00 0.27036011E+04</pdfrwt>
<totfact> 0.20478254E+00</totfact>
</mgrwt>
</event>
<event>
 6    1  0.1878398E-004  0.6821407E+03  0.7818608E-02  0.9748271E-01
         -2   -1    0    0    0  501 -0.00000000000E+00  0.00000000000E+00  0.71610332987E+03  0.71610332987E+03  0.00000000000E+00 0. -1.
          2   -1    0    0  501    0  0.00000000000E+00 -0.00000000000E+00 -0.16244720945E+03  0.16244720945E+03  0.00000000000E+00 0.  1.
         23    2    1    2    0    0 -0.90547360191E+02 -0.11479294844E+03  0.66996164900E+03  0.69172650065E+03  0.90888366302E+02 0.  0.
         11    1    3    3    0    0 -0.92702258644E+02 -0.12502219653E+03  0.65641870852E+03  0.67461824707E+03  0.00000000000E+00 0.  1.
        -11    1    3    3    0    0  0.21548984527E+01  0.10229248094E+02  0.13542940477E+02  0.17108253583E+02  0.00000000000E+00 0. -1.
         22    1    1    2    0    0  0.90547360191E+02  0.11479294844E+03 -0.11630552857E+03  0.18682403867E+03  0.00000000000E+00 0.  1.
<mgrwt>
<rscale>  0 0.68214071E+03</rscale>
<asrwt>0</asrwt>
<pdfrwt beam="1">  1        2 0.24991879E-01 0.68214071E+03</pdfrwt>
<pdfrwt beam="2">  1       -2 0.11016974E+00 0.68214071E+03</pdfrwt>
<totfact> 0.14510197E+02</totfact>
</mgrwt>
</event>
<event>
 6    1  0.1878398E-004  0.1477894E+04  0.7818608E-02  0.8899288E-01
         -1   -1    0    0    0  501 -0.00000000000E+00  0.00000000000E+00  0.11891829624E+04  0.11891829624E+04  0.00000000000E+00 0. -1.
          1   -1    0    0  501    0  0.00000000000E+00 -0.00000000000E+00 -0.45917460366E+03  0.45917460366E+03  0.00000000000E+00 0.  1.
         23    2    1    2    0    0  0.66392362277E+01 -0.70086793449E+03  0.11609544606E+03  0.71661242630E+03  0.93783132168E+02 0.  0.
         11    1    3    3    0    0  0.22226681147E+02 -0.42247298648E+03  0.27104257700E+02  0.42392462826E+03  0.00000000000E+00 0.  1.
        -11    1    3    3    0    0 -0.15587444919E+02 -0.27839494802E+03  0.88991188356E+02  0.29268779805E+03  0.00000000000E+00 0. -1.
         22    1    1    2    0    0 -0.66392362277E+01  0.70086793449E+03  0.61391291264E+03  0.93174513971E+03  0.00000000000E+00 0.  1.
<mgrwt>
<rscale>  0 0.14778939E+04</rscale>
<asrwt>0</asrwt>
<pdfrwt beam="1">  1        1 0.70642247E-01 0.14778939E+04</pdfrwt>
<pdfrwt beam="2">  1       -1 0.18295122E+00 0.14778939E+04</pdfrwt>
<totfact> 0.95681617E+00</totfact>
</mgrwt>
</event>
<event>
 6    1  0.1878398E-004  0.2525033E+04  0.7818608E-02  0.8394121E-01
          2   -1    0    0  501    0  0.00000000000E+00  0.00000000000E+00  0.22364047241E+04  0.22364047241E+04  0.00000000000E+00 0.  1.
         -2   -1    0    0    0  501 -0.00000000000E+00 -0.00000000000E+00 -0.71272785491E+03  0.71272785491E+03  0.00000000000E+00 0. -1.
         23    2    1    2    0    0  0.70660703101E+03  0.89938265052E+03  0.13822729904E+04  0.17966666553E+04  0.95654596646E+02 0.  0.
         11    1    3    3    0    0  0.35570023375E+03  0.38989342665E+03  0.59317132100E+03  0.79397213836E+03  0.00000000000E+00 0. -1.
        -11    1    3    3    0    0  0.35090679727E+03  0.50948922387E+03  0.78910166942E+03  0.10026945169E+04  0.00000000000E+00 0.  1.
         22    1    1    2    0    0 -0.70660703101E+03 -0.89938265052E+03  0.14140387873E+03  0.11524659237E+04  0.00000000000E+00 0. -1.
<mgrwt>
<rscale>  0 0.25250330E+04</rscale>
<asrwt>0</asrwt>
<pdfrwt beam="1">  1        2 0.34406226E+00 0.25250330E+04</pdfrwt>
<pdfrwt beam="2">  1       -2 0.10965044E+00 0.25250330E+04</pdfrwt>
<totfact> 0.29022044E+00</totfact>
</mgrwt>
</event>
<event>
 6    1  0.1878398E-004  0.2449179E+04  0.7818608E-02  0.8421318E-01
         -1   -1    0    0    0  501 -0.00000000000E+00  0.00000000000E+00  0.86735377244E+03  0.86735377244E+03  0.00000000000E+00 0. -1.
          1   -1    0    0  501    0  0.00000000000E+00 -0.00000000000E+00 -0.17289598350E+04  0.17289598350E+04  0.00000000000E+00 0.  1.
         23    2    1    2    0    0 -0.53700484067E+03  0.10859238058E+04 -0.60854215417E+03  0.13587167213E+04  0.90459186839E+02 0.  0.
         11    1    3    3    0    0 -0.15878871171E+03  0.41893500336E+03 -0.22984449028E+03  0.50353637577E+03  0.00000000000E+00 0.  1.
        -11    1    3    3    0    0 -0.37821612896E+03  0.66698880243E+03 -0.37869766390E+03  0.85518034555E+03  0.00000000000E+00 0. -1.
         22    1    1    2    0    0  0.53700484067E+03 -0.10859238058E+04 -0.25306390842E+03  0.12375968862E+04  0.00000000000E+00 0.  1.
<mgrwt>
<rscale>  0 0.24491793E+04</rscale>
<asrwt>0</asrwt>
<pdfrwt beam="1">  1        1 0.26599382E+00 0.24491793E+04</pdfrwt>
<pdfrwt beam="2">  1       -1 0.13343904E+00 0.24491793E+04</pdfrwt>
<totfact> 0.19283818E+00</totfact>
</mgrwt>
</event>
<event>
 6    1  0.1878398E-004  0.1807297E+04  0.7818608E-02  0.8702429E-01
         -2   -1    0    0    0  501 -0.00000000000E+00  0.00000000000E+00  0.12975116311E+04  0.12975116311E+04  0.00000000000E+00 0. -1.
          2   -1    0    0  501    0  0.00000000000E+00 -0.00000000000E+00 -0.62934348032E+03  0.62934348032E+03  0.00000000000E+00 0.  1.
         23    2    1    2    0    0 -0.15592075138E+03  0.14091296482E+03 -0.59947125746E+03  0.64191253929E+03  0.92293960909E+02 0.  0.
         11    1    3    3    0    0 -0.35938055652E+02  0.13835632615E+02 -0.22986850262E+03  0.23307187104E+03  0.00000000000E+00 0.  1.
        -11    1    3    3    0    0 -0.11998269573E+03  0.12707733220E+03 -0.36960275484E+03  0.40884066825E+03  0.00000000000E+00 0. -1.
         22    1    1    2    0    0  0.15592075138E+03 -0.14091296482E+03  0.12676394083E+04  0.12849425722E+04  0.00000000000E+00 0. -1.
<mgrwt>
<rscale>  0 0.18072969E+04</rscale>
<asrwt>0</asrwt>
<pdfrwt beam="1">  1        2 0.96822074E-01 0.18072969E+04</pdfrwt>
<pdfrwt beam="2">  1       -2 0.19961717E+00 0.18072969E+04</pdfrwt>
<totfact> 0.59009479E+00</totfact>
</mgrwt>
</event>
<event>
 6    1  0.1878398E-004  0.2685017E+04  0.7818608E-02  0.8339883E-01
         -1   -1    0    0    0  501 -0.00000000000E+00  0.00000000000E+00  0.84828832296E+03  0.84828832296E+03  0.00000000000E+00 0. -1.
          1   -1    0    0  501    0  0.00000000000E+00 -0.00000000000E+00 -0.21246657697E+04  0.21246657697E+04  0.00000000000E+00 0.  1.
         23    2    1    2    0    0 -0.10856554728E+04 -0.67357020307E+03 -0.10900063452E+04  0.16818000308E+04  0.89402948294E+02 0.  0.
         13    1    3    3    0    0 -0.48244539904E+03 -0.33157975332E+03 -0.54521516246E+03  0.79997391785E+03  0.00000000000E+00 0. -1.
        -13    1    3    3    0    0 -0.60321007372E+03 -0.34199044975E+03 -0.54479118271E+03  0.88182611297E+03  0.00000000000E+00 0.  1.
         22    1    1    2    0    0  0.10856554728E+04  0.67357020307E+03 -0.18637110161E+03  0.12911540619E+04  0.00000000000E+00 0.  1.
<mgrwt>
<rscale>  0 0.26850171E+04</rscale>
<asrwt>0</asrwt>
<pdfrwt beam="1">  1        1 0.32687165E+00 0.26850171E+04</pdfrwt>
<pdfrwt beam="2">  1       -1 0.13050590E+00 0.26850171E+04</pdfrwt>
<totfact> 0.10762415E+00</totfact>
</mgrwt>
</event>
<event>
 6    1  0.1878398E-004  0.2190200E+04  0.7818608E-02  0.8522518E-01
          3   -1    0    0  501    0  0.00000000000E+00  0.00000000000E+00  0.76342540036E+03  0.76342540036E+03  0.00000000000E+00 0. -1.
         -3   -1    0    0    0  501 -0.00000000000E+00 -0.00000000000E+00 -0.15708721306E+04  0.15708721306E+04  0.00000000000E+00 0.  1.
         23    2    1    2    0    0 -0.60977349056E+03 -0.56956772550E+03 -0.11571141626E+04  0.14295885077E+04  0.92622957672E+02 0.  0.
         13    1    3    3    0    0 -0.20405628805E+03 -0.21873020043E+03 -0.48290291573E+03  0.56804673689E+03  0.00000000000E+00 0.  1.
        -13    1    3    3    0    0 -0.40571720251E+03 -0.35083752506E+03 -0.67421124684E+03  0.86154177076E+03  0.00000000000E+00 0. -1.
         22    1    1    2    0    0  0.60977349056E+03  0.56956772550E+03  0.34966743230E+03  0.90470902335E+03  0.00000000000E+00 0.  1.
<mgrwt>
<rscale>  0 0.21901997E+04</rscale>
<asrwt>0</asrwt>
<pdfrwt beam="1">  1        3 0.11745006E+00 0.21901997E+04</pdfrwt>
<pdfrwt beam="2">  1       -3 0.24167263E+00 0.21901997E+04</pdfrwt>
<totfact> 0.11652779E-01</totfact>
</mgrwt>
</event>
<event>
 6    1  0.1878398E-004  0.2243901E+04  0.7818608E-02  0.8500374E-01
         -2   -1    0    0    0  501 -0.00000000000E+00  0.00000000000E+00  0.56424881962E+03  0.56424881962E+03  0.00000000000E+00 0. -1.
          2   -1    0    0  501    0  0.00000000000E+00 -0.00000000000E+00 -0.22308835119E+04  0.22308835119E+04  0.00000000000E+00 0.  1.
         23    2    1    2    0    0 -0.42971355407E+03 -0.87571509380E+03 -0.14895915603E+03  0.99100658828E+03  0.91512642816E+02 0.  0.
         13    1    3    3    0    0 -0.29198276054E+03 -0.64115989886E+03 -0.71177388088E+02  0.70810039467E+03  0.00000000000E+00 0.  1.
        -13    1    3    3    0    0 -0.13773079354E+03 -0.23455519494E+03 -0.77781767941E+02  0.28290619362E+03  0.00000000000E+00 0. -1.
         22    1    1    2    0    0  0.42971355407E+03  0.87571509380E+03 -0.15176755362E+04  0.18041257432E+04  0.00000000000E+00 0.  1.
<mgrwt>
<rscale>  0 0.22439014E+04</rscale>
<asrwt>0</asrwt>
<pdfrwt beam="1">  1        2 0.34321285E+00 0.22439014E+04</pdfrwt>
<pdfrwt beam="2">  1       -2 0.86807510E-01 0.22439014E+04</pdfrwt>
<totfact> 0.51878708E+00</totfact>
</mgrwt>
</event>
<event>
 6    1  0.1878398E-004  0.7722594E+03  0.7818608E-02  0.9601062E-01
         -3   -1    0    0    0  501 -0.00000000000E+00  0.00000000000E+00  0.74220603992E+03  0.74220603992E+03  0.00000000000E+00 0. -1.
          3   -1    0    0  501    0  0.00000000000E+00 -0.00000000000E+00 -0.20088243598E+03  0.20088243598E+03  0.00000000000E+00 0.  1.
         23    2    1    2    0    0  0.26720329377E+03  0.21865703728E+03  0.78668965321E+02  0.36580361139E+03  0.91733177452E+02 0.  0.
         11    1    3    3    0    0  0.11682267225E+03  0.15455767959E+03  0.45079077993E+02  0.19891640541E+03  0.00000000000E+00 0.  1.
        -11    1    3    3    0    0  0.15038062152E+03  0.64099357691E+02  0.33589887329E+02  0.16688720597E+03  0.00000000000E+00 0. -1.
         22    1    1    2    0    0 -0.26720329377E+03 -0.21865703728E+03  0.46265463862E+03  0.57728486451E+03  0.00000000000E+00 0. -1.
<mgrwt>
<rscale>  0 0.77225943E+03</rscale>
<asrwt>0</asrwt>
<pdfrwt beam="1">  1        3 0.30904991E-01 0.77225943E+03</pdfrwt>
<pdfrwt beam="2">  1       -3 0.11418554E+00 0.77225943E+03</pdfrwt>
<totfact> 0.17222208E+01</totfact>
</mgrwt>
</event>
<event>
 6    1  0.1878398E-004  0.3812560E+04  0.7818608E-02  0.8043465E-01
         -2   -1    0    0    0  501 -0.00000000000E+00  0.00000000000E+00  0.11910757690E+04  0.11910757690E+04  0.00000000000E+00 0. -1.
          2   -1    0    0  501    0  0.00000000000E+00 -0.00000000000E+00 -0.30509429091E+04  0.30509429091E+04  0.00000000000E+00 0.  1.
         23    2    1    2    0    0  0.44089003019E+03  0.47117100707E+02 -0.29920423083E+04  0.30261138088E+04  0.91888897935E+02 0.  0.
         11    1    3    3    0    0  0.22911451385E+03  0.10799508597E+01 -0.12717430753E+04  0.12922171166E+04  0.00000000000E+00 0.  1.
        -11    1    3    3    0    0  0.21177551634E+03  0.46037149847E+02 -0.17202992330E+04  0.17338966922E+04  0.00000000000E+00 0. -1.
         22    1    1    2    0    0 -0.44089003019E+03 -0.47117100707E+02  0.11321751681E+04  0.12159048693E+04  0.00000000000E+00 0. -1.
<mgrwt>
<rscale>  0 0.38125604E+04</rscale>
<asrwt>0</asrwt>
<pdfrwt beam="1">  1        2 0.46937583E+00 0.38125604E+04</pdfrwt>
<pdfrwt beam="2">  1       -2 0.18324243E+00 0.38125604E+04</pdfrwt>
<totfact> 0.22293674E-01</totfact>
</mgrwt>
</event>
<event>
 6    1  0.1878398E-004  0.2746564E+04  0.7818608E-02  0.8320053E-01
          2   -1    0    0  501    0  0.00000000000E+00  0.00000000000E+00  0.19906708924E+04  0.19906708924E+04  0.00000000000E+00 0.  1.
         -2   -1    0    0    0  501 -0.00000000000E+00 -0.00000000000E+00 -0.94737104138E+03  0.94737104138E+03  0.00000000000E+00 0. -1.
         23    2    1    2    0    0  0.22068757024E+03 -0.13473598001E+04  0.66421112915E+03  0.15210769753E+04  0.91745877231E+02 0.  0.
         13    1    3    3    0    0  0.57187322173E+02 -0.32741964249E+03  0.20608172965E+03  0.39108015981E+03  0.00000000000E+00 0. -1.
        -13    1    3    3    0    0  0.16350024806E+03 -0.10199401576E+04  0.45812939950E+03  0.11299968154E+04  0.00000000000E+00 0.  1.
         22    1    1    2    0    0 -0.22068757024E+03  0.13473598001E+04  0.37908872184E+03  0.14169649585E+04  0.00000000000E+00 0. -1.
<mgrwt>
<rscale>  0 0.27465644E+04</rscale>
<asrwt>0</asrwt>
<pdfrwt beam="1">  1        2 0.30625706E+00 0.27465644E+04</pdfrwt>
<pdfrwt beam="2">  1       -2 0.14574939E+00 0.27465644E+04</pdfrwt>
<totfact> 0.19104304E+00</totfact>
</mgrwt>
</event>
<event>
 6    1  0.1878398E-004  0.1511906E+04  0.7818608E-02  0.8876574E-01
         -2   -1    0    0    0  501 -0.00000000000E+00  0.00000000000E+00  0.39916592077E+03  0.39916592077E+03  0.00000000000E+00 0. -1.
          2   -1    0    0  501    0  0.00000000000E+00 -0.00000000000E+00 -0.14316484915E+04  0.14316484915E+04  0.00000000000E+00 0.  1.
         23    2    1    2    0    0  0.23963271254E+03  0.26435185053E+03  0.28479939430E+03  0.46606626216E+03  0.93815392832E+02 0.  0.
         13    1    3    3    0    0  0.89505995809E+02  0.81547740189E+02  0.15354036930E+03  0.19554028286E+03  0.00000000000E+00 0.  1.
        -13    1    3    3    0    0  0.15012671673E+03  0.18280411034E+03  0.13125902501E+03  0.27052597930E+03  0.00000000000E+00 0. -1.
         22    1    1    2    0    0 -0.23963271254E+03 -0.26435185053E+03 -0.13172819650E+04  0.13647481501E+04  0.00000000000E+00 0.  1.
<mgrwt>
<rscale>  0 0.15119065E+04</rscale>
<asrwt>0</asrwt>
<pdfrwt beam="1">  1        2 0.22025362E+00 0.15119065E+04</pdfrwt>
<pdfrwt beam="2">  1       -2 0.61410141E-01 0.15119065E+04</pdfrwt>
<totfact> 0.33029787E+01</totfact>
</mgrwt>
</event>
<event>
 6    1  0.1878398E-004  0.2184694E+04  0.7818608E-02  0.8524826E-01
          2   -1    0    0  501    0  0.00000000000E+00  0.00000000000E+00  0.67669746566E+03  0.67669746566E+03  0.00000000000E+00 0.  1.
         -2   -1    0    0    0  501 -0.00000000000E+00 -0.00000000000E+00 -0.17633027556E+04  0.17633027556E+04  0.00000000000E+00 0. -1.
         23    2    1    2    0    0  0.19662255634E+03  0.91701958959E+03 -0.11654385045E+04  0.14988307184E+04  0.93065876146E+02 0.  0.
         13    1    3    3    0    0  0.56690305941E+02  0.13555442088E+03 -0.15124697359E+03  0.21086592619E+03  0.00000000000E+00 0. -1.
        -13    1    3    3    0    0  0.13993225039E+03  0.78146516871E+03 -0.10141915309E+04  0.12879647922E+04  0.00000000000E+00 0.  1.
         22    1    1    2    0    0 -0.19662255634E+03 -0.91701958959E+03  0.78833214594E+02  0.94116950284E+03  0.00000000000E+00 0.  1.
<mgrwt>
<rscale>  0 0.21846945E+04</rscale>
<asrwt>0</asrwt>
<pdfrwt beam="1">  1        2 0.10410730E+00 0.21846945E+04</pdfrwt>
<pdfrwt beam="2">  1       -2 0.27127735E+00 0.21846945E+04</pdfrwt>
<totfact> 0.18631011E+00</totfact>
</mgrwt>
</event>
<event>
 6    1  0.2315714E-004  0.4625550E+04  0.7818608E-02  0.7889018E-01
         -2   -1    0    0    0  501 -0.00000000000E+00  0.00000000000E+00  0.21797303589E+04  0.21797303589E+04  0.00000000000E+00 0. -1.
          2   -1    0    0  501    0  0.00000000000E+00 -0.00000000000E+00 -0.24539405134E+04  0.24539405134E+04  0.00000000000E+00 0.  1.
         23    2    1    2    0    0 -0.11192324738E+04 -0.38568587092E+03  0.18521688523E+04  0.21999653432E+04  0.88787003656E+02 0.  0.
         13    1    3    3    0    0 -0.58425506621E+03 -0.24534435530E+03  0.10170604674E+04  0.11983154132E+04  0.00000000000E+00 0.  1.
        -13    1    3    3    0    0 -0.53497740761E+03 -0.14034151562E+03  0.83510838496E+03  0.10016499300E+04  0.00000000000E+00 0. -1.
         22    1    1    2    0    0  0.11192324738E+04  0.38568587092E+03 -0.21263790068E+04  0.24337055291E+04  0.00000000000E+00 0.  1.
<mgrwt>
<rscale>  0 0.46255502E+04</rscale>
<asrwt>0</asrwt>
<pdfrwt beam="1">  1        2 0.37752931E+00 0.46255502E+04</pdfrwt>
<pdfrwt beam="2">  1       -2 0.33534313E+00 0.46255502E+04</pdfrwt>
<totfact> 0.53381346E-02</totfact>
</mgrwt>
</event>
<event>
 6    1  0.1878398E-004  0.2927199E+04  0.7818608E-02  0.8264831E-01
         -2   -1    0    0    0  501 -0.00000000000E+00  0.00000000000E+00  0.36900713301E+04  0.36900713301E+04  0.00000000000E+00 0. -1.
          2   -1    0    0  501    0  0.00000000000E+00 -0.00000000000E+00 -0.58050990077E+03  0.58050990077E+03  0.00000000000E+00 0.  1.
         23    2    1    2    0    0  0.14580945240E+04  0.10686484072E+03  0.15208485060E+04  0.21115378113E+04  0.90288509443E+02 0.  0.
         13    1    3    3    0    0  0.79704193954E+03  0.76165519457E+02  0.77287464336E+03  0.11128397252E+04  0.00000000000E+00 0.  1.
        -13    1    3    3    0    0  0.66105258448E+03  0.30699321263E+02  0.74797386265E+03  0.99869808600E+03  0.00000000000E+00 0. -1.
         22    1    1    2    0    0 -0.14580945240E+04 -0.10686484072E+03  0.15887129234E+04  0.21590434197E+04  0.00000000000E+00 0. -1.
<mgrwt>
<rscale>  0 0.29271986E+04</rscale>
<asrwt>0</asrwt>
<pdfrwt beam="1">  1        2 0.89309218E-01 0.29271986E+04</pdfrwt>
<pdfrwt beam="2">  1       -2 0.56770327E+00 0.29271986E+04</pdfrwt>
<totfact> 0.30731073E-02</totfact>
</mgrwt>
</event>
<event>
 6    1  0.1878398E-004  0.3504586E+04  0.7818608E-02  0.8112704E-01
         -1   -1    0    0    0  501 -0.00000000000E+00  0.00000000000E+00  0.29495088401E+04  0.29495088401E+04  0.00000000000E+00 0. -1.
          1   -1    0    0  501    0  0.00000000000E+00 -0.00000000000E+00 -0.10410312386E+04  0.10410312386E+04  0.00000000000E+00 0.  1.
         23    2    1    2    0    0  0.30268419581E+03 -0.72274774172E+03  0.27380602151E+04  0.28494049712E+04  0.90293564699E+02 0.  0.
         13    1    3    3    0    0  0.15803037635E+03 -0.45769153508E+03  0.17965567766E+04  0.18606642342E+04  0.00000000000E+00 0.  1.
        -13    1    3    3    0    0  0.14465381946E+03 -0.26505620665E+03  0.94150343855E+03  0.98874073698E+03  0.00000000000E+00 0. -1.
         22    1    1    2    0    0 -0.30268419581E+03  0.72274774172E+03 -0.82958261368E+03  0.11411351075E+04  0.00000000000E+00 0.  1.
<mgrwt>
<rscale>  0 0.35045860E+04</rscale>
<asrwt>0</asrwt>
<pdfrwt beam="1">  1        1 0.16015865E+00 0.35045860E+04</pdfrwt>
<pdfrwt beam="2">  1       -1 0.45377059E+00 0.35045860E+04</pdfrwt>
<totfact> 0.34921517E-02</totfact>
</mgrwt>
</event>
<event>
 6    1  0.1878398E-004  0.2064448E+04  0.7818608E-02  0.8577068E-01
          2   -1    0    0  501    0  0.00000000000E+00  0.00000000000E+00  0.14671906015E+04  0.14671906015E+04  0.00000000000E+00 0.  1.
         -2   -1    0    0    0  501 -0.00000000000E+00 -0.00000000000E+00 -0.72620838580E+03  0.72620838580E+03  0.00000000000E+00 0. -1.
         23    2    1    2    0    0  0.54536351807E+03  0.65494010050E+03  0.98631887390E+03  0.13065179479E+04  0.88296801293E+02 0.  0.
         13    1    3    3    0    0  0.47665535813E+03  0.54607109038E+03  0.87581880587E+03  0.11368608300E+04  0.00000000000E+00 0. -1.
        -13    1    3    3    0    0  0.68708159935E+02  0.10886901013E+03  0.11050006804E+03  0.16965711787E+03  0.00000000000E+00 0.  1.
         22    1    1    2    0    0 -0.54536351807E+03 -0.65494010050E+03 -0.24533665823E+03  0.88688103935E+03  0.00000000000E+00 0. -1.
<mgrwt>
<rscale>  0 0.20644477E+04</rscale>
<asrwt>0</asrwt>
<pdfrwt beam="1">  1        2 0.22572163E+00 0.20644477E+04</pdfrwt>
<pdfrwt beam="2">  1       -2 0.11172437E+00 0.20644477E+04</pdfrwt>
<totfact> 0.77481597E+00</totfact>
</mgrwt>
</event>
<event>
 6    1  0.1878398E-004  0.3501377E+04  0.7818608E-02  0.8113464E-01
          2   -1    0    0  501    0  0.00000000000E+00  0.00000000000E+00  0.28391134959E+04  0.28391134959E+04  0.00000000000E+00 0.  1.
         -2   -1    0    0    0  501 -0.00000000000E+00 -0.00000000000E+00 -0.10795306299E+04  0.10795306299E+04  0.00000000000E+00 0. -1.
         23    2    1    2    0    0 -0.29328947866E+03  0.49105903737E+03  0.27308219105E+04  0.27914959642E+04  0.88902838625E+02 0.  0.
         13    1    3    3    0    0 -0.23894038350E+03  0.44669401555E+03  0.24692201322E+04  0.25206499384E+04  0.00000000000E+00 0. -1.
        -13    1    3    3    0    0 -0.54349095159E+02  0.44365021820E+02  0.26160177832E+03  0.27084602587E+03  0.00000000000E+00 0.  1.
         22    1    1    2    0    0  0.29328947866E+03 -0.49105903737E+03 -0.97123904456E+03  0.11271481616E+04  0.00000000000E+00 0. -1.
<mgrwt>
<rscale>  0 0.35013769E+04</rscale>
<asrwt>0</asrwt>
<pdfrwt beam="1">  1        2 0.43678669E+00 0.35013769E+04</pdfrwt>
<pdfrwt beam="2">  1       -2 0.16608164E+00 0.35013769E+04</pdfrwt>
<totfact> 0.40880739E-01</totfact>
</mgrwt>
</event>
<event>
 6    1  0.1878398E-004  0.2302751E+04  0.7818608E-02  0.8476837E-01
          2   -1    0    0  501    0  0.00000000000E+00  0.00000000000E+00  0.21436806387E+04  0.21436806387E+04  0.00000000000E+00 0.  1.
         -2   -1    0    0    0  501 -0.00000000000E+00 -0.00000000000E+00 -0.61840602272E+03  0.61840602272E+03  0.00000000000E+00 0. -1.
         23    2    1    2    0    0 -0.33281693259E+03 -0.17676041717E+03 -0.53862235974E+03  0.66406805280E+03  0.94132760688E+02 0.  0.
         13    1    3    3    0    0 -0.26902586489E+03 -0.18061303803E+03 -0.46175672631E+03  0.56410571685E+03  0.00000000000E+00 0.  1.
        -13    1    3    3    0    0 -0.63791067700E+02  0.38526208595E+01 -0.76865633428E+02  0.99962335947E+02  0.00000000000E+00 0. -1.
         22    1    1    2    0    0  0.33281693259E+03  0.17676041717E+03  0.20638969758E+04  0.20980186087E+04  0.00000000000E+00 0.  1.
<mgrwt>
<rscale>  0 0.23027505E+04</rscale>
<asrwt>0</asrwt>
<pdfrwt beam="1">  1        2 0.32979702E+00 0.23027505E+04</pdfrwt>
<pdfrwt beam="2">  1       -2 0.95139389E-01 0.23027505E+04</pdfrwt>
<totfact> 0.46753677E+00</totfact>
</mgrwt>
</event>
<event>
 6    1  0.1878398E-004  0.3197235E+04  0.7818608E-02  0.8189548E-01
          2   -1    0    0  501    0  0.00000000000E+00  0.00000000000E+00  0.27576059451E+04  0.27576059451E+04  0.00000000000E+00 0.  1.
         -2   -1    0    0    0  501 -0.00000000000E+00 -0.00000000000E+00 -0.92673760557E+03  0.92673760557E+03  0.00000000000E+00 0. -1.
         23    2    1    2    0    0 -0.62929407183E+03 -0.43123075605E+02 -0.77460191165E+03  0.10036074842E+04  0.96691428019E+02 0.  0.
         11    1    3    3    0    0 -0.48378391622E+03 -0.97998967865E+01 -0.64206195243E+03  0.80398163308E+03  0.00000000000E+00 0.  1.
        -11    1    3    3    0    0 -0.14551015561E+03 -0.33323178819E+02 -0.13253995922E+03  0.19962585109E+03  0.00000000000E+00 0. -1.
         22    1    1    2    0    0  0.62929407183E+03  0.43123075605E+02  0.26054702512E+04  0.26807360665E+04  0.00000000000E+00 0.  1.
<mgrwt>
<rscale>  0 0.31972345E+04</rscale>
<asrwt>0</asrwt>
<pdfrwt beam="1">  1        2 0.42424706E+00 0.31972345E+04</pdfrwt>
<pdfrwt beam="2">  1       -2 0.14257502E+00 0.31972345E+04</pdfrwt>
<totfact> 0.70721244E-01</totfact>
</mgrwt>
</event>
<event>
 6    1  0.1878398E-004  0.2575232E+04  0.7818608E-02  0.8376663E-01
         -2   -1    0    0    0  501 -0.00000000000E+00  0.00000000000E+00  0.70205405266E+03  0.70205405266E+03  0.00000000000E+00 0. -1.
          2   -1    0    0  501    0  0.00000000000E+00 -0.00000000000E+00 -0.23615777359E+04  0.23615777359E+04  0.00000000000E+00 0.  1.
         23    2    1    2    0    0  0.32144337063E+03 -0.43156143389E+03 -0.22203240698E+04  0.22864135531E+04  0.90977189717E+02 0.  0.
         13    1    3    3    0    0  0.22798313711E+03 -0.23642315132E+03 -0.14037494252E+04  0.14416603852E+04  0.00000000000E+00 0.  1.
        -13    1    3    3    0    0  0.93460233513E+02 -0.19513828257E+03 -0.81657464460E+03  0.84475316796E+03  0.00000000000E+00 0. -1.
         22    1    1    2    0    0 -0.32144337063E+03  0.43156143389E+03  0.56080038666E+03  0.77721823539E+03  0.00000000000E+00 0. -1.
<mgrwt>
<rscale>  0 0.25752322E+04</rscale>
<asrwt>0</asrwt>
<pdfrwt beam="1">  1        2 0.36331966E+00 0.25752322E+04</pdfrwt>
<pdfrwt beam="2">  1       -2 0.10800831E+00 0.25752322E+04</pdfrwt>
<totfact> 0.25450565E+00</totfact>
</mgrwt>
</event>
<event>
 6    1  0.1878398E-004  0.2082804E+04  0.7818608E-02  0.8568856E-01
          2   -1    0    0  501    0  0.00000000000E+00  0.00000000000E+00  0.20257987675E+04  0.20257987675E+04  0.00000000000E+00 0.  1.
         -2   -1    0    0    0  501 -0.00000000000E+00 -0.00000000000E+00 -0.53535323078E+03  0.53535323078E+03  0.00000000000E+00 0. -1.
         23    2    1    2    0    0  0.17056546202E+03 -0.20637735678E+03  0.19816852336E+04  0.20016874059E+04  0.89397515076E+02 0.  0.
         13    1    3    3    0    0  0.33708667425E+02 -0.10516877504E+03  0.67769168230E+03  0.68663145992E+03  0.00000000000E+00 0. -1.
        -13    1    3    3    0    0  0.13685679459E+03 -0.10120858174E+03  0.13039935513E+04  0.13150559460E+04  0.00000000000E+00 0.  1.
         22    1    1    2    0    0 -0.17056546202E+03  0.20637735678E+03 -0.49123969693E+03  0.55946459232E+03  0.00000000000E+00 0. -1.
<mgrwt>
<rscale>  0 0.20828038E+04</rscale>
<asrwt>0</asrwt>
<pdfrwt beam="1">  1        2 0.31166135E+00 0.20828038E+04</pdfrwt>
<pdfrwt beam="2">  1       -2 0.82362036E-01 0.20828038E+04</pdfrwt>
<totfact> 0.77203643E+00</totfact>
</mgrwt>
</event>
<event>
 6    1  0.1878398E-004  0.2968131E+04  0.7818608E-02  0.8252890E-01
          2   -1    0    0  501    0  0.00000000000E+00  0.00000000000E+00  0.13760805797E+04  0.13760805797E+04  0.00000000000E+00 0.  1.
         -2   -1    0    0    0  501 -0.00000000000E+00 -0.00000000000E+00 -0.16005238014E+04  0.16005238014E+04  0.00000000000E+00 0. -1.
         23    2    1    2    0    0 -0.53144447194E+03 -0.44774877289E+02 -0.15000137006E+04  0.15940277781E+04  0.80283492236E+02 0.  0.
         11    1    3    3    0    0 -0.31751263370E+03  0.95281962144E+01 -0.93143458281E+03  0.98411149833E+03  0.00000000000E+00 0.  1.
        -11    1    3    3    0    0 -0.21393183823E+03 -0.54303073503E+02 -0.56857911777E+03  0.60991627980E+03  0.00000000000E+00 0. -1.
         22    1    1    2    0    0  0.53144447194E+03  0.44774877289E+02  0.12755704789E+04  0.13825766030E+04  0.00000000000E+00 0.  1.
<mgrwt>
<rscale>  0 0.29681305E+04</rscale>
<asrwt>0</asrwt>
<pdfrwt beam="1">  1        2 0.21170471E+00 0.29681305E+04</pdfrwt>
<pdfrwt beam="2">  1       -2 0.24623443E+00 0.29681305E+04</pdfrwt>
<totfact> 0.86896598E-01</totfact>
</mgrwt>
</event>
<event>
 6    1  0.1878398E-004  0.9058808E+03  0.7818608E-02  0.9418260E-01
         -2   -1    0    0    0  501 -0.00000000000E+00  0.00000000000E+00  0.12656305939E+03  0.12656305939E+03  0.00000000000E+00 0. -1.
          2   -1    0    0  501    0  0.00000000000E+00 -0.00000000000E+00 -0.16209708082E+04  0.16209708082E+04  0.00000000000E+00 0.  1.
         23    2    1    2    0    0  0.39623141743E+01  0.29303990059E+03 -0.14092584315E+04  0.14423478759E+04  0.92032522344E+02 0.  0.
         11    1    3    3    0    0  0.28677960971E+02  0.26734407544E+03 -0.12964884571E+04  0.13240761306E+04  0.00000000000E+00 0. -1.
        -11    1    3    3    0    0 -0.24715646797E+02  0.25695825154E+02 -0.11276997438E+03  0.11827174535E+03  0.00000000000E+00 0.  1.
         22    1    1    2    0    0 -0.39623141743E+01 -0.29303990059E+03 -0.85149317322E+02  0.30518599167E+03  0.00000000000E+00 0. -1.
<mgrwt>
<rscale>  0 0.90588084E+03</rscale>
<asrwt>0</asrwt>
<pdfrwt beam="1">  1        2 0.24938013E+00 0.90588084E+03</pdfrwt>
<pdfrwt beam="2">  1       -2 0.19471239E-01 0.90588084E+03</pdfrwt>
<totfact> 0.24404278E+02</totfact>
</mgrwt>
</event>
<event>
 6    1  0.1878398E-004  0.4262576E+04  0.7818608E-02  0.7953575E-01
          2   -1    0    0  501    0  0.00000000000E+00  0.00000000000E+00  0.21537355751E+04  0.21537355751E+04  0.00000000000E+00 0.  1.
         -2   -1    0    0    0  501 -0.00000000000E+00 -0.00000000000E+00 -0.21090741819E+04  0.21090741819E+04  0.00000000000E+00 0. -1.
         23    2    1    2    0    0  0.16821517221E+04  0.43586316165E+02  0.13287666295E+04  0.21460999420E+04  0.92682373989E+02 0.  0.
         11    1    3    3    0    0  0.46294256883E+03 -0.23700934834E+02  0.39255329731E+03  0.60743365694E+03  0.00000000000E+00 0. -1.
        -11    1    3    3    0    0  0.12192091533E+04  0.67287250999E+02  0.93621333217E+03  0.15386662851E+04  0.00000000000E+00 0.  1.
         22    1    1    2    0    0 -0.16821517221E+04 -0.43586316165E+02 -0.12841052362E+04  0.21167098150E+04  0.00000000000E+00 0. -1.
<mgrwt>
<rscale>  0 0.42625758E+04</rscale>
<asrwt>0</asrwt>
<pdfrwt beam="1">  1        2 0.33134393E+00 0.42625758E+04</pdfrwt>
<pdfrwt beam="2">  1       -2 0.32447295E+00 0.42625758E+04</pdfrwt>
<totfact> 0.95124971E-02</totfact>
</mgrwt>
</event>
<event>
 6    1  0.1878398E-004  0.1994940E+04  0.7818608E-02  0.8608990E-01
         -1   -1    0    0    0  501 -0.00000000000E+00  0.00000000000E+00  0.71815110965E+03  0.71815110965E+03  0.00000000000E+00 0. -1.
          1   -1    0    0  501    0  0.00000000000E+00 -0.00000000000E+00 -0.13854270102E+04  0.13854270102E+04  0.00000000000E+00 0.  1.
         23    2    1    2    0    0 -0.74021869480E+03 -0.66523494505E+03 -0.32203018523E+03  0.10501760825E+04  0.93301210141E+02 0.  0.
         11    1    3    3    0    0 -0.44114190831E+02 -0.65844728523E+02 -0.93025725222E+01  0.79800551141E+02  0.00000000000E+00 0. -1.
        -11    1    3    3    0    0 -0.69610450397E+03 -0.59939021653E+03 -0.31272761270E+03  0.97037553136E+03  0.00000000000E+00 0.  1.
         22    1    1    2    0    0  0.74021869480E+03  0.66523494505E+03 -0.34524571528E+03  0.10534020373E+04  0.00000000000E+00 0.  1.
<mgrwt>
<rscale>  0 0.19949395E+04</rscale>
<asrwt>0</asrwt>
<pdfrwt beam="1">  1        1 0.21314261E+00 0.19949395E+04</pdfrwt>
<pdfrwt beam="2">  1       -1 0.11048479E+00 0.19949395E+04</pdfrwt>
<totfact> 0.55139779E+00</totfact>
</mgrwt>
</event>
<event>
 6    1  0.1878398E-004  0.3110187E+04  0.7818608E-02  0.8212948E-01
          2   -1    0    0  501    0  0.00000000000E+00  0.00000000000E+00  0.26244323868E+04  0.26244323868E+04  0.00000000000E+00 0. -1.
         -2   -1    0    0    0  501 -0.00000000000E+00 -0.00000000000E+00 -0.92146218268E+03  0.92146218268E+03  0.00000000000E+00 0.  1.
         23    2    1    2    0    0 -0.25547449750E+03  0.45728682644E+03  0.25199647456E+04  0.25754006017E+04  0.89930414385E+02 0.  0.
         13    1    3    3    0    0 -0.55637146397E+02  0.40471993257E+02  0.36284610630E+03  0.36931121179E+03  0.00000000000E+00 0. -1.
        -13    1    3    3    0    0 -0.19983735111E+03  0.41681483318E+03  0.21571186393E+04  0.22060893899E+04  0.00000000000E+00 0.  1.
         22    1    1    2    0    0  0.25547449750E+03 -0.45728682644E+03 -0.81699454155E+03  0.97049396775E+03  0.00000000000E+00 0.  1.
<mgrwt>
<rscale>  0 0.31101866E+04</rscale>
<asrwt>0</asrwt>
<pdfrwt beam="1">  1        2 0.40375883E+00 0.31101866E+04</pdfrwt>
<pdfrwt beam="2">  1       -2 0.14176341E+00 0.31101866E+04</pdfrwt>
<totfact> 0.86794911E-01</totfact>
</mgrwt>
</event>
<event>
 6    1  0.1878398E-004  0.8377103E+03  0.7818608E-02  0.9506982E-01
          2   -1    0    0  501    0  0.00000000000E+00  0.00000000000E+00  0.99115503331E+03  0.99115503331E+03  0.00000000000E+00 0.  1.
         -2   -1    0    0    0  501 -0.00000000000E+00 -0.00000000000E+00 -0.17700522625E+03  0.17700522625E+03  0.00000000000E+00 0. -1.
         23    2    1    2    0    0 -0.22034272465E+03 -0.17459863012E+03 -0.11641024587E+02  0.29582655301E+03  0.91335853114E+02 0.  0.
         13    1    3    3    0    0 -0.19684631028E+03 -0.11156824441E+03 -0.23641809848E+02  0.22749698504E+03  0.00000000000E+00 0. -1.
        -13    1    3    3    0    0 -0.23496414373E+02 -0.63030385712E+02  0.12000785261E+02  0.68329567965E+02  0.00000000000E+00 0.  1.
         22    1    1    2    0    0  0.22034272465E+03  0.17459863012E+03  0.82579083165E+03  0.87233370655E+03  0.00000000000E+00 0.  1.
<mgrwt>
<rscale>  0 0.83771026E+03</rscale>
<asrwt>0</asrwt>
<pdfrwt beam="1">  1        2 0.15248539E+00 0.83771026E+03</pdfrwt>
<pdfrwt beam="2">  1       -2 0.27231574E-01 0.83771026E+03</pdfrwt>
<totfact> 0.31409952E+02</totfact>
</mgrwt>
</event>
<event>
 6    1  0.1878398E-004  0.3360414E+04  0.7818608E-02  0.8147691E-01
         -2   -1    0    0    0  501 -0.00000000000E+00  0.00000000000E+00  0.27123678067E+04  0.27123678067E+04  0.00000000000E+00 0. -1.
          2   -1    0    0  501    0  0.00000000000E+00 -0.00000000000E+00 -0.10408233157E+04  0.10408233157E+04  0.00000000000E+00 0.  1.
         23    2    1    2    0    0 -0.13216614671E+03  0.15951747159E+04  0.14022751209E+04  0.21300595017E+04  0.93422167811E+02 0.  0.
         11    1    3    3    0    0 -0.25007110411E+02  0.86494064108E+03  0.75348561867E+03  0.11473832166E+04  0.00000000000E+00 0.  1.
        -11    1    3    3    0    0 -0.10715903630E+03  0.73023407477E+03  0.64878950228E+03  0.98267628509E+03  0.00000000000E+00 0. -1.
         22    1    1    2    0    0  0.13216614671E+03 -0.15951747159E+04  0.26926937005E+03  0.16231316207E+04  0.00000000000E+00 0.  1.
<mgrwt>
<rscale>  0 0.33604141E+04</rscale>
<asrwt>0</asrwt>
<pdfrwt beam="1">  1        2 0.16012666E+00 0.33604141E+04</pdfrwt>
<pdfrwt beam="2">  1       -2 0.41728735E+00 0.33604141E+04</pdfrwt>
<totfact> 0.11253579E-01</totfact>
</mgrwt>
</event>
<event>
 6    1  0.1878398E-004  0.1943324E+04  0.7818608E-02  0.8633587E-01
          1   -1    0    0  501    0  0.00000000000E+00  0.00000000000E+00  0.10474923581E+04  0.10474923581E+04  0.00000000000E+00 0. -1.
         -1   -1    0    0    0  501 -0.00000000000E+00 -0.00000000000E+00 -0.90132122725E+03  0.90132122725E+03  0.00000000000E+00 0.  1.
         23    2    1    2    0    0 -0.39389167411E+03  0.88242127392E+03 -0.42145638137E+01  0.97083924377E+03  0.93236897638E+02 0.  0.
         11    1    3    3    0    0 -0.94589681091E+02  0.14690646308E+03  0.23365123437E+02  0.17628002058E+03  0.00000000000E+00 0.  1.
        -11    1    3    3    0    0 -0.29930199302E+03  0.73551481084E+03 -0.27579687251E+02  0.79455922318E+03  0.00000000000E+00 0. -1.
         22    1    1    2    0    0  0.39389167411E+03 -0.88242127392E+03  0.15038569464E+03  0.97797434156E+03  0.00000000000E+00 0.  1.
<mgrwt>
<rscale>  0 0.19433241E+04</rscale>
<asrwt>0</asrwt>
<pdfrwt beam="1">  1        1 0.16115267E+00 0.19433241E+04</pdfrwt>
<pdfrwt beam="2">  1       -1 0.13866480E+00 0.19433241E+04</pdfrwt>
<totfact> 0.55697643E+00</totfact>
</mgrwt>
</event>
<event>
 6    1  0.1878398E-004  0.3634754E+04  0.7818608E-02  0.8082577E-01
          4   -1    0    0  501    0  0.00000000000E+00  0.00000000000E+00  0.98139266944E+03  0.98139266944E+03  0.00000000000E+00 0.  1.
         -4   -1    0    0    0  501 -0.00000000000E+00 -0.00000000000E+00 -0.33654818332E+04  0.33654818332E+04  0.00000000000E+00 0. -1.
         23    2    1    2    0    0 -0.89539688183E+03 -0.11510882393E+04 -0.24874310131E+04  0.28848829676E+04  0.92179069527E+02 0.  0.
         11    1    3    3    0    0 -0.13523316720E+03 -0.18408957281E+03 -0.32778699843E+03  0.39952634039E+03  0.00000000000E+00 0. -1.
        -11    1    3    3    0    0 -0.76016371464E+03 -0.96699866654E+03 -0.21596440147E+04  0.24853566272E+04  0.00000000000E+00 0.  1.
         22    1    1    2    0    0  0.89539688183E+03  0.11510882393E+04  0.10334184935E+03  0.14619915351E+04  0.00000000000E+00 0.  1.
<mgrwt>
<rscale>  0 0.36347540E+04</rscale>
<asrwt>0</asrwt>
<pdfrwt beam="1">  1        4 0.15098349E+00 0.36347540E+04</pdfrwt>
<pdfrwt beam="2">  1       -4 0.51776643E+00 0.36347540E+04</pdfrwt>
<totfact> 0.40423975E-04</totfact>
</mgrwt>
</event>
<event>
 6    1  0.1878398E-004  0.1452557E+04  0.7818608E-02  0.8916630E-01
         -2   -1    0    0    0  501 -0.00000000000E+00  0.00000000000E+00  0.38807882471E+03  0.38807882471E+03  0.00000000000E+00 0. -1.
          2   -1    0    0  501    0  0.00000000000E+00 -0.00000000000E+00 -0.13592094834E+04  0.13592094834E+04  0.00000000000E+00 0.  1.
         23    2    1    2    0    0 -0.23863729412E+02  0.34881019318E+03 -0.12493055846E+04  0.13005005308E+04  0.91099716789E+02 0.  0.
         11    1    3    3    0    0 -0.12452229863E+02  0.22841891333E+03 -0.64901869095E+03  0.68815370317E+03  0.00000000000E+00 0. -1.
        -11    1    3    3    0    0 -0.11411499549E+02  0.12039127986E+03 -0.60028689369E+03  0.61234682765E+03  0.00000000000E+00 0.  1.
         22    1    1    2    0    0  0.23863729412E+02 -0.34881019318E+03  0.27817492599E+03  0.44678777725E+03  0.00000000000E+00 0. -1.
<mgrwt>
<rscale>  0 0.14525569E+04</rscale>
<asrwt>0</asrwt>
<pdfrwt beam="1">  1        2 0.20910915E+00 0.14525569E+04</pdfrwt>
<pdfrwt beam="2">  1       -2 0.59704435E-01 0.14525569E+04</pdfrwt>
<totfact> 0.38754474E+01</totfact>
</mgrwt>
</event>
<event>
 6    1  0.1878398E-004  0.6660986E+04  0.7818608E-02  0.7613446E-01
          2   -1    0    0  501    0  0.00000000000E+00  0.00000000000E+00  0.31724700655E+04  0.31724700655E+04  0.00000000000E+00 0.  1.
         -2   -1    0    0    0  501 -0.00000000000E+00 -0.00000000000E+00 -0.34963875169E+04  0.34963875169E+04  0.00000000000E+00 0. -1.
         23    2    1    2    0    0  0.12431977766E+03  0.30248960431E+04  0.12262575058E+04  0.32676087123E+04  0.90043030466E+02 0.  0.
         11    1    3    3    0    0  0.52397011666E+02  0.86426443704E+03  0.39082828973E+03  0.94997116589E+03  0.00000000000E+00 0.  1.
        -11    1    3    3    0    0  0.71922765992E+02  0.21606316060E+04  0.83542921609E+03  0.23176375464E+04  0.00000000000E+00 0. -1.
         22    1    1    2    0    0 -0.12431977766E+03 -0.30248960431E+04 -0.15501749572E+04  0.34012488701E+04  0.00000000000E+00 0. -1.
<mgrwt>
<rscale>  0 0.66609863E+04</rscale>
<asrwt>0</asrwt>
<pdfrwt beam="1">  1        2 0.48807232E+00 0.66609863E+04</pdfrwt>
<pdfrwt beam="2">  1       -2 0.53790577E+00 0.66609863E+04</pdfrwt>
<totfact> 0.87264020E-04</totfact>
</mgrwt>
</event>
<event>
 6    1  0.1878398E-004  0.4875969E+04  0.7818608E-02  0.7847930E-01
         -2   -1    0    0    0  501 -0.00000000000E+00  0.00000000000E+00  0.14068727664E+04  0.14068727664E+04  0.00000000000E+00 0. -1.
          2   -1    0    0  501    0  0.00000000000E+00 -0.00000000000E+00 -0.42248085783E+04  0.42248085783E+04  0.00000000000E+00 0.  1.
         23    2    1    2    0    0 -0.61486331079E+03 -0.15281283221E+04  0.66525579729E+03  0.17786491822E+04  0.88286905605E+02 0.  0.
         13    1    3    3    0    0 -0.23237147881E+03 -0.64826611336E+03  0.31541202514E+03  0.75744980262E+03  0.00000000000E+00 0.  1.
        -13    1    3    3    0    0 -0.38249183199E+03 -0.87986220873E+03  0.34984377215E+03  0.10211993796E+04  0.00000000000E+00 0. -1.
         22    1    1    2    0    0  0.61486331079E+03  0.15281283221E+04 -0.34831916092E+04  0.38530321626E+04  0.00000000000E+00 0.  1.
<mgrwt>
<rscale>  0 0.48759689E+04</rscale>
<asrwt>0</asrwt>
<pdfrwt beam="1">  1        2 0.64997054E+00 0.48759689E+04</pdfrwt>
<pdfrwt beam="2">  1       -2 0.21644197E+00 0.48759689E+04</pdfrwt>
<totfact> 0.16826790E-02</totfact>
</mgrwt>
</event>
<event>
 6    1  0.1878398E-004  0.3422586E+04  0.7818608E-02  0.8132385E-01
         -1   -1    0    0    0  501 -0.00000000000E+00  0.00000000000E+00  0.10216591595E+04  0.10216591595E+04  0.00000000000E+00 0. -1.
          1   -1    0    0  501    0  0.00000000000E+00 -0.00000000000E+00 -0.28664397118E+04  0.28664397118E+04  0.00000000000E+00 0.  1.
         23    2    1    2    0    0 -0.53039965809E+03  0.72350841189E+01 -0.27699041141E+04  0.28216891245E+04  0.90468615538E+02 0.  0.
         11    1    3    3    0    0 -0.92511814229E+02  0.28645524628E+02 -0.62260755749E+03  0.63009457425E+03  0.00000000000E+00 0.  1.
        -11    1    3    3    0    0 -0.43788784386E+03 -0.21410440509E+02 -0.21472965566E+04  0.21915945502E+04  0.00000000000E+00 0. -1.
         22    1    1    2    0    0  0.53039965809E+03 -0.72350841189E+01  0.92512356173E+03  0.10664097469E+04  0.00000000000E+00 0. -1.
<mgrwt>
<rscale>  0 0.34225864E+04</rscale>
<asrwt>0</asrwt>
<pdfrwt beam="1">  1        1 0.44099072E+00 0.34225864E+04</pdfrwt>
<pdfrwt beam="2">  1       -1 0.15717833E+00 0.34225864E+04</pdfrwt>
<totfact> 0.18821668E-01</totfact>
</mgrwt>
</event>
<event>
 6    1  0.1878398E-004  0.2599687E+04  0.7818608E-02  0.8368308E-01
         -1   -1    0    0    0  501 -0.00000000000E+00  0.00000000000E+00  0.98147906924E+03  0.98147906924E+03  0.00000000000E+00 0. -1.
          1   -1    0    0  501    0  0.00000000000E+00 -0.00000000000E+00 -0.17214762560E+04  0.17214762560E+04  0.00000000000E+00 0.  1.
         23    2    1    2    0    0 -0.69543558683E+03  0.71820218327E+03  0.49073539370E+03  0.11173489062E+04  0.90566661101E+02 0.  0.
         11    1    3    3    0    0 -0.33301534975E+03  0.31330805911E+03  0.18009730670E+03  0.49142263171E+03  0.00000000000E+00 0.  1.
        -11    1    3    3    0    0 -0.36242023709E+03  0.40489412415E+03  0.31063808700E+03  0.62592627451E+03  0.00000000000E+00 0. -1.
         22    1    1    2    0    0  0.69543558683E+03 -0.71820218327E+03 -0.12307325805E+04  0.15856064191E+04  0.00000000000E+00 0.  1.
<mgrwt>
<rscale>  0 0.25996868E+04</rscale>
<asrwt>0</asrwt>
<pdfrwt beam="1">  1        1 0.26484249E+00 0.25996868E+04</pdfrwt>
<pdfrwt beam="2">  1       -1 0.15099678E+00 0.25996868E+04</pdfrwt>
<totfact> 0.13908382E+00</totfact>
</mgrwt>
</event>
<event>
 6    1  0.1878398E-004  0.3009916E+04  0.7818608E-02  0.8240905E-01
         -2   -1    0    0    0  501 -0.00000000000E+00  0.00000000000E+00  0.67839133371E+03  0.67839133371E+03  0.00000000000E+00 0.  1.
          2   -1    0    0  501    0  0.00000000000E+00 -0.00000000000E+00 -0.33386309651E+04  0.33386309651E+04  0.00000000000E+00 0. -1.
         23    2    1    2    0    0  0.31386034098E+03 -0.12508014330E+04 -0.29941454693E+03  0.13269465344E+04  0.90141532080E+02 0.  0.
         13    1    3    3    0    0  0.58211381498E+02 -0.20083012354E+03 -0.82274436780E+02  0.22470065955E+03  0.00000000000E+00 0.  1.
        -13    1    3    3    0    0  0.25564895948E+03 -0.10499713095E+04 -0.21714011015E+03  0.11022458749E+04  0.00000000000E+00 0. -1.
         22    1    1    2    0    0 -0.31386034098E+03  0.12508014330E+04 -0.23608250845E+04  0.26900757643E+04  0.00000000000E+00 0.  1.
<mgrwt>
<rscale>  0 0.30099158E+04</rscale>
<asrwt>0</asrwt>
<pdfrwt beam="1">  1        2 0.51363553E+00 0.30099158E+04</pdfrwt>
<pdfrwt beam="2">  1       -2 0.10436790E+00 0.30099158E+04</pdfrwt>
<totfact> 0.66886302E-01</totfact>
</mgrwt>
</event>
<event>
 6    1  0.1878398E-004  0.4973130E+03  0.7818608E-02  0.1014483E+00
         -1   -1    0    0    0  501 -0.00000000000E+00  0.00000000000E+00  0.23572386387E+03  0.23572386387E+03  0.00000000000E+00 0. -1.
          1   -1    0    0  501    0  0.00000000000E+00 -0.00000000000E+00 -0.26229871048E+03  0.26229871048E+03  0.00000000000E+00 0.  1.
         23    2    1    2    0    0  0.20324200120E+03  0.21389760107E+02 -0.14039294898E+03  0.26410080684E+03  0.90962756991E+02 0.  0.
         11    1    3    3    0    0  0.10944642228E+03  0.29460255982E+02 -0.26615161747E+02  0.11642505258E+03  0.00000000000E+00 0. -1.
        -11    1    3    3    0    0  0.93795578919E+02 -0.80704958750E+01 -0.11377778724E+03  0.14767575426E+03  0.00000000000E+00 0.  1.
         22    1    1    2    0    0 -0.20324200120E+03 -0.21389760107E+02  0.11381810237E+03  0.23392176751E+03  0.00000000000E+00 0. -1.
<mgrwt>
<rscale>  0 0.49731304E+03</rscale>
<asrwt>0</asrwt>
<pdfrwt beam="1">  1        1 0.40353648E-01 0.49731304E+03</pdfrwt>
<pdfrwt beam="2">  1       -1 0.36265210E-01 0.49731304E+03</pdfrwt>
<totfact> 0.76501485E+02</totfact>
</mgrwt>
</event>
<event>
 6    1  0.1878398E-004  0.3127461E+04  0.7818608E-02  0.8208242E-01
          1   -1    0    0  501    0  0.00000000000E+00  0.00000000000E+00  0.26297975364E+04  0.26297975364E+04  0.00000000000E+00 0.  1.
         -1   -1    0    0    0  501 -0.00000000000E+00 -0.00000000000E+00 -0.92982549186E+03  0.92982549186E+03  0.00000000000E+00 0. -1.
         23    2    1    2    0    0  0.74067218828E+03  0.11889010536E+04  0.16384565371E+04  0.21575298918E+04  0.91183354383E+02 0.  0.
         11    1    3    3    0    0  0.67867293951E+03  0.10342837947E+04  0.14378297612E+04  0.18967589064E+04  0.00000000000E+00 0. -1.
        -11    1    3    3    0    0  0.61999248773E+02  0.15461725890E+03  0.20062677593E+03  0.26077098539E+03  0.00000000000E+00 0.  1.
         22    1    1    2    0    0 -0.74067218828E+03 -0.11889010536E+04  0.61515507396E+02  0.14020931365E+04  0.00000000000E+00 0. -1.
<mgrwt>
<rscale>  0 0.31274608E+04</rscale>
<asrwt>0</asrwt>
<pdfrwt beam="1">  1        1 0.40458423E+00 0.31274608E+04</pdfrwt>
<pdfrwt beam="2">  1       -1 0.14305008E+00 0.31274608E+04</pdfrwt>
<totfact> 0.36646936E-01</totfact>
</mgrwt>
</event>
<event>
 6    1  0.1878398E-004  0.9244191E+03  0.7818608E-02  0.9395561E-01
          2   -1    0    0  501    0  0.00000000000E+00  0.00000000000E+00  0.46332202841E+03  0.46332202841E+03  0.00000000000E+00 0.  1.
         -2   -1    0    0    0  501 -0.00000000000E+00 -0.00000000000E+00 -0.46109970896E+03  0.46109970896E+03  0.00000000000E+00 0. -1.
         23    2    1    2    0    0 -0.27912029687E+03  0.33132496806E+03  0.14864689888E+03  0.46712037935E+03  0.91766953075E+02 0.  0.
         11    1    3    3    0    0 -0.20831706865E+03  0.28648150963E+03  0.14641294775E+03  0.38328110796E+03  0.00000000000E+00 0. -1.
        -11    1    3    3    0    0 -0.70803228216E+02  0.44843458425E+02  0.22339511329E+01  0.83839271389E+02  0.00000000000E+00 0.  1.
         22    1    1    2    0    0  0.27912029687E+03 -0.33132496806E+03 -0.14642457943E+03  0.45730135802E+03  0.00000000000E+00 0.  1.
<mgrwt>
<rscale>  0 0.92441907E+03</rscale>
<asrwt>0</asrwt>
<pdfrwt beam="1">  1        2 0.71280313E-01 0.92441907E+03</pdfrwt>
<pdfrwt beam="2">  1       -2 0.70938416E-01 0.92441907E+03</pdfrwt>
<totfact> 0.12179013E+02</totfact>
</mgrwt>
</event>
<event>
 6    1  0.1878398E-004  0.2611934E+04  0.7818608E-02  0.8364159E-01
         -2   -1    0    0    0  501 -0.00000000000E+00  0.00000000000E+00  0.39976021088E+03  0.39976021088E+03  0.00000000000E+00 0.  1.
          2   -1    0    0  501    0  0.00000000000E+00 -0.00000000000E+00 -0.42664315017E+04  0.42664315017E+04  0.00000000000E+00 0. -1.
         23    2    1    2    0    0  0.38972540620E+03 -0.11134542638E+04 -0.29298291225E+04  0.31597589931E+04  0.92260056609E+02 0.  0.
         13    1    3    3    0    0  0.34601630117E+03 -0.10442579142E+04 -0.27625569583E+04  0.29735370890E+04  0.00000000000E+00 0. -1.
        -13    1    3    3    0    0  0.43709105037E+02 -0.69196349562E+02 -0.16727216416E+03  0.18622190408E+03  0.00000000000E+00 0.  1.
         22    1    1    2    0    0 -0.38972540620E+03  0.11134542638E+04 -0.93684216832E+03  0.15064327194E+04  0.00000000000E+00 0.  1.
<mgrwt>
<rscale>  0 0.26119338E+04</rscale>
<asrwt>0</asrwt>
<pdfrwt beam="1">  1        2 0.65637410E+00 0.26119338E+04</pdfrwt>
<pdfrwt beam="2">  1       -2 0.61501569E-01 0.26119338E+04</pdfrwt>
<totfact> 0.44288404E-01</totfact>
</mgrwt>
</event>
<event>
 6    1  0.1878398E-004  0.2870873E+04  0.7818608E-02  0.8281597E-01
         -2   -1    0    0    0  501 -0.00000000000E+00  0.00000000000E+00  0.17444183897E+04  0.17444183897E+04  0.00000000000E+00 0. -1.
          2   -1    0    0  501    0  0.00000000000E+00 -0.00000000000E+00 -0.11811836443E+04  0.11811836443E+04  0.00000000000E+00 0.  1.
         23    2    1    2    0    0 -0.10901497138E+04  0.19432373046E+03  0.12104999230E+04  0.16429717987E+04  0.88646246519E+02 0.  0.
         13    1    3    3    0    0 -0.20637457307E+03  0.29275009876E+02  0.17995838901E+03  0.27537703678E+03  0.00000000000E+00 0.  1.
        -13    1    3    3    0    0 -0.88377514069E+03  0.16504872058E+03  0.10305415340E+04  0.13675947619E+04  0.00000000000E+00 0. -1.
         22    1    1    2    0    0  0.10901497138E+04 -0.19432373046E+03 -0.64726517757E+03  0.12826302354E+04  0.00000000000E+00 0.  1.
<mgrwt>
<rscale>  0 0.28708734E+04</rscale>
<asrwt>0</asrwt>
<pdfrwt beam="1">  1        2 0.18172056E+00 0.28708734E+04</pdfrwt>
<pdfrwt beam="2">  1       -2 0.26837206E+00 0.28708734E+04</pdfrwt>
<totfact> 0.83397340E-01</totfact>
</mgrwt>
</event>
<event>
 6    1  0.1878398E-004  0.2654764E+04  0.7818608E-02  0.8349833E-01
          2   -1    0    0  501    0  0.00000000000E+00  0.00000000000E+00  0.20160168328E+04  0.20160168328E+04  0.00000000000E+00 0.  1.
         -2   -1    0    0    0  501 -0.00000000000E+00 -0.00000000000E+00 -0.87397235052E+03  0.87397235052E+03  0.00000000000E+00 0. -1.
         23    2    1    2    0    0  0.55843246895E+03 -0.12521733130E+03 -0.72994200933E+03  0.93247554934E+03  0.95755473501E+02 0.  0.
         13    1    3    3    0    0  0.35060591030E+03 -0.56450171768E+02 -0.38352016531E+03  0.52268426744E+03  0.00000000000E+00 0.  1.
        -13    1    3    3    0    0  0.20782655865E+03 -0.68767159535E+02 -0.34642184402E+03  0.40979128190E+03  0.00000000000E+00 0. -1.
         22    1    1    2    0    0 -0.55843246895E+03  0.12521733130E+03  0.18719864916E+04  0.19575136340E+04  0.00000000000E+00 0.  1.
<mgrwt>
<rscale>  0 0.26547640E+04</rscale>
<asrwt>0</asrwt>
<pdfrwt beam="1">  1        2 0.31015643E+00 0.26547640E+04</pdfrwt>
<pdfrwt beam="2">  1       -2 0.13445729E+00 0.26547640E+04</pdfrwt>
<totfact> 0.22974786E+00</totfact>
</mgrwt>
</event>
<event>
 6    1  0.1878398E-004  0.1827467E+04  0.7818608E-02  0.8691828E-01
         -2   -1    0    0    0  501 -0.00000000000E+00  0.00000000000E+00  0.27202439553E+03  0.27202439553E+03  0.00000000000E+00 0. -1.
          2   -1    0    0  501    0  0.00000000000E+00 -0.00000000000E+00 -0.30692429543E+04  0.30692429543E+04  0.00000000000E+00 0.  1.
         23    2    1    2    0    0 -0.86683624346E+02  0.89290091872E+03 -0.16932826213E+04  0.19187833761E+04  0.98678810210E+02 0.  0.
         11    1    3    3    0    0 -0.38594159545E+02  0.20176983814E+03 -0.47014844490E+03  0.51306932960E+03  0.00000000000E+00 0. -1.
        -11    1    3    3    0    0 -0.48089464801E+02  0.69113108059E+03 -0.12231341764E+04  0.14057140465E+04  0.00000000000E+00 0.  1.
         22    1    1    2    0    0  0.86683624346E+02 -0.89290091872E+03 -0.11039359375E+04  0.14224839737E+04  0.00000000000E+00 0. -1.
<mgrwt>
<rscale>  0 0.18274671E+04</rscale>
<asrwt>0</asrwt>
<pdfrwt beam="1">  1        2 0.47219122E+00 0.18274671E+04</pdfrwt>
<pdfrwt beam="2">  1       -2 0.41849907E-01 0.18274671E+04</pdfrwt>
<totfact> 0.80572233E+00</totfact>
</mgrwt>
</event>
<event>
 6    1  0.1878398E-004  0.2660631E+04  0.7818608E-02  0.8347893E-01
         -1   -1    0    0    0  501 -0.00000000000E+00  0.00000000000E+00  0.93261002575E+03  0.93261002575E+03  0.00000000000E+00 0. -1.
          1   -1    0    0  501    0  0.00000000000E+00 -0.00000000000E+00 -0.18976202596E+04  0.18976202596E+04  0.00000000000E+00 0.  1.
         23    2    1    2    0    0  0.84640405717E+03  0.83482476587E+03 -0.11145383388E+04  0.16320271006E+04  0.89356201062E+02 0.  0.
         11    1    3    3    0    0  0.76171657957E+03  0.71133911028E+03 -0.96355290741E+03  0.14193835573E+04  0.00000000000E+00 0. -1.
        -11    1    3    3    0    0  0.84687477596E+02  0.12348565559E+03 -0.15098543139E+03  0.21264354326E+03  0.00000000000E+00 0.  1.
         22    1    1    2    0    0 -0.84640405717E+03 -0.83482476587E+03  0.14952810498E+03  0.11982031847E+04  0.00000000000E+00 0.  1.
<mgrwt>
<rscale>  0 0.26606313E+04</rscale>
<asrwt>0</asrwt>
<pdfrwt beam="1">  1        1 0.29194158E+00 0.26606313E+04</pdfrwt>
<pdfrwt beam="2">  1       -1 0.14347847E+00 0.26606313E+04</pdfrwt>
<totfact> 0.12037787E+00</totfact>
</mgrwt>
</event>
<event>
 6    1  0.1878398E-004  0.1465236E+04  0.7818608E-02  0.8907905E-01
          1   -1    0    0  501    0  0.00000000000E+00  0.00000000000E+00  0.13138751482E+04  0.13138751482E+04  0.00000000000E+00 0.  1.
         -1   -1    0    0    0  501 -0.00000000000E+00 -0.00000000000E+00 -0.40850859464E+03  0.40850859464E+03  0.00000000000E+00 0. -1.
         23    2    1    2    0    0 -0.29711064615E+03 -0.41763277517E+03  0.10649603334E+04  0.11855764725E+04  0.93590541273E+02 0.  0.
         11    1    3    3    0    0 -0.16335481075E+03 -0.23959981460E+03  0.49540074948E+03  0.57403376898E+03  0.00000000000E+00 0. -1.
        -11    1    3    3    0    0 -0.13375583540E+03 -0.17803296057E+03  0.56955958393E+03  0.61154270349E+03  0.00000000000E+00 0.  1.
         22    1    1    2    0    0  0.29711064615E+03  0.41763277517E+03 -0.15959377984E+03  0.53680727037E+03  0.00000000000E+00 0. -1.
<mgrwt>
<rscale>  0 0.14652362E+04</rscale>
<asrwt>0</asrwt>
<pdfrwt beam="1">  1        1 0.20213464E+00 0.14652362E+04</pdfrwt>
<pdfrwt beam="2">  1       -1 0.62847477E-01 0.14652362E+04</pdfrwt>
<totfact> 0.22023246E+01</totfact>
</mgrwt>
</event>
<event>
 6    1  0.1878398E-004  0.4527818E+04  0.7818608E-02  0.7905785E-01
         -1   -1    0    0    0  501 -0.00000000000E+00  0.00000000000E+00  0.17583072400E+04  0.17583072400E+04  0.00000000000E+00 0. -1.
          1   -1    0    0  501    0  0.00000000000E+00 -0.00000000000E+00 -0.29148970030E+04  0.29148970030E+04  0.00000000000E+00 0.  1.
         23    2    1    2    0    0 -0.16324859508E+04 -0.11197648014E+04  0.55313954277E+03  0.20574714797E+04  0.91334254064E+02 0.  0.
         13    1    3    3    0    0 -0.41152123556E+03 -0.28121758671E+03  0.98399629488E+02  0.50805073120E+03  0.00000000000E+00 0.  1.
        -13    1    3    3    0    0 -0.12209647152E+04 -0.83854721473E+03  0.45473991328E+03  0.15494207485E+04  0.00000000000E+00 0. -1.
         22    1    1    2    0    0  0.16324859508E+04  0.11197648014E+04 -0.17097293058E+04  0.26157327633E+04  0.00000000000E+00 0. -1.
<mgrwt>
<rscale>  0 0.45278182E+04</rscale>
<asrwt>0</asrwt>
<pdfrwt beam="1">  1        1 0.44844569E+00 0.45278182E+04</pdfrwt>
<pdfrwt beam="2">  1       -1 0.27050881E+00 0.45278182E+04</pdfrwt>
<totfact> 0.26492358E-02</totfact>
</mgrwt>
</event>
<event>
 6    1  0.1878398E-004  0.1406184E+04  0.7818608E-02  0.8949354E-01
          2   -1    0    0  501    0  0.00000000000E+00  0.00000000000E+00  0.12456562623E+04  0.12456562623E+04  0.00000000000E+00 0.  1.
         -2   -1    0    0    0  501 -0.00000000000E+00 -0.00000000000E+00 -0.39684985508E+03  0.39684985508E+03  0.00000000000E+00 0. -1.
         23    2    1    2    0    0  0.51992366941E+03 -0.18156740408E+03 -0.78743910678E+02  0.56378607192E+03  0.91470143671E+02 0.  0.
         13    1    3    3    0    0  0.36360696394E+03 -0.17037186584E+03 -0.56725915617E+02  0.40552980950E+03  0.00000000000E+00 0.  1.
        -13    1    3    3    0    0  0.15631670547E+03 -0.11195538234E+02 -0.22017995061E+02  0.15825626241E+03  0.00000000000E+00 0. -1.
         22    1    1    2    0    0 -0.51992366941E+03  0.18156740408E+03  0.92755031785E+03  0.10787200454E+04  0.00000000000E+00 0.  1.
<mgrwt>
<rscale>  0 0.14061842E+04</rscale>
<asrwt>0</asrwt>
<pdfrwt beam="1">  1        2 0.19163942E+00 0.14061842E+04</pdfrwt>
<pdfrwt beam="2">  1       -2 0.61053824E-01 0.14061842E+04</pdfrwt>
<totfact> 0.43205299E+01</totfact>
</mgrwt>
</event>
<event>
 6    1  0.1878398E-004  0.1788797E+04  0.7818608E-02  0.8712280E-01
          2   -1    0    0  501    0  0.00000000000E+00  0.00000000000E+00  0.94718626583E+03  0.94718626583E+03  0.00000000000E+00 0.  1.
         -2   -1    0    0    0  501 -0.00000000000E+00 -0.00000000000E+00 -0.84455247065E+03  0.84455247065E+03  0.00000000000E+00 0. -1.
         23    2    1    2    0    0 -0.34358807006E+03 -0.51032197653E+03  0.69857075175E+03  0.93522128901E+03  0.90313247050E+02 0.  0.
         11    1    3    3    0    0 -0.56901165965E+02 -0.15291795742E+03  0.16781207865E+03  0.23405669854E+03  0.00000000000E+00 0.  1.
        -11    1    3    3    0    0 -0.28668690409E+03 -0.35740401911E+03  0.53075867310E+03  0.70116459047E+03  0.00000000000E+00 0. -1.
         22    1    1    2    0    0  0.34358807006E+03  0.51032197653E+03 -0.59593695657E+03  0.85651744748E+03  0.00000000000E+00 0. -1.
<mgrwt>
<rscale>  0 0.17887968E+04</rscale>
<asrwt>0</asrwt>
<pdfrwt beam="1">  1        2 0.14572096E+00 0.17887968E+04</pdfrwt>
<pdfrwt beam="2">  1       -2 0.12993115E+00 0.17887968E+04</pdfrwt>
<totfact> 0.11203998E+01</totfact>
</mgrwt>
</event>
<event>
 6    1  0.1878398E-004  0.1301049E+04  0.7818608E-02  0.9028734E-01
          2   -1    0    0  501    0  0.00000000000E+00  0.00000000000E+00  0.27023153233E+04  0.27023153233E+04  0.00000000000E+00 0.  1.
         -2   -1    0    0    0  501 -0.00000000000E+00 -0.00000000000E+00 -0.15659982675E+03  0.15659982675E+03  0.00000000000E+00 0. -1.
         23    2    1    2    0    0  0.26076537385E+03  0.58823362225E+03  0.14341509006E+04  0.15745502387E+04  0.91663918315E+02 0.  0.
         11    1    3    3    0    0  0.22770368808E+03  0.55293922143E+03  0.13642239657E+04  0.14895293823E+04  0.00000000000E+00 0.  1.
        -11    1    3    3    0    0  0.33061685765E+02  0.35294400821E+02  0.69926934850E+02  0.85020856338E+02  0.00000000000E+00 0. -1.
         22    1    1    2    0    0 -0.26076537385E+03 -0.58823362225E+03  0.11115645959E+04  0.12843649113E+04  0.00000000000E+00 0. -1.
<mgrwt>
<rscale>  0 0.13010490E+04</rscale>
<asrwt>0</asrwt>
<pdfrwt beam="1">  1        2 0.41574078E+00 0.13010490E+04</pdfrwt>
<pdfrwt beam="2">  1       -2 0.24092283E-01 0.13010490E+04</pdfrwt>
<totfact> 0.40082270E+01</totfact>
</mgrwt>
</event>
<event>
 6    1  0.1878398E-004  0.1684046E+04  0.7818608E-02  0.8770516E-01
         -2   -1    0    0    0  501 -0.00000000000E+00  0.00000000000E+00  0.12599225314E+04  0.12599225314E+04  0.00000000000E+00 0. -1.
          2   -1    0    0  501    0  0.00000000000E+00 -0.00000000000E+00 -0.56273533792E+03  0.56273533792E+03  0.00000000000E+00 0.  1.
         23    2    1    2    0    0 -0.72744149847E+03 -0.34277972783E+03  0.87774548053E+02  0.81367181991E+03  0.87683429101E+02 0.  0.
         11    1    3    3    0    0 -0.70024850357E+03 -0.31226028914E+03  0.72906339457E+02  0.77017516791E+03  0.00000000000E+00 0.  1.
        -11    1    3    3    0    0 -0.27192994892E+02 -0.30519438683E+02  0.14868208596E+02  0.43496652004E+02  0.00000000000E+00 0. -1.
         22    1    1    2    0    0  0.72744149847E+03  0.34277972783E+03  0.60941264543E+03  0.10089860494E+04  0.00000000000E+00 0. -1.
<mgrwt>
<rscale>  0 0.16840462E+04</rscale>
<asrwt>0</asrwt>
<pdfrwt beam="1">  1        2 0.86574668E-01 0.16840462E+04</pdfrwt>
<pdfrwt beam="2">  1       -2 0.19383423E+00 0.16840462E+04</pdfrwt>
<totfact> 0.74502199E+00</totfact>
</mgrwt>
</event>
<event>
 6    1  0.1878398E-004  0.2739389E+04  0.7818608E-02  0.8322337E-01
          1   -1    0    0  501    0  0.00000000000E+00  0.00000000000E+00  0.11466887558E+04  0.11466887558E+04  0.00000000000E+00 0.  1.
         -1   -1    0    0    0  501 -0.00000000000E+00 -0.00000000000E+00 -0.16360698447E+04  0.16360698447E+04  0.00000000000E+00 0. -1.
         23    2    1    2    0    0 -0.50855548001E+02  0.71645617683E+03 -0.14278025972E+04  0.16010096140E+04  0.93358381823E+02 0.  0.
         11    1    3    3    0    0 -0.58564662991E+02  0.39410623434E+03 -0.71112355271E+03  0.81513572546E+03  0.00000000000E+00 0.  1.
        -11    1    3    3    0    0  0.77091149900E+01  0.32234994249E+03 -0.71667904448E+03  0.78587388853E+03  0.00000000000E+00 0. -1.
         22    1    1    2    0    0  0.50855548001E+02 -0.71645617683E+03  0.93842150828E+03  0.11817489866E+04  0.00000000000E+00 0.  1.
<mgrwt>
<rscale>  0 0.27393889E+04</rscale>
<asrwt>0</asrwt>
<pdfrwt beam="1">  1        1 0.17641365E+00 0.27393889E+04</pdfrwt>
<pdfrwt beam="2">  1       -1 0.25170305E+00 0.27393889E+04</pdfrwt>
<totfact> 0.69176829E-01</totfact>
</mgrwt>
</event>
<event>
 6    1  0.1878398E-004  0.3751458E+04  0.7818608E-02  0.8056653E-01
         -2   -1    0    0    0  501 -0.00000000000E+00  0.00000000000E+00  0.29874069374E+04  0.29874069374E+04  0.00000000000E+00 0. -1.
          2   -1    0    0  501    0  0.00000000000E+00 -0.00000000000E+00 -0.11777304651E+04  0.11777304651E+04  0.00000000000E+00 0.  1.
         23    2    1    2    0    0  0.10962534719E+04 -0.73297456030E+03  0.23846352934E+04  0.27265266050E+04  0.91861114270E+02 0.  0.
         13    1    3    3    0    0  0.88915036326E+03 -0.56384750007E+03  0.19549895288E+04  0.22204721186E+04  0.00000000000E+00 0. -1.
        -13    1    3    3    0    0  0.20710310866E+03 -0.16912706023E+03  0.42964576457E+03  0.50605448633E+03  0.00000000000E+00 0.  1.
         22    1    1    2    0    0 -0.10962534719E+04  0.73297456030E+03 -0.57495882113E+03  0.14386107975E+04  0.00000000000E+00 0.  1.
<mgrwt>
<rscale>  0 0.37514585E+04</rscale>
<asrwt>0</asrwt>
<pdfrwt beam="1">  1        2 0.18118930E+00 0.37514585E+04</pdfrwt>
<pdfrwt beam="2">  1       -2 0.45960106E+00 0.37514585E+04</pdfrwt>
<totfact> 0.47144138E-02</totfact>
</mgrwt>
</event>
<event>
 6    1  0.1878398E-004  0.3417002E+04  0.7818608E-02  0.8133746E-01
         -2   -1    0    0    0  501 -0.00000000000E+00  0.00000000000E+00  0.13111101004E+04  0.13111101004E+04  0.00000000000E+00 0. -1.
          2   -1    0    0  501    0  0.00000000000E+00 -0.00000000000E+00 -0.22263389534E+04  0.22263389534E+04  0.00000000000E+00 0.  1.
         23    2    1    2    0    0 -0.44223252787E+03 -0.16366558389E+04 -0.66714425151E+03  0.18240436981E+04  0.88555161901E+02 0.  0.
         11    1    3    3    0    0 -0.27573669824E+03 -0.85213055636E+03 -0.35747582806E+03  0.96433717106E+03  0.00000000000E+00 0. -1.
        -11    1    3    3    0    0 -0.16649582962E+03 -0.78452528250E+03 -0.30966842345E+03  0.85970652705E+03  0.00000000000E+00 0.  1.
         22    1    1    2    0    0  0.44223252787E+03  0.16366558389E+04 -0.24808460153E+03  0.17134053557E+04  0.00000000000E+00 0.  1.
<mgrwt>
<rscale>  0 0.34170019E+04</rscale>
<asrwt>0</asrwt>
<pdfrwt beam="1">  1        2 0.34251368E+00 0.34170019E+04</pdfrwt>
<pdfrwt beam="2">  1       -2 0.20170925E+00 0.34170019E+04</pdfrwt>
<totfact> 0.53509532E-01</totfact>
</mgrwt>
</event>
<event>
 6    1  0.1878398E-004  0.3020984E+04  0.7818608E-02  0.8237764E-01
          1   -1    0    0  501    0  0.00000000000E+00  0.00000000000E+00  0.17037985938E+04  0.17037985938E+04  0.00000000000E+00 0.  1.
         -1   -1    0    0    0  501 -0.00000000000E+00 -0.00000000000E+00 -0.13391168412E+04  0.13391168412E+04  0.00000000000E+00 0. -1.
         23    2    1    2    0    0 -0.12978301585E+04  0.32973768717E+03  0.88380894265E+03  0.16067458412E+04  0.86161989516E+02 0.  0.
         11    1    3    3    0    0 -0.10465112655E+04  0.26041937854E+03  0.75106664971E+03  0.13141937429E+04  0.00000000000E+00 0. -1.
        -11    1    3    3    0    0 -0.25131889299E+03  0.69318308628E+02  0.13274229294E+03  0.29255209830E+03  0.00000000000E+00 0.  1.
         22    1    1    2    0    0  0.12978301585E+04 -0.32973768717E+03 -0.51912719010E+03  0.14361695938E+04  0.00000000000E+00 0. -1.
<mgrwt>
<rscale>  0 0.30209835E+04</rscale>
<asrwt>0</asrwt>
<pdfrwt beam="1">  1        1 0.26212286E+00 0.30209835E+04</pdfrwt>
<pdfrwt beam="2">  1       -1 0.20601797E+00 0.30209835E+04</pdfrwt>
<totfact> 0.55079096E-01</totfact>
</mgrwt>
</event>
<event>
 6    1  0.1878398E-004  0.2723849E+04  0.7818608E-02  0.8327308E-01
          2   -1    0    0  501    0  0.00000000000E+00  0.00000000000E+00  0.23583824049E+04  0.23583824049E+04  0.00000000000E+00 0.  1.
         -2   -1    0    0    0  501 -0.00000000000E+00 -0.00000000000E+00 -0.78648752070E+03  0.78648752070E+03  0.00000000000E+00 0. -1.
         23    2    1    2    0    0 -0.50650204893E+03 -0.69233711919E+03  0.20059270892E+04  0.21834860443E+04  0.89402494254E+02 0.  0.
         11    1    3    3    0    0 -0.35326874318E+03 -0.51940419199E+03  0.15472766830E+04  0.16699235472E+04  0.00000000000E+00 0.  1.
        -11    1    3    3    0    0 -0.15323330575E+03 -0.17293292720E+03  0.45865040622E+03  0.51356249710E+03  0.00000000000E+00 0. -1.
         22    1    1    2    0    0  0.50650204893E+03  0.69233711919E+03 -0.43403220508E+03  0.96138388130E+03  0.00000000000E+00 0. -1.
<mgrwt>
<rscale>  0 0.27238490E+04</rscale>
<asrwt>0</asrwt>
<pdfrwt beam="1">  1        2 0.36282806E+00 0.27238490E+04</pdfrwt>
<pdfrwt beam="2">  1       -2 0.12099808E+00 0.27238490E+04</pdfrwt>
<totfact> 0.19123759E+00</totfact>
</mgrwt>
</event>
<event>
 6    1  0.1878398E-004  0.2504295E+04  0.7818608E-02  0.8401457E-01
         -2   -1    0    0    0  501 -0.00000000000E+00  0.00000000000E+00  0.61863099202E+03  0.61863099202E+03  0.00000000000E+00 0. -1.
          2   -1    0    0  501    0  0.00000000000E+00 -0.00000000000E+00 -0.25344237803E+04  0.25344237803E+04  0.00000000000E+00 0.  1.
         23    2    1    2    0    0  0.81010122207E+03 -0.30445283774E+03 -0.20952389245E+04  0.22692242251E+04  0.10196525300E+03 0.  0.
         13    1    3    3    0    0  0.55676510009E+03 -0.18875069987E+03 -0.15310194175E+04  0.16400105671E+04  0.00000000000E+00 0.  1.
        -13    1    3    3    0    0  0.25333612198E+03 -0.11570213787E+03 -0.56421950698E+03  0.62921365804E+03  0.00000000000E+00 0. -1.
         22    1    1    2    0    0 -0.81010122207E+03  0.30445283774E+03  0.17944613617E+03  0.88383054722E+03  0.00000000000E+00 0. -1.
<mgrwt>
<rscale>  0 0.25042948E+04</rscale>
<asrwt>0</asrwt>
<pdfrwt beam="1">  1        2 0.38991135E+00 0.25042948E+04</pdfrwt>
<pdfrwt beam="2">  1       -2 0.95174000E-01 0.25042948E+04</pdfrwt>
<totfact> 0.27500732E+00</totfact>
</mgrwt>
</event>
<event>
 6    1  0.1878398E-004  0.1521072E+04  0.7818608E-02  0.8870560E-01
         -2   -1    0    0    0  501 -0.00000000000E+00  0.00000000000E+00  0.88841494455E+03  0.88841494455E+03  0.00000000000E+00 0. -1.
          2   -1    0    0  501    0  0.00000000000E+00 -0.00000000000E+00 -0.65106421937E+03  0.65106421937E+03  0.00000000000E+00 0.  1.
         23    2    1    2    0    0 -0.75682596134E+03 -0.35020081626E+02  0.10822351579E+03  0.77091831526E+03  0.92686447538E+02 0.  0.
         11    1    3    3    0    0 -0.47874485365E+03 -0.29218395630E+02  0.11287262909E+03  0.49273784098E+03  0.00000000000E+00 0. -1.
        -11    1    3    3    0    0 -0.27808110770E+03 -0.58016859961E+01 -0.46491132933E+01  0.27818047428E+03  0.00000000000E+00 0.  1.
         22    1    1    2    0    0  0.75682596134E+03  0.35020081626E+02  0.12912720939E+03  0.76856084865E+03  0.00000000000E+00 0.  1.
<mgrwt>
<rscale>  0 0.15210722E+04</rscale>
<asrwt>0</asrwt>
<pdfrwt beam="1">  1        2 0.10016373E+00 0.15210722E+04</pdfrwt>
<pdfrwt beam="2">  1       -2 0.13667922E+00 0.15210722E+04</pdfrwt>
<totfact> 0.16536885E+01</totfact>
</mgrwt>
</event>
<event>
 6    1  0.1878398E-004  0.1488482E+04  0.7818608E-02  0.8892149E-01
         -1   -1    0    0    0  501 -0.00000000000E+00  0.00000000000E+00  0.19375330659E+03  0.19375330659E+03  0.00000000000E+00 0. -1.
          1   -1    0    0  501    0  0.00000000000E+00 -0.00000000000E+00 -0.28587617678E+04  0.28587617678E+04  0.00000000000E+00 0.  1.
         23    2    1    2    0    0  0.48448087599E+03  0.40602220343E+03 -0.21323218281E+04  0.22258768234E+04  0.90307837573E+02 0.  0.
         11    1    3    3    0    0  0.29227448138E+03  0.21143530240E+03 -0.13384748651E+04  0.13862338273E+04  0.00000000000E+00 0.  1.
        -11    1    3    3    0    0  0.19220639461E+03  0.19458690103E+03 -0.79384696303E+03  0.83964299610E+03  0.00000000000E+00 0. -1.
         22    1    1    2    0    0 -0.48448087599E+03 -0.40602220343E+03 -0.53268663310E+03  0.82663825097E+03  0.00000000000E+00 0. -1.
<mgrwt>
<rscale>  0 0.14884818E+04</rscale>
<asrwt>0</asrwt>
<pdfrwt beam="1">  1        1 0.43980947E+00 0.14884818E+04</pdfrwt>
<pdfrwt beam="2">  1       -1 0.29808204E-01 0.14884818E+04</pdfrwt>
<totfact> 0.75978301E+00</totfact>
</mgrwt>
</event>
<event>
 6    1  0.1878398E-004  0.1507742E+04  0.7818608E-02  0.8879321E-01
          1   -1    0    0  501    0  0.00000000000E+00  0.00000000000E+00  0.20234068408E+04  0.20234068408E+04  0.00000000000E+00 0.  1.
         -1   -1    0    0    0  501 -0.00000000000E+00 -0.00000000000E+00 -0.28087370246E+03  0.28087370246E+03  0.00000000000E+00 0. -1.
         23    2    1    2    0    0 -0.38323877703E+03 -0.59697569930E+03  0.12515648281E+04  0.14415512535E+04  0.91670888098E+02 0.  0.
         11    1    3    3    0    0 -0.23707485630E+03 -0.41952890002E+03  0.91204582389E+03  0.10315214832E+04  0.00000000000E+00 0.  1.
        -11    1    3    3    0    0 -0.14616392072E+03 -0.17744679929E+03  0.33951900419E+03  0.41002977027E+03  0.00000000000E+00 0. -1.
         22    1    1    2    0    0  0.38323877703E+03  0.59697569930E+03  0.49096831025E+03  0.86272928978E+03  0.00000000000E+00 0. -1.
<mgrwt>
<rscale>  0 0.15077424E+04</rscale>
<asrwt>0</asrwt>
<pdfrwt beam="1">  1        1 0.31129335E+00 0.15077424E+04</pdfrwt>
<pdfrwt beam="2">  1       -1 0.43211340E-01 0.15077424E+04</pdfrwt>
<totfact> 0.14679936E+01</totfact>
</mgrwt>
</event>
<event>
 6    1  0.1878398E-004  0.2567999E+04  0.7818608E-02  0.8379153E-01
         -1   -1    0    0    0  501 -0.00000000000E+00  0.00000000000E+00  0.13423566531E+04  0.13423566531E+04  0.00000000000E+00 0. -1.
          1   -1    0    0  501    0  0.00000000000E+00 -0.00000000000E+00 -0.12281795971E+04  0.12281795971E+04  0.00000000000E+00 0.  1.
         23    2    1    2    0    0  0.29366895138E+03  0.12275098940E+04  0.28449405806E+03  0.12969468838E+04  0.90068625053E+02 0.  0.
         13    1    3    3    0    0  0.12866614968E+03  0.36463774581E+03  0.97041720898E+02  0.39866371711E+03  0.00000000000E+00 0. -1.
        -13    1    3    3    0    0  0.16500280169E+03  0.86287214824E+03  0.18745233716E+03  0.89828316664E+03  0.00000000000E+00 0.  1.
         22    1    1    2    0    0 -0.29366895138E+03 -0.12275098940E+04 -0.17031700206E+03  0.12735893664E+04  0.00000000000E+00 0.  1.
<mgrwt>
<rscale>  0 0.25679993E+04</rscale>
<asrwt>0</asrwt>
<pdfrwt beam="1">  1        1 0.18895071E+00 0.25679993E+04</pdfrwt>
<pdfrwt beam="2">  1       -1 0.20651641E+00 0.25679993E+04</pdfrwt>
<totfact> 0.12221297E+00</totfact>
</mgrwt>
</event>
<event>
 6    1  0.1878398E-004  0.2562013E+04  0.7818608E-02  0.8381220E-01
          2   -1    0    0  501    0  0.00000000000E+00  0.00000000000E+00  0.11727200672E+04  0.11727200672E+04  0.00000000000E+00 0.  1.
         -2   -1    0    0    0  501 -0.00000000000E+00 -0.00000000000E+00 -0.13992916056E+04  0.13992916056E+04  0.00000000000E+00 0. -1.
         23    2    1    2    0    0 -0.60149352349E+03 -0.11117760745E+04 -0.30923353702E+03  0.13052545909E+04  0.10111215615E+03 0.  0.
         11    1    3    3    0    0 -0.30324859539E+03 -0.57966036843E+03 -0.21114191284E+03  0.68742036680E+03  0.00000000000E+00 0.  1.
        -11    1    3    3    0    0 -0.29824492810E+03 -0.53211570604E+03 -0.98091624175E+02  0.61783422411E+03  0.00000000000E+00 0. -1.
         22    1    1    2    0    0  0.60149352349E+03  0.11117760745E+04  0.82661998679E+02  0.12667570819E+04  0.00000000000E+00 0. -1.
<mgrwt>
<rscale>  0 0.25620128E+04</rscale>
<asrwt>0</asrwt>
<pdfrwt beam="1">  1        2 0.18041847E+00 0.25620128E+04</pdfrwt>
<pdfrwt beam="2">  1       -2 0.21527563E+00 0.25620128E+04</pdfrwt>
<totfact> 0.18485734E+00</totfact>
</mgrwt>
</event>
<event>
 6    1  0.1878398E-004  0.2425596E+04  0.7818608E-02  0.8429982E-01
          2   -1    0    0  501    0  0.00000000000E+00  0.00000000000E+00  0.18385335489E+04  0.18385335489E+04  0.00000000000E+00 0.  1.
         -2   -1    0    0    0  501 -0.00000000000E+00 -0.00000000000E+00 -0.80002863004E+03  0.80002863004E+03  0.00000000000E+00 0. -1.
         23    2    1    2    0    0 -0.38430360457E+03 -0.37867537602E+03  0.16995787146E+04  0.17852727414E+04  0.86871474477E+02 0.  0.
         11    1    3    3    0    0 -0.16063243514E+03 -0.20193309321E+03  0.70916867744E+03  0.75465221553E+03  0.00000000000E+00 0.  1.
        -11    1    3    3    0    0 -0.22367116943E+03 -0.17674228281E+03  0.99041003720E+03  0.10306205259E+04  0.00000000000E+00 0. -1.
         22    1    1    2    0    0  0.38430360457E+03  0.37867537602E+03 -0.66107379573E+03  0.85328943758E+03  0.00000000000E+00 0. -1.
<mgrwt>
<rscale>  0 0.24255964E+04</rscale>
<asrwt>0</asrwt>
<pdfrwt beam="1">  1        2 0.28285131E+00 0.24255964E+04</pdfrwt>
<pdfrwt beam="2">  1       -2 0.12308133E+00 0.24255964E+04</pdfrwt>
<totfact> 0.36742529E+00</totfact>
</mgrwt>
</event>
<event>
 6    1  0.1878398E-004  0.4551040E+04  0.7818608E-02  0.7901762E-01
          2   -1    0    0  501    0  0.00000000000E+00  0.00000000000E+00  0.30689934665E+04  0.30689934665E+04  0.00000000000E+00 0.  1.
         -2   -1    0    0    0  501 -0.00000000000E+00 -0.00000000000E+00 -0.16871953032E+04  0.16871953032E+04  0.00000000000E+00 0. -1.
         23    2    1    2    0    0  0.16870394436E+04  0.68230654675E+03 -0.73534796330E+03  0.19644237314E+04  0.81115111762E+02 0.  0.
         11    1    3    3    0    0  0.11952119120E+04  0.51397085128E+03 -0.55031229082E+03  0.14126362476E+04  0.00000000000E+00 0.  1.
        -11    1    3    3    0    0  0.49182753160E+03  0.16833569547E+03 -0.18503567248E+03  0.55178748382E+03  0.00000000000E+00 0. -1.
         22    1    1    2    0    0 -0.16870394436E+04 -0.68230654675E+03  0.21171461266E+04  0.27917650383E+04  0.00000000000E+00 0.  1.
<mgrwt>
<rscale>  0 0.45510400E+04</rscale>
<asrwt>0</asrwt>
<pdfrwt beam="1">  1        2 0.47215284E+00 0.45510400E+04</pdfrwt>
<pdfrwt beam="2">  1       -2 0.25956851E+00 0.45510400E+04</pdfrwt>
<totfact> 0.66666764E-02</totfact>
</mgrwt>
</event>
<event>
 6    1  0.1878398E-004  0.7146779E+03  0.7818608E-02  0.9692455E-01
         -1   -1    0    0    0  501 -0.00000000000E+00  0.00000000000E+00  0.39582785798E+03  0.39582785798E+03  0.00000000000E+00 0. -1.
          1   -1    0    0  501    0  0.00000000000E+00 -0.00000000000E+00 -0.32259255378E+03  0.32259255378E+03  0.00000000000E+00 0.  1.
         23    2    1    2    0    0 -0.80992306639E+02 -0.34091289653E+03 -0.64051413201E+01  0.35908219042E+03  0.78215323840E+02 0.  0.
         11    1    3    3    0    0 -0.78006712090E+02 -0.19060543357E+03 -0.25557938292E+02  0.20752996566E+03  0.00000000000E+00 0. -1.
        -11    1    3    3    0    0 -0.29855945490E+01 -0.15030746297E+03  0.19152796971E+02  0.15155222476E+03  0.00000000000E+00 0.  1.
         22    1    1    2    0    0  0.80992306639E+02  0.34091289653E+03  0.79640445523E+02  0.35933822135E+03  0.00000000000E+00 0.  1.
<mgrwt>
<rscale>  0 0.71467788E+03</rscale>
<asrwt>0</asrwt>
<pdfrwt beam="1">  1        1 0.49629623E-01 0.71467788E+03</pdfrwt>
<pdfrwt beam="2">  1       -1 0.60896594E-01 0.71467788E+03</pdfrwt>
<totfact> 0.22110899E+02</totfact>
</mgrwt>
</event>
<event>
 6    1  0.1896221E-004  0.3614587E+04  0.7818608E-02  0.8087159E-01
         -2   -1    0    0    0  501 -0.00000000000E+00  0.00000000000E+00  0.11666159645E+04  0.11666159645E+04  0.00000000000E+00 0. -1.
          2   -1    0    0  501    0  0.00000000000E+00 -0.00000000000E+00 -0.27998156407E+04  0.27998156407E+04  0.00000000000E+00 0.  1.
         23    2    1    2    0    0 -0.11078219299E+04 -0.25062089503E+03  0.72401154901E+03  0.13498450843E+04  0.88367227803E+02 0.  0.
         13    1    3    3    0    0 -0.90931187985E+03 -0.24002115894E+03  0.59786476562E+03  0.11144059088E+04  0.00000000000E+00 0. -1.
        -13    1    3    3    0    0 -0.19851005009E+03 -0.10599736090E+02  0.12614678339E+03  0.23543917548E+03  0.00000000000E+00 0.  1.
         22    1    1    2    0    0  0.11078219299E+04  0.25062089503E+03 -0.23572112252E+04  0.26165865210E+04  0.00000000000E+00 0.  1.
<mgrwt>
<rscale>  0 0.36145869E+04</rscale>
<asrwt>0</asrwt>
<pdfrwt beam="1">  1        2 0.43074087E+00 0.36145869E+04</pdfrwt>
<pdfrwt beam="2">  1       -2 0.17947938E+00 0.36145869E+04</pdfrwt>
<totfact> 0.34413737E-01</totfact>
</mgrwt>
</event>
<event>
 6    1  0.1878398E-004  0.2700513E+04  0.7818608E-02  0.8334839E-01
          2   -1    0    0  501    0  0.00000000000E+00  0.00000000000E+00  0.17941804286E+04  0.17941804286E+04  0.00000000000E+00 0.  1.
         -2   -1    0    0    0  501 -0.00000000000E+00 -0.00000000000E+00 -0.10161699241E+04  0.10161699241E+04  0.00000000000E+00 0. -1.
         23    2    1    2    0    0  0.10979298758E+04 -0.23911783729E+03  0.11663769969E+04  0.16214618446E+04  0.77947817704E+02 0.  0.
         13    1    3    3    0    0  0.53487043306E+03 -0.78801588433E+02  0.57824014820E+03  0.79161716726E+03  0.00000000000E+00 0. -1.
        -13    1    3    3    0    0  0.56305944275E+03 -0.16031624886E+03  0.58813684868E+03  0.82984467733E+03  0.00000000000E+00 0.  1.
         22    1    1    2    0    0 -0.10979298758E+04  0.23911783729E+03 -0.38836649233E+03  0.11888885081E+04  0.00000000000E+00 0. -1.
<mgrwt>
<rscale>  0 0.27005127E+04</rscale>
<asrwt>0</asrwt>
<pdfrwt beam="1">  1        2 0.27602776E+00 0.27005127E+04</pdfrwt>
<pdfrwt beam="2">  1       -2 0.15633383E+00 0.27005127E+04</pdfrwt>
<totfact> 0.20460424E+00</totfact>
</mgrwt>
</event>
<event>
 6    1  0.1878398E-004  0.2039474E+04  0.7818608E-02  0.8588384E-01
         -1   -1    0    0    0  501 -0.00000000000E+00  0.00000000000E+00  0.86386894617E+03  0.86386894617E+03  0.00000000000E+00 0. -1.
          1   -1    0    0  501    0  0.00000000000E+00 -0.00000000000E+00 -0.12037287186E+04  0.12037287186E+04  0.00000000000E+00 0.  1.
         23    2    1    2    0    0 -0.23425926824E+03  0.68007569446E+03  0.55945651980E+03  0.91601173726E+03  0.93303538544E+02 0.  0.
         13    1    3    3    0    0 -0.13437394601E+03  0.46135644731E+03  0.32453900646E+03  0.57985489181E+03  0.00000000000E+00 0.  1.
        -13    1    3    3    0    0 -0.99885322235E+02  0.21871924715E+03  0.23491751334E+03  0.33615684546E+03  0.00000000000E+00 0. -1.
         22    1    1    2    0    0  0.23425926824E+03 -0.68007569446E+03 -0.89931629220E+03  0.11515859275E+04  0.00000000000E+00 0.  1.
<mgrwt>
<rscale>  0 0.20394743E+04</rscale>
<asrwt>0</asrwt>
<pdfrwt beam="1">  1        1 0.18518903E+00 0.20394743E+04</pdfrwt>
<pdfrwt beam="2">  1       -1 0.13290291E+00 0.20394743E+04</pdfrwt>
<totfact> 0.47074380E+00</totfact>
</mgrwt>
</event>
<event>
 6    1  0.1878398E-004  0.2613170E+03  0.7818608E-02  0.1106355E+00
         -2   -1    0    0    0  501 -0.00000000000E+00  0.00000000000E+00  0.13320002059E+02  0.13320002059E+02  0.00000000000E+00 0. -1.
          2   -1    0    0  501    0  0.00000000000E+00 -0.00000000000E+00 -0.12816548704E+04  0.12816548704E+04  0.00000000000E+00 0.  1.
         23    2    1    2    0    0 -0.81776458714E+02 -0.98853132275E-01 -0.11103043853E+04  0.11170393995E+04  0.91180003285E+02 0.  0.
         13    1    3    3    0    0 -0.28965252670E+02 -0.23496099351E+02 -0.13591643614E+03  0.14094087469E+03  0.00000000000E+00 0. -1.
        -13    1    3    3    0    0 -0.52811206043E+02  0.23397246218E+02 -0.97438794921E+03  0.97609852483E+03  0.00000000000E+00 0.  1.
         22    1    1    2    0    0  0.81776458714E+02  0.98853132275E-01 -0.15803048296E+03  0.17793547290E+03  0.00000000000E+00 0. -1.
<mgrwt>
<rscale>  0 0.26131701E+03</rscale>
<asrwt>0</asrwt>
<pdfrwt beam="1">  1        2 0.19717775E+00 0.26131701E+03</pdfrwt>
<pdfrwt beam="2">  1       -2 0.20492303E-02 0.26131701E+03</pdfrwt>
<totfact> 0.13362076E+04</totfact>
</mgrwt>
</event>
<event>
 6    1  0.1878398E-004  0.2870765E+04  0.7818608E-02  0.8281629E-01
          1   -1    0    0  501    0  0.00000000000E+00  0.00000000000E+00  0.31863019906E+04  0.31863019906E+04  0.00000000000E+00 0.  1.
         -1   -1    0    0    0  501 -0.00000000000E+00 -0.00000000000E+00 -0.64661900169E+03  0.64661900169E+03  0.00000000000E+00 0. -1.
         23    2    1    2    0    0 -0.13861737916E+04 -0.34496930525E+03  0.11039428481E+04  0.18076231490E+04  0.91269024128E+02 0.  0.
         13    1    3    3    0    0 -0.28970706408E+03 -0.60878640463E+02  0.27463146258E+03  0.40380543840E+03  0.00000000000E+00 0. -1.
        -13    1    3    3    0    0 -0.10964667275E+04 -0.28409066478E+03  0.82931138549E+03  0.14038177106E+04  0.00000000000E+00 0.  1.
         22    1    1    2    0    0  0.13861737916E+04  0.34496930525E+03  0.14357401409E+04  0.20252978434E+04  0.00000000000E+00 0.  1.
<mgrwt>
<rscale>  0 0.28707653E+04</rscale>
<asrwt>0</asrwt>
<pdfrwt beam="1">  1        1 0.49020030E+00 0.28707653E+04</pdfrwt>
<pdfrwt beam="2">  1       -1 0.99479848E-01 0.28707653E+04</pdfrwt>
<totfact> 0.36102798E-01</totfact>
</mgrwt>
</event>
<event>
 6    1  0.1878398E-004  0.3414368E+04  0.7818608E-02  0.8134389E-01
          2   -1    0    0  501    0  0.00000000000E+00  0.00000000000E+00  0.99416922604E+03  0.99416922604E+03  0.00000000000E+00 0.  1.
         -2   -1    0    0    0  501 -0.00000000000E+00 -0.00000000000E+00 -0.29315708752E+04  0.29315708752E+04  0.00000000000E+00 0. -1.
         23    2    1    2    0    0  0.79603038962E+03 -0.14849953012E+04 -0.12771119030E+04  0.21160832347E+04  0.88983243249E+02 0.  0.
         13    1    3    3    0    0  0.41659151287E+03 -0.75279619197E+03 -0.70593895350E+03  0.11129242568E+04  0.00000000000E+00 0. -1.
        -13    1    3    3    0    0  0.37943887675E+03 -0.73219910921E+03 -0.57117294950E+03  0.10031589779E+04  0.00000000000E+00 0.  1.
         22    1    1    2    0    0 -0.79603038962E+03  0.14849953012E+04 -0.66028974613E+03  0.18096568665E+04  0.00000000000E+00 0. -1.
<mgrwt>
<rscale>  0 0.34143682E+04</rscale>
<asrwt>0</asrwt>
<pdfrwt beam="1">  1        2 0.15294912E+00 0.34143682E+04</pdfrwt>
<pdfrwt beam="2">  1       -2 0.45101089E+00 0.34143682E+04</pdfrwt>
<totfact> 0.71767934E-02</totfact>
</mgrwt>
</event>
<event>
 6    1  0.1878398E-004  0.1043264E+04  0.7818608E-02  0.9262326E-01
         -2   -1    0    0    0  501 -0.00000000000E+00  0.00000000000E+00  0.10898178566E+03  0.10898178566E+03  0.00000000000E+00 0. -1.
          2   -1    0    0  501    0  0.00000000000E+00 -0.00000000000E+00 -0.24967479214E+04  0.24967479214E+04  0.00000000000E+00 0.  1.
         23    2    1    2    0    0 -0.29347681979E+03 -0.32790373652E+03 -0.18839172929E+04  0.19367654624E+04  0.90920766198E+02 0.  0.
         11    1    3    3    0    0 -0.16986524920E+03 -0.23136516175E+03 -0.13558674852E+04  0.13859151051E+04  0.00000000000E+00 0. -1.
        -11    1    3    3    0    0 -0.12361157059E+03 -0.96538574774E+02 -0.52804980761E+03  0.55085035728E+03  0.00000000000E+00 0.  1.
         22    1    1    2    0    0  0.29347681979E+03  0.32790373652E+03 -0.50384884285E+03  0.66896424465E+03  0.00000000000E+00 0. -1.
<mgrwt>
<rscale>  0 0.10432642E+04</rscale>
<asrwt>0</asrwt>
<pdfrwt beam="1">  1        2 0.38411509E+00 0.10432642E+04</pdfrwt>
<pdfrwt beam="2">  1       -2 0.16766428E-01 0.10432642E+04</pdfrwt>
<totfact> 0.10220964E+02</totfact>
</mgrwt>
</event>
<event>
 6    1  0.2203429E-004  0.2173047E+04  0.7818608E-02  0.8529731E-01
         -2   -1    0    0    0  501 -0.00000000000E+00  0.00000000000E+00  0.51682682217E+03  0.51682682217E+03  0.00000000000E+00 0. -1.
          2   -1    0    0  501    0  0.00000000000E+00 -0.00000000000E+00 -0.22841945883E+04  0.22841945883E+04  0.00000000000E+00 0.  1.
         23    2    1    2    0    0 -0.62520128388E+03  0.73471854581E+03 -0.15240881707E+04  0.18060978212E+04  0.91959778892E+02 0.  0.
         13    1    3    3    0    0 -0.38530734942E+03  0.39340599601E+03 -0.82151922755E+03  0.98900145220E+03  0.00000000000E+00 0.  1.
        -13    1    3    3    0    0 -0.23989393446E+03  0.34131254980E+03 -0.70256894311E+03  0.81709636902E+03  0.00000000000E+00 0. -1.
         22    1    1    2    0    0  0.62520128388E+03 -0.73471854581E+03 -0.24327959549E+03  0.99492358928E+03  0.00000000000E+00 0. -1.
<mgrwt>
<rscale>  0 0.21730467E+04</rscale>
<asrwt>0</asrwt>
<pdfrwt beam="1">  1        2 0.35141456E+00 0.21730467E+04</pdfrwt>
<pdfrwt beam="2">  1       -2 0.79511818E-01 0.21730467E+04</pdfrwt>
<totfact> 0.59414105E+00</totfact>
</mgrwt>
</event>
<event>
 6    1  0.1878398E-004  0.3507670E+04  0.7818608E-02  0.8111975E-01
          1   -1    0    0  501    0  0.00000000000E+00  0.00000000000E+00  0.23083985702E+04  0.23083985702E+04  0.00000000000E+00 0.  1.
         -1   -1    0    0    0  501 -0.00000000000E+00 -0.00000000000E+00 -0.13324980771E+04  0.13324980771E+04  0.00000000000E+00 0. -1.
         23    2    1    2    0    0 -0.11913158055E+04  0.12156608819E+04  0.55085722361E+02  0.17057055533E+04  0.96603671752E+02 0.  0.
         13    1    3    3    0    0 -0.70746665887E+03  0.78583051696E+03  0.20129218451E+02  0.10575650619E+04  0.00000000000E+00 0.  1.
        -13    1    3    3    0    0 -0.48384914667E+03  0.42983036491E+03  0.34956503909E+02  0.64814049133E+03  0.00000000000E+00 0. -1.
         22    1    1    2    0    0  0.11913158055E+04 -0.12156608819E+04  0.92081477074E+03  0.19351910940E+04  0.00000000000E+00 0.  1.
<mgrwt>
<rscale>  0 0.35076697E+04</rscale>
<asrwt>0</asrwt>
<pdfrwt beam="1">  1        1 0.35513824E+00 0.35076697E+04</pdfrwt>
<pdfrwt beam="2">  1       -1 0.20499970E+00 0.35076697E+04</pdfrwt>
<totfact> 0.20822278E-01</totfact>
</mgrwt>
</event>
<event>
 6    1  0.1878398E-004  0.2978839E+04  0.7818608E-02  0.8249799E-01
         -1   -1    0    0    0  501 -0.00000000000E+00  0.00000000000E+00  0.19404454954E+04  0.19404454954E+04  0.00000000000E+00 0. -1.
          1   -1    0    0  501    0  0.00000000000E+00 -0.00000000000E+00 -0.11432274304E+04  0.11432274304E+04  0.00000000000E+00 0.  1.
         23    2    1    2    0    0  0.69064427557E+03  0.10984810162E+04 -0.35659380742E+03  0.13473170017E+04  0.66737554826E+02 0.  0.
         11    1    3    3    0    0  0.32829185260E+03  0.46542373132E+03 -0.17046093544E+03  0.59451805748E+03  0.00000000000E+00 0. -1.
        -11    1    3    3    0    0  0.36235242297E+03  0.63305728486E+03 -0.18613287197E+03  0.75279894420E+03  0.00000000000E+00 0.  1.
         22    1    1    2    0    0 -0.69064427557E+03 -0.10984810162E+04  0.11538118724E+04  0.17363559241E+04  0.00000000000E+00 0. -1.
<mgrwt>
<rscale>  0 0.29788390E+04</rscale>
<asrwt>0</asrwt>
<pdfrwt beam="1">  1        1 0.17588114E+00 0.29788390E+04</pdfrwt>
<pdfrwt beam="2">  1       -1 0.29853008E+00 0.29788390E+04</pdfrwt>
<totfact> 0.33866459E-01</totfact>
</mgrwt>
</event>
<event>
 6    1  0.1878398E-004  0.2409123E+04  0.7818608E-02  0.8436096E-01
         -2   -1    0    0    0  501 -0.00000000000E+00  0.00000000000E+00  0.13070239898E+04  0.13070239898E+04  0.00000000000E+00 0. -1.
          2   -1    0    0  501    0  0.00000000000E+00 -0.00000000000E+00 -0.11101310314E+04  0.11101310314E+04  0.00000000000E+00 0.  1.
         23    2    1    2    0    0 -0.17182245834E+03  0.40360702888E+03  0.12222728389E+04  0.13018857755E+04  0.92380131855E+02 0.  0.
         11    1    3    3    0    0 -0.13920747448E+03  0.28475710848E+03  0.75956075269E+03  0.82304183904E+03  0.00000000000E+00 0. -1.
        -11    1    3    3    0    0 -0.32614983858E+02  0.11884992040E+03  0.46271208625E+03  0.47884393649E+03  0.00000000000E+00 0.  1.
         22    1    1    2    0    0  0.17182245834E+03 -0.40360702888E+03 -0.10253798805E+04  0.11152692456E+04  0.00000000000E+00 0.  1.
<mgrwt>
<rscale>  0 0.24091226E+04</rscale>
<asrwt>0</asrwt>
<pdfrwt beam="1">  1        2 0.17078939E+00 0.24091226E+04</pdfrwt>
<pdfrwt beam="2">  1       -2 0.20108061E+00 0.24091226E+04</pdfrwt>
<totfact> 0.25245758E+00</totfact>
</mgrwt>
</event>
<event>
 6    1  0.1878398E-004  0.1251564E+04  0.7818608E-02  0.9068883E-01
          2   -1    0    0  501    0  0.00000000000E+00  0.00000000000E+00  0.12220265558E+04  0.12220265558E+04  0.00000000000E+00 0.  1.
         -2   -1    0    0    0  501 -0.00000000000E+00 -0.00000000000E+00 -0.32045366775E+03  0.32045366775E+03  0.00000000000E+00 0. -1.
         23    2    1    2    0    0 -0.13956106874E+03 -0.58669330438E+03  0.64340816875E+03  0.88648072078E+03  0.90485752354E+02 0.  0.
         11    1    3    3    0    0 -0.66355561357E+02 -0.34430064775E+03  0.43368576869E+03  0.55770004709E+03  0.00000000000E+00 0.  1.
        -11    1    3    3    0    0 -0.73205507385E+02 -0.24239265664E+03  0.20972240007E+03  0.32878067369E+03  0.00000000000E+00 0. -1.
         22    1    1    2    0    0  0.13956106874E+03  0.58669330438E+03  0.25816471925E+03  0.65599950273E+03  0.00000000000E+00 0. -1.
<mgrwt>
<rscale>  0 0.12515636E+04</rscale>
<asrwt>0</asrwt>
<pdfrwt beam="1">  1        2 0.18800408E+00 0.12515636E+04</pdfrwt>
<pdfrwt beam="2">  1       -2 0.49300565E-01 0.12515636E+04</pdfrwt>
<totfact> 0.70359211E+01</totfact>
</mgrwt>
</event>
<event>
 6    1  0.1878398E-004  0.1900088E+04  0.7818608E-02  0.8654813E-01
          1   -1    0    0  501    0  0.00000000000E+00  0.00000000000E+00  0.31813459749E+04  0.31813459749E+04  0.00000000000E+00 0.  1.
         -1   -1    0    0    0  501 -0.00000000000E+00 -0.00000000000E+00 -0.28371127842E+03  0.28371127842E+03  0.00000000000E+00 0. -1.
         23    2    1    2    0    0  0.91215795613E+03  0.18029971209E+03  0.11174975222E+04  0.14567175205E+04  0.93193880559E+02 0.  0.
         11    1    3    3    0    0  0.31335872515E+03  0.10007368923E+03  0.35682819091E+03  0.48531926784E+03  0.00000000000E+00 0. -1.
        -11    1    3    3    0    0  0.59879923097E+03  0.80226022865E+02  0.76066933130E+03  0.97139825270E+03  0.00000000000E+00 0.  1.
         22    1    1    2    0    0 -0.91215795613E+03 -0.18029971209E+03  0.17801371743E+04  0.20083397328E+04  0.00000000000E+00 0.  1.
<mgrwt>
<rscale>  0 0.19000881E+04</rscale>
<asrwt>0</asrwt>
<pdfrwt beam="1">  1        1 0.48943782E+00 0.19000881E+04</pdfrwt>
<pdfrwt beam="2">  1       -1 0.43647891E-01 0.19000881E+04</pdfrwt>
<totfact> 0.21364632E+00</totfact>
</mgrwt>
</event>
<event>
 6    1  0.1878398E-004  0.1612473E+04  0.7818608E-02  0.8812922E-01
          2   -1    0    0  501    0  0.00000000000E+00  0.00000000000E+00  0.52812054400E+03  0.52812054400E+03  0.00000000000E+00 0.  1.
         -2   -1    0    0    0  501 -0.00000000000E+00 -0.00000000000E+00 -0.12308130515E+04  0.12308130515E+04  0.00000000000E+00 0. -1.
         23    2    1    2    0    0 -0.39569721864E+03  0.36447199939E+03  0.29863671056E+03  0.62223824049E+03  0.92630534104E+02 0.  0.
         13    1    3    3    0    0 -0.34635619406E+03  0.34146366303E+03  0.24048740996E+03  0.54258109135E+03  0.00000000000E+00 0. -1.
        -13    1    3    3    0    0 -0.49341024582E+02  0.23008336354E+02  0.58149300603E+02  0.79657149141E+02  0.00000000000E+00 0.  1.
         22    1    1    2    0    0  0.39569721864E+03 -0.36447199939E+03 -0.10013292181E+04  0.11366953550E+04  0.00000000000E+00 0. -1.
<mgrwt>
<rscale>  0 0.16124735E+04</rscale>
<asrwt>0</asrwt>
<pdfrwt beam="1">  1        2 0.81249314E-01 0.16124735E+04</pdfrwt>
<pdfrwt beam="2">  1       -2 0.18935586E+00 0.16124735E+04</pdfrwt>
<totfact> 0.86537739E+00</totfact>
</mgrwt>
</event>
<event>
 6    1  0.1878398E-004  0.2393375E+04  0.7818608E-02  0.8441988E-01
          2   -1    0    0  501    0  0.00000000000E+00  0.00000000000E+00  0.27702513802E+04  0.27702513802E+04  0.00000000000E+00 0.  1.
         -2   -1    0    0    0  501 -0.00000000000E+00 -0.00000000000E+00 -0.51694274335E+03  0.51694274335E+03  0.00000000000E+00 0. -1.
         23    2    1    2    0    0  0.51221993862E+03 -0.39381875234E+03 -0.25212403062E+03  0.69979092219E+03  0.93157569451E+02 0.  0.
         11    1    3    3    0    0  0.34834694773E+03 -0.23193029007E+03 -0.19896836580E+03  0.46338500843E+03  0.00000000000E+00 0.  1.
        -11    1    3    3    0    0  0.16387299090E+03 -0.16188846226E+03 -0.53155664815E+02  0.23640591376E+03  0.00000000000E+00 0. -1.
         22    1    1    2    0    0 -0.51221993862E+03  0.39381875234E+03  0.25054326674E+04  0.25874032013E+04  0.00000000000E+00 0.  1.
<mgrwt>
<rscale>  0 0.23933753E+04</rscale>
<asrwt>0</asrwt>
<pdfrwt beam="1">  1        2 0.42619251E+00 0.23933753E+04</pdfrwt>
<pdfrwt beam="2">  1       -2 0.79529655E-01 0.23933753E+04</pdfrwt>
<totfact> 0.30377912E+00</totfact>
</mgrwt>
</event>
<event>
 6    1  0.1878398E-004  0.1011315E+04  0.7818608E-02  0.9296221E-01
          2   -1    0    0  501    0  0.00000000000E+00  0.00000000000E+00  0.77255484935E+03  0.77255484935E+03  0.00000000000E+00 0.  1.
         -2   -1    0    0    0  501 -0.00000000000E+00 -0.00000000000E+00 -0.33096603612E+03  0.33096603612E+03  0.00000000000E+00 0. -1.
         23    2    1    2    0    0  0.43357262309E+03 -0.15115288271E+02 -0.52240131912E+02  0.44619241470E+03  0.90249366316E+02 0.  0.
         13    1    3    3    0    0  0.30711976967E+03 -0.38609344278E+02 -0.62495336785E+01  0.30960021166E+03  0.00000000000E+00 0. -1.
        -13    1    3    3    0    0  0.12645285342E+03  0.23494056006E+02 -0.45990598234E+02  0.13659220304E+03  0.00000000000E+00 0.  1.
         22    1    1    2    0    0 -0.43357262309E+03  0.15115288271E+02  0.49382894513E+03  0.65732847077E+03  0.00000000000E+00 0.  1.
<mgrwt>
<rscale>  0 0.10113148E+04</rscale>
<asrwt>0</asrwt>
<pdfrwt beam="1">  1        2 0.11885459E+00 0.10113148E+04</pdfrwt>
<pdfrwt beam="2">  1       -2 0.50917852E-01 0.10113148E+04</pdfrwt>
<totfact> 0.13124889E+02</totfact>
</mgrwt>
</event>
<event>
 6    1  0.1878398E-004  0.3135169E+04  0.7818608E-02  0.8206152E-01
          2   -1    0    0  501    0  0.00000000000E+00  0.00000000000E+00  0.14015960100E+04  0.14015960100E+04  0.00000000000E+00 0.  1.
         -2   -1    0    0    0  501 -0.00000000000E+00 -0.00000000000E+00 -0.17532304689E+04  0.17532304689E+04  0.00000000000E+00 0. -1.
         23    2    1    2    0    0 -0.14371674746E+04  0.59472278360E+03  0.87085465456E+01  0.15582699904E+04  0.94783885694E+02 0.  0.
         11    1    3    3    0    0 -0.62254666791E+03  0.30694208227E+03 -0.80451526890E+01  0.69414877373E+03  0.00000000000E+00 0. -1.
        -11    1    3    3    0    0 -0.81462080668E+03  0.28778070133E+03  0.16753699235E+02  0.86412121671E+03  0.00000000000E+00 0.  1.
         22    1    1    2    0    0  0.14371674746E+04 -0.59472278360E+03 -0.36034300544E+03  0.15965564885E+04  0.00000000000E+00 0. -1.
<mgrwt>
<rscale>  0 0.31351688E+04</rscale>
<asrwt>0</asrwt>
<pdfrwt beam="1">  1        2 0.21563016E+00 0.31351688E+04</pdfrwt>
<pdfrwt beam="2">  1       -2 0.26972776E+00 0.31351688E+04</pdfrwt>
<totfact> 0.59474987E-01</totfact>
</mgrwt>
</event>
<event>
 6    1  0.1878398E-004  0.1358547E+04  0.7818608E-02  0.8984383E-01
          2   -1    0    0  501    0  0.00000000000E+00  0.00000000000E+00  0.91037014726E+03  0.91037014726E+03  0.00000000000E+00 0.  1.
         -2   -1    0    0    0  501 -0.00000000000E+00 -0.00000000000E+00 -0.50684082178E+03  0.50684082178E+03  0.00000000000E+00 0. -1.
         23    2    1    2    0    0  0.41956167970E+03 -0.48049961662E+03 -0.32057476445E+02  0.64478120093E+03  0.88335896618E+02 0.  0.
         11    1    3    3    0    0  0.22195464505E+03 -0.22950539921E+03 -0.57150534896E+02  0.32434977472E+03  0.00000000000E+00 0. -1.
        -11    1    3    3    0    0  0.19760703465E+03 -0.25099421741E+03  0.25093058451E+02  0.32043142621E+03  0.00000000000E+00 0.  1.
         22    1    1    2    0    0 -0.41956167970E+03  0.48049961662E+03  0.43558680192E+03  0.77242976811E+03  0.00000000000E+00 0.  1.
<mgrwt>
<rscale>  0 0.13585474E+04</rscale>
<asrwt>0</asrwt>
<pdfrwt beam="1">  1        2 0.14005695E+00 0.13585474E+04</pdfrwt>
<pdfrwt beam="2">  1       -2 0.77975511E-01 0.13585474E+04</pdfrwt>
<totfact> 0.41252140E+01</totfact>
</mgrwt>
</event>
<event>
 6    1  0.1878398E-004  0.3035635E+04  0.7818608E-02  0.8233628E-01
          2   -1    0    0  501    0  0.00000000000E+00  0.00000000000E+00  0.34024086673E+04  0.34024086673E+04  0.00000000000E+00 0.  1.
         -2   -1    0    0    0  501 -0.00000000000E+00 -0.00000000000E+00 -0.67709964037E+03  0.67709964037E+03  0.00000000000E+00 0. -1.
         23    2    1    2    0    0  0.13951998443E+03  0.11383866439E+04  0.26970892369E+04  0.29322566641E+04  0.91917436252E+02 0.  0.
         13    1    3    3    0    0  0.11307817507E+03  0.93967513156E+03  0.21310879494E+04  0.23318044246E+04  0.00000000000E+00 0. -1.
        -13    1    3    3    0    0  0.26441809360E+02  0.19871151238E+03  0.56600128750E+03  0.60045223947E+03  0.00000000000E+00 0.  1.
         22    1    1    2    0    0 -0.13951998443E+03 -0.11383866439E+04  0.28219790041E+02  0.11472516436E+04  0.00000000000E+00 0. -1.
<mgrwt>
<rscale>  0 0.30356348E+04</rscale>
<asrwt>0</asrwt>
<pdfrwt beam="1">  1        2 0.52344748E+00 0.30356348E+04</pdfrwt>
<pdfrwt beam="2">  1       -2 0.10416918E+00 0.30356348E+04</pdfrwt>
<totfact> 0.60685358E-01</totfact>
</mgrwt>
</event>
<event>
 6    1  0.1878398E-004  0.1306494E+04  0.7818608E-02  0.9024431E-01
         -2   -1    0    0    0  501 -0.00000000000E+00  0.00000000000E+00  0.35330935666E+03  0.35330935666E+03  0.00000000000E+00 0. -1.
          2   -1    0    0  501    0  0.00000000000E+00 -0.00000000000E+00 -0.12078135390E+04  0.12078135390E+04  0.00000000000E+00 0.  1.
         23    2    1    2    0    0  0.53688531221E+03 -0.33204707455E+03 -0.61573571035E+03  0.88620698873E+03  0.87927604817E+02 0.  0.
         11    1    3    3    0    0  0.21410533187E+03 -0.17972448925E+03 -0.29402250196E+03  0.40569843089E+03  0.00000000000E+00 0.  1.
        -11    1    3    3    0    0  0.32277998034E+03 -0.15232258530E+03 -0.32171320839E+03  0.48050855783E+03  0.00000000000E+00 0. -1.
         22    1    1    2    0    0 -0.53688531221E+03  0.33204707455E+03 -0.23876847194E+03  0.67491590689E+03  0.00000000000E+00 0. -1.
<mgrwt>
<rscale>  0 0.13064943E+04</rscale>
<asrwt>0</asrwt>
<pdfrwt beam="1">  1        2 0.18581747E+00 0.13064943E+04</pdfrwt>
<pdfrwt beam="2">  1       -2 0.54355285E-01 0.13064943E+04</pdfrwt>
<totfact> 0.58485075E+01</totfact>
</mgrwt>
</event>
<event>
 6    1  0.1878398E-004  0.2898776E+04  0.7818608E-02  0.8273242E-01
         -2   -1    0    0    0  501 -0.00000000000E+00  0.00000000000E+00  0.61749451978E+03  0.61749451978E+03  0.00000000000E+00 0. -1.
          2   -1    0    0  501    0  0.00000000000E+00 -0.00000000000E+00 -0.34020158325E+04  0.34020158325E+04  0.00000000000E+00 0.  1.
         23    2    1    2    0    0  0.76170700543E+03 -0.53545192951E+03  0.14275318745E+03  0.94772873077E+03  0.10442673824E+03 0.  0.
         11    1    3    3    0    0  0.46617605792E+03 -0.35969071125E+03  0.46392851666E+02  0.59063510006E+03  0.00000000000E+00 0. -1.
        -11    1    3    3    0    0  0.29553094751E+03 -0.17576121826E+03  0.96360335783E+02  0.35709363071E+03  0.00000000000E+00 0.  1.
         22    1    1    2    0    0 -0.76170700543E+03  0.53545192951E+03 -0.29272745002E+04  0.30717816215E+04  0.00000000000E+00 0.  1.
<mgrwt>
<rscale>  0 0.28987764E+04</rscale>
<asrwt>0</asrwt>
<pdfrwt beam="1">  1        2 0.52338705E+00 0.28987764E+04</pdfrwt>
<pdfrwt beam="2">  1       -2 0.94999157E-01 0.28987764E+04</pdfrwt>
<totfact> 0.76415200E-01</totfact>
</mgrwt>
</event>
<event>
 6    1  0.1878398E-004  0.6841104E+03  0.7818608E-02  0.9744798E-01
          2   -1    0    0  501    0  0.00000000000E+00  0.00000000000E+00  0.16044003754E+04  0.16044003754E+04  0.00000000000E+00 0. -1.
         -2   -1    0    0    0  501 -0.00000000000E+00 -0.00000000000E+00 -0.72925543501E+02  0.72925543501E+02  0.00000000000E+00 0.  1.
         23    2    1    2    0    0  0.14119133109E+03 -0.22090382996E+03  0.26434851878E+03  0.38336201390E+03  0.91393655424E+02 0.  0.
         13    1    3    3    0    0  0.68400943732E+02 -0.14069685246E+03  0.21087383780E+03  0.26256821755E+03  0.00000000000E+00 0.  1.
        -13    1    3    3    0    0  0.72790387358E+02 -0.80206977495E+02  0.53474680980E+02  0.12079379635E+03  0.00000000000E+00 0. -1.
         22    1    1    2    0    0 -0.14119133109E+03  0.22090382996E+03  0.12671263131E+04  0.12939639050E+04  0.00000000000E+00 0. -1.
<mgrwt>
<rscale>  0 0.68411043E+03</rscale>
<asrwt>0</asrwt>
<pdfrwt beam="1">  1        2 0.24683080E+00 0.68411043E+03</pdfrwt>
<pdfrwt beam="2">  1       -2 0.11219316E-01 0.68411043E+03</pdfrwt>
<totfact> 0.64190927E+02</totfact>
</mgrwt>
</event>
<event>
 6    1  0.1878398E-004  0.2200116E+04  0.7818608E-02  0.8518380E-01
         -2   -1    0    0    0  501 -0.00000000000E+00  0.00000000000E+00  0.12079179028E+04  0.12079179028E+04  0.00000000000E+00 0. -1.
          2   -1    0    0  501    0  0.00000000000E+00 -0.00000000000E+00 -0.10018289169E+04  0.10018289169E+04  0.00000000000E+00 0.  1.
         23    2    1    2    0    0  0.31879664376E+03  0.98208360911E+03 -0.27322900012E+03  0.10713860477E+04  0.84228625425E+02 0.  0.
         13    1    3    3    0    0  0.21443698501E+03  0.52709074517E+03 -0.14227359867E+03  0.58655745759E+03  0.00000000000E+00 0. -1.
        -13    1    3    3    0    0  0.10435965875E+03  0.45499286394E+03 -0.13095540145E+03  0.48482859010E+03  0.00000000000E+00 0.  1.
         22    1    1    2    0    0 -0.31879664376E+03 -0.98208360911E+03  0.47931798605E+03  0.11383607719E+04  0.00000000000E+00 0. -1.
<mgrwt>
<rscale>  0 0.22001155E+04</rscale>
<asrwt>0</asrwt>
<pdfrwt beam="1">  1        2 0.15412753E+00 0.22001155E+04</pdfrwt>
<pdfrwt beam="2">  1       -2 0.18583352E+00 0.22001155E+04</pdfrwt>
<totfact> 0.37964022E+00</totfact>
</mgrwt>
</event>
<event>
 6    1  0.1878398E-004  0.2387020E+04  0.7818608E-02  0.8444379E-01
         -1   -1    0    0    0  501 -0.00000000000E+00  0.00000000000E+00  0.20648152113E+04  0.20648152113E+04  0.00000000000E+00 0. -1.
          1   -1    0    0  501    0  0.00000000000E+00 -0.00000000000E+00 -0.68987561702E+03  0.68987561702E+03  0.00000000000E+00 0.  1.
         23    2    1    2    0    0  0.48843224680E+03  0.85788097338E+03  0.14588882769E+04  0.17639470645E+04  0.92889276402E+02 0.  0.
         11    1    3    3    0    0  0.26219777363E+03  0.54458451036E+03  0.92162617169E+03  0.11021409900E+04  0.00000000000E+00 0. -1.
        -11    1    3    3    0    0  0.22623447317E+03  0.31329646301E+03  0.53726210521E+03  0.66180607453E+03  0.00000000000E+00 0.  1.
         22    1    1    2    0    0 -0.48843224680E+03 -0.85788097338E+03 -0.83948682635E+02  0.99074376380E+03  0.00000000000E+00 0.  1.
<mgrwt>
<rscale>  0 0.23870196E+04</rscale>
<asrwt>0</asrwt>
<pdfrwt beam="1">  1        1 0.10613471E+00 0.23870196E+04</pdfrwt>
<pdfrwt beam="2">  1       -1 0.31766388E+00 0.23870196E+04</pdfrwt>
<totfact> 0.63363793E-01</totfact>
</mgrwt>
</event>
<event>
 6    1  0.1878398E-004  0.3066022E+04  0.7818608E-02  0.8225125E-01
          2   -1    0    0  501    0  0.00000000000E+00  0.00000000000E+00  0.75061035039E+03  0.75061035039E+03  0.00000000000E+00 0.  1.
         -2   -1    0    0    0  501 -0.00000000000E+00 -0.00000000000E+00 -0.31309480816E+04  0.31309480816E+04  0.00000000000E+00 0. -1.
         23    2    1    2    0    0 -0.14787277938E+04  0.38537179569E+03 -0.13180788138E+04  0.20204992399E+04  0.99690068464E+02 0.  0.
         13    1    3    3    0    0 -0.12016972758E+04  0.33118711080E+03 -0.11189076905E+04  0.16750270639E+04  0.00000000000E+00 0.  1.
        -13    1    3    3    0    0 -0.27703051800E+03  0.54184684896E+02 -0.19917112336E+03  0.34547217595E+03  0.00000000000E+00 0. -1.
         22    1    1    2    0    0  0.14787277938E+04 -0.38537179569E+03 -0.10622589174E+04  0.18610591921E+04  0.00000000000E+00 0. -1.
<mgrwt>
<rscale>  0 0.30660216E+04</rscale>
<asrwt>0</asrwt>
<pdfrwt beam="1">  1        2 0.11547852E+00 0.30660216E+04</pdfrwt>
<pdfrwt beam="2">  1       -2 0.48168432E+00 0.30660216E+04</pdfrwt>
<totfact> 0.68535444E-02</totfact>
</mgrwt>
</event>
<event>
 6    1  0.1878398E-004  0.3208993E+04  0.7818608E-02  0.8186446E-01
          1   -1    0    0  501    0  0.00000000000E+00  0.00000000000E+00  0.20334839167E+04  0.20334839167E+04  0.00000000000E+00 0. -1.
         -1   -1    0    0    0  501 -0.00000000000E+00 -0.00000000000E+00 -0.12660089489E+04  0.12660089489E+04  0.00000000000E+00 0.  1.
         23    2    1    2    0    0 -0.39027017143E+03 -0.15347796288E+04  0.12673882207E+03  0.15911597235E+04  0.88697356412E+02 0.  0.
         11    1    3    3    0    0 -0.27196621811E+03 -0.10323212941E+04  0.12605239133E+03  0.10749614335E+04  0.00000000000E+00 0.  1.
        -11    1    3    3    0    0 -0.11830395331E+03 -0.50245833470E+03  0.68643074352E+00  0.51619829006E+03  0.00000000000E+00 0. -1.
         22    1    1    2    0    0  0.39027017143E+03  0.15347796288E+04  0.64073614575E+03  0.17083331420E+04  0.00000000000E+00 0. -1.
<mgrwt>
<rscale>  0 0.32089929E+04</rscale>
<asrwt>0</asrwt>
<pdfrwt beam="1">  1        1 0.31284368E+00 0.32089929E+04</pdfrwt>
<pdfrwt beam="2">  1       -1 0.19477061E+00 0.32089929E+04</pdfrwt>
<totfact> 0.38684646E-01</totfact>
</mgrwt>
</event>
<event>
 6    1  0.1878398E-004  0.5463399E+03  0.7818608E-02  0.1002345E+00
          2   -1    0    0  501    0  0.00000000000E+00  0.00000000000E+00  0.17275998782E+04  0.17275998782E+04  0.00000000000E+00 0.  1.
         -2   -1    0    0    0  501 -0.00000000000E+00 -0.00000000000E+00 -0.43193922745E+02  0.43193922745E+02  0.00000000000E+00 0. -1.
         23    2    1    2    0    0  0.22037861825E+03  0.66538480457E+02  0.43749684409E+03  0.50281255630E+03  0.91776213813E+02 0.  0.
         13    1    3    3    0    0  0.14167578358E+03  0.87191257613E+02  0.28699690948E+03  0.33172514090E+03  0.00000000000E+00 0.  1.
        -13    1    3    3    0    0  0.78702834672E+02 -0.20652777156E+02  0.15049993461E+03  0.17108741540E+03  0.00000000000E+00 0. -1.
         22    1    1    2    0    0 -0.22037861825E+03 -0.66538480457E+02  0.12469091113E+04  0.12679812446E+04  0.00000000000E+00 0.  1.
<mgrwt>
<rscale>  0 0.54633988E+03</rscale>
<asrwt>0</asrwt>
<pdfrwt beam="1">  1        2 0.26578454E+00 0.54633988E+03</pdfrwt>
<pdfrwt beam="2">  1       -2 0.66452202E-02 0.54633988E+03</pdfrwt>
<totfact> 0.12842087E+03</totfact>
</mgrwt>
</event>
<event>
 6    1  0.3238517E-004  0.2537558E+04  0.7818608E-02  0.8389726E-01
          1   -1    0    0  501    0  0.00000000000E+00  0.00000000000E+00  0.16349905518E+04  0.16349905518E+04  0.00000000000E+00 0.  1.
         -1   -1    0    0    0  501 -0.00000000000E+00 -0.00000000000E+00 -0.98459282322E+03  0.98459282322E+03  0.00000000000E+00 0. -1.
         23    2    1    2    0    0 -0.22770703776E+03 -0.21456203363E+03 -0.94204668030E+03  0.99669503731E+03  0.89786904525E+02 0.  0.
         11    1    3    3    0    0 -0.14596737389E+03 -0.17934738874E+03 -0.59330449122E+03  0.63677482629E+03  0.00000000000E+00 0. -1.
        -11    1    3    3    0    0 -0.81739663868E+02 -0.35214644892E+02 -0.34874218907E+03  0.35992021102E+03  0.00000000000E+00 0.  1.
         22    1    1    2    0    0  0.22770703776E+03  0.21456203363E+03  0.15924444089E+04  0.16228883378E+04  0.00000000000E+00 0.  1.
<mgrwt>
<rscale>  0 0.25375579E+04</rscale>
<asrwt>0</asrwt>
<pdfrwt beam="1">  1        1 0.25153701E+00 0.25375579E+04</pdfrwt>
<pdfrwt beam="2">  1       -1 0.15147582E+00 0.25375579E+04</pdfrwt>
<totfact> 0.15886407E+00</totfact>
</mgrwt>
</event>
<event>
 6    1  0.1878398E-004  0.5375028E+03  0.7818608E-02  0.1004429E+00
         -1   -1    0    0    0  501 -0.00000000000E+00  0.00000000000E+00  0.11239948460E+03  0.11239948460E+03  0.00000000000E+00 0. -1.
          1   -1    0    0  501    0  0.00000000000E+00 -0.00000000000E+00 -0.64259467742E+03  0.64259467742E+03  0.00000000000E+00 0.  1.
         23    2    1    2    0    0  0.15067836026E+03  0.76966420189E+02 -0.55186354402E+03  0.58441480943E+03  0.91430302309E+02 0.  0.
         13    1    3    3    0    0  0.81438006359E+02  0.80293951634E+02 -0.42182863883E+03  0.43705682478E+03  0.00000000000E+00 0.  1.
        -13    1    3    3    0    0  0.69240353898E+02 -0.33275314448E+01 -0.13003490518E+03  0.14735798465E+03  0.00000000000E+00 0. -1.
         22    1    1    2    0    0 -0.15067836026E+03 -0.76966420189E+02  0.21668351201E+02  0.17057935259E+03  0.00000000000E+00 0. -1.
<mgrwt>
<rscale>  0 0.53750278E+03</rscale>
<asrwt>0</asrwt>
<pdfrwt beam="1">  1        1 0.98860719E-01 0.53750278E+03</pdfrwt>
<pdfrwt beam="2">  1       -1 0.17292228E-01 0.53750278E+03</pdfrwt>
<totfact> 0.81321690E+02</totfact>
</mgrwt>
</event>
<event>
 6    1  0.1878398E-004  0.4244750E+04  0.7818608E-02  0.7956914E-01
         -1   -1    0    0    0  501 -0.00000000000E+00  0.00000000000E+00  0.24742202603E+04  0.24742202603E+04  0.00000000000E+00 0. -1.
          1   -1    0    0  501    0  0.00000000000E+00 -0.00000000000E+00 -0.18205640403E+04  0.18205640403E+04  0.00000000000E+00 0.  1.
         23    2    1    2    0    0 -0.67634643213E+03  0.11263283254E+04  0.20122074619E+04  0.24048844435E+04  0.91816793607E+02 0.  0.
         11    1    3    3    0    0 -0.18193011614E+03  0.23440246624E+03  0.48123308891E+03  0.56535685120E+03  0.00000000000E+00 0.  1.
        -11    1    3    3    0    0 -0.49441631599E+03  0.89192585916E+03  0.15309743730E+04  0.18395275922E+04  0.00000000000E+00 0. -1.
         22    1    1    2    0    0  0.67634643213E+03 -0.11263283254E+04 -0.13585512420E+04  0.18898998571E+04  0.00000000000E+00 0.  1.
<mgrwt>
<rscale>  0 0.42447504E+04</rscale>
<asrwt>0</asrwt>
<pdfrwt beam="1">  1        1 0.28008677E+00 0.42447504E+04</pdfrwt>
<pdfrwt beam="2">  1       -1 0.38064927E+00 0.42447504E+04</pdfrwt>
<totfact> 0.29301519E-02</totfact>
</mgrwt>
</event>
<event>
 6    1  0.1878398E-004  0.2509855E+04  0.7818608E-02  0.8399483E-01
          2   -1    0    0  501    0  0.00000000000E+00  0.00000000000E+00  0.13316192843E+04  0.13316192843E+04  0.00000000000E+00 0.  1.
         -2   -1    0    0    0  501 -0.00000000000E+00 -0.00000000000E+00 -0.11826525075E+04  0.11826525075E+04  0.00000000000E+00 0. -1.
         23    2    1    2    0    0  0.88516977204E+03 -0.17493448413E+03  0.94581577027E+03  0.13104877923E+04  0.93183600515E+02 0.  0.
         13    1    3    3    0    0  0.31661503997E+03 -0.18530051600E+02  0.34575272400E+03  0.46918375132E+03  0.00000000000E+00 0. -1.
        -13    1    3    3    0    0  0.56855473207E+03 -0.15640443253E+03  0.60006304627E+03  0.84130404098E+03  0.00000000000E+00 0.  1.
         22    1    1    2    0    0 -0.88516977204E+03  0.17493448413E+03 -0.79684899350E+03  0.12037839995E+04  0.00000000000E+00 0. -1.
<mgrwt>
<rscale>  0 0.25098549E+04</rscale>
<asrwt>0</asrwt>
<pdfrwt beam="1">  1        2 0.20486451E+00 0.25098549E+04</pdfrwt>
<pdfrwt beam="2">  1       -2 0.18194654E+00 0.25098549E+04</pdfrwt>
<totfact> 0.24827856E+00</totfact>
</mgrwt>
</event>
<event>
 6    1  0.1878398E-004  0.3669451E+04  0.7818608E-02  0.8074766E-01
          1   -1    0    0  501    0  0.00000000000E+00  0.00000000000E+00  0.32969704989E+04  0.32969704989E+04  0.00000000000E+00 0.  1.
         -1   -1    0    0    0  501 -0.00000000000E+00 -0.00000000000E+00 -0.10210034379E+04  0.10210034379E+04  0.00000000000E+00 0. -1.
         23    2    1    2    0    0 -0.14514791993E+04 -0.98520669640E+03  0.50948821334E+03  0.18284214428E+04  0.78247251903E+02 0.  0.
         11    1    3    3    0    0 -0.35123562047E+03 -0.21755030829E+03  0.90615433833E+02  0.42297252224E+03  0.00000000000E+00 0. -1.
        -11    1    3    3    0    0 -0.11002435788E+04 -0.76765638811E+03  0.41887277951E+03  0.14054489206E+04  0.00000000000E+00 0.  1.
         22    1    1    2    0    0  0.14514791993E+04  0.98520669640E+03  0.17664788477E+04  0.24895524939E+04  0.00000000000E+00 0.  1.
<mgrwt>
<rscale>  0 0.36694513E+04</rscale>
<asrwt>0</asrwt>
<pdfrwt beam="1">  1        1 0.50722623E+00 0.36694513E+04</pdfrwt>
<pdfrwt beam="2">  1       -1 0.15707745E+00 0.36694513E+04</pdfrwt>
<totfact> 0.88732706E-02</totfact>
</mgrwt>
</event>
<event>
 6    1  0.1878398E-004  0.3766536E+04  0.7818608E-02  0.8053375E-01
         -2   -1    0    0    0  501 -0.00000000000E+00  0.00000000000E+00  0.11281170619E+04  0.11281170619E+04  0.00000000000E+00 0.  1.
          2   -1    0    0  501    0  0.00000000000E+00 -0.00000000000E+00 -0.31439098783E+04  0.31439098783E+04  0.00000000000E+00 0. -1.
         23    2    1    2    0    0 -0.63743944041E+03  0.18420099808E+03 -0.30062012613E+04  0.30798994574E+04  0.90970305324E+02 0.  0.
         11    1    3    3    0    0 -0.37624002795E+03  0.88510572460E+02 -0.19305075957E+04  0.19688195085E+04  0.00000000000E+00 0.  1.
        -11    1    3    3    0    0 -0.26119941245E+03  0.95690425622E+02 -0.10756936656E+04  0.11110799489E+04  0.00000000000E+00 0. -1.
         22    1    1    2    0    0  0.63743944041E+03 -0.18420099808E+03  0.99040844478E+03  0.11921274828E+04  0.00000000000E+00 0.  1.
<mgrwt>
<rscale>  0 0.37665360E+04</rscale>
<asrwt>0</asrwt>
<pdfrwt beam="1">  1        2 0.48367844E+00 0.37665360E+04</pdfrwt>
<pdfrwt beam="2">  1       -2 0.17355647E+00 0.37665360E+04</pdfrwt>
<totfact> 0.22783570E-01</totfact>
</mgrwt>
</event>
<event>
 6    1  0.1878398E-004  0.2359735E+04  0.7818608E-02  0.8454734E-01
          2   -1    0    0  501    0  0.00000000000E+00  0.00000000000E+00  0.14392221004E+04  0.14392221004E+04  0.00000000000E+00 0.  1.
         -2   -1    0    0    0  501 -0.00000000000E+00 -0.00000000000E+00 -0.96725021970E+03  0.96725021970E+03  0.00000000000E+00 0. -1.
         23    2    1    2    0    0 -0.10177386637E+03  0.10136343376E+04  0.83967240072E+03  0.13234136132E+04  0.92527621996E+02 0.  0.
         11    1    3    3    0    0 -0.30629319056E+02  0.67564787933E+02  0.60748927767E+02  0.95883199671E+02  0.00000000000E+00 0.  1.
        -11    1    3    3    0    0 -0.71144547310E+02  0.94606954966E+03  0.77892347295E+03  0.12275304135E+04  0.00000000000E+00 0. -1.
         22    1    1    2    0    0  0.10177386637E+03 -0.10136343376E+04 -0.36770052000E+03  0.10830587069E+04  0.00000000000E+00 0. -1.
<mgrwt>
<rscale>  0 0.23597355E+04</rscale>
<asrwt>0</asrwt>
<pdfrwt beam="1">  1        2 0.22141878E+00 0.23597355E+04</pdfrwt>
<pdfrwt beam="2">  1       -2 0.14880773E+00 0.23597355E+04</pdfrwt>
<totfact> 0.37949657E+00</totfact>
</mgrwt>
</event>
<event>
 6    1  0.1878398E-004  0.1925522E+04  0.7818608E-02  0.8642256E-01
          2   -1    0    0  501    0  0.00000000000E+00  0.00000000000E+00  0.20390745981E+04  0.20390745981E+04  0.00000000000E+00 0.  1.
         -2   -1    0    0    0  501 -0.00000000000E+00 -0.00000000000E+00 -0.45457301315E+03  0.45457301315E+03  0.00000000000E+00 0. -1.
         23    2    1    2    0    0  0.71021260048E+03 -0.41082213249E+03  0.14698219134E+03  0.83846219281E+03  0.90765201386E+02 0.  0.
         13    1    3    3    0    0  0.60439751476E+03 -0.32400765224E+03  0.14814320758E+03  0.70158657663E+03  0.00000000000E+00 0.  1.
        -13    1    3    3    0    0  0.10581508572E+03 -0.86814480243E+02 -0.11610162350E+01  0.13687561618E+03  0.00000000000E+00 0. -1.
         22    1    1    2    0    0 -0.71021260048E+03  0.41082213249E+03  0.14375193936E+04  0.16551854184E+04  0.00000000000E+00 0.  1.
<mgrwt>
<rscale>  0 0.19255215E+04</rscale>
<asrwt>0</asrwt>
<pdfrwt beam="1">  1        2 0.31370378E+00 0.19255215E+04</pdfrwt>
<pdfrwt beam="2">  1       -2 0.69934311E-01 0.19255215E+04</pdfrwt>
<totfact> 0.11062914E+01</totfact>
</mgrwt>
</event>
<event>
 6    1  0.1878398E-004  0.1131092E+04  0.7818608E-02  0.9175406E-01
          2   -1    0    0  501    0  0.00000000000E+00  0.00000000000E+00  0.38585488138E+03  0.38585488138E+03  0.00000000000E+00 0.  1.
         -2   -1    0    0    0  501 -0.00000000000E+00 -0.00000000000E+00 -0.82891910448E+03  0.82891910448E+03  0.00000000000E+00 0. -1.
         23    2    1    2    0    0  0.13055134298E+03  0.33577998015E+03 -0.68597722877E+03  0.78026440420E+03  0.91956151796E+02 0.  0.
         13    1    3    3    0    0  0.11963107285E+03  0.21305279256E+03 -0.50913771142E+03  0.56473382686E+03  0.00000000000E+00 0. -1.
        -13    1    3    3    0    0  0.10920270125E+02  0.12272718759E+03 -0.17683951735E+03  0.21553057735E+03  0.00000000000E+00 0.  1.
         22    1    1    2    0    0 -0.13055134298E+03 -0.33577998015E+03  0.24291300567E+03  0.43450958165E+03  0.00000000000E+00 0.  1.
<mgrwt>
<rscale>  0 0.11310924E+04</rscale>
<asrwt>0</asrwt>
<pdfrwt beam="1">  1        2 0.59362289E-01 0.11310924E+04</pdfrwt>
<pdfrwt beam="2">  1       -2 0.12752602E+00 0.11310924E+04</pdfrwt>
<totfact> 0.37396509E+01</totfact>
</mgrwt>
</event>
<event>
 6    1  0.1878398E-004  0.2858806E+04  0.7818608E-02  0.8285240E-01
          1   -1    0    0  501    0  0.00000000000E+00  0.00000000000E+00  0.97100696220E+03  0.97100696220E+03  0.00000000000E+00 0.  1.
         -1   -1    0    0    0  501 -0.00000000000E+00 -0.00000000000E+00 -0.21042001464E+04  0.21042001464E+04  0.00000000000E+00 0. -1.
         23    2    1    2    0    0 -0.12600856200E+04 -0.59975599078E+02  0.15259983440E+03  0.12739085412E+04  0.90240899100E+02 0.  0.
         13    1    3    3    0    0 -0.47474080239E+03 -0.58657823325E+02  0.82833783888E+02  0.48546988109E+03  0.00000000000E+00 0. -1.
        -13    1    3    3    0    0 -0.78534481757E+03 -0.13177757535E+01  0.69766050515E+02  0.78843866015E+03  0.00000000000E+00 0.  1.
         22    1    1    2    0    0  0.12600856200E+04  0.59975599078E+02 -0.12857930186E+04  0.18012985674E+04  0.00000000000E+00 0. -1.
<mgrwt>
<rscale>  0 0.28588060E+04</rscale>
<asrwt>0</asrwt>
<pdfrwt beam="1">  1        1 0.14938569E+00 0.28588060E+04</pdfrwt>
<pdfrwt beam="2">  1       -1 0.32372309E+00 0.28588060E+04</pdfrwt>
<totfact> 0.31787352E-01</totfact>
</mgrwt>
</event>
<event>
 6    1  0.1878398E-004  0.9847610E+03  0.7818608E-02  0.9325418E-01
          2   -1    0    0  501    0  0.00000000000E+00  0.00000000000E+00  0.23383334939E+04  0.23383334939E+04  0.00000000000E+00 0.  1.
         -2   -1    0    0    0  501 -0.00000000000E+00 -0.00000000000E+00 -0.10368005497E+03  0.10368005497E+03  0.00000000000E+00 0. -1.
         23    2    1    2    0    0 -0.13173558664E+03  0.43816098233E+03  0.15584391763E+04  0.16255547072E+04  0.66000973443E+02 0.  0.
         11    1    3    3    0    0 -0.10199612790E+02  0.13090170055E+03  0.47976333660E+03  0.49740541458E+03  0.00000000000E+00 0.  1.
        -11    1    3    3    0    0 -0.12153597385E+03  0.30725928178E+03  0.10786758397E+04  0.11281492926E+04  0.00000000000E+00 0. -1.
         22    1    1    2    0    0  0.13173558664E+03 -0.43816098233E+03  0.67621426260E+03  0.81645884169E+03  0.00000000000E+00 0. -1.
<mgrwt>
<rscale>  0 0.98476098E+03</rscale>
<asrwt>0</asrwt>
<pdfrwt beam="1">  1        2 0.35974358E+00 0.98476098E+03</pdfrwt>
<pdfrwt beam="2">  1       -2 0.15950779E-01 0.98476098E+03</pdfrwt>
<totfact> 0.13759150E+02</totfact>
</mgrwt>
</event>
<event>
 6    1  0.1878398E-004  0.3090756E+04  0.7818608E-02  0.8218279E-01
          2   -1    0    0  501    0  0.00000000000E+00  0.00000000000E+00  0.32011607433E+04  0.32011607433E+04  0.00000000000E+00 0.  1.
         -2   -1    0    0    0  501 -0.00000000000E+00 -0.00000000000E+00 -0.74603998673E+03  0.74603998673E+03  0.00000000000E+00 0. -1.
         23    2    1    2    0    0  0.21090232635E+03 -0.15053058234E+04  0.15748568084E+04  0.21907013615E+04  0.92590901896E+02 0.  0.
         11    1    3    3    0    0  0.15080524605E+03 -0.74846455722E+03  0.77732472241E+03  0.10895756696E+04  0.00000000000E+00 0.  1.
        -11    1    3    3    0    0  0.60097080299E+02 -0.75684126618E+03  0.79753208603E+03  0.11011256920E+04  0.00000000000E+00 0. -1.
         22    1    1    2    0    0 -0.21090232635E+03  0.15053058234E+04  0.88026394813E+03  0.17564993685E+04  0.00000000000E+00 0. -1.
<mgrwt>
<rscale>  0 0.30907565E+04</rscale>
<asrwt>0</asrwt>
<pdfrwt beam="1">  1        2 0.49248626E+00 0.30907565E+04</pdfrwt>
<pdfrwt beam="2">  1       -2 0.11477538E+00 0.30907565E+04</pdfrwt>
<totfact> 0.65111087E-01</totfact>
</mgrwt>
</event>
<event>
 6    1  0.1878398E-004  0.1280654E+04  0.7818608E-02  0.9045049E-01
         -2   -1    0    0    0  501 -0.00000000000E+00  0.00000000000E+00  0.16555298030E+03  0.16555298030E+03  0.00000000000E+00 0. -1.
          2   -1    0    0  501    0  0.00000000000E+00 -0.00000000000E+00 -0.24766625380E+04  0.24766625380E+04  0.00000000000E+00 0.  1.
         23    2    1    2    0    0 -0.15493622399E+03  0.40910050308E+03 -0.21165183103E+04  0.21634314243E+04  0.97042849437E+02 0.  0.
         11    1    3    3    0    0 -0.35899672705E+02  0.15742298353E+03 -0.98621266192E+03  0.99934288249E+03  0.00000000000E+00 0.  1.
        -11    1    3    3    0    0 -0.11903655129E+03  0.25167751955E+03 -0.11303056483E+04  0.11640885418E+04  0.00000000000E+00 0. -1.
         22    1    1    2    0    0  0.15493622399E+03 -0.40910050308E+03 -0.19459124740E+03  0.47878409402E+03  0.00000000000E+00 0. -1.
<mgrwt>
<rscale>  0 0.12806543E+04</rscale>
<asrwt>0</asrwt>
<pdfrwt beam="1">  1        2 0.38102500E+00 0.12806543E+04</pdfrwt>
<pdfrwt beam="2">  1       -2 0.25469690E-01 0.12806543E+04</pdfrwt>
<totfact> 0.49116546E+01</totfact>
</mgrwt>
</event>
<event>
 6    1  0.1878398E-004  0.2692998E+04  0.7818608E-02  0.8337281E-01
         -2   -1    0    0    0  501 -0.00000000000E+00  0.00000000000E+00  0.15888999917E+04  0.15888999917E+04  0.00000000000E+00 0. -1.
          2   -1    0    0  501    0  0.00000000000E+00 -0.00000000000E+00 -0.11410780834E+04  0.11410780834E+04  0.00000000000E+00 0.  1.
         23    2    1    2    0    0  0.11646307089E+04 -0.26593937353E+03  0.85042783475E+03  0.14693512585E+04  0.93151384320E+02 0.  0.
         11    1    3    3    0    0  0.46435174628E+03 -0.15167463702E+03  0.33362755322E+03  0.59155311178E+03  0.00000000000E+00 0. -1.
        -11    1    3    3    0    0  0.70027896261E+03 -0.11426473651E+03  0.51680028153E+03  0.87779814677E+03  0.00000000000E+00 0.  1.
         22    1    1    2    0    0 -0.11646307089E+04  0.26593937353E+03 -0.40260592647E+03  0.12606268165E+04  0.00000000000E+00 0.  1.
<mgrwt>
<rscale>  0 0.26929976E+04</rscale>
<asrwt>0</asrwt>
<pdfrwt beam="1">  1        2 0.17555048E+00 0.26929976E+04</pdfrwt>
<pdfrwt beam="2">  1       -2 0.24444615E+00 0.26929976E+04</pdfrwt>
<totfact> 0.12546836E+00</totfact>
</mgrwt>
</event>
<event>
 6    1  0.1878398E-004  0.1103814E+04  0.7818608E-02  0.9201483E-01
          1   -1    0    0  501    0  0.00000000000E+00  0.00000000000E+00  0.38114035416E+03  0.38114035416E+03  0.00000000000E+00 0.  1.
         -1   -1    0    0    0  501 -0.00000000000E+00 -0.00000000000E+00 -0.79918359153E+03  0.79918359153E+03  0.00000000000E+00 0. -1.
         23    2    1    2    0    0 -0.25154900644E+03  0.14626605906E+03 -0.70577964183E+03  0.77110163310E+03  0.10863776081E+03 0.  0.
         11    1    3    3    0    0 -0.79669641607E+02  0.10823783988E+03 -0.31814640694E+03  0.34536910404E+03  0.00000000000E+00 0. -1.
        -11    1    3    3    0    0 -0.17187936483E+03  0.38028219179E+02 -0.38763323489E+03  0.42573252906E+03  0.00000000000E+00 0.  1.
         22    1    1    2    0    0  0.25154900644E+03 -0.14626605906E+03  0.28773640445E+03  0.40922231259E+03  0.00000000000E+00 0.  1.
<mgrwt>
<rscale>  0 0.11038136E+04</rscale>
<asrwt>0</asrwt>
<pdfrwt beam="1">  1        1 0.58636979E-01 0.11038136E+04</pdfrwt>
<pdfrwt beam="2">  1       -1 0.12295132E+00 0.11038136E+04</pdfrwt>
<totfact> 0.37178797E+01</totfact>
</mgrwt>
</event>
<event>
 6    1  0.1878398E-004  0.7164208E+04  0.7818608E-02  0.7560734E-01
          3   -1    0    0  501    0  0.00000000000E+00  0.00000000000E+00  0.31050534041E+04  0.31050534041E+04  0.00000000000E+00 0.  1.
         -3   -1    0    0    0  501 -0.00000000000E+00 -0.00000000000E+00 -0.41324476665E+04  0.41324476665E+04  0.00000000000E+00 0. -1.
         23    2    1    2    0    0 -0.25408164504E+04 -0.24949493963E+04 -0.12650105195E+03  0.35643376790E+04  0.89330001988E+02 0.  0.
         13    1    3    3    0    0 -0.11705550223E+03 -0.14257498417E+03 -0.80091483875E+01  0.18464496519E+03  0.00000000000E+00 0. -1.
        -13    1    3    3    0    0 -0.24237609482E+04 -0.23523744121E+04 -0.11849190356E+03  0.33796927138E+04  0.00000000000E+00 0.  1.
         22    1    1    2    0    0  0.25408164504E+04  0.24949493963E+04 -0.90089321051E+03  0.36731633916E+04  0.00000000000E+00 0.  1.
<mgrwt>
<rscale>  0 0.71642085E+04</rscale>
<asrwt>0</asrwt>
<pdfrwt beam="1">  1        3 0.47770053E+00 0.71642085E+04</pdfrwt>
<pdfrwt beam="2">  1       -3 0.63576118E+00 0.71642085E+04</pdfrwt>
<totfact> 0.40240175E-06</totfact>
</mgrwt>
</event>
<event>
 6    1  0.1878398E-004  0.2478841E+04  0.7818608E-02  0.8410562E-01
          1   -1    0    0  501    0  0.00000000000E+00  0.00000000000E+00  0.26335147001E+04  0.26335147001E+04  0.00000000000E+00 0. -1.
         -1   -1    0    0    0  501 -0.00000000000E+00 -0.00000000000E+00 -0.58331311936E+03  0.58331311936E+03  0.00000000000E+00 0.  1.
         23    2    1    2    0    0 -0.11756873940E+04  0.53415553828E+02  0.52972813145E+03  0.12940866565E+04  0.94627223513E+02 0.  0.
         11    1    3    3    0    0 -0.50800815889E+03  0.50362246298E+02  0.18785459342E+03  0.54396506655E+03  0.00000000000E+00 0. -1.
        -11    1    3    3    0    0 -0.66767923510E+03  0.30533075303E+01  0.34187353803E+03  0.75012158993E+03  0.00000000000E+00 0.  1.
         22    1    1    2    0    0  0.11756873940E+04 -0.53415553828E+02  0.15204734493E+04  0.19227411629E+04  0.00000000000E+00 0. -1.
<mgrwt>
<rscale>  0 0.24788414E+04</rscale>
<asrwt>0</asrwt>
<pdfrwt beam="1">  1        1 0.40515610E+00 0.24788414E+04</pdfrwt>
<pdfrwt beam="2">  1       -1 0.89740481E-01 0.24788414E+04</pdfrwt>
<totfact> 0.11823964E+00</totfact>
</mgrwt>
</event>
<event>
 6    1  0.1878398E-004  0.1523203E+04  0.7818608E-02  0.8869168E-01
         -1   -1    0    0    0  501 -0.00000000000E+00  0.00000000000E+00  0.14362098913E+03  0.14362098913E+03  0.00000000000E+00 0. -1.
          1   -1    0    0  501    0  0.00000000000E+00 -0.00000000000E+00 -0.40386620533E+04  0.40386620533E+04  0.00000000000E+00 0.  1.
         23    2    1    2    0    0 -0.58048351237E+03 -0.37741692479E+03 -0.28071540181E+04  0.28927471305E+04  0.92019759867E+02 0.  0.
         13    1    3    3    0    0 -0.11446155728E+03 -0.11423395056E+03 -0.57299629396E+03  0.59537853207E+03  0.00000000000E+00 0. -1.
        -13    1    3    3    0    0 -0.46602195509E+03 -0.26318297423E+03 -0.22341577241E+04  0.22973685984E+04  0.00000000000E+00 0.  1.
         22    1    1    2    0    0  0.58048351237E+03  0.37741692479E+03 -0.10878870461E+04  0.12895359120E+04  0.00000000000E+00 0. -1.
<mgrwt>
<rscale>  0 0.15232027E+04</rscale>
<asrwt>0</asrwt>
<pdfrwt beam="1">  1        1 0.62133254E+00 0.15232027E+04</pdfrwt>
<pdfrwt beam="2">  1       -1 0.22095540E-01 0.15232027E+04</pdfrwt>
<totfact> 0.15095789E+00</totfact>
</mgrwt>
</event>
<event>
 6    1  0.1878398E-004  0.3015017E+04  0.7818608E-02  0.8239456E-01
         -1   -1    0    0    0  501 -0.00000000000E+00  0.00000000000E+00  0.62983804068E+03  0.62983804068E+03  0.00000000000E+00 0. -1.
          1   -1    0    0  501    0  0.00000000000E+00 -0.00000000000E+00 -0.36081993719E+04  0.36081993719E+04  0.00000000000E+00 0.  1.
         23    2    1    2    0    0 -0.11793669573E+04  0.12951178562E+02 -0.17391040794E+03  0.11956667688E+04  0.91104550936E+02 0.  0.
         13    1    3    3    0    0 -0.72510416399E+03 -0.34126862623E+02 -0.12087602638E+03  0.73590196707E+03  0.00000000000E+00 0.  1.
        -13    1    3    3    0    0 -0.45426279327E+03  0.47078041185E+02 -0.53034381563E+02  0.45976480176E+03  0.00000000000E+00 0. -1.
         22    1    1    2    0    0  0.11793669573E+04 -0.12951178562E+02 -0.28044509232E+04  0.30423706437E+04  0.00000000000E+00 0.  1.
<mgrwt>
<rscale>  0 0.30150166E+04</rscale>
<asrwt>0</asrwt>
<pdfrwt beam="1">  1        1 0.55510759E+00 0.30150166E+04</pdfrwt>
<pdfrwt beam="2">  1       -1 0.96898161E-01 0.30150166E+04</pdfrwt>
<totfact> 0.17816465E-01</totfact>
</mgrwt>
</event>
<event>
 6    1  0.1878398E-004  0.2804544E+04  0.7818608E-02  0.8301859E-01
          2   -1    0    0  501    0  0.00000000000E+00  0.00000000000E+00  0.96939505398E+03  0.96939505398E+03  0.00000000000E+00 0. -1.
         -2   -1    0    0    0  501 -0.00000000000E+00 -0.00000000000E+00 -0.20284477318E+04  0.20284477318E+04  0.00000000000E+00 0.  1.
         23    2    1    2    0    0 -0.32595577402E+03  0.81813823894E+03 -0.16944970353E+04  0.19118469865E+04  0.90781894476E+02 0.  0.
         11    1    3    3    0    0 -0.17850012475E+03  0.35673130813E+03 -0.83037236465E+03  0.92121538453E+03  0.00000000000E+00 0.  1.
        -11    1    3    3    0    0 -0.14745564928E+03  0.46140693082E+03 -0.86412467068E+03  0.99063160195E+03  0.00000000000E+00 0. -1.
         22    1    1    2    0    0  0.32595577402E+03 -0.81813823894E+03  0.63544435749E+03  0.10859957993E+04  0.00000000000E+00 0. -1.
<mgrwt>
<rscale>  0 0.28045443E+04</rscale>
<asrwt>0</asrwt>
<pdfrwt beam="1">  1        2 0.14913770E+00 0.28045443E+04</pdfrwt>
<pdfrwt beam="2">  1       -2 0.31206888E+00 0.28045443E+04</pdfrwt>
<totfact> 0.61458040E-01</totfact>
</mgrwt>
</event>
<event>
 6    1  0.1878398E-004  0.2407978E+04  0.7818608E-02  0.8436523E-01
          2   -1    0    0  501    0  0.00000000000E+00  0.00000000000E+00  0.12023319218E+04  0.12023319218E+04  0.00000000000E+00 0.  1.
         -2   -1    0    0    0  501 -0.00000000000E+00 -0.00000000000E+00 -0.12056485674E+04  0.12056485674E+04  0.00000000000E+00 0. -1.
         23    2    1    2    0    0 -0.23330698160E+03 -0.10848567560E+04 -0.46439735597E+03  0.12063392157E+04  0.90791355705E+02 0.  0.
         13    1    3    3    0    0 -0.15449527924E+03 -0.51105884769E+03 -0.23633856221E+03  0.58387143542E+03  0.00000000000E+00 0.  1.
        -13    1    3    3    0    0 -0.78811702363E+02 -0.57379790834E+03 -0.22805879376E+03  0.62246778026E+03  0.00000000000E+00 0. -1.
         22    1    1    2    0    0  0.23330698160E+03  0.10848567560E+04  0.46108071036E+03  0.12016412735E+04  0.00000000000E+00 0. -1.
<mgrwt>
<rscale>  0 0.24079782E+04</rscale>
<asrwt>0</asrwt>
<pdfrwt beam="1">  1        2 0.18497414E+00 0.24079782E+04</pdfrwt>
<pdfrwt beam="2">  1       -2 0.18548440E+00 0.24079782E+04</pdfrwt>
<totfact> 0.28212399E+00</totfact>
</mgrwt>
</event>
<event>
 6    1  0.1878398E-004  0.2176301E+04  0.7818608E-02  0.8528357E-01
         -1   -1    0    0    0  501 -0.00000000000E+00  0.00000000000E+00  0.95892610464E+03  0.95892610464E+03  0.00000000000E+00 0. -1.
          1   -1    0    0  501    0  0.00000000000E+00 -0.00000000000E+00 -0.12347890059E+04  0.12347890059E+04  0.00000000000E+00 0.  1.
         23    2    1    2    0    0 -0.55730649790E+02  0.24883475130E+03 -0.12025068384E+04  0.12326252994E+04  0.91201937791E+02 0.  0.
         13    1    3    3    0    0 -0.11350644518E+02  0.18834745722E+03 -0.97430020059E+03  0.99240338706E+03  0.00000000000E+00 0.  1.
        -13    1    3    3    0    0 -0.44380005271E+02  0.60487294072E+02 -0.22820663782E+03  0.24022191231E+03  0.00000000000E+00 0. -1.
         22    1    1    2    0    0  0.55730649790E+02 -0.24883475130E+03  0.92664393717E+03  0.96108981114E+03  0.00000000000E+00 0. -1.
<mgrwt>
<rscale>  0 0.21763009E+04</rscale>
<asrwt>0</asrwt>
<pdfrwt beam="1">  1        1 0.18996754E+00 0.21763009E+04</pdfrwt>
<pdfrwt beam="2">  1       -1 0.14752709E+00 0.21763009E+04</pdfrwt>
<totfact> 0.33601030E+00</totfact>
</mgrwt>
</event>
<event>
 6    1  0.1878398E-004  0.3974887E+04  0.7818608E-02  0.8009632E-01
         -2   -1    0    0    0  501 -0.00000000000E+00  0.00000000000E+00  0.31815810003E+04  0.31815810003E+04  0.00000000000E+00 0. -1.
          2   -1    0    0  501    0  0.00000000000E+00 -0.00000000000E+00 -0.12414997034E+04  0.12414997034E+04  0.00000000000E+00 0.  1.
         23    2    1    2    0    0 -0.17475671554E+03 -0.19554902945E+04  0.63464591906E+03  0.20654030906E+04  0.92910078266E+02 0.  0.
         11    1    3    3    0    0 -0.32814738539E+02 -0.84082327995E+03  0.29103450812E+03  0.89037165278E+03  0.00000000000E+00 0.  1.
        -11    1    3    3    0    0 -0.14194197700E+03 -0.11146670146E+04  0.34361141094E+03  0.11750314379E+04  0.00000000000E+00 0. -1.
         22    1    1    2    0    0  0.17475671554E+03  0.19554902945E+04  0.13054353779E+04  0.23576776131E+04  0.00000000000E+00 0. -1.
<mgrwt>
<rscale>  0 0.39748871E+04</rscale>
<asrwt>0</asrwt>
<pdfrwt beam="1">  1        2 0.19099996E+00 0.39748871E+04</pdfrwt>
<pdfrwt beam="2">  1       -2 0.48947400E+00 0.39748871E+04</pdfrwt>
<totfact> 0.27188846E-02</totfact>
</mgrwt>
</event>
<event>
 6    1  0.1878398E-004  0.1826274E+04  0.7818608E-02  0.8692451E-01
         -2   -1    0    0    0  501 -0.00000000000E+00  0.00000000000E+00  0.19990327657E+04  0.19990327657E+04  0.00000000000E+00 0. -1.
          2   -1    0    0  501    0  0.00000000000E+00 -0.00000000000E+00 -0.41711115116E+03  0.41711115116E+03  0.00000000000E+00 0.  1.
         23    2    1    2    0    0  0.30629120470E+03 -0.84180078549E+03  0.57365877838E+03  0.10674271893E+04  0.88733002981E+02 0.  0.
         13    1    3    3    0    0  0.17725763293E+03 -0.36425750372E+03  0.24228140769E+03  0.47202126855E+03  0.00000000000E+00 0. -1.
        -13    1    3    3    0    0  0.12903357177E+03 -0.47754328177E+03  0.33137737069E+03  0.59540592070E+03  0.00000000000E+00 0.  1.
         22    1    1    2    0    0 -0.30629120470E+03  0.84180078549E+03  0.10082628362E+04  0.13487167276E+04  0.00000000000E+00 0.  1.
<mgrwt>
<rscale>  0 0.18262736E+04</rscale>
<asrwt>0</asrwt>
<pdfrwt beam="1">  1        2 0.64170947E-01 0.18262736E+04</pdfrwt>
<pdfrwt beam="2">  1       -2 0.30754350E+00 0.18262736E+04</pdfrwt>
<totfact> 0.20451116E+00</totfact>
</mgrwt>
</event>
<event>
 6    1  0.1878398E-004  0.1352913E+04  0.7818608E-02  0.8988626E-01
         -2   -1    0    0    0  501 -0.00000000000E+00  0.00000000000E+00  0.18539921103E+03  0.18539921103E+03  0.00000000000E+00 0.  1.
          2   -1    0    0  501    0  0.00000000000E+00 -0.00000000000E+00 -0.24681535618E+04  0.24681535618E+04  0.00000000000E+00 0. -1.
         23    2    1    2    0    0  0.17156566825E+03 -0.40623432073E+03 -0.14845773889E+03  0.47417599739E+03  0.91334957152E+02 0.  0.
         11    1    3    3    0    0  0.14327877616E+03 -0.36344528672E+03 -0.99210930176E+02  0.40306834756E+03  0.00000000000E+00 0. -1.
        -11    1    3    3    0    0  0.28286892089E+02 -0.42789034015E+02 -0.49246808711E+02  0.71107649829E+02  0.00000000000E+00 0.  1.
         22    1    1    2    0    0 -0.17156566825E+03  0.40623432073E+03 -0.21342966119E+04  0.21793767754E+04  0.00000000000E+00 0. -1.
<mgrwt>
<rscale>  0 0.13529135E+04</rscale>
<asrwt>0</asrwt>
<pdfrwt beam="1">  1        2 0.37971587E+00 0.13529135E+04</pdfrwt>
<pdfrwt beam="2">  1       -2 0.28522960E-01 0.13529135E+04</pdfrwt>
<totfact> 0.40110468E+01</totfact>
</mgrwt>
</event>
<event>
 6    1  0.1878398E-004  0.2787759E+04  0.7818608E-02  0.8307079E-01
         -1   -1    0    0    0  501 -0.00000000000E+00  0.00000000000E+00  0.27962016939E+04  0.27962016939E+04  0.00000000000E+00 0. -1.
          1   -1    0    0  501    0  0.00000000000E+00 -0.00000000000E+00 -0.69483546362E+03  0.69483546362E+03  0.00000000000E+00 0.  1.
         23    2    1    2    0    0  0.81846232464E+02  0.11230634319E+04  0.20774361660E+04  0.23647410482E+04  0.91043524792E+02 0.  0.
         11    1    3    3    0    0  0.81199301381E+02  0.10188075159E+04  0.19336248620E+04  0.21871138946E+04  0.00000000000E+00 0. -1.
        -11    1    3    3    0    0  0.64693108302E+00  0.10425591599E+03  0.14381130405E+03  0.17762715364E+03  0.00000000000E+00 0.  1.
         22    1    1    2    0    0 -0.81846232464E+02 -0.11230634319E+04  0.23930064269E+02  0.11262961093E+04  0.00000000000E+00 0.  1.
<mgrwt>
<rscale>  0 0.27877590E+04</rscale>
<asrwt>0</asrwt>
<pdfrwt beam="1">  1        1 0.10689777E+00 0.27877590E+04</pdfrwt>
<pdfrwt beam="2">  1       -1 0.43018487E+00 0.27877590E+04</pdfrwt>
<totfact> 0.10580608E-01</totfact>
</mgrwt>
</event>
<event>
 6    1  0.1878398E-004  0.1326033E+04  0.7818608E-02  0.9009172E-01
         -1   -1    0    0    0  501 -0.00000000000E+00  0.00000000000E+00  0.43466128561E+03  0.43466128561E+03  0.00000000000E+00 0.  1.
          1   -1    0    0  501    0  0.00000000000E+00 -0.00000000000E+00 -0.10113412934E+04  0.10113412934E+04  0.00000000000E+00 0. -1.
         23    2    1    2    0    0  0.40928612031E+03 -0.47276644387E+03 -0.51887042461E+03  0.81801755803E+03  0.94355545580E+02 0.  0.
         11    1    3    3    0    0  0.12617289604E+03 -0.94142477628E+02 -0.16010172052E+03  0.22453277423E+03  0.00000000000E+00 0.  1.
        -11    1    3    3    0    0  0.28311322426E+03 -0.37862396624E+03 -0.35876870409E+03  0.59348478380E+03  0.00000000000E+00 0. -1.
         22    1    1    2    0    0 -0.40928612031E+03  0.47276644387E+03 -0.57809583219E+02  0.62798502103E+03  0.00000000000E+00 0.  1.
<mgrwt>
<rscale>  0 0.13260330E+04</rscale>
<asrwt>0</asrwt>
<pdfrwt beam="1">  1        1 0.15559097E+00 0.13260330E+04</pdfrwt>
<pdfrwt beam="2">  1       -1 0.66870968E-01 0.13260330E+04</pdfrwt>
<totfact> 0.32940791E+01</totfact>
</mgrwt>
</event>
<event>
 6    1  0.1878398E-004  0.1147180E+04  0.7818608E-02  0.9160389E-01
         -3   -1    0    0    0  501 -0.00000000000E+00  0.00000000000E+00  0.28822779502E+03  0.28822779502E+03  0.00000000000E+00 0.  1.
          3   -1    0    0  501    0  0.00000000000E+00 -0.00000000000E+00 -0.11414768085E+04  0.11414768085E+04  0.00000000000E+00 0. -1.
         23    2    1    2    0    0  0.22683406218E+03 -0.35689091559E+03  0.47264947035E+02  0.43484269829E+03  0.89606805754E+02 0.  0.
         11    1    3    3    0    0  0.15918331691E+03 -0.19272124019E+03 -0.41176731101E+01  0.24999552003E+03  0.00000000000E+00 0.  1.
        -11    1    3    3    0    0  0.67650745275E+02 -0.16416967540E+03  0.51382620145E+02  0.18484717826E+03  0.00000000000E+00 0. -1.
         22    1    1    2    0    0 -0.22683406218E+03  0.35689091559E+03 -0.90051396054E+03  0.99486190526E+03  0.00000000000E+00 0. -1.
<mgrwt>
<rscale>  0 0.11471797E+04</rscale>
<asrwt>0</asrwt>
<pdfrwt beam="1">  1        3 0.17561182E+00 0.11471797E+04</pdfrwt>
<pdfrwt beam="2">  1       -3 0.44342738E-01 0.11471797E+04</pdfrwt>
<totfact> 0.27947434E+00</totfact>
</mgrwt>
</event>
<event>
 6    1  0.1878398E-004  0.1873561E+04  0.7818608E-02  0.8668130E-01
          2   -1    0    0  501    0  0.00000000000E+00  0.00000000000E+00  0.16404503847E+04  0.16404503847E+04  0.00000000000E+00 0.  1.
         -2   -1    0    0    0  501 -0.00000000000E+00 -0.00000000000E+00 -0.53494921713E+03  0.53494921713E+03  0.00000000000E+00 0. -1.
         23    2    1    2    0    0 -0.40773992720E+03 -0.72159783896E+03  0.52448441362E+02  0.83529686935E+03  0.89525032941E+02 0.  0.
         13    1    3    3    0    0 -0.25592478537E+03 -0.48332398241E+03  0.74303725506E+02  0.55192446165E+03  0.00000000000E+00 0.  1.
        -13    1    3    3    0    0 -0.15181514183E+03 -0.23827385655E+03 -0.21855284144E+02  0.28337240771E+03  0.00000000000E+00 0. -1.
         22    1    1    2    0    0  0.40773992720E+03  0.72159783896E+03  0.10530527262E+04  0.13401027325E+04  0.00000000000E+00 0.  1.
<mgrwt>
<rscale>  0 0.18735609E+04</rscale>
<asrwt>0</asrwt>
<pdfrwt beam="1">  1        2 0.25237698E+00 0.18735609E+04</pdfrwt>
<pdfrwt beam="2">  1       -2 0.82299881E-01 0.18735609E+04</pdfrwt>
<totfact> 0.12881709E+01</totfact>
</mgrwt>
</event>
<event>
 6    1  0.1878398E-004  0.2252510E+04  0.7818608E-02  0.8496885E-01
         -2   -1    0    0    0  501 -0.00000000000E+00  0.00000000000E+00  0.10568598187E+04  0.10568598187E+04  0.00000000000E+00 0. -1.
          2   -1    0    0  501    0  0.00000000000E+00 -0.00000000000E+00 -0.12002068558E+04  0.12002068558E+04  0.00000000000E+00 0.  1.
         23    2    1    2    0    0 -0.83848215559E+02  0.10381258475E+04 -0.49651528924E+03  0.11573105138E+04  0.90024410357E+02 0.  0.
         11    1    3    3    0    0  0.31344358052E+01  0.48258433345E+03 -0.24692014497E+03  0.54209503002E+03  0.00000000000E+00 0.  1.
        -11    1    3    3    0    0 -0.86982651364E+02  0.55554151404E+03 -0.24959514427E+03  0.61521548380E+03  0.00000000000E+00 0. -1.
         22    1    1    2    0    0  0.83848215559E+02 -0.10381258475E+04  0.35316825217E+03  0.10997561606E+04  0.00000000000E+00 0. -1.
<mgrwt>
<rscale>  0 0.22525101E+04</rscale>
<asrwt>0</asrwt>
<pdfrwt beam="1">  1        2 0.18464721E+00 0.22525101E+04</pdfrwt>
<pdfrwt beam="2">  1       -2 0.16259382E+00 0.22525101E+04</pdfrwt>
<totfact> 0.41545208E+00</totfact>
</mgrwt>
</event>
<event>
 6    1  0.1878398E-004  0.4262512E+03  0.7818608E-02  0.1035051E+00
          2   -1    0    0  501    0  0.00000000000E+00  0.00000000000E+00  0.12130169424E+03  0.12130169424E+03  0.00000000000E+00 0.  1.
         -2   -1    0    0    0  501 -0.00000000000E+00 -0.00000000000E+00 -0.37445908120E+03  0.37445908120E+03  0.00000000000E+00 0. -1.
         23    2    1    2    0    0 -0.35143341711E+02 -0.19966385452E+03 -0.15794964413E+03  0.27178483127E+03  0.88420558458E+02 0.  0.
         11    1    3    3    0    0 -0.60123322357E+02 -0.17567070362E+03 -0.12392116396E+03  0.22322962366E+03  0.00000000000E+00 0. -1.
        -11    1    3    3    0    0  0.24979980646E+02 -0.23993150899E+02 -0.34028480175E+02  0.48555207611E+02  0.00000000000E+00 0.  1.
         22    1    1    2    0    0  0.35143341711E+02  0.19966385452E+03 -0.95207742834E+02  0.22397594417E+03  0.00000000000E+00 0.  1.
<mgrwt>
<rscale>  0 0.42625120E+03</rscale>
<asrwt>0</asrwt>
<pdfrwt beam="1">  1        2 0.18661799E-01 0.42625120E+03</pdfrwt>
<pdfrwt beam="2">  1       -2 0.57609089E-01 0.42625120E+03</pdfrwt>
<totfact> 0.87219069E+02</totfact>
</mgrwt>
</event>
<event>
 6    1  0.1878398E-004  0.1905036E+04  0.7818608E-02  0.8652354E-01
          2   -1    0    0  501    0  0.00000000000E+00  0.00000000000E+00  0.11086696586E+04  0.11086696586E+04  0.00000000000E+00 0.  1.
         -2   -1    0    0    0  501 -0.00000000000E+00 -0.00000000000E+00 -0.81835933459E+03  0.81835933459E+03  0.00000000000E+00 0. -1.
         23    2    1    2    0    0 -0.61077124627E+03  0.16818918267E+03 -0.57056839257E+03  0.85817854477E+03  0.97943900518E+02 0.  0.
         13    1    3    3    0    0 -0.13717930374E+03  0.38700999487E+02 -0.18705093541E+03  0.23516798501E+03  0.00000000000E+00 0. -1.
        -13    1    3    3    0    0 -0.47359194253E+03  0.12948818319E+03 -0.38351745716E+03  0.62301055975E+03  0.00000000000E+00 0.  1.
         22    1    1    2    0    0  0.61077124627E+03 -0.16818918267E+03  0.86087871662E+03  0.10688504485E+04  0.00000000000E+00 0.  1.
<mgrwt>
<rscale>  0 0.19050356E+04</rscale>
<asrwt>0</asrwt>
<pdfrwt beam="1">  1        2 0.17056456E+00 0.19050356E+04</pdfrwt>
<pdfrwt beam="2">  1       -2 0.12590144E+00 0.19050356E+04</pdfrwt>
<totfact> 0.94877907E+00</totfact>
</mgrwt>
</event>
<event>
 6    1  0.1878398E-004  0.3208530E+04  0.7818608E-02  0.8186568E-01
          2   -1    0    0  501    0  0.00000000000E+00  0.00000000000E+00  0.22730546627E+04  0.22730546627E+04  0.00000000000E+00 0.  1.
         -2   -1    0    0    0  501 -0.00000000000E+00 -0.00000000000E+00 -0.11322502173E+04  0.11322502173E+04  0.00000000000E+00 0. -1.
         23    2    1    2    0    0 -0.65734763797E+03  0.14151184255E+04  0.96075950063E+03  0.18346100473E+04  0.89828348232E+02 0.  0.
         11    1    3    3    0    0 -0.20030607685E+03  0.45196023651E+03  0.35291093628E+03  0.60740160417E+03  0.00000000000E+00 0. -1.
        -11    1    3    3    0    0 -0.45704156112E+03  0.96315818901E+03  0.60784856435E+03  0.12272084431E+04  0.00000000000E+00 0.  1.
         22    1    1    2    0    0  0.65734763797E+03 -0.14151184255E+04  0.18004494483E+03  0.15706948327E+04  0.00000000000E+00 0. -1.
<mgrwt>
<rscale>  0 0.32085303E+04</rscale>
<asrwt>0</asrwt>
<pdfrwt beam="1">  1        2 0.34970072E+00 0.32085303E+04</pdfrwt>
<pdfrwt beam="2">  1       -2 0.17419234E+00 0.32085303E+04</pdfrwt>
<totfact> 0.78658367E-01</totfact>
</mgrwt>
</event>
<event>
 6    1  0.1878398E-004  0.2528514E+04  0.7818608E-02  0.8392897E-01
         -2   -1    0    0    0  501 -0.00000000000E+00  0.00000000000E+00  0.15860952191E+04  0.15860952191E+04  0.00000000000E+00 0.  1.
          2   -1    0    0  501    0  0.00000000000E+00 -0.00000000000E+00 -0.10077239195E+04  0.10077239195E+04  0.00000000000E+00 0. -1.
         23    2    1    2    0    0 -0.25750345213E+03  0.12334142302E+04  0.37092516611E+03  0.13168490569E+04  0.94272311477E+02 0.  0.
         11    1    3    3    0    0 -0.20046006334E+02  0.28855821600E+03  0.89207100550E+02  0.30269719718E+03  0.00000000000E+00 0.  1.
        -11    1    3    3    0    0 -0.23745744580E+03  0.94485601423E+03  0.28171806556E+03  0.10141518598E+04  0.00000000000E+00 0. -1.
         22    1    1    2    0    0  0.25750345213E+03 -0.12334142302E+04  0.20744613346E+03  0.12769700817E+04  0.00000000000E+00 0. -1.
<mgrwt>
<rscale>  0 0.25285143E+04</rscale>
<asrwt>0</asrwt>
<pdfrwt beam="1">  1        2 0.15503445E+00 0.25285143E+04</pdfrwt>
<pdfrwt beam="2">  1       -2 0.24401465E+00 0.25285143E+04</pdfrwt>
<totfact> 0.15499562E+00</totfact>
</mgrwt>
</event>
<event>
 6    1  0.1878398E-004  0.3290308E+04  0.7818608E-02  0.8165366E-01
         -2   -1    0    0    0  501 -0.00000000000E+00  0.00000000000E+00  0.13684958196E+04  0.13684958196E+04  0.00000000000E+00 0. -1.
          2   -1    0    0  501    0  0.00000000000E+00 -0.00000000000E+00 -0.19777417396E+04  0.19777417396E+04  0.00000000000E+00 0.  1.
         23    2    1    2    0    0 -0.81294308630E+03  0.30721948581E+03 -0.17240048974E+04  0.19327497270E+04  0.89823977082E+02 0.  0.
         11    1    3    3    0    0 -0.51742099687E+03  0.15022720894E+03 -0.10864918103E+04  0.12127477710E+04  0.00000000000E+00 0. -1.
        -11    1    3    3    0    0 -0.29552208942E+03  0.15699227687E+03 -0.63751308713E+03  0.72000195597E+03  0.00000000000E+00 0.  1.
         22    1    1    2    0    0  0.81294308630E+03 -0.30721948581E+03  0.11147589775E+04  0.14134878322E+04  0.00000000000E+00 0. -1.
<mgrwt>
<rscale>  0 0.32903078E+04</rscale>
<asrwt>0</asrwt>
<pdfrwt beam="1">  1        2 0.30426796E+00 0.32903078E+04</pdfrwt>
<pdfrwt beam="2">  1       -2 0.21053782E+00 0.32903078E+04</pdfrwt>
<totfact> 0.65281239E-01</totfact>
</mgrwt>
</event>
<event>
 6    1  0.1878398E-004  0.9736227E+03  0.7818608E-02  0.9337958E-01
         -2   -1    0    0    0  501 -0.00000000000E+00  0.00000000000E+00  0.86736063206E+02  0.86736063206E+02  0.00000000000E+00 0. -1.
          2   -1    0    0  501    0  0.00000000000E+00 -0.00000000000E+00 -0.27322578354E+04  0.27322578354E+04  0.00000000000E+00 0.  1.
         23    2    1    2    0    0 -0.45349774862E+03 -0.15191604660E+03 -0.11411657007E+04  0.12404420676E+04  0.87742085010E+02 0.  0.
         13    1    3    3    0    0 -0.25577710117E+03 -0.12984309484E+03 -0.64732169072E+03  0.70803003187E+03  0.00000000000E+00 0. -1.
        -13    1    3    3    0    0 -0.19772064745E+03 -0.22072951764E+02 -0.49384400996E+03  0.53241203574E+03  0.00000000000E+00 0.  1.
         22    1    1    2    0    0  0.45349774862E+03  0.15191604660E+03 -0.15043560715E+04  0.15785518310E+04  0.00000000000E+00 0. -1.
<mgrwt>
<rscale>  0 0.97362270E+03</rscale>
<asrwt>0</asrwt>
<pdfrwt beam="1">  1        2 0.42034727E+00 0.97362270E+03</pdfrwt>
<pdfrwt beam="2">  1       -2 0.13344012E-01 0.97362270E+03</pdfrwt>
<totfact> 0.11066636E+02</totfact>
</mgrwt>
</event>
<event>
 6    1  0.1878398E-004  0.3126847E+04  0.7818608E-02  0.8208409E-01
         -1   -1    0    0    0  501 -0.00000000000E+00  0.00000000000E+00  0.18060764860E+04  0.18060764860E+04  0.00000000000E+00 0. -1.
          1   -1    0    0  501    0  0.00000000000E+00 -0.00000000000E+00 -0.13533714618E+04  0.13533714618E+04  0.00000000000E+00 0.  1.
         23    2    1    2    0    0 -0.55068863684E+03 -0.91602270462E+03  0.13776811724E+04  0.17459641505E+04  0.89609329827E+02 0.  0.
         11    1    3    3    0    0 -0.22881518461E+03 -0.45058431878E+03  0.60689690584E+03  0.78975089196E+03  0.00000000000E+00 0.  1.
        -11    1    3    3    0    0 -0.32187345223E+03 -0.46543838585E+03  0.77078426659E+03  0.95621325858E+03  0.00000000000E+00 0. -1.
         22    1    1    2    0    0  0.55068863684E+03  0.91602270462E+03 -0.92497614828E+03  0.14134837972E+04  0.00000000000E+00 0.  1.
<mgrwt>
<rscale>  0 0.31268466E+04</rscale>
<asrwt>0</asrwt>
<pdfrwt beam="1">  1        1 0.20821099E+00 0.31268466E+04</pdfrwt>
<pdfrwt beam="2">  1       -1 0.27785792E+00 0.31268466E+04</pdfrwt>
<totfact> 0.32059465E-01</totfact>
</mgrwt>
</event>
<event>
 6    1  0.1878398E-004  0.7258502E+03  0.7818608E-02  0.9674018E-01
         -1   -1    0    0    0  501 -0.00000000000E+00  0.00000000000E+00  0.44725621335E+02  0.44725621335E+02  0.00000000000E+00 0. -1.
          1   -1    0    0  501    0  0.00000000000E+00 -0.00000000000E+00 -0.29449480858E+04  0.29449480858E+04  0.00000000000E+00 0.  1.
         23    2    1    2    0    0  0.15837136725E+03  0.16328765889E+03 -0.26078527836E+04  0.26192356154E+04  0.88060880003E+02 0.  0.
         13    1    3    3    0    0  0.90410402795E+02  0.32021043554E+02 -0.10778139358E+04  0.10820731344E+04  0.00000000000E+00 0.  1.
        -13    1    3    3    0    0  0.67960964450E+02  0.13126661534E+03 -0.15300388479E+04  0.15371624810E+04  0.00000000000E+00 0. -1.
         22    1    1    2    0    0 -0.15837136725E+03 -0.16328765889E+03 -0.29236968085E+03  0.37043809171E+03  0.00000000000E+00 0. -1.
<mgrwt>
<rscale>  0 0.72585021E+03</rscale>
<asrwt>0</asrwt>
<pdfrwt beam="1">  1        1 0.45306892E+00 0.72585021E+03</pdfrwt>
<pdfrwt beam="2">  1       -1 0.68808651E-02 0.72585021E+03</pdfrwt>
<totfact> 0.78735231E+01</totfact>
</mgrwt>
</event>
<event>
 6    1  0.1878398E-004  0.2979386E+03  0.7818608E-02  0.1086276E+00
          2   -1    0    0  501    0  0.00000000000E+00  0.00000000000E+00  0.52189089538E+03  0.52189089538E+03  0.00000000000E+00 0.  1.
         -2   -1    0    0    0  501 -0.00000000000E+00 -0.00000000000E+00 -0.42522003845E+02  0.42522003845E+02  0.00000000000E+00 0. -1.
         23    2    1    2    0    0  0.15977943677E+02 -0.12525883283E+03  0.35326185174E+03  0.38595266452E+03  0.90666716430E+02 0.  0.
         13    1    3    3    0    0 -0.39552356130E+01 -0.11684419897E+03  0.34226578232E+03  0.36168228664E+03  0.00000000000E+00 0.  1.
        -13    1    3    3    0    0  0.19933179290E+02 -0.84146338623E+01  0.10996069416E+02  0.24270377876E+02  0.00000000000E+00 0. -1.
         22    1    1    2    0    0 -0.15977943677E+02  0.12525883283E+03  0.12610703979E+03  0.17846023470E+03  0.00000000000E+00 0. -1.
<mgrwt>
<rscale>  0 0.29793856E+03</rscale>
<asrwt>0</asrwt>
<pdfrwt beam="1">  1        2 0.80290903E-01 0.29793856E+03</pdfrwt>
<pdfrwt beam="2">  1       -2 0.65418471E-02 0.29793856E+03</pdfrwt>
<totfact> 0.76640020E+03</totfact>
</mgrwt>
</event>
<event>
 6    1  0.1878398E-004  0.1313331E+04  0.7818608E-02  0.9019060E-01
         -1   -1    0    0    0  501 -0.00000000000E+00  0.00000000000E+00  0.45201703128E+03  0.45201703128E+03  0.00000000000E+00 0. -1.
          1   -1    0    0  501    0  0.00000000000E+00 -0.00000000000E+00 -0.95396774108E+03  0.95396774108E+03  0.00000000000E+00 0.  1.
         23    2    1    2    0    0 -0.42009436376E+02 -0.32879158594E+03 -0.85505105991E+03  0.92168263838E+03  0.92292313361E+02 0.  0.
         13    1    3    3    0    0  0.22203906435E+01 -0.26939181570E+03 -0.64715285939E+03  0.70098766317E+03  0.00000000000E+00 0.  1.
        -13    1    3    3    0    0 -0.44229827020E+02 -0.59399770244E+02 -0.20789820051E+03  0.22069497520E+03  0.00000000000E+00 0. -1.
         22    1    1    2    0    0  0.42009436376E+02  0.32879158594E+03  0.35310035011E+03  0.48430213398E+03  0.00000000000E+00 0. -1.
<mgrwt>
<rscale>  0 0.13133311E+04</rscale>
<asrwt>0</asrwt>
<pdfrwt beam="1">  1        1 0.14676427E+00 0.13133311E+04</pdfrwt>
<pdfrwt beam="2">  1       -1 0.69541083E-01 0.13133311E+04</pdfrwt>
<totfact> 0.33782300E+01</totfact>
</mgrwt>
</event>
<event>
 6    1  0.1878398E-004  0.1679154E+04  0.7818608E-02  0.8773344E-01
         -2   -1    0    0    0  501 -0.00000000000E+00  0.00000000000E+00  0.28190465817E+03  0.28190465817E+03  0.00000000000E+00 0. -1.
          2   -1    0    0  501    0  0.00000000000E+00 -0.00000000000E+00 -0.25004539562E+04  0.25004539562E+04  0.00000000000E+00 0.  1.
         23    2    1    2    0    0 -0.25690081014E+03 -0.14159237198E+03 -0.24118098379E+04  0.24310808578E+04  0.85328873362E+02 0.  0.
         13    1    3    3    0    0 -0.15560177788E+01 -0.24497957926E+02 -0.18401976100E+03  0.18564978743E+03  0.00000000000E+00 0. -1.
        -13    1    3    3    0    0 -0.25534479236E+03 -0.11709441405E+03 -0.22277900769E+04  0.22454310703E+04  0.00000000000E+00 0.  1.
         22    1    1    2    0    0  0.25690081014E+03  0.14159237198E+03  0.19326053986E+03  0.35127775665E+03  0.00000000000E+00 0. -1.
<mgrwt>
<rscale>  0 0.16791541E+04</rscale>
<asrwt>0</asrwt>
<pdfrwt beam="1">  1        2 0.38468522E+00 0.16791541E+04</pdfrwt>
<pdfrwt beam="2">  1       -2 0.43369948E-01 0.16791541E+04</pdfrwt>
<totfact> 0.16744573E+01</totfact>
</mgrwt>
</event>
<event>
 6    1  0.1878398E-004  0.2386730E+04  0.7818608E-02  0.8444489E-01
          2   -1    0    0  501    0  0.00000000000E+00  0.00000000000E+00  0.23611989565E+04  0.23611989565E+04  0.00000000000E+00 0.  1.
         -2   -1    0    0    0  501 -0.00000000000E+00 -0.00000000000E+00 -0.60313402768E+03  0.60313402768E+03  0.00000000000E+00 0. -1.
         23    2    1    2    0    0 -0.76109914700E+02  0.11641102800E+04  0.11820888994E+04  0.16632973008E+04  0.90985062685E+02 0.  0.
         13    1    3    3    0    0 -0.55136659454E+01  0.48107452722E+03  0.53936792534E+03  0.72275919928E+03  0.00000000000E+00 0.  1.
        -13    1    3    3    0    0 -0.70596248755E+02  0.68303575275E+03  0.64272097403E+03  0.94053810148E+03  0.00000000000E+00 0. -1.
         22    1    1    2    0    0  0.76109914700E+02 -0.11641102800E+04  0.57597602944E+03  0.13010356834E+04  0.00000000000E+00 0. -1.
<mgrwt>
<rscale>  0 0.23867295E+04</rscale>
<asrwt>0</asrwt>
<pdfrwt beam="1">  1        2 0.36326137E+00 0.23867295E+04</pdfrwt>
<pdfrwt beam="2">  1       -2 0.92789852E-01 0.23867295E+04</pdfrwt>
<totfact> 0.37080455E+00</totfact>
</mgrwt>
</event>
<event>
 6    1  0.1878398E-004  0.5119358E+04  0.7818608E-02  0.7810354E-01
         -2   -1    0    0    0  501 -0.00000000000E+00  0.00000000000E+00  0.17893977313E+04  0.17893977313E+04  0.00000000000E+00 0. -1.
          2   -1    0    0  501    0  0.00000000000E+00 -0.00000000000E+00 -0.36615430344E+04  0.36615430344E+04  0.00000000000E+00 0.  1.
         23    2    1    2    0    0 -0.13502515719E+04 -0.92480820056E+03  0.11580902282E+04  0.20069929017E+04  0.91640687460E+02 0.  0.
         13    1    3    3    0    0 -0.54968664676E+03 -0.37534195784E+03  0.41622879167E+03  0.78503719781E+03  0.00000000000E+00 0. -1.
        -13    1    3    3    0    0 -0.80056492513E+03 -0.54946624271E+03  0.74186143651E+03  0.12219557039E+04  0.00000000000E+00 0.  1.
         22    1    1    2    0    0  0.13502515719E+04  0.92480820056E+03 -0.30302355313E+04  0.34439478640E+04  0.00000000000E+00 0.  1.
<mgrwt>
<rscale>  0 0.51193581E+04</rscale>
<asrwt>0</asrwt>
<pdfrwt beam="1">  1        2 0.56331430E+00 0.51193581E+04</pdfrwt>
<pdfrwt beam="2">  1       -2 0.27529196E+00 0.51193581E+04</pdfrwt>
<totfact> 0.20158190E-02</totfact>
</mgrwt>
</event>
<event>
 6    1  0.1878398E-004  0.3036271E+04  0.7818608E-02  0.8233449E-01
          2   -1    0    0  501    0  0.00000000000E+00  0.00000000000E+00  0.17564760873E+04  0.17564760873E+04  0.00000000000E+00 0.  1.
         -2   -1    0    0    0  501 -0.00000000000E+00 -0.00000000000E+00 -0.13121355464E+04  0.13121355464E+04  0.00000000000E+00 0. -1.
         23    2    1    2    0    0 -0.84287975377E+03 -0.49134237980E+03 -0.95125656044E+03  0.13658036931E+04  0.93097103624E+02 0.  0.
         11    1    3    3    0    0 -0.43513431339E+03 -0.29583353835E+03 -0.47140510390E+03  0.70645744747E+03  0.00000000000E+00 0. -1.
        -11    1    3    3    0    0 -0.40774544037E+03 -0.19550884145E+03 -0.47985145654E+03  0.65934624559E+03  0.00000000000E+00 0.  1.
         22    1    1    2    0    0  0.84287975377E+03  0.49134237980E+03  0.13955971014E+04  0.17028079407E+04  0.00000000000E+00 0.  1.
<mgrwt>
<rscale>  0 0.30362705E+04</rscale>
<asrwt>0</asrwt>
<pdfrwt beam="1">  1        2 0.27022709E+00 0.30362705E+04</pdfrwt>
<pdfrwt beam="2">  1       -2 0.20186701E+00 0.30362705E+04</pdfrwt>
<totfact> 0.10068576E+00</totfact>
</mgrwt>
</event>
<event>
 6    1  0.3084869E-004  0.3395879E+04  0.7818608E-02  0.8138918E-01
         -2   -1    0    0    0  501 -0.00000000000E+00  0.00000000000E+00  0.21189995275E+04  0.21189995275E+04  0.00000000000E+00 0. -1.
          2   -1    0    0  501    0  0.00000000000E+00 -0.00000000000E+00 -0.13605471604E+04  0.13605471604E+04  0.00000000000E+00 0.  1.
         23    2    1    2    0    0  0.95464017362E+03  0.60157379567E+03  0.16778168925E+04  0.20240536363E+04  0.92166726038E+02 0.  0.
         13    1    3    3    0    0  0.49819058464E+03  0.33668381435E+03  0.96792781273E+03  0.11394885257E+04  0.00000000000E+00 0.  1.
        -13    1    3    3    0    0  0.45644958898E+03  0.26488998133E+03  0.70988907975E+03  0.88456511068E+03  0.00000000000E+00 0. -1.
         22    1    1    2    0    0 -0.95464017362E+03 -0.60157379567E+03 -0.91936452530E+03  0.14554930515E+04  0.00000000000E+00 0.  1.
<mgrwt>
<rscale>  0 0.33958791E+04</rscale>
<asrwt>0</asrwt>
<pdfrwt beam="1">  1        2 0.20931495E+00 0.33958791E+04</pdfrwt>
<pdfrwt beam="2">  1       -2 0.32599993E+00 0.33958791E+04</pdfrwt>
<totfact> 0.27765777E-01</totfact>
</mgrwt>
</event>
<event>
 6    1  0.1878398E-004  0.3836075E+04  0.7818608E-02  0.8038457E-01
          1   -1    0    0  501    0  0.00000000000E+00  0.00000000000E+00  0.37685244651E+04  0.37685244651E+04  0.00000000000E+00 0. -1.
         -1   -1    0    0    0  501 -0.00000000000E+00 -0.00000000000E+00 -0.97620924136E+03  0.97620924136E+03  0.00000000000E+00 0.  1.
         23    2    1    2    0    0 -0.93315318888E+03  0.45987144694E+03 -0.59455797486E+03  0.12016888740E+04  0.91106216822E+02 0.  0.
         13    1    3    3    0    0 -0.35287787477E+03  0.13655277604E+03 -0.18354891844E+03  0.42054685899E+03  0.00000000000E+00 0.  1.
        -13    1    3    3    0    0 -0.58027531411E+03  0.32331867089E+03 -0.41100905642E+03  0.78114201498E+03  0.00000000000E+00 0. -1.
         22    1    1    2    0    0  0.93315318888E+03 -0.45987144694E+03  0.33868731986E+04  0.35430448325E+04  0.00000000000E+00 0. -1.
<mgrwt>
<rscale>  0 0.38360753E+04</rscale>
<asrwt>0</asrwt>
<pdfrwt beam="1">  1        1 0.57977299E+00 0.38360753E+04</pdfrwt>
<pdfrwt beam="2">  1       -1 0.15018604E+00 0.38360753E+04</pdfrwt>
<totfact> 0.41673774E-02</totfact>
</mgrwt>
</event>
<event>
 6    1  0.1878398E-004  0.1021812E+04  0.7818608E-02  0.9284940E-01
          2   -1    0    0  501    0  0.00000000000E+00  0.00000000000E+00  0.10641878548E+04  0.10641878548E+04  0.00000000000E+00 0.  1.
         -2   -1    0    0    0  501 -0.00000000000E+00 -0.00000000000E+00 -0.24528094828E+03  0.24528094828E+03  0.00000000000E+00 0. -1.
         23    2    1    2    0    0 -0.33266769611E+03 -0.33655658136E+03  0.18132587448E+03  0.51546143478E+03  0.94251204175E+02 0.  0.
         11    1    3    3    0    0 -0.92471993933E+02 -0.12810845743E+03  0.21261753706E+02  0.15942054039E+03  0.00000000000E+00 0. -1.
        -11    1    3    3    0    0 -0.24019570218E+03 -0.20844812394E+03  0.16006412077E+03  0.35604089439E+03  0.00000000000E+00 0.  1.
         22    1    1    2    0    0  0.33266769611E+03  0.33655658136E+03  0.63758103203E+03  0.79400736829E+03  0.00000000000E+00 0.  1.
<mgrwt>
<rscale>  0 0.10218121E+04</rscale>
<asrwt>0</asrwt>
<pdfrwt beam="1">  1        2 0.16372121E+00 0.10218121E+04</pdfrwt>
<pdfrwt beam="2">  1       -2 0.37735531E-01 0.10218121E+04</pdfrwt>
<totfact> 0.15138142E+02</totfact>
</mgrwt>
</event>
<event>
 6    1  0.1878398E-004  0.2452389E+04  0.7818608E-02  0.8420146E-01
          2   -1    0    0  501    0  0.00000000000E+00  0.00000000000E+00  0.13801652397E+04  0.13801652397E+04  0.00000000000E+00 0.  1.
         -2   -1    0    0    0  501 -0.00000000000E+00 -0.00000000000E+00 -0.10894002725E+04  0.10894002725E+04  0.00000000000E+00 0. -1.
         23    2    1    2    0    0  0.46862294366E+03  0.10968899253E+04  0.42400373420E+03  0.12693457237E+04  0.93190279432E+02 0.  0.
         11    1    3    3    0    0  0.41662855090E+03  0.91506274545E+03  0.38239879918E+03  0.10757081478E+04  0.00000000000E+00 0.  1.
        -11    1    3    3    0    0  0.51994392766E+02  0.18182717984E+03  0.41604935025E+02  0.19363757597E+03  0.00000000000E+00 0. -1.
         22    1    1    2    0    0 -0.46862294366E+03 -0.10968899253E+04 -0.13323876695E+03  0.12002197884E+04  0.00000000000E+00 0.  1.
<mgrwt>
<rscale>  0 0.24523885E+04</rscale>
<asrwt>0</asrwt>
<pdfrwt beam="1">  1        2 0.21233312E+00 0.24523885E+04</pdfrwt>
<pdfrwt beam="2">  1       -2 0.16760004E+00 0.24523885E+04</pdfrwt>
<totfact> 0.29494921E+00</totfact>
</mgrwt>
</event>
<event>
 6    1  0.1878398E-004  0.4837586E+04  0.7818608E-02  0.7854061E-01
         -1   -1    0    0    0  501 -0.00000000000E+00  0.00000000000E+00  0.19969175408E+04  0.19969175408E+04  0.00000000000E+00 0. -1.
          1   -1    0    0  501    0  0.00000000000E+00 -0.00000000000E+00 -0.29297946946E+04  0.29297946946E+04  0.00000000000E+00 0.  1.
         23    2    1    2    0    0 -0.77655536652E+03 -0.76183147825E+03  0.17326559965E+04  0.20477380408E+04  0.87800017064E+02 0.  0.
         13    1    3    3    0    0 -0.33571786820E+03 -0.30152082232E+03  0.64687967997E+03  0.78871706821E+03  0.00000000000E+00 0.  1.
        -13    1    3    3    0    0 -0.44083749832E+03 -0.46031065593E+03  0.10857763165E+04  0.12590209726E+04  0.00000000000E+00 0. -1.
         22    1    1    2    0    0  0.77655536652E+03  0.76183147825E+03 -0.26655331503E+04  0.28789741947E+04  0.00000000000E+00 0.  1.
<mgrwt>
<rscale>  0 0.48375855E+04</rscale>
<asrwt>0</asrwt>
<pdfrwt beam="1">  1        1 0.45073764E+00 0.48375855E+04</pdfrwt>
<pdfrwt beam="2">  1       -1 0.30721808E+00 0.48375855E+04</pdfrwt>
<totfact> 0.14574910E-02</totfact>
</mgrwt>
</event>
<event>
 6    1  0.1878398E-004  0.2056136E+04  0.7818608E-02  0.8580816E-01
         -2   -1    0    0    0  501 -0.00000000000E+00  0.00000000000E+00  0.41019316969E+03  0.41019316969E+03  0.00000000000E+00 0. -1.
          2   -1    0    0  501    0  0.00000000000E+00 -0.00000000000E+00 -0.25766478593E+04  0.25766478593E+04  0.00000000000E+00 0.  1.
         23    2    1    2    0    0 -0.94774457830E+03 -0.37862599581E+03 -0.12373335942E+04  0.16066803715E+04  0.94074239758E+02 0.  0.
         13    1    3    3    0    0 -0.12588672099E+03 -0.66685190267E+02 -0.22081114928E+03  0.26277736731E+03  0.00000000000E+00 0. -1.
        -13    1    3    3    0    0 -0.82185785730E+03 -0.31194080554E+03 -0.10165224449E+04  0.13439030042E+04  0.00000000000E+00 0.  1.
         22    1    1    2    0    0  0.94774457830E+03  0.37862599581E+03 -0.92912109542E+03  0.13801606574E+04  0.00000000000E+00 0. -1.
<mgrwt>
<rscale>  0 0.20561356E+04</rscale>
<asrwt>0</asrwt>
<pdfrwt beam="1">  1        2 0.39640736E+00 0.20561356E+04</pdfrwt>
<pdfrwt beam="2">  1       -2 0.63106641E-01 0.20561356E+04</pdfrwt>
<totfact> 0.67607045E+00</totfact>
</mgrwt>
</event>
<event>
 6    1  0.1878398E-004  0.1445036E+04  0.7818608E-02  0.8921849E-01
          2   -1    0    0  501    0  0.00000000000E+00  0.00000000000E+00  0.36024034293E+03  0.36024034293E+03  0.00000000000E+00 0.  1.
         -2   -1    0    0    0  501 -0.00000000000E+00 -0.00000000000E+00 -0.14491228874E+04  0.14491228874E+04  0.00000000000E+00 0. -1.
         23    2    1    2    0    0  0.46407365274E+02 -0.30605165336E+03  0.26634010571E+03  0.41923744837E+03  0.94877437414E+02 0.  0.
         13    1    3    3    0    0  0.19916037475E+02 -0.85903517557E+02  0.13583029561E+03  0.16194422522E+03  0.00000000000E+00 0.  1.
        -13    1    3    3    0    0  0.26491327799E+02 -0.22014813580E+03  0.13050981011E+03  0.25729322315E+03  0.00000000000E+00 0. -1.
         22    1    1    2    0    0 -0.46407365274E+02  0.30605165336E+03 -0.13552226501E+04  0.13901257819E+04  0.00000000000E+00 0. -1.
<mgrwt>
<rscale>  0 0.14450364E+04</rscale>
<asrwt>0</asrwt>
<pdfrwt beam="1">  1        2 0.55421592E-01 0.14450364E+04</pdfrwt>
<pdfrwt beam="2">  1       -2 0.22294198E+00 0.14450364E+04</pdfrwt>
<totfact> 0.82154124E+00</totfact>
</mgrwt>
</event>
<event>
 6    1  0.1878398E-004  0.3370896E+04  0.7818608E-02  0.8145086E-01
         -2   -1    0    0    0  501 -0.00000000000E+00  0.00000000000E+00  0.10537495526E+04  0.10537495526E+04  0.00000000000E+00 0. -1.
          2   -1    0    0  501    0  0.00000000000E+00 -0.00000000000E+00 -0.26958358215E+04  0.26958358215E+04  0.00000000000E+00 0.  1.
         23    2    1    2    0    0 -0.12755435985E+04 -0.10947694375E+04 -0.93885715599E+03  0.19274814314E+04  0.90555596312E+02 0.  0.
         11    1    3    3    0    0 -0.70097345648E+03 -0.58481708283E+03 -0.55925848236E+03  0.10705815509E+04  0.00000000000E+00 0. -1.
        -11    1    3    3    0    0 -0.57457014198E+03 -0.50995235471E+03 -0.37959867363E+03  0.85689988047E+03  0.00000000000E+00 0.  1.
         22    1    1    2    0    0  0.12755435985E+04  0.10947694375E+04 -0.70322911288E+03  0.18221039427E+04  0.00000000000E+00 0. -1.
<mgrwt>
<rscale>  0 0.33708965E+04</rscale>
<asrwt>0</asrwt>
<pdfrwt beam="1">  1        2 0.41474397E+00 0.33708965E+04</pdfrwt>
<pdfrwt beam="2">  1       -2 0.16211532E+00 0.33708965E+04</pdfrwt>
<totfact> 0.53876691E-01</totfact>
</mgrwt>
</event>
<event>
 6    1  0.1878398E-004  0.2420862E+04  0.7818608E-02  0.8431734E-01
          2   -1    0    0  501    0  0.00000000000E+00  0.00000000000E+00  0.18154418163E+04  0.18154418163E+04  0.00000000000E+00 0.  1.
         -2   -1    0    0    0  501 -0.00000000000E+00 -0.00000000000E+00 -0.80704488747E+03  0.80704488747E+03  0.00000000000E+00 0. -1.
         23    2    1    2    0    0  0.19274582515E+03 -0.87272795021E+01  0.17978813948E+04  0.18097672929E+04  0.75186608551E+02 0.  0.
         11    1    3    3    0    0  0.10364351321E+03  0.23085718351E+02  0.72683104935E+03  0.73454632428E+03  0.00000000000E+00 0. -1.
        -11    1    3    3    0    0  0.89102311940E+02 -0.31812997853E+02  0.10710503455E+04  0.10752209686E+04  0.00000000000E+00 0.  1.
         22    1    1    2    0    0 -0.19274582515E+03  0.87272795021E+01 -0.78948446606E+03  0.81271941079E+03  0.00000000000E+00 0. -1.
<mgrwt>
<rscale>  0 0.24208619E+04</rscale>
<asrwt>0</asrwt>
<pdfrwt beam="1">  1        2 0.27929874E+00 0.24208619E+04</pdfrwt>
<pdfrwt beam="2">  1       -2 0.12416075E+00 0.24208619E+04</pdfrwt>
<totfact> 0.37038968E+00</totfact>
</mgrwt>
</event>
<event>
 6    1  0.1878398E-004  0.3225162E+04  0.7818608E-02  0.8182203E-01
          2   -1    0    0  501    0  0.00000000000E+00  0.00000000000E+00  0.20151253283E+04  0.20151253283E+04  0.00000000000E+00 0.  1.
         -2   -1    0    0    0  501 -0.00000000000E+00 -0.00000000000E+00 -0.12904495248E+04  0.12904495248E+04  0.00000000000E+00 0. -1.
         23    2    1    2    0    0  0.13713291714E+04 -0.33649915540E+02  0.12291879137E+04  0.18439974578E+04  0.88020929177E+02 0.  0.
         11    1    3    3    0    0  0.10851993780E+04 -0.55740047278E+02  0.99978926216E+03  0.14765985275E+04  0.00000000000E+00 0. -1.
        -11    1    3    3    0    0  0.28612979348E+03  0.22090131738E+02  0.22939865149E+03  0.36739893024E+03  0.00000000000E+00 0.  1.
         22    1    1    2    0    0 -0.13713291714E+04  0.33649915540E+02 -0.50451211014E+03  0.14615773953E+04  0.00000000000E+00 0. -1.
<mgrwt>
<rscale>  0 0.32251620E+04</rscale>
<asrwt>0</asrwt>
<pdfrwt beam="1">  1        2 0.31001928E+00 0.32251620E+04</pdfrwt>
<pdfrwt beam="2">  1       -2 0.19853070E+00 0.32251620E+04</pdfrwt>
<totfact> 0.74891737E-01</totfact>
</mgrwt>
</event>
<event>
 6    1  0.1878398E-004  0.3618138E+04  0.7818608E-02  0.8086350E-01
          1   -1    0    0  501    0  0.00000000000E+00  0.00000000000E+00  0.24137945269E+04  0.24137945269E+04  0.00000000000E+00 0.  1.
         -1   -1    0    0    0  501 -0.00000000000E+00 -0.00000000000E+00 -0.13558447416E+04  0.13558447416E+04  0.00000000000E+00 0. -1.
         23    2    1    2    0    0 -0.10201664213E+04  0.46314284671E+03 -0.94906110751E+03  0.14710889541E+04  0.90249107703E+02 0.  0.
         13    1    3    3    0    0 -0.88284470990E+03  0.42027159286E+03 -0.85786940556E+03  0.13007624343E+04  0.00000000000E+00 0. -1.
        -13    1    3    3    0    0 -0.13732171141E+03  0.42871253852E+02 -0.91191701958E+02  0.17032651977E+03  0.00000000000E+00 0.  1.
         22    1    1    2    0    0  0.10201664213E+04 -0.46314284671E+03  0.20070108929E+04  0.22985503144E+04  0.00000000000E+00 0.  1.
<mgrwt>
<rscale>  0 0.36181380E+04</rscale>
<asrwt>0</asrwt>
<pdfrwt beam="1">  1        1 0.37135300E+00 0.36181380E+04</pdfrwt>
<pdfrwt beam="2">  1       -1 0.20859150E+00 0.36181380E+04</pdfrwt>
<totfact> 0.16500748E-01</totfact>
</mgrwt>
</event>
<event>
 6    1  0.1878398E-004  0.2345048E+04  0.7818608E-02  0.8460368E-01
          2   -1    0    0  501    0  0.00000000000E+00  0.00000000000E+00  0.23290697796E+04  0.23290697796E+04  0.00000000000E+00 0.  1.
         -2   -1    0    0    0  501 -0.00000000000E+00 -0.00000000000E+00 -0.59028419799E+03  0.59028419799E+03  0.00000000000E+00 0. -1.
         23    2    1    2    0    0 -0.11202847978E+04 -0.33497995992E+03  0.80715602691E+03  0.14243010592E+04  0.99413549081E+02 0.  0.
         13    1    3    3    0    0 -0.28165179441E+03 -0.44239346452E+02  0.21917931077E+03  0.35961705095E+03  0.00000000000E+00 0. -1.
        -13    1    3    3    0    0 -0.83863300336E+03 -0.29074061347E+03  0.58797671614E+03  0.10646840082E+04  0.00000000000E+00 0.  1.
         22    1    1    2    0    0  0.11202847978E+04  0.33497995992E+03  0.93162955470E+03  0.14950529184E+04  0.00000000000E+00 0.  1.
<mgrwt>
<rscale>  0 0.23450485E+04</rscale>
<asrwt>0</asrwt>
<pdfrwt beam="1">  1        2 0.35831842E+00 0.23450485E+04</pdfrwt>
<pdfrwt beam="2">  1       -2 0.90812955E-01 0.23450485E+04</pdfrwt>
<totfact> 0.40799100E+00</totfact>
</mgrwt>
</event>
<event>
 6    1  0.1878398E-004  0.1200459E+04  0.7818608E-02  0.9112455E-01
          1   -1    0    0  501    0  0.00000000000E+00  0.00000000000E+00  0.95321643930E+03  0.95321643930E+03  0.00000000000E+00 0.  1.
         -1   -1    0    0    0  501 -0.00000000000E+00 -0.00000000000E+00 -0.37795737741E+03  0.37795737741E+03  0.00000000000E+00 0. -1.
         23    2    1    2    0    0  0.28617657716E+03  0.77442970604E+02  0.86399065045E+03  0.91733764472E+03  0.84463384687E+02 0.  0.
         13    1    3    3    0    0  0.23773226351E+03  0.36745280740E+02  0.61339329231E+03  0.65887644958E+03  0.00000000000E+00 0. -1.
        -13    1    3    3    0    0  0.48444313655E+02  0.40697689864E+02  0.25059735814E+03  0.25846119514E+03  0.00000000000E+00 0.  1.
         22    1    1    2    0    0 -0.28617657716E+03 -0.77442970604E+02 -0.28873158856E+03  0.41383617198E+03  0.00000000000E+00 0. -1.
<mgrwt>
<rscale>  0 0.12004586E+04</rscale>
<asrwt>0</asrwt>
<pdfrwt beam="1">  1        1 0.14664868E+00 0.12004586E+04</pdfrwt>
<pdfrwt beam="2">  1       -1 0.58147289E-01 0.12004586E+04</pdfrwt>
<totfact> 0.48863539E+01</totfact>
</mgrwt>
</event>
<event>
 6    1  0.1878398E-004  0.1724514E+04  0.7818608E-02  0.8747505E-01
         -2   -1    0    0    0  501 -0.00000000000E+00  0.00000000000E+00  0.87282164160E+03  0.87282164160E+03  0.00000000000E+00 0. -1.
          2   -1    0    0  501    0  0.00000000000E+00 -0.00000000000E+00 -0.85182060920E+03  0.85182060920E+03  0.00000000000E+00 0.  1.
         23    2    1    2    0    0  0.59279769361E+03  0.15730458309E+03  0.61322850624E+03  0.87206544008E+03  0.91077404011E+02 0.  0.
         13    1    3    3    0    0  0.19859558479E+03  0.79643799918E+02  0.26318142681E+03  0.33918697584E+03  0.00000000000E+00 0.  1.
        -13    1    3    3    0    0  0.39420210881E+03  0.77660783176E+02  0.35004707943E+03  0.53287846424E+03  0.00000000000E+00 0. -1.
         22    1    1    2    0    0 -0.59279769361E+03 -0.15730458309E+03 -0.59222747384E+03  0.85257681072E+03  0.00000000000E+00 0.  1.
<mgrwt>
<rscale>  0 0.17245144E+04</rscale>
<asrwt>0</asrwt>
<pdfrwt beam="1">  1        2 0.13104932E+00 0.17245144E+04</pdfrwt>
<pdfrwt beam="2">  1       -2 0.13428025E+00 0.17245144E+04</pdfrwt>
<totfact> 0.12018044E+01</totfact>
</mgrwt>
</event>
<event>
 6    1  0.1878398E-004  0.1962456E+04  0.7818608E-02  0.8624378E-01
          2   -1    0    0  501    0  0.00000000000E+00  0.00000000000E+00  0.31978301283E+04  0.31978301283E+04  0.00000000000E+00 0.  1.
         -2   -1    0    0    0  501 -0.00000000000E+00 -0.00000000000E+00 -0.30108173251E+03  0.30108173251E+03  0.00000000000E+00 0. -1.
         23    2    1    2    0    0 -0.11911300127E+03  0.58942423185E+03  0.73659033643E+02  0.61248805637E+03  0.90039623454E+02 0.  0.
         13    1    3    3    0    0 -0.98661280005E+01  0.27038237066E+03  0.41566807846E+02  0.27373667339E+03  0.00000000000E+00 0.  1.
        -13    1    3    3    0    0 -0.10924687327E+03  0.31904186119E+03  0.32092225796E+02  0.33875138298E+03  0.00000000000E+00 0. -1.
         22    1    1    2    0    0  0.11911300127E+03 -0.58942423185E+03  0.28230893621E+04  0.28864238044E+04  0.00000000000E+00 0.  1.
<mgrwt>
<rscale>  0 0.19624558E+04</rscale>
<asrwt>0</asrwt>
<pdfrwt beam="1">  1        2 0.49197384E+00 0.19624558E+04</pdfrwt>
<pdfrwt beam="2">  1       -2 0.46320269E-01 0.19624558E+04</pdfrwt>
<totfact> 0.53779180E+00</totfact>
</mgrwt>
</event>
<event>
 6    1  0.1878398E-004  0.2189988E+04  0.7818608E-02  0.8522607E-01
          2   -1    0    0  501    0  0.00000000000E+00  0.00000000000E+00  0.72154400832E+03  0.72154400832E+03  0.00000000000E+00 0.  1.
         -2   -1    0    0    0  501 -0.00000000000E+00 -0.00000000000E+00 -0.16617310593E+04  0.16617310593E+04  0.00000000000E+00 0. -1.
         23    2    1    2    0    0  0.30785034512E+03  0.10289332404E+04 -0.25008494479E+03  0.11066716189E+04  0.93296003659E+02 0.  0.
         11    1    3    3    0    0  0.18281741321E+03  0.47017601239E+03 -0.14094160327E+03  0.52378643046E+03  0.00000000000E+00 0. -1.
        -11    1    3    3    0    0  0.12503293190E+03  0.55875722805E+03 -0.10914334152E+03  0.58288518849E+03  0.00000000000E+00 0.  1.
         22    1    1    2    0    0 -0.30785034512E+03 -0.10289332404E+04 -0.69010210622E+03  0.12766034487E+04  0.00000000000E+00 0. -1.
<mgrwt>
<rscale>  0 0.21899882E+04</rscale>
<asrwt>0</asrwt>
<pdfrwt beam="1">  1        2 0.11100677E+00 0.21899882E+04</pdfrwt>
<pdfrwt beam="2">  1       -2 0.25565093E+00 0.21899882E+04</pdfrwt>
<totfact> 0.21389497E+00</totfact>
</mgrwt>
</event>
<event>
 6    1  0.1878398E-004  0.9059966E+03  0.7818608E-02  0.9418116E-01
          2   -1    0    0  501    0  0.00000000000E+00  0.00000000000E+00  0.23966471099E+04  0.23966471099E+04  0.00000000000E+00 0.  1.
         -2   -1    0    0    0  501 -0.00000000000E+00 -0.00000000000E+00 -0.85622720573E+02  0.85622720573E+02  0.00000000000E+00 0. -1.
         23    2    1    2    0    0 -0.19824775197E+03  0.21738741418E+03  0.20942909755E+04  0.21168483866E+04  0.91831053988E+02 0.  0.
         13    1    3    3    0    0 -0.17990534013E+02  0.63156675033E+02  0.63673348512E+03  0.64011089351E+03  0.00000000000E+00 0. -1.
        -13    1    3    3    0    0 -0.18025721796E+03  0.15423073915E+03  0.14575574904E+04  0.14767374930E+04  0.00000000000E+00 0.  1.
         22    1    1    2    0    0  0.19824775197E+03 -0.21738741418E+03  0.21673341376E+03  0.36542144388E+03  0.00000000000E+00 0. -1.
<mgrwt>
<rscale>  0 0.90599657E+03</rscale>
<asrwt>0</asrwt>
<pdfrwt beam="1">  1        2 0.36871489E+00 0.90599657E+03</pdfrwt>
<pdfrwt beam="2">  1       -2 0.13172728E-01 0.90599657E+03</pdfrwt>
<totfact> 0.17751208E+02</totfact>
</mgrwt>
</event>
<event>
 6    1  0.1878398E-004  0.5145987E+03  0.7818608E-02  0.1010037E+00
          2   -1    0    0  501    0  0.00000000000E+00  0.00000000000E+00  0.10606570286E+03  0.10606570286E+03  0.00000000000E+00 0.  1.
         -2   -1    0    0    0  501 -0.00000000000E+00 -0.00000000000E+00 -0.62416927902E+03  0.62416927902E+03  0.00000000000E+00 0. -1.
         23    2    1    2    0    0  0.71363899133E+02 -0.23728292508E+03 -0.30366401374E+03  0.40254561896E+03  0.91843069796E+02 0.  0.
         11    1    3    3    0    0  0.75940738160E+02 -0.15987369258E+03 -0.25697625400E+03  0.31203106963E+03  0.00000000000E+00 0.  1.
        -11    1    3    3    0    0 -0.45768390275E+01 -0.77409232500E+02 -0.46687759737E+02  0.90514549333E+02  0.00000000000E+00 0. -1.
         22    1    1    2    0    0 -0.71363899133E+02  0.23728292508E+03 -0.21443956242E+03  0.32768936291E+03  0.00000000000E+00 0. -1.
<mgrwt>
<rscale>  0 0.51459869E+03</rscale>
<asrwt>0</asrwt>
<pdfrwt beam="1">  1        2 0.16317801E-01 0.51459869E+03</pdfrwt>
<pdfrwt beam="2">  1       -2 0.96026042E-01 0.51459869E+03</pdfrwt>
<totfact> 0.33288211E+02</totfact>
</mgrwt>
</event>
<event>
 6    1  0.1878398E-004  0.1433416E+04  0.7818608E-02  0.8929979E-01
         -1   -1    0    0    0  501 -0.00000000000E+00  0.00000000000E+00  0.35874596471E+03  0.35874596471E+03  0.00000000000E+00 0.  1.
          1   -1    0    0  501    0  0.00000000000E+00 -0.00000000000E+00 -0.14318503526E+04  0.14318503526E+04  0.00000000000E+00 0. -1.
         23    2    1    2    0    0  0.50192976642E+03  0.39655080263E+03 -0.93351997476E+03  0.11358674896E+04  0.97720934680E+02 0.  0.
         13    1    3    3    0    0  0.25484323808E+03  0.16562471928E+03 -0.37212576980E+03  0.48047290473E+03  0.00000000000E+00 0.  1.
        -13    1    3    3    0    0  0.24708652834E+03  0.23092608336E+03 -0.56139420496E+03  0.65539458484E+03  0.00000000000E+00 0. -1.
         22    1    1    2    0    0 -0.50192976642E+03 -0.39655080263E+03 -0.13958441313E+03  0.65472882774E+03  0.00000000000E+00 0. -1.
<mgrwt>
<rscale>  0 0.14334162E+04</rscale>
<asrwt>0</asrwt>
<pdfrwt beam="1">  1        1 0.22028467E+00 0.14334162E+04</pdfrwt>
<pdfrwt beam="2">  1       -1 0.55191686E-01 0.14334162E+04</pdfrwt>
<totfact> 0.23549666E+01</totfact>
</mgrwt>
</event>
<event>
 6    1  0.1878398E-004  0.9540065E+03  0.7818608E-02  0.9360480E-01
         -2   -1    0    0    0  501 -0.00000000000E+00  0.00000000000E+00  0.12361403131E+03  0.12361403131E+03  0.00000000000E+00 0. -1.
          2   -1    0    0  501    0  0.00000000000E+00 -0.00000000000E+00 -0.18406658012E+04  0.18406658012E+04  0.00000000000E+00 0.  1.
         23    2    1    2    0    0  0.22123325183E+03  0.40570629862E+03 -0.10683868315E+04  0.11678453062E+04  0.94183252074E+02 0.  0.
         13    1    3    3    0    0  0.13762525061E+03  0.17299718606E+03 -0.43616816501E+03  0.48899018820E+03  0.00000000000E+00 0.  1.
        -13    1    3    3    0    0  0.83608001225E+02  0.23270911256E+03 -0.63221866648E+03  0.67885511796E+03  0.00000000000E+00 0. -1.
         22    1    1    2    0    0 -0.22123325183E+03 -0.40570629862E+03 -0.64866493844E+03  0.79643452638E+03  0.00000000000E+00 0. -1.
<mgrwt>
<rscale>  0 0.95400654E+03</rscale>
<asrwt>0</asrwt>
<pdfrwt beam="1">  1        2 0.28317934E+00 0.95400654E+03</pdfrwt>
<pdfrwt beam="2">  1       -2 0.19017544E-01 0.95400654E+03</pdfrwt>
<totfact> 0.19187013E+02</totfact>
</mgrwt>
</event>
<event>
 6    1  0.1878398E-004  0.2067939E+04  0.7818608E-02  0.8575499E-01
          1   -1    0    0  501    0  0.00000000000E+00  0.00000000000E+00  0.26259670643E+04  0.26259670643E+04  0.00000000000E+00 0.  1.
         -1   -1    0    0    0  501 -0.00000000000E+00 -0.00000000000E+00 -0.40712364218E+03  0.40712364218E+03  0.00000000000E+00 0. -1.
         23    2    1    2    0    0 -0.69570451657E+03  0.42661461815E+03  0.20379037975E+04  0.21971816477E+04  0.92468903228E+02 0.  0.
         11    1    3    3    0    0 -0.36390863202E+03  0.25799733162E+03  0.10161739976E+04  0.11097755219E+04  0.00000000000E+00 0.  1.
        -11    1    3    3    0    0 -0.33179588455E+03  0.16861728653E+03  0.10217297999E+04  0.10874061258E+04  0.00000000000E+00 0. -1.
         22    1    1    2    0    0  0.69570451657E+03 -0.42661461815E+03  0.18093962455E+03  0.83590905876E+03  0.00000000000E+00 0. -1.
<mgrwt>
<rscale>  0 0.20679393E+04</rscale>
<asrwt>0</asrwt>
<pdfrwt beam="1">  1        1 0.40399492E+00 0.20679393E+04</pdfrwt>
<pdfrwt beam="2">  1       -1 0.62634408E-01 0.20679393E+04</pdfrwt>
<totfact> 0.26397343E+00</totfact>
</mgrwt>
</event>
<event>
 6    1  0.1878398E-004  0.2202637E+04  0.7818608E-02  0.8517331E-01
          3   -1    0    0  501    0  0.00000000000E+00  0.00000000000E+00  0.23806027229E+04  0.23806027229E+04  0.00000000000E+00 0.  1.
         -3   -1    0    0    0  501 -0.00000000000E+00 -0.00000000000E+00 -0.50949379401E+03  0.50949379401E+03  0.00000000000E+00 0. -1.
         23    2    1    2    0    0  0.28335341457E+03  0.34171163513E+03 -0.38255994916E+03  0.59312472539E+03  0.91590534662E+02 0.  0.
         11    1    3    3    0    0  0.12238445666E+03  0.15638398714E+03 -0.11274185435E+03  0.22835199230E+03  0.00000000000E+00 0. -1.
        -11    1    3    3    0    0  0.16096895791E+03  0.18532764799E+03 -0.26981809481E+03  0.36477273309E+03  0.00000000000E+00 0.  1.
         22    1    1    2    0    0 -0.28335341457E+03 -0.34171163513E+03  0.22536688781E+04  0.22969717915E+04  0.00000000000E+00 0.  1.
<mgrwt>
<rscale>  0 0.22026369E+04</rscale>
<asrwt>0</asrwt>
<pdfrwt beam="1">  1        3 0.36624657E+00 0.22026369E+04</pdfrwt>
<pdfrwt beam="2">  1       -3 0.78383662E-01 0.22026369E+04</pdfrwt>
<totfact> 0.61272601E-02</totfact>
</mgrwt>
</event>
<event>
 6    1  0.3044130E-004  0.2271111E+04  0.7818608E-02  0.8489399E-01
          1   -1    0    0  501    0  0.00000000000E+00  0.00000000000E+00  0.12133929505E+04  0.12133929505E+04  0.00000000000E+00 0. -1.
         -1   -1    0    0    0  501 -0.00000000000E+00 -0.00000000000E+00 -0.10627113867E+04  0.10627113867E+04  0.00000000000E+00 0.  1.
         23    2    1    2    0    0 -0.46222423523E+03 -0.30135954094E+03 -0.91781403459E+03  0.10735438770E+04  0.75133462865E+02 0.  0.
         11    1    3    3    0    0 -0.22833370569E+03 -0.11016331909E+03 -0.45499088125E+03  0.52085404870E+03  0.00000000000E+00 0. -1.
        -11    1    3    3    0    0 -0.23389052953E+03 -0.19119622184E+03 -0.46282315334E+03  0.55268982831E+03  0.00000000000E+00 0.  1.
         22    1    1    2    0    0  0.46222423523E+03  0.30135954094E+03  0.10684955984E+04  0.12025604601E+04  0.00000000000E+00 0. -1.
<mgrwt>
<rscale>  0 0.22711112E+04</rscale>
<asrwt>0</asrwt>
<pdfrwt beam="1">  1        1 0.18667584E+00 0.22711112E+04</pdfrwt>
<pdfrwt beam="2">  1       -1 0.16349406E+00 0.22711112E+04</pdfrwt>
<totfact> 0.26038775E+00</totfact>
</mgrwt>
</event>
<event>
 6    1  0.1878398E-004  0.3632677E+04  0.7818608E-02  0.8083047E-01
          1   -1    0    0  501    0  0.00000000000E+00  0.00000000000E+00  0.23196150457E+04  0.23196150457E+04  0.00000000000E+00 0.  1.
         -1   -1    0    0    0  501 -0.00000000000E+00 -0.00000000000E+00 -0.14222557912E+04  0.14222557912E+04  0.00000000000E+00 0. -1.
         23    2    1    2    0    0 -0.16486337772E+04  0.15116394747E+03 -0.31784175863E+03  0.16882015908E+04  0.90318088307E+02 0.  0.
         11    1    3    3    0    0 -0.11080464532E+04  0.79806126677E+02 -0.17593232868E+03  0.11247613722E+04  0.00000000000E+00 0. -1.
        -11    1    3    3    0    0 -0.54058732408E+03  0.71357820795E+02 -0.14190942995E+03  0.56344021853E+03  0.00000000000E+00 0.  1.
         22    1    1    2    0    0  0.16486337772E+04 -0.15116394747E+03  0.12152010130E+04  0.20536692461E+04  0.00000000000E+00 0.  1.
<mgrwt>
<rscale>  0 0.36326772E+04</rscale>
<asrwt>0</asrwt>
<pdfrwt beam="1">  1        1 0.35686385E+00 0.36326772E+04</pdfrwt>
<pdfrwt beam="2">  1       -1 0.21880858E+00 0.36326772E+04</pdfrwt>
<totfact> 0.16319899E-01</totfact>
</mgrwt>
</event>
<event>
 6    1  0.1878398E-004  0.1836759E+04  0.7818608E-02  0.8686992E-01
         -2   -1    0    0    0  501 -0.00000000000E+00  0.00000000000E+00  0.45658297003E+03  0.45658297003E+03  0.00000000000E+00 0. -1.
          2   -1    0    0  501    0  0.00000000000E+00 -0.00000000000E+00 -0.18472461498E+04  0.18472461498E+04  0.00000000000E+00 0.  1.
         23    2    1    2    0    0 -0.89798281251E+03  0.10520340979E+03 -0.88221527529E+03  0.12665441250E+04  0.91593337925E+02 0.  0.
         11    1    3    3    0    0 -0.28299761569E+03  0.62083046203E+02 -0.32699579895E+03  0.43688466172E+03  0.00000000000E+00 0. -1.
        -11    1    3    3    0    0 -0.61498519681E+03  0.43120363584E+02 -0.55521947634E+03  0.82965946325E+03  0.00000000000E+00 0.  1.
         22    1    1    2    0    0  0.89798281251E+03 -0.10520340979E+03 -0.50844790448E+03  0.10372849949E+04  0.00000000000E+00 0. -1.
<mgrwt>
<rscale>  0 0.18367592E+04</rscale>
<asrwt>0</asrwt>
<pdfrwt beam="1">  1        2 0.28419171E+00 0.18367592E+04</pdfrwt>
<pdfrwt beam="2">  1       -2 0.70243535E-01 0.18367592E+04</pdfrwt>
<totfact> 0.14104780E+01</totfact>
</mgrwt>
</event>
<event>
 6    1  0.1878398E-004  0.1405359E+04  0.7818608E-02  0.8949948E-01
          2   -1    0    0  501    0  0.00000000000E+00  0.00000000000E+00  0.27953922077E+03  0.27953922077E+03  0.00000000000E+00 0.  1.
         -2   -1    0    0    0  501 -0.00000000000E+00 -0.00000000000E+00 -0.17663307273E+04  0.17663307273E+04  0.00000000000E+00 0. -1.
         23    2    1    2    0    0  0.34246170172E+03  0.33844840359E+03 -0.69575940087E+01  0.48967723903E+03  0.88927224571E+02 0.  0.
         13    1    3    3    0    0  0.11780675371E+03  0.11026049053E+03 -0.44200880594E+02  0.16730070184E+03  0.00000000000E+00 0.  1.
        -13    1    3    3    0    0  0.22465494802E+03  0.22818791306E+03  0.37243286586E+02  0.32237653719E+03  0.00000000000E+00 0. -1.
         22    1    1    2    0    0 -0.34246170172E+03 -0.33844840359E+03 -0.14798339125E+04  0.15561927090E+04  0.00000000000E+00 0. -1.
<mgrwt>
<rscale>  0 0.14053593E+04</rscale>
<asrwt>0</asrwt>
<pdfrwt beam="1">  1        2 0.43006035E-01 0.14053593E+04</pdfrwt>
<pdfrwt beam="2">  1       -2 0.27174318E+00 0.14053593E+04</pdfrwt>
<totfact> 0.54802353E+00</totfact>
</mgrwt>
</event>
<event>
 6    1  0.1878398E-004  0.2810515E+04  0.7818608E-02  0.8300011E-01
         -2   -1    0    0    0  501 -0.00000000000E+00  0.00000000000E+00  0.16603665141E+04  0.16603665141E+04  0.00000000000E+00 0. -1.
          2   -1    0    0  501    0  0.00000000000E+00 -0.00000000000E+00 -0.11893446511E+04  0.11893446511E+04  0.00000000000E+00 0.  1.
         23    2    1    2    0    0  0.81063534505E+03  0.66666521657E+03  0.11809768185E+04  0.15825851997E+04  0.91090587118E+02 0.  0.
         11    1    3    3    0    0  0.69586851088E+02  0.75869887724E+02  0.15285439177E+03  0.18429062589E+03  0.00000000000E+00 0.  1.
        -11    1    3    3    0    0  0.74104849396E+03  0.59079532884E+03  0.10281224267E+04  0.13982945738E+04  0.00000000000E+00 0. -1.
         22    1    1    2    0    0 -0.81063534505E+03 -0.66666521657E+03 -0.70995495544E+03  0.12671259655E+04  0.00000000000E+00 0.  1.
<mgrwt>
<rscale>  0 0.28105146E+04</rscale>
<asrwt>0</asrwt>
<pdfrwt beam="1">  1        2 0.18297610E+00 0.28105146E+04</pdfrwt>
<pdfrwt beam="2">  1       -2 0.25544100E+00 0.28105146E+04</pdfrwt>
<totfact> 0.99429871E-01</totfact>
</mgrwt>
</event>
<event>
 6    1  0.1878398E-004  0.2375317E+04  0.7818608E-02  0.8448803E-01
          2   -1    0    0  501    0  0.00000000000E+00  0.00000000000E+00  0.25695413494E+04  0.25695413494E+04  0.00000000000E+00 0.  1.
         -2   -1    0    0    0  501 -0.00000000000E+00 -0.00000000000E+00 -0.54894350613E+03  0.54894350613E+03  0.00000000000E+00 0. -1.
         23    2    1    2    0    0 -0.11286536830E+04  0.32116292074E+03  0.12375150572E+04  0.17077320751E+04  0.88885125594E+02 0.  0.
         13    1    3    3    0    0 -0.10401424420E+04  0.32016780813E+03  0.11445340781E+04  0.15793549255E+04  0.00000000000E+00 0. -1.
        -13    1    3    3    0    0 -0.88511241001E+02  0.99511260879E+00  0.92980979164E+02  0.12837714952E+03  0.00000000000E+00 0.  1.
         22    1    1    2    0    0  0.11286536830E+04 -0.32116292074E+03  0.78308278603E+03  0.14107527805E+04  0.00000000000E+00 0. -1.
<mgrwt>
<rscale>  0 0.23753173E+04</rscale>
<asrwt>0</asrwt>
<pdfrwt beam="1">  1        2 0.39531405E+00 0.23753173E+04</pdfrwt>
<pdfrwt beam="2">  1       -2 0.84452848E-01 0.23753173E+04</pdfrwt>
<totfact> 0.34935644E+00</totfact>
</mgrwt>
</event>
<event>
 6    1  0.1878398E-004  0.1146932E+04  0.7818608E-02  0.9160618E-01
          1   -1    0    0  501    0  0.00000000000E+00  0.00000000000E+00  0.23657287339E+04  0.23657287339E+04  0.00000000000E+00 0. -1.
         -1   -1    0    0    0  501 -0.00000000000E+00 -0.00000000000E+00 -0.13901149103E+03  0.13901149103E+03  0.00000000000E+00 0.  1.
         23    2    1    2    0    0  0.94501590025E+02 -0.53340268637E+03  0.73591863273E+03  0.91857205214E+03  0.93538252221E+02 0.  0.
         13    1    3    3    0    0  0.95949010303E+01 -0.21786791234E+03  0.23595706948E+03  0.32130083720E+03  0.00000000000E+00 0.  1.
        -13    1    3    3    0    0  0.84906688994E+02 -0.31553477403E+03  0.49996156325E+03  0.59727121494E+03  0.00000000000E+00 0. -1.
         22    1    1    2    0    0 -0.94501590025E+02  0.53340268637E+03  0.14907986101E+04  0.15861681728E+04  0.00000000000E+00 0. -1.
<mgrwt>
<rscale>  0 0.11469324E+04</rscale>
<asrwt>0</asrwt>
<pdfrwt beam="1">  1        1 0.36395824E+00 0.11469324E+04</pdfrwt>
<pdfrwt beam="2">  1       -1 0.21386385E-01 0.11469324E+04</pdfrwt>
<totfact> 0.30630932E+01</totfact>
</mgrwt>
</event>
<event>
 6    1  0.1878398E-004  0.4576321E+04  0.7818608E-02  0.7897410E-01
          1   -1    0    0  501    0  0.00000000000E+00  0.00000000000E+00  0.16081208413E+04  0.16081208413E+04  0.00000000000E+00 0. -1.
         -1   -1    0    0    0  501 -0.00000000000E+00 -0.00000000000E+00 -0.32557742820E+04  0.32557742820E+04  0.00000000000E+00 0.  1.
         23    2    1    2    0    0 -0.11267269803E+04 -0.10856940246E+04 -0.25972835600E+04  0.30335829732E+04  0.92187641115E+02 0.  0.
         11    1    3    3    0    0 -0.96711682681E+03 -0.90526956205E+03 -0.21429266492E+04  0.25193178760E+04  0.00000000000E+00 0.  1.
        -11    1    3    3    0    0 -0.15961015345E+03 -0.18042446257E+03 -0.45435691085E+03  0.51426509721E+03  0.00000000000E+00 0. -1.
         22    1    1    2    0    0  0.11267269803E+04  0.10856940246E+04  0.94963011929E+03  0.18303121500E+04  0.00000000000E+00 0. -1.
<mgrwt>
<rscale>  0 0.45763210E+04</rscale>
<asrwt>0</asrwt>
<pdfrwt beam="1">  1        1 0.24740321E+00 0.45763210E+04</pdfrwt>
<pdfrwt beam="2">  1       -1 0.50088835E+00 0.45763210E+04</pdfrwt>
<totfact> 0.60732369E-03</totfact>
</mgrwt>
</event>
<event>
 6    1  0.1878398E-004  0.2995960E+04  0.7818608E-02  0.8244885E-01
          2   -1    0    0  501    0  0.00000000000E+00  0.00000000000E+00  0.27233795050E+04  0.27233795050E+04  0.00000000000E+00 0. -1.
         -2   -1    0    0    0  501 -0.00000000000E+00 -0.00000000000E+00 -0.82395593982E+03  0.82395593982E+03  0.00000000000E+00 0.  1.
         23    2    1    2    0    0  0.63567141288E+03 -0.34076804067E+03  0.25032449122E+04  0.26066967141E+04  0.91824106089E+02 0.  0.
         13    1    3    3    0    0  0.34684919587E+03 -0.17722486416E+03  0.15117554022E+04  0.15611269690E+04  0.00000000000E+00 0. -1.
        -13    1    3    3    0    0  0.28882221701E+03 -0.16354317652E+03  0.99148950995E+03  0.10455697451E+04  0.00000000000E+00 0.  1.
         22    1    1    2    0    0 -0.63567141288E+03  0.34076804067E+03 -0.60382134696E+03  0.94063873073E+03  0.00000000000E+00 0.  1.
<mgrwt>
<rscale>  0 0.29959604E+04</rscale>
<asrwt>0</asrwt>
<pdfrwt beam="1">  1        2 0.41898146E+00 0.29959604E+04</pdfrwt>
<pdfrwt beam="2">  1       -2 0.12676245E+00 0.29959604E+04</pdfrwt>
<totfact> 0.10188597E+00</totfact>
</mgrwt>
</event>
<event>
 6    1  0.1878398E-004  0.1030118E+04  0.7818608E-02  0.9276115E-01
         -2   -1    0    0    0  501 -0.00000000000E+00  0.00000000000E+00  0.24200848567E+03  0.24200848567E+03  0.00000000000E+00 0. -1.
          2   -1    0    0  501    0  0.00000000000E+00 -0.00000000000E+00 -0.10961842732E+04  0.10961842732E+04  0.00000000000E+00 0.  1.
         23    2    1    2    0    0  0.63250223729E+02  0.41325207693E+03 -0.48478334242E+02  0.43048892163E+03  0.90513495495E+02 0.  0.
         13    1    3    3    0    0  0.45276792862E+02  0.21654493516E+03 -0.69399051663E+02  0.23185755387E+03  0.00000000000E+00 0. -1.
        -13    1    3    3    0    0  0.17973430867E+02  0.19670714177E+03  0.20920717421E+02  0.19863136776E+03  0.00000000000E+00 0.  1.
         22    1    1    2    0    0 -0.63250223729E+02 -0.41325207693E+03 -0.80569745328E+03  0.90770383723E+03  0.00000000000E+00 0. -1.
<mgrwt>
<rscale>  0 0.10301182E+04</rscale>
<asrwt>0</asrwt>
<pdfrwt beam="1">  1        2 0.16864374E+00 0.10301182E+04</pdfrwt>
<pdfrwt beam="2">  1       -2 0.37232074E-01 0.10301182E+04</pdfrwt>
<totfact> 0.14833874E+02</totfact>
</mgrwt>
</event>
<event>
 6    1  0.1878398E-004  0.2149259E+04  0.7818608E-02  0.8539850E-01
         -1   -1    0    0    0  501 -0.00000000000E+00  0.00000000000E+00  0.65268201201E+03  0.65268201201E+03  0.00000000000E+00 0. -1.
          1   -1    0    0  501    0  0.00000000000E+00 -0.00000000000E+00 -0.17693585409E+04  0.17693585409E+04  0.00000000000E+00 0.  1.
         23    2    1    2    0    0  0.78538902284E+03 -0.10456282594E+03 -0.13742405717E+04  0.15889087878E+04  0.91239714416E+02 0.  0.
         11    1    3    3    0    0  0.90577438125E+02 -0.38055205097E+02 -0.14115454219E+03  0.17197987008E+03  0.00000000000E+00 0. -1.
        -11    1    3    3    0    0  0.69481158471E+03 -0.66507620845E+02 -0.12330860295E+04  0.14169289178E+04  0.00000000000E+00 0.  1.
         22    1    1    2    0    0 -0.78538902284E+03  0.10456282594E+03  0.25756404282E+03  0.83313176504E+03  0.00000000000E+00 0. -1.
<mgrwt>
<rscale>  0 0.21492589E+04</rscale>
<asrwt>0</asrwt>
<pdfrwt beam="1">  1        1 0.27220901E+00 0.21492589E+04</pdfrwt>
<pdfrwt beam="2">  1       -1 0.10041262E+00 0.21492589E+04</pdfrwt>
<totfact> 0.36952471E+00</totfact>
</mgrwt>
</event>
<event>
 6    1  0.1878398E-004  0.1574119E+04  0.7818608E-02  0.8836607E-01
         -2   -1    0    0    0  501 -0.00000000000E+00  0.00000000000E+00  0.28498513749E+03  0.28498513749E+03  0.00000000000E+00 0. -1.
          2   -1    0    0  501    0  0.00000000000E+00 -0.00000000000E+00 -0.21736662540E+04  0.21736662540E+04  0.00000000000E+00 0.  1.
         23    2    1    2    0    0  0.15133018994E+03  0.86245654606E+02 -0.21421231016E+04  0.21511258167E+04  0.91168841170E+02 0.  0.
         13    1    3    3    0    0  0.79634893073E+01  0.20434367505E+02 -0.71037479529E+03  0.71071325464E+03  0.00000000000E+00 0.  1.
        -13    1    3    3    0    0  0.14336670063E+03  0.65811287101E+02 -0.14317483063E+04  0.14404125621E+04  0.00000000000E+00 0. -1.
         22    1    1    2    0    0 -0.15133018994E+03 -0.86245654606E+02  0.25344198510E+03  0.30752557477E+03  0.00000000000E+00 0. -1.
<mgrwt>
<rscale>  0 0.15741189E+04</rscale>
<asrwt>0</asrwt>
<pdfrwt beam="1">  1        2 0.33441021E+00 0.15741189E+04</pdfrwt>
<pdfrwt beam="2">  1       -2 0.43843865E-01 0.15741189E+04</pdfrwt>
<totfact> 0.25344062E+01</totfact>
</mgrwt>
</event>
<event>
 6    1  0.1878398E-004  0.2428901E+04  0.7818608E-02  0.8428762E-01
          2   -1    0    0  501    0  0.00000000000E+00  0.00000000000E+00  0.23542732716E+04  0.23542732716E+04  0.00000000000E+00 0.  1.
         -2   -1    0    0    0  501 -0.00000000000E+00 -0.00000000000E+00 -0.62647353291E+03  0.62647353291E+03  0.00000000000E+00 0. -1.
         23    2    1    2    0    0  0.42837099333E+03  0.36367824704E+03  0.21837205584E+04  0.22571257925E+04  0.10108308781E+03 0.  0.
         13    1    3    3    0    0  0.39268305754E+03  0.30580813895E+03  0.18056119104E+04  0.18729530086E+04  0.00000000000E+00 0.  1.
        -13    1    3    3    0    0  0.35687935791E+02  0.57870108087E+02  0.37810864800E+03  0.38417278387E+03  0.00000000000E+00 0. -1.
         22    1    1    2    0    0 -0.42837099333E+03 -0.36367824704E+03 -0.45592081966E+03  0.72362101206E+03  0.00000000000E+00 0. -1.
<mgrwt>
<rscale>  0 0.24289009E+04</rscale>
<asrwt>0</asrwt>
<pdfrwt beam="1">  1        2 0.36219589E+00 0.24289009E+04</pdfrwt>
<pdfrwt beam="2">  1       -2 0.96380544E-01 0.24289009E+04</pdfrwt>
<totfact> 0.34124349E+00</totfact>
</mgrwt>
</event>
<event>
 6    1  0.1878398E-004  0.2267930E+04  0.7818608E-02  0.8490674E-01
          2   -1    0    0  501    0  0.00000000000E+00  0.00000000000E+00  0.22836742526E+04  0.22836742526E+04  0.00000000000E+00 0.  1.
         -2   -1    0    0    0  501 -0.00000000000E+00 -0.00000000000E+00 -0.56307344570E+03  0.56307344570E+03  0.00000000000E+00 0. -1.
         23    2    1    2    0    0 -0.69847715050E+03  0.66068911206E+03  0.16120218291E+04  0.18791890040E+04  0.91413908316E+02 0.  0.
         13    1    3    3    0    0 -0.21359761922E+03  0.19595713080E+03  0.57005791573E+03  0.63952260894E+03  0.00000000000E+00 0.  1.
        -13    1    3    3    0    0 -0.48487953127E+03  0.46473198125E+03  0.10419639134E+04  0.12396663951E+04  0.00000000000E+00 0. -1.
         22    1    1    2    0    0  0.69847715050E+03 -0.66068911206E+03  0.10857897780E+03  0.96755869433E+03  0.00000000000E+00 0. -1.
<mgrwt>
<rscale>  0 0.22679297E+04</rscale>
<asrwt>0</asrwt>
<pdfrwt beam="1">  1        2 0.35133450E+00 0.22679297E+04</pdfrwt>
<pdfrwt beam="2">  1       -2 0.86626685E-01 0.22679297E+04</pdfrwt>
<totfact> 0.48568816E+00</totfact>
</mgrwt>
</event>
<event>
 6    1  0.1878398E-004  0.8382318E+03  0.7818608E-02  0.9506269E-01
          2   -1    0    0  501    0  0.00000000000E+00  0.00000000000E+00  0.44400305928E+03  0.44400305928E+03  0.00000000000E+00 0.  1.
         -2   -1    0    0    0  501 -0.00000000000E+00 -0.00000000000E+00 -0.39562373348E+03  0.39562373348E+03  0.00000000000E+00 0. -1.
         23    2    1    2    0    0  0.16010208539E+03  0.27916436548E+03 -0.23642584650E+03  0.40988337295E+03  0.92421738936E+02 0.  0.
         13    1    3    3    0    0  0.14376720012E+03  0.16422491245E+03 -0.14393515346E+03  0.26145010634E+03  0.00000000000E+00 0. -1.
        -13    1    3    3    0    0  0.16334885267E+02  0.11493945303E+03 -0.92490693042E+02  0.14843326662E+03  0.00000000000E+00 0.  1.
         22    1    1    2    0    0 -0.16010208539E+03 -0.27916436548E+03  0.28480517231E+03  0.42974341981E+03  0.00000000000E+00 0.  1.
<mgrwt>
<rscale>  0 0.83823182E+03</rscale>
<asrwt>0</asrwt>
<pdfrwt beam="1">  1        2 0.68308163E-01 0.83823182E+03</pdfrwt>
<pdfrwt beam="2">  1       -2 0.60865190E-01 0.83823182E+03</pdfrwt>
<totfact> 0.17857873E+02</totfact>
</mgrwt>
</event>
<event>
 6    1  0.1878398E-004  0.1719247E+04  0.7818608E-02  0.8750462E-01
         -2   -1    0    0    0  501 -0.00000000000E+00  0.00000000000E+00  0.33736221119E+03  0.33736221119E+03  0.00000000000E+00 0. -1.
          2   -1    0    0  501    0  0.00000000000E+00 -0.00000000000E+00 -0.21903839715E+04  0.21903839715E+04  0.00000000000E+00 0.  1.
         23    2    1    2    0    0  0.72385642775E+03 -0.40031561767E+03 -0.12610458707E+04  0.15105656797E+04  0.85739506165E+02 0.  0.
         13    1    3    3    0    0  0.39440770236E+03 -0.25987750537E+03 -0.75626411084E+03  0.89164407632E+03  0.00000000000E+00 0.  1.
        -13    1    3    3    0    0  0.32944872539E+03 -0.14043811230E+03 -0.50478175990E+03  0.61892160341E+03  0.00000000000E+00 0. -1.
         22    1    1    2    0    0 -0.72385642775E+03  0.40031561767E+03 -0.59197588952E+03  0.10171805029E+04  0.00000000000E+00 0.  1.
<mgrwt>
<rscale>  0 0.17192473E+04</rscale>
<asrwt>0</asrwt>
<pdfrwt beam="1">  1        2 0.33698215E+00 0.17192473E+04</pdfrwt>
<pdfrwt beam="2">  1       -2 0.51901878E-01 0.17192473E+04</pdfrwt>
<totfact> 0.17421566E+01</totfact>
</mgrwt>
</event>
<event>
 6    1  0.1878398E-004  0.1766330E+04  0.7818608E-02  0.8724413E-01
          2   -1    0    0  501    0  0.00000000000E+00  0.00000000000E+00  0.71284479285E+03  0.71284479285E+03  0.00000000000E+00 0.  1.
         -2   -1    0    0    0  501 -0.00000000000E+00 -0.00000000000E+00 -0.10941793943E+04  0.10941793943E+04  0.00000000000E+00 0. -1.
         23    2    1    2    0    0 -0.47084353787E+03  0.41680385255E+03 -0.82195828188E+03  0.10391906658E+04  0.94248257510E+02 0.  0.
         11    1    3    3    0    0 -0.40685489568E+03  0.31390176298E+03 -0.64399255372E+03  0.82388811874E+03  0.00000000000E+00 0.  1.
        -11    1    3    3    0    0 -0.63988642191E+02  0.10290208956E+03 -0.17796572816E+03  0.21530254705E+03  0.00000000000E+00 0. -1.
         22    1    1    2    0    0  0.47084353787E+03 -0.41680385255E+03  0.44062368048E+03  0.76783352131E+03  0.00000000000E+00 0.  1.
<mgrwt>
<rscale>  0 0.17663296E+04</rscale>
<asrwt>0</asrwt>
<pdfrwt beam="1">  1        2 0.10966843E+00 0.17663296E+04</pdfrwt>
<pdfrwt beam="2">  1       -2 0.16833529E+00 0.17663296E+04</pdfrwt>
<totfact> 0.82959675E+00</totfact>
</mgrwt>
</event>
<event>
 6    1  0.1878398E-004  0.2409514E+04  0.7818608E-02  0.8435950E-01
          2   -1    0    0  501    0  0.00000000000E+00  0.00000000000E+00  0.22288815927E+04  0.22288815927E+04  0.00000000000E+00 0.  1.
         -2   -1    0    0    0  501 -0.00000000000E+00 -0.00000000000E+00 -0.65119634395E+03  0.65119634395E+03  0.00000000000E+00 0. -1.
         23    2    1    2    0    0  0.91824634343E+03 -0.76575632481E+03  0.94899119488E+03  0.15292206868E+04  0.91501501019E+02 0.  0.
         13    1    3    3    0    0  0.47853997152E+02 -0.18013873336E+02  0.50069933710E+02  0.71564676606E+02  0.00000000000E+00 0.  1.
        -13    1    3    3    0    0  0.87039234628E+03 -0.74774245148E+03  0.89892126117E+03  0.14576560102E+04  0.00000000000E+00 0. -1.
         22    1    1    2    0    0 -0.91824634343E+03  0.76575632481E+03  0.62869405390E+03  0.13508572499E+04  0.00000000000E+00 0.  1.
<mgrwt>
<rscale>  0 0.24095141E+04</rscale>
<asrwt>0</asrwt>
<pdfrwt beam="1">  1        2 0.34290486E+00 0.24095141E+04</pdfrwt>
<pdfrwt beam="2">  1       -2 0.10018405E+00 0.24095141E+04</pdfrwt>
<totfact> 0.36750126E+00</totfact>
</mgrwt>
</event>
<event>
 6    1  0.1878398E-004  0.5747805E+03  0.7818608E-02  0.9959156E-01
         -2   -1    0    0    0  501 -0.00000000000E+00  0.00000000000E+00  0.67978131746E+02  0.67978131746E+02  0.00000000000E+00 0. -1.
          2   -1    0    0  501    0  0.00000000000E+00 -0.00000000000E+00 -0.12149958774E+04  0.12149958774E+04  0.00000000000E+00 0.  1.
         23    2    1    2    0    0  0.15408700043E+03  0.10081869079E+03 -0.10606318885E+04  0.10795785116E+04  0.81501825980E+02 0.  0.
         13    1    3    3    0    0  0.13394057317E+03  0.86817628641E+02 -0.69366662665E+03  0.71179404796E+03  0.00000000000E+00 0.  1.
        -13    1    3    3    0    0  0.20146427268E+02  0.14001062147E+02 -0.36696526183E+03  0.36778446360E+03  0.00000000000E+00 0. -1.
         22    1    1    2    0    0 -0.15408700043E+03 -0.10081869079E+03 -0.86385857152E+02  0.20339549757E+03  0.00000000000E+00 0. -1.
<mgrwt>
<rscale>  0 0.57478048E+03</rscale>
<asrwt>0</asrwt>
<pdfrwt beam="1">  1        2 0.18692242E+00 0.57478048E+03</pdfrwt>
<pdfrwt beam="2">  1       -2 0.10458175E-01 0.57478048E+03</pdfrwt>
<totfact> 0.11983367E+03</totfact>
</mgrwt>
</event>
<event>
 6    1  0.2006530E-004  0.3214041E+04  0.7818608E-02  0.8185119E-01
          1   -1    0    0  501    0  0.00000000000E+00  0.00000000000E+00  0.27290070480E+04  0.27290070480E+04  0.00000000000E+00 0. -1.
         -1   -1    0    0    0  501 -0.00000000000E+00 -0.00000000000E+00 -0.94632015080E+03  0.94632015080E+03  0.00000000000E+00 0.  1.
         23    2    1    2    0    0 -0.99825200379E+03 -0.68432664189E+03 -0.31453356519E+03  0.12539342766E+04  0.92788956672E+02 0.  0.
         11    1    3    3    0    0 -0.25672302037E+03 -0.22199868681E+03 -0.10574185102E+03  0.35548764421E+03  0.00000000000E+00 0.  1.
        -11    1    3    3    0    0 -0.74152898343E+03 -0.46232795508E+03 -0.20879171417E+03  0.89844663237E+03  0.00000000000E+00 0. -1.
         22    1    1    2    0    0  0.99825200379E+03  0.68432664189E+03  0.20972204624E+04  0.24213929222E+04  0.00000000000E+00 0. -1.
<mgrwt>
<rscale>  0 0.32140407E+04</rscale>
<asrwt>0</asrwt>
<pdfrwt beam="1">  1        1 0.41984723E+00 0.32140407E+04</pdfrwt>
<pdfrwt beam="2">  1       -1 0.14558772E+00 0.32140407E+04</pdfrwt>
<totfact> 0.29551714E-01</totfact>
</mgrwt>
</event>
<event>
 6    1  0.1878398E-004  0.3490032E+04  0.7818608E-02  0.8116156E-01
         -1   -1    0    0    0  501 -0.00000000000E+00  0.00000000000E+00  0.93940946145E+03  0.93940946145E+03  0.00000000000E+00 0. -1.
          1   -1    0    0  501    0  0.00000000000E+00 -0.00000000000E+00 -0.32414836066E+04  0.32414836066E+04  0.00000000000E+00 0.  1.
         23    2    1    2    0    0 -0.97504799557E+03  0.12343385810E+04 -0.25012239858E+03  0.15953918987E+04  0.91672078823E+02 0.  0.
         11    1    3    3    0    0 -0.76107727207E+03  0.91644303375E+03 -0.16240415774E+03  0.12022818133E+04  0.00000000000E+00 0. -1.
        -11    1    3    3    0    0 -0.21397072350E+03  0.31789554727E+03 -0.87718240838E+02  0.39311008543E+03  0.00000000000E+00 0.  1.
         22    1    1    2    0    0  0.97504799557E+03 -0.12343385810E+04 -0.20519517466E+04  0.25855011693E+04  0.00000000000E+00 0.  1.
<mgrwt>
<rscale>  0 0.34900317E+04</rscale>
<asrwt>0</asrwt>
<pdfrwt beam="1">  1        1 0.49868978E+00 0.34900317E+04</pdfrwt>
<pdfrwt beam="2">  1       -1 0.14452454E+00 0.34900317E+04</pdfrwt>
<totfact> 0.12435322E-01</totfact>
</mgrwt>
</event>
<event>
 6    1  0.1878398E-004  0.4983326E+04  0.7818608E-02  0.7831084E-01
         -1   -1    0    0    0  501 -0.00000000000E+00  0.00000000000E+00  0.23857804131E+04  0.23857804131E+04  0.00000000000E+00 0. -1.
          1   -1    0    0  501    0  0.00000000000E+00 -0.00000000000E+00 -0.26022449451E+04  0.26022449451E+04  0.00000000000E+00 0.  1.
         23    2    1    2    0    0 -0.21742357579E+04  0.52892260876E+02  0.11068768262E+04  0.24421795120E+04  0.94687582645E+02 0.  0.
         11    1    3    3    0    0 -0.11798733910E+04  0.74038594987E+01  0.64753019097E+03  0.13459016992E+04  0.00000000000E+00 0. -1.
        -11    1    3    3    0    0 -0.99436236694E+03  0.45488401378E+02  0.45934663523E+03  0.10962778128E+04  0.00000000000E+00 0.  1.
         22    1    1    2    0    0  0.21742357579E+04 -0.52892260876E+02 -0.13233413583E+04  0.25458458462E+04  0.00000000000E+00 0.  1.
<mgrwt>
<rscale>  0 0.49833262E+04</rscale>
<asrwt>0</asrwt>
<pdfrwt beam="1">  1        1 0.40034538E+00 0.49833262E+04</pdfrwt>
<pdfrwt beam="2">  1       -1 0.36704314E+00 0.49833262E+04</pdfrwt>
<totfact> 0.99420167E-03</totfact>
</mgrwt>
</event>
<event>
 6    1  0.1878398E-004  0.2901709E+04  0.7818608E-02  0.8272369E-01
          1   -1    0    0  501    0  0.00000000000E+00  0.00000000000E+00  0.14808971618E+04  0.14808971618E+04  0.00000000000E+00 0.  1.
         -1   -1    0    0    0  501 -0.00000000000E+00 -0.00000000000E+00 -0.14214208981E+04  0.14214208981E+04  0.00000000000E+00 0. -1.
         23    2    1    2    0    0  0.11531893539E+04  0.35877153279E+03 -0.77185308517E+03  0.14361423593E+04  0.90470947977E+02 0.  0.
         11    1    3    3    0    0  0.45765890648E+03  0.18554499239E+03 -0.33468695674E+03  0.59656850227E+03  0.00000000000E+00 0.  1.
        -11    1    3    3    0    0  0.69553044742E+03  0.17322654039E+03 -0.43716612843E+03  0.83957385705E+03  0.00000000000E+00 0. -1.
         22    1    1    2    0    0 -0.11531893539E+04 -0.35877153279E+03  0.83132934892E+03  0.14661757006E+04  0.00000000000E+00 0.  1.
<mgrwt>
<rscale>  0 0.29017086E+04</rscale>
<asrwt>0</asrwt>
<pdfrwt beam="1">  1        1 0.22783033E+00 0.29017086E+04</pdfrwt>
<pdfrwt beam="2">  1       -1 0.21868014E+00 0.29017086E+04</pdfrwt>
<totfact> 0.65017542E-01</totfact>
</mgrwt>
</event>
<event>
 6    1  0.2629296E-004  0.3900549E+04  0.7818608E-02  0.8024915E-01
         -2   -1    0    0    0  501 -0.00000000000E+00  0.00000000000E+00  0.16737123155E+04  0.16737123155E+04  0.00000000000E+00 0. -1.
          2   -1    0    0  501    0  0.00000000000E+00 -0.00000000000E+00 -0.22725349456E+04  0.22725349456E+04  0.00000000000E+00 0.  1.
         23    2    1    2    0    0  0.12817443615E+04  0.30609560106E+03  0.11535103039E+04  0.17537067627E+04  0.91314091675E+02 0.  0.
         11    1    3    3    0    0  0.81901529254E+03  0.15341680773E+03  0.70643852889E+03  0.10924184919E+04  0.00000000000E+00 0.  1.
        -11    1    3    3    0    0  0.46272906892E+03  0.15267879333E+03  0.44707177502E+03  0.66128827086E+03  0.00000000000E+00 0. -1.
         22    1    1    2    0    0 -0.12817443615E+04 -0.30609560106E+03 -0.17523329341E+04  0.21925404984E+04  0.00000000000E+00 0.  1.
<mgrwt>
<rscale>  0 0.39005485E+04</rscale>
<asrwt>0</asrwt>
<pdfrwt beam="1">  1        2 0.34962076E+00 0.39005485E+04</pdfrwt>
<pdfrwt beam="2">  1       -2 0.25749420E+00 0.39005485E+04</pdfrwt>
<totfact> 0.21600878E-01</totfact>
</mgrwt>
</event>
<event>
 6    1  0.1878398E-004  0.3283763E+04  0.7818608E-02  0.8167039E-01
         -1   -1    0    0    0  501 -0.00000000000E+00  0.00000000000E+00  0.14269695306E+04  0.14269695306E+04  0.00000000000E+00 0.  1.
          1   -1    0    0  501    0  0.00000000000E+00 -0.00000000000E+00 -0.18891609495E+04  0.18891609495E+04  0.00000000000E+00 0. -1.
         23    2    1    2    0    0  0.11176512707E+04 -0.11793749023E+04 -0.46067261276E+03  0.16913006952E+04  0.90604981470E+02 0.  0.
         11    1    3    3    0    0  0.63656504746E+03 -0.67282771719E+03 -0.30911979600E+03  0.97645647365E+03  0.00000000000E+00 0.  1.
        -11    1    3    3    0    0  0.48108622321E+03 -0.50654718509E+03 -0.15155281675E+03  0.71484422159E+03  0.00000000000E+00 0. -1.
         22    1    1    2    0    0 -0.11176512707E+04  0.11793749023E+04 -0.15188061987E+01  0.16248297848E+04  0.00000000000E+00 0.  1.
<mgrwt>
<rscale>  0 0.32837632E+04</rscale>
<asrwt>0</asrwt>
<pdfrwt beam="1">  1        1 0.29064015E+00 0.32837632E+04</pdfrwt>
<pdfrwt beam="2">  1       -1 0.21953377E+00 0.32837632E+04</pdfrwt>
<totfact> 0.32633886E-01</totfact>
</mgrwt>
</event>
<event>
 6    1  0.1878398E-004  0.2852971E+04  0.7818608E-02  0.8287009E-01
         -1   -1    0    0    0  501 -0.00000000000E+00  0.00000000000E+00  0.17299833014E+04  0.17299833014E+04  0.00000000000E+00 0. -1.
          1   -1    0    0  501    0  0.00000000000E+00 -0.00000000000E+00 -0.11762311920E+04  0.11762311920E+04  0.00000000000E+00 0.  1.
         23    2    1    2    0    0 -0.45490557460E+03 -0.83723385272E+03 -0.80217577953E+03  0.12489758124E+04  0.92493203542E+02 0.  0.
         11    1    3    3    0    0 -0.17272996123E+03 -0.38431765268E+03 -0.31081758106E+03  0.52358692341E+03  0.00000000000E+00 0. -1.
        -11    1    3    3    0    0 -0.28217561337E+03 -0.45291620004E+03 -0.49135819847E+03  0.72538888897E+03  0.00000000000E+00 0.  1.
         22    1    1    2    0    0  0.45490557460E+03  0.83723385272E+03  0.13559278889E+04  0.16572386810E+04  0.00000000000E+00 0. -1.
<mgrwt>
<rscale>  0 0.28529706E+04</rscale>
<asrwt>0</asrwt>
<pdfrwt beam="1">  1        1 0.18095864E+00 0.28529706E+04</pdfrwt>
<pdfrwt beam="2">  1       -1 0.26615128E+00 0.28529706E+04</pdfrwt>
<totfact> 0.52464241E-01</totfact>
</mgrwt>
</event>
<event>
 6    1  0.1878398E-004  0.1178732E+04  0.7818608E-02  0.9131678E-01
          2   -1    0    0  501    0  0.00000000000E+00  0.00000000000E+00  0.23324890880E+04  0.23324890880E+04  0.00000000000E+00 0.  1.
         -2   -1    0    0    0  501 -0.00000000000E+00 -0.00000000000E+00 -0.14891923549E+03  0.14891923549E+03  0.00000000000E+00 0. -1.
         23    2    1    2    0    0 -0.42084581732E+03  0.16126605478E+03  0.18855981181E+04  0.19411259002E+04  0.96806792775E+02 0.  0.
         13    1    3    3    0    0 -0.12552721958E+03  0.51848953250E+02  0.39733815881E+03  0.41990833434E+03  0.00000000000E+00 0. -1.
        -13    1    3    3    0    0 -0.29531859774E+03  0.10941710153E+03  0.14882599593E+04  0.15212175659E+04  0.00000000000E+00 0.  1.
         22    1    1    2    0    0  0.42084581732E+03 -0.16126605478E+03  0.29797173441E+03  0.54028242327E+03  0.00000000000E+00 0. -1.
<mgrwt>
<rscale>  0 0.11787324E+04</rscale>
<asrwt>0</asrwt>
<pdfrwt beam="1">  1        2 0.35884445E+00 0.11787324E+04</pdfrwt>
<pdfrwt beam="2">  1       -2 0.22910653E-01 0.11787324E+04</pdfrwt>
<totfact> 0.72430466E+01</totfact>
</mgrwt>
</event>
<event>
 6    1  0.1878398E-004  0.3889424E+04  0.7818608E-02  0.8027232E-01
         -2   -1    0    0    0  501 -0.00000000000E+00  0.00000000000E+00  0.80771154171E+03  0.80771154171E+03  0.00000000000E+00 0.  1.
          2   -1    0    0  501    0  0.00000000000E+00 -0.00000000000E+00 -0.46822461695E+04  0.46822461695E+04  0.00000000000E+00 0. -1.
         23    2    1    2    0    0 -0.45904948399E+03 -0.16674857743E+04 -0.68647280051E+03  0.18629791545E+04  0.90615606918E+02 0.  0.
         13    1    3    3    0    0 -0.33603819039E+03 -0.12578415616E+04 -0.47556760644E+03  0.13860922075E+04  0.00000000000E+00 0. -1.
        -13    1    3    3    0    0 -0.12301129360E+03 -0.40964421267E+03 -0.21090519407E+03  0.47688694700E+03  0.00000000000E+00 0.  1.
         22    1    1    2    0    0  0.45904948399E+03  0.16674857743E+04 -0.31880618273E+04  0.36269785567E+04  0.00000000000E+00 0. -1.
<mgrwt>
<rscale>  0 0.38894237E+04</rscale>
<asrwt>0</asrwt>
<pdfrwt beam="1">  1        2 0.72034558E+00 0.38894237E+04</pdfrwt>
<pdfrwt beam="2">  1       -2 0.12426331E+00 0.38894237E+04</pdfrwt>
<totfact> 0.30801487E-02</totfact>
</mgrwt>
</event>
<event>
 6    1  0.1878398E-004  0.2001763E+04  0.7818608E-02  0.8605797E-01
         -2   -1    0    0    0  501 -0.00000000000E+00  0.00000000000E+00  0.70378921649E+03  0.70378921649E+03  0.00000000000E+00 0. -1.
          2   -1    0    0  501    0  0.00000000000E+00 -0.00000000000E+00 -0.14233856247E+04  0.14233856247E+04  0.00000000000E+00 0.  1.
         23    2    1    2    0    0  0.68325829794E+03 -0.42873165621E+03 -0.98639149366E+03  0.12775676658E+04  0.92510687342E+02 0.  0.
         11    1    3    3    0    0  0.27033921116E+03 -0.18027093297E+03 -0.32845044632E+03  0.46201795857E+03  0.00000000000E+00 0.  1.
        -11    1    3    3    0    0  0.41291908679E+03 -0.24846072325E+03 -0.65794104735E+03  0.81554970726E+03  0.00000000000E+00 0. -1.
         22    1    1    2    0    0 -0.68325829794E+03  0.42873165621E+03  0.26679508547E+03  0.84960717534E+03  0.00000000000E+00 0. -1.
<mgrwt>
<rscale>  0 0.20017627E+04</rscale>
<asrwt>0</asrwt>
<pdfrwt beam="1">  1        2 0.21898240E+00 0.20017627E+04</pdfrwt>
<pdfrwt beam="2">  1       -2 0.10827527E+00 0.20017627E+04</pdfrwt>
<totfact> 0.88991851E+00</totfact>
</mgrwt>
</event>
<event>
 6    1  0.1878398E-004  0.3756065E+04  0.7818608E-02  0.8055649E-01
         -1   -1    0    0    0  501 -0.00000000000E+00  0.00000000000E+00  0.12365223122E+04  0.12365223122E+04  0.00000000000E+00 0.  1.
          1   -1    0    0  501    0  0.00000000000E+00 -0.00000000000E+00 -0.28523593507E+04  0.28523593507E+04  0.00000000000E+00 0. -1.
         23    2    1    2    0    0  0.17168753981E+03  0.12528541262E+03 -0.28384881122E+04  0.28478946792E+04  0.91193720766E+02 0.  0.
         13    1    3    3    0    0  0.10380267521E+03  0.10268864489E+03 -0.13917352638E+04  0.13993737877E+04  0.00000000000E+00 0. -1.
        -13    1    3    3    0    0  0.67884864605E+02  0.22596767733E+02 -0.14467528484E+04  0.14485208915E+04  0.00000000000E+00 0.  1.
         22    1    1    2    0    0 -0.17168753981E+03 -0.12528541262E+03  0.12226510737E+04  0.12409869838E+04  0.00000000000E+00 0.  1.
<mgrwt>
<rscale>  0 0.37560650E+04</rscale>
<asrwt>0</asrwt>
<pdfrwt beam="1">  1        1 0.43882451E+00 0.37560650E+04</pdfrwt>
<pdfrwt beam="2">  1       -1 0.19023420E+00 0.37560650E+04</pdfrwt>
<totfact> 0.10742621E-01</totfact>
</mgrwt>
</event>
<event>
 6    1  0.1878398E-004  0.2711674E+04  0.7818608E-02  0.8331227E-01
          1   -1    0    0  501    0  0.00000000000E+00  0.00000000000E+00  0.13779211541E+04  0.13779211541E+04  0.00000000000E+00 0.  1.
         -1   -1    0    0    0  501 -0.00000000000E+00 -0.00000000000E+00 -0.13341071355E+04  0.13341071355E+04  0.00000000000E+00 0. -1.
         23    2    1    2    0    0  0.10582110589E+04  0.80380806669E+03  0.28278328171E+03  0.13618340955E+04  0.93314874646E+02 0.  0.
         13    1    3    3    0    0  0.25446461478E+03  0.15522360235E+03  0.38571365012E+02  0.30055674522E+03  0.00000000000E+00 0. -1.
        -13    1    3    3    0    0  0.80374644414E+03  0.64858446434E+03  0.24421191670E+03  0.10612773502E+04  0.00000000000E+00 0.  1.
         22    1    1    2    0    0 -0.10582110589E+04 -0.80380806669E+03 -0.23896926315E+03  0.13501941942E+04  0.00000000000E+00 0. -1.
<mgrwt>
<rscale>  0 0.27116743E+04</rscale>
<asrwt>0</asrwt>
<pdfrwt beam="1">  1        1 0.21198787E+00 0.27116743E+04</pdfrwt>
<pdfrwt beam="2">  1       -1 0.20524725E+00 0.27116743E+04</pdfrwt>
<totfact> 0.96214311E-01</totfact>
</mgrwt>
</event>
<event>
 6    1  0.1878398E-004  0.1434693E+04  0.7818608E-02  0.8929082E-01
          2   -1    0    0  501    0  0.00000000000E+00  0.00000000000E+00  0.39385994534E+04  0.39385994534E+04  0.00000000000E+00 0.  1.
         -2   -1    0    0    0  501 -0.00000000000E+00 -0.00000000000E+00 -0.13065198571E+03  0.13065198571E+03  0.00000000000E+00 0. -1.
         23    2    1    2    0    0 -0.24481551398E+03  0.60354846658E+03  0.10747614197E+04  0.12595341294E+04  0.84313264151E+02 0.  0.
         13    1    3    3    0    0 -0.14797928792E+03  0.33047401483E+03  0.51969487953E+03  0.63339854116E+03  0.00000000000E+00 0. -1.
        -13    1    3    3    0    0 -0.96836226060E+02  0.27307445174E+03  0.55506654018E+03  0.62613558827E+03  0.00000000000E+00 0.  1.
         22    1    1    2    0    0  0.24481551398E+03 -0.60354846658E+03  0.27331860480E+04  0.28097173097E+04  0.00000000000E+00 0.  1.
<mgrwt>
<rscale>  0 0.14346928E+04</rscale>
<asrwt>0</asrwt>
<pdfrwt beam="1">  1        2 0.60593829E+00 0.14346928E+04</pdfrwt>
<pdfrwt beam="2">  1       -2 0.20100308E-01 0.14346928E+04</pdfrwt>
<totfact> 0.80836004E+00</totfact>
</mgrwt>
</event>
<event>
 6    1  0.1878398E-004  0.2749360E+04  0.7818608E-02  0.8319165E-01
         -2   -1    0    0    0  501 -0.00000000000E+00  0.00000000000E+00  0.81635704103E+03  0.81635704103E+03  0.00000000000E+00 0. -1.
          2   -1    0    0  501    0  0.00000000000E+00 -0.00000000000E+00 -0.23148513265E+04  0.23148513265E+04  0.00000000000E+00 0.  1.
         23    2    1    2    0    0 -0.12855600271E+04  0.22358315792E+03 -0.12367180203E+04  0.18003511908E+04  0.95597786216E+02 0.  0.
         13    1    3    3    0    0 -0.15781387495E+03 -0.22415029164E+01 -0.16386065288E+03  0.22750946579E+03  0.00000000000E+00 0.  1.
        -13    1    3    3    0    0 -0.11277461521E+04  0.22582466084E+03 -0.10728573674E+04  0.15728417250E+04  0.00000000000E+00 0. -1.
         22    1    1    2    0    0  0.12855600271E+04 -0.22358315792E+03 -0.26177626515E+03  0.13308571767E+04  0.00000000000E+00 0.  1.
<mgrwt>
<rscale>  0 0.27493601E+04</rscale>
<asrwt>0</asrwt>
<pdfrwt beam="1">  1        2 0.35613097E+00 0.27493601E+04</pdfrwt>
<pdfrwt beam="2">  1       -2 0.12559339E+00 0.27493601E+04</pdfrwt>
<totfact> 0.18405409E+00</totfact>
</mgrwt>
</event>
<event>
 6    1  0.1878398E-004  0.2313393E+04  0.7818608E-02  0.8472659E-01
         -2   -1    0    0    0  501 -0.00000000000E+00  0.00000000000E+00  0.14950264244E+04  0.14950264244E+04  0.00000000000E+00 0. -1.
          2   -1    0    0  501    0  0.00000000000E+00 -0.00000000000E+00 -0.89493194951E+03  0.89493194951E+03  0.00000000000E+00 0.  1.
         23    2    1    2    0    0 -0.66737648954E+03  0.60738963551E+03 -0.44437361964E+03  0.10096587149E+04  0.87345627622E+02 0.  0.
         11    1    3    3    0    0 -0.19493839965E+03  0.23212174920E+03 -0.15720589734E+03  0.34146036413E+03  0.00000000000E+00 0. -1.
        -11    1    3    3    0    0 -0.47243808988E+03  0.37526788631E+03 -0.28716772230E+03  0.66819835079E+03  0.00000000000E+00 0.  1.
         22    1    1    2    0    0  0.66737648954E+03 -0.60738963551E+03  0.10444680945E+04  0.13802996590E+04  0.00000000000E+00 0. -1.
<mgrwt>
<rscale>  0 0.23133931E+04</rscale>
<asrwt>0</asrwt>
<pdfrwt beam="1">  1        2 0.13768184E+00 0.23133931E+04</pdfrwt>
<pdfrwt beam="2">  1       -2 0.23000407E+00 0.23133931E+04</pdfrwt>
<totfact> 0.22876814E+00</totfact>
</mgrwt>
</event>
<event>
 6    1  0.1878398E-004  0.7200262E+03  0.7818608E-02  0.9683585E-01
         -1   -1    0    0    0  501 -0.00000000000E+00  0.00000000000E+00  0.59846033828E+02  0.59846033828E+02  0.00000000000E+00 0. -1.
          1   -1    0    0  501    0  0.00000000000E+00 -0.00000000000E+00 -0.21657144044E+04  0.21657144044E+04  0.00000000000E+00 0.  1.
         23    2    1    2    0    0  0.33861593007E+02 -0.18228019187E+03 -0.20028801168E+04  0.20134773030E+04  0.90495367078E+02 0.  0.
         11    1    3    3    0    0  0.34928536640E+02 -0.11711962403E+03 -0.16576931585E+04  0.16621924127E+04  0.00000000000E+00 0.  1.
        -11    1    3    3    0    0 -0.10669436324E+01 -0.65160567842E+02 -0.34518695833E+03  0.35128489033E+03  0.00000000000E+00 0. -1.
         22    1    1    2    0    0 -0.33861593007E+02  0.18228019187E+03 -0.10298825370E+03  0.21208313519E+03  0.00000000000E+00 0. -1.
<mgrwt>
<rscale>  0 0.72002616E+03</rscale>
<asrwt>0</asrwt>
<pdfrwt beam="1">  1        1 0.33318679E+00 0.72002616E+03</pdfrwt>
<pdfrwt beam="2">  1       -1 0.92070834E-02 0.72002616E+03</pdfrwt>
<totfact> 0.17130655E+02</totfact>
</mgrwt>
</event>
<event>
 6    1  0.1878398E-004  0.3832906E+04  0.7818608E-02  0.8039130E-01
          2   -1    0    0  501    0  0.00000000000E+00  0.00000000000E+00  0.40562242076E+04  0.40562242076E+04  0.00000000000E+00 0.  1.
         -2   -1    0    0    0  501 -0.00000000000E+00 -0.00000000000E+00 -0.90547066303E+03  0.90547066303E+03  0.00000000000E+00 0. -1.
         23    2    1    2    0    0 -0.96267962204E+03  0.43728261379E+03 -0.49117021421E+03  0.11693899246E+04  0.90865160432E+02 0.  0.
         13    1    3    3    0    0 -0.51407129860E+03  0.28247770521E+03 -0.27953673091E+03  0.64977206612E+03  0.00000000000E+00 0.  1.
        -13    1    3    3    0    0 -0.44860832344E+03  0.15480490858E+03 -0.21163348330E+03  0.51961785846E+03  0.00000000000E+00 0. -1.
         22    1    1    2    0    0  0.96267962204E+03 -0.43728261379E+03  0.36419237588E+04  0.37923049460E+04  0.00000000000E+00 0.  1.
<mgrwt>
<rscale>  0 0.38329060E+04</rscale>
<asrwt>0</asrwt>
<pdfrwt beam="1">  1        2 0.62403448E+00 0.38329060E+04</pdfrwt>
<pdfrwt beam="2">  1       -2 0.13930318E+00 0.38329060E+04</pdfrwt>
<totfact> 0.89211968E-02</totfact>
</mgrwt>
</event>
<event>
 6    1  0.1878398E-004  0.7938564E+03  0.7818608E-02  0.9568953E-01
          3   -1    0    0  501    0  0.00000000000E+00  0.00000000000E+00  0.99582034172E+03  0.99582034172E+03  0.00000000000E+00 0. -1.
         -3   -1    0    0    0  501 -0.00000000000E+00 -0.00000000000E+00 -0.15821325676E+03  0.15821325676E+03  0.00000000000E+00 0.  1.
         23    2    1    2    0    0 -0.11186799568E+03  0.33734075479E+03  0.18529363898E+03  0.41118363710E+03  0.91787893953E+02 0.  0.
         13    1    3    3    0    0  0.25303434480E+01  0.12937681704E+03  0.57303891781E+02  0.14152208110E+03  0.00000000000E+00 0.  1.
        -13    1    3    3    0    0 -0.11439833912E+03  0.20796393775E+03  0.12798974720E+03  0.26966155600E+03  0.00000000000E+00 0. -1.
         22    1    1    2    0    0  0.11186799568E+03 -0.33734075479E+03  0.65231344598E+03  0.74284996137E+03  0.00000000000E+00 0.  1.
<mgrwt>
<rscale>  0 0.79385636E+03</rscale>
<asrwt>0</asrwt>
<pdfrwt beam="1">  1        3 0.15320313E+00 0.79385636E+03</pdfrwt>
<pdfrwt beam="2">  1       -3 0.24340502E-01 0.79385636E+03</pdfrwt>
<totfact> 0.12973703E+01</totfact>
</mgrwt>
</event>
<event>
 6    1  0.1878398E-004  0.3864430E+04  0.7818608E-02  0.8032468E-01
         -2   -1    0    0    0  501 -0.00000000000E+00  0.00000000000E+00  0.15152671312E+04  0.15152671312E+04  0.00000000000E+00 0. -1.
          2   -1    0    0  501    0  0.00000000000E+00 -0.00000000000E+00 -0.24638916702E+04  0.24638916702E+04  0.00000000000E+00 0.  1.
         23    2    1    2    0    0  0.19258346033E+03 -0.16699820116E+03 -0.24456254138E+04  0.24606106766E+04  0.92436187914E+02 0.  0.
         11    1    3    3    0    0  0.11151929730E+03 -0.11706017270E+03 -0.18885011702E+04  0.18954092718E+04  0.00000000000E+00 0.  1.
        -11    1    3    3    0    0  0.81064163027E+02 -0.49938028462E+02 -0.55712424358E+03  0.56520140481E+03  0.00000000000E+00 0. -1.
         22    1    1    2    0    0 -0.19258346033E+03  0.16699820116E+03  0.14970008748E+04  0.15185481248E+04  0.00000000000E+00 0. -1.
<mgrwt>
<rscale>  0 0.38644296E+04</rscale>
<asrwt>0</asrwt>
<pdfrwt beam="1">  1        2 0.37906025E+00 0.38644296E+04</pdfrwt>
<pdfrwt beam="2">  1       -2 0.23311802E+00 0.38644296E+04</pdfrwt>
<totfact> 0.23816011E-01</totfact>
</mgrwt>
</event>
<event>
 6    1  0.1878398E-004  0.2921893E+04  0.7818608E-02  0.8266393E-01
          2   -1    0    0  501    0  0.00000000000E+00  0.00000000000E+00  0.88720109115E+03  0.88720109115E+03  0.00000000000E+00 0.  1.
         -2   -1    0    0    0  501 -0.00000000000E+00 -0.00000000000E+00 -0.24057278148E+04  0.24057278148E+04  0.00000000000E+00 0. -1.
         23    2    1    2    0    0  0.13779100491E+04 -0.22356666241E+03 -0.12402798152E+04  0.18695387633E+04  0.90901108749E+02 0.  0.
         13    1    3    3    0    0  0.93967714301E+03 -0.11312134376E+03 -0.86238545408E+03  0.12804289293E+04  0.00000000000E+00 0. -1.
        -13    1    3    3    0    0  0.43823290611E+03 -0.11044531865E+03 -0.37789436110E+03  0.58910983404E+03  0.00000000000E+00 0.  1.
         22    1    1    2    0    0 -0.13779100491E+04  0.22356666241E+03 -0.27824690843E+03  0.14233901426E+04  0.00000000000E+00 0.  1.
<mgrwt>
<rscale>  0 0.29218928E+04</rscale>
<asrwt>0</asrwt>
<pdfrwt beam="1">  1        2 0.13649247E+00 0.29218928E+04</pdfrwt>
<pdfrwt beam="2">  1       -2 0.37011197E+00 0.29218928E+04</pdfrwt>
<totfact> 0.29863037E-01</totfact>
</mgrwt>
</event>
<event>
 6    1  0.1878398E-004  0.2696417E+04  0.7818608E-02  0.8336168E-01
          2   -1    0    0  501    0  0.00000000000E+00  0.00000000000E+00  0.34983621857E+04  0.34983621857E+04  0.00000000000E+00 0.  1.
         -2   -1    0    0    0  501 -0.00000000000E+00 -0.00000000000E+00 -0.51957641580E+03  0.51957641580E+03  0.00000000000E+00 0. -1.
         23    2    1    2    0    0  0.10974722818E+04  0.38888044866E+03  0.24992982510E+04  0.27587397716E+04  0.92086736389E+02 0.  0.
         11    1    3    3    0    0  0.69524356751E+03  0.20048421296E+03  0.15753274447E+04  0.17335553339E+04  0.00000000000E+00 0.  1.
        -11    1    3    3    0    0  0.40222871425E+03  0.18839623569E+03  0.92397080637E+03  0.10251844377E+04  0.00000000000E+00 0. -1.
         22    1    1    2    0    0 -0.10974722818E+04 -0.38888044866E+03  0.47948751887E+03  0.12591988299E+04  0.00000000000E+00 0. -1.
<mgrwt>
<rscale>  0 0.26964172E+04</rscale>
<asrwt>0</asrwt>
<pdfrwt beam="1">  1        2 0.53820955E+00 0.26964172E+04</pdfrwt>
<pdfrwt beam="2">  1       -2 0.79934836E-01 0.26964172E+04</pdfrwt>
<totfact> 0.99081885E-01</totfact>
</mgrwt>
</event>
<event>
 6    1  0.1878398E-004  0.1600185E+04  0.7818608E-02  0.8820434E-01
         -2   -1    0    0    0  501 -0.00000000000E+00  0.00000000000E+00  0.35248543977E+03  0.35248543977E+03  0.00000000000E+00 0. -1.
          2   -1    0    0  501    0  0.00000000000E+00 -0.00000000000E+00 -0.18160973608E+04  0.18160973608E+04  0.00000000000E+00 0.  1.
         23    2    1    2    0    0  0.47552549264E+02 -0.34908894232E+03 -0.17037394352E+04  0.17422196249E+04  0.92069668323E+02 0.  0.
         13    1    3    3    0    0  0.38572228210E+02 -0.26867734394E+03 -0.14705841482E+04  0.14954240431E+04  0.00000000000E+00 0. -1.
        -13    1    3    3    0    0  0.89803210537E+01 -0.80411598378E+02 -0.23315528697E+03  0.24679558173E+03  0.00000000000E+00 0.  1.
         22    1    1    2    0    0 -0.47552549264E+02  0.34908894232E+03  0.24012751409E+03  0.42636317573E+03  0.00000000000E+00 0. -1.
<mgrwt>
<rscale>  0 0.16001848E+04</rscale>
<asrwt>0</asrwt>
<pdfrwt beam="1">  1        2 0.27939959E+00 0.16001848E+04</pdfrwt>
<pdfrwt beam="2">  1       -2 0.54228531E-01 0.16001848E+04</pdfrwt>
<totfact> 0.25950487E+01</totfact>
</mgrwt>
</event>
<event>
 6    1  0.1878398E-004  0.5613449E+04  0.7818608E-02  0.7740269E-01
         -2   -1    0    0    0  501 -0.00000000000E+00  0.00000000000E+00  0.30059878355E+04  0.30059878355E+04  0.00000000000E+00 0.  1.
          2   -1    0    0  501    0  0.00000000000E+00 -0.00000000000E+00 -0.26206697461E+04  0.26206697461E+04  0.00000000000E+00 0. -1.
         23    2    1    2    0    0  0.27721719970E+03 -0.22695036680E+04  0.18232048095E+04  0.29257291311E+04  0.91207984353E+02 0.  0.
         13    1    3    3    0    0  0.19302919881E+03 -0.16886876186E+04  0.13065240652E+04  0.21438123234E+04  0.00000000000E+00 0. -1.
        -13    1    3    3    0    0  0.84188000895E+02 -0.58081604937E+03  0.51668074430E+03  0.78191680774E+03  0.00000000000E+00 0.  1.
         22    1    1    2    0    0 -0.27721719970E+03  0.22695036680E+04 -0.14378867201E+04  0.27009284505E+04  0.00000000000E+00 0. -1.
<mgrwt>
<rscale>  0 0.56134486E+04</rscale>
<asrwt>0</asrwt>
<pdfrwt beam="1">  1        2 0.40317996E+00 0.56134486E+04</pdfrwt>
<pdfrwt beam="2">  1       -2 0.46245967E+00 0.56134486E+04</pdfrwt>
<totfact> 0.59273276E-03</totfact>
</mgrwt>
</event>
<event>
 6    1  0.1878398E-004  0.2962587E+04  0.7818608E-02  0.8254496E-01
          3   -1    0    0  501    0  0.00000000000E+00  0.00000000000E+00  0.24571242015E+04  0.24571242015E+04  0.00000000000E+00 0.  1.
         -3   -1    0    0    0  501 -0.00000000000E+00 -0.00000000000E+00 -0.89300774350E+03  0.89300774350E+03  0.00000000000E+00 0. -1.
         23    2    1    2    0    0  0.52785066782E+03  0.37661274878E+03 -0.72146032986E+03  0.97435317936E+03  0.91627618738E+02 0.  0.
         13    1    3    3    0    0  0.32574703894E+03  0.17673561476E+03 -0.41231154928E+03  0.55438923563E+03  0.00000000000E+00 0.  1.
        -13    1    3    3    0    0  0.20210362887E+03  0.19987713402E+03 -0.30914878057E+03  0.41996394373E+03  0.00000000000E+00 0. -1.
         22    1    1    2    0    0 -0.52785066782E+03 -0.37661274878E+03  0.22855767878E+04  0.23757787656E+04  0.00000000000E+00 0.  1.
<mgrwt>
<rscale>  0 0.29625873E+04</rscale>
<asrwt>0</asrwt>
<pdfrwt beam="1">  1        3 0.37801911E+00 0.29625873E+04</pdfrwt>
<pdfrwt beam="2">  1       -3 0.13738581E+00 0.29625873E+04</pdfrwt>
<totfact> 0.13126610E-02</totfact>
</mgrwt>
</event>
<event>
 6    1  0.2017696E-004  0.2478654E+04  0.7818608E-02  0.8410630E-01
         -2   -1    0    0    0  501 -0.00000000000E+00  0.00000000000E+00  0.70928256207E+03  0.70928256207E+03  0.00000000000E+00 0. -1.
          2   -1    0    0  501    0  0.00000000000E+00 -0.00000000000E+00 -0.21654726478E+04  0.21654726478E+04  0.00000000000E+00 0.  1.
         23    2    1    2    0    0  0.10778240393E+04  0.58626370580E+03 -0.54062506876E+03  0.13438505450E+04  0.90824169925E+02 0.  0.
         11    1    3    3    0    0  0.59786339481E+03  0.37565156798E+03 -0.31819933278E+03  0.77447114521E+03  0.00000000000E+00 0.  1.
        -11    1    3    3    0    0  0.47996064454E+03  0.21061213782E+03 -0.22242573598E+03  0.56937939981E+03  0.00000000000E+00 0. -1.
         22    1    1    2    0    0 -0.10778240393E+04 -0.58626370580E+03 -0.91556501692E+03  0.15309046648E+04  0.00000000000E+00 0.  1.
<mgrwt>
<rscale>  0 0.24786545E+04</rscale>
<asrwt>0</asrwt>
<pdfrwt beam="1">  1        2 0.33314964E+00 0.24786545E+04</pdfrwt>
<pdfrwt beam="2">  1       -2 0.10912039E+00 0.24786545E+04</pdfrwt>
<totfact> 0.32316853E+00</totfact>
</mgrwt>
</event>
<event>
 6    1  0.1878398E-004  0.4334737E+04  0.7818608E-02  0.7940226E-01
          2   -1    0    0  501    0  0.00000000000E+00  0.00000000000E+00  0.24147709987E+04  0.24147709987E+04  0.00000000000E+00 0.  1.
         -2   -1    0    0    0  501 -0.00000000000E+00 -0.00000000000E+00 -0.19453137168E+04  0.19453137168E+04  0.00000000000E+00 0. -1.
         23    2    1    2    0    0  0.44507967928E+03  0.37565381862E+03  0.23336650153E+04  0.24070147768E+04  0.92282282375E+02 0.  0.
         13    1    3    3    0    0  0.22648698435E+03  0.22313158394E+03  0.11087126069E+04  0.11533983278E+04  0.00000000000E+00 0. -1.
        -13    1    3    3    0    0  0.21859269493E+03  0.15252223468E+03  0.12249524084E+04  0.12536164490E+04  0.00000000000E+00 0.  1.
         22    1    1    2    0    0 -0.44507967928E+03 -0.37565381862E+03 -0.18642077334E+04  0.19530699387E+04  0.00000000000E+00 0. -1.
<mgrwt>
<rscale>  0 0.43347374E+04</rscale>
<asrwt>0</asrwt>
<pdfrwt beam="1">  1        2 0.37150323E+00 0.43347374E+04</pdfrwt>
<pdfrwt beam="2">  1       -2 0.29927903E+00 0.43347374E+04</pdfrwt>
<totfact> 0.96124715E-02</totfact>
</mgrwt>
</event>
<event>
 6    1  0.1878398E-004  0.2603175E+04  0.7818608E-02  0.8367124E-01
         -1   -1    0    0    0  501 -0.00000000000E+00  0.00000000000E+00  0.79582255697E+03  0.79582255697E+03  0.00000000000E+00 0. -1.
          1   -1    0    0  501    0  0.00000000000E+00 -0.00000000000E+00 -0.21287786427E+04  0.21287786427E+04  0.00000000000E+00 0.  1.
         23    2    1    2    0    0 -0.11932151578E+04  0.12107777404E+02 -0.12467255664E+04  0.17282130045E+04  0.92122419016E+02 0.  0.
         13    1    3    3    0    0 -0.10941934286E+04 -0.14010798504E+02 -0.11326352844E+04  0.15749026158E+04  0.00000000000E+00 0.  1.
        -13    1    3    3    0    0 -0.99021729161E+02  0.26118575908E+02 -0.11409028202E+03  0.15331038877E+03  0.00000000000E+00 0. -1.
         22    1    1    2    0    0  0.11932151578E+04 -0.12107777404E+02 -0.86230519348E+02  0.11963881952E+04  0.00000000000E+00 0. -1.
<mgrwt>
<rscale>  0 0.26031750E+04</rscale>
<asrwt>0</asrwt>
<pdfrwt beam="1">  1        1 0.32750440E+00 0.26031750E+04</pdfrwt>
<pdfrwt beam="2">  1       -1 0.12243424E+00 0.26031750E+04</pdfrwt>
<totfact> 0.12635357E+00</totfact>
</mgrwt>
</event>
<event>
 6    1  0.1878398E-004  0.1976083E+04  0.7818608E-02  0.8617885E-01
         -2   -1    0    0    0  501 -0.00000000000E+00  0.00000000000E+00  0.56454990989E+03  0.56454990989E+03  0.00000000000E+00 0. -1.
          2   -1    0    0  501    0  0.00000000000E+00 -0.00000000000E+00 -0.17292106857E+04  0.17292106857E+04  0.00000000000E+00 0.  1.
         23    2    1    2    0    0  0.13951065391E+03  0.50374114118E+02 -0.17149957887E+04  0.17237874381E+04  0.90729281880E+02 0.  0.
         11    1    3    3    0    0  0.73232299755E+01  0.11578174637E+02 -0.62108824812E+03  0.62123932247E+03  0.00000000000E+00 0. -1.
        -11    1    3    3    0    0  0.13218742393E+03  0.38795939481E+02 -0.10939075405E+04  0.11025481156E+04  0.00000000000E+00 0.  1.
         22    1    1    2    0    0 -0.13951065391E+03 -0.50374114118E+02  0.55033501285E+03  0.56997315753E+03  0.00000000000E+00 0. -1.
<mgrwt>
<rscale>  0 0.19760827E+04</rscale>
<asrwt>0</asrwt>
<pdfrwt beam="1">  1        2 0.26603241E+00 0.19760827E+04</pdfrwt>
<pdfrwt beam="2">  1       -2 0.86853832E-01 0.19760827E+04</pdfrwt>
<totfact> 0.10085333E+01</totfact>
</mgrwt>
</event>
<event>
 6    1  0.1878398E-004  0.1187043E+04  0.7818608E-02  0.9124274E-01
          2   -1    0    0  501    0  0.00000000000E+00  0.00000000000E+00  0.11785701611E+04  0.11785701611E+04  0.00000000000E+00 0.  1.
         -2   -1    0    0    0  501 -0.00000000000E+00 -0.00000000000E+00 -0.29889435037E+03  0.29889435037E+03  0.00000000000E+00 0. -1.
         23    2    1    2    0    0 -0.81140800231E+02  0.24190119114E+03  0.11046962923E+04  0.11372671675E+04  0.89009529612E+02 0.  0.
         13    1    3    3    0    0 -0.50687282208E+02  0.58629350993E+02  0.45401613029E+03  0.46058359496E+03  0.00000000000E+00 0.  1.
        -13    1    3    3    0    0 -0.30453518023E+02  0.18327184015E+03  0.65068016202E+03  0.67668357258E+03  0.00000000000E+00 0. -1.
         22    1    1    2    0    0  0.81140800231E+02 -0.24190119114E+03 -0.22502048154E+03  0.34019734398E+03  0.00000000000E+00 0. -1.
<mgrwt>
<rscale>  0 0.11870433E+04</rscale>
<asrwt>0</asrwt>
<pdfrwt beam="1">  1        2 0.18131848E+00 0.11870433E+04</pdfrwt>
<pdfrwt beam="2">  1       -2 0.45983747E-01 0.11870433E+04</pdfrwt>
<totfact> 0.86364791E+01</totfact>
</mgrwt>
</event>
<event>
 6    1  0.1878398E-004  0.2001412E+04  0.7818608E-02  0.8605961E-01
         -2   -1    0    0    0  501 -0.00000000000E+00  0.00000000000E+00  0.77737191654E+03  0.77737191654E+03  0.00000000000E+00 0.  1.
          2   -1    0    0  501    0  0.00000000000E+00 -0.00000000000E+00 -0.12882025151E+04  0.12882025151E+04  0.00000000000E+00 0. -1.
         23    2    1    2    0    0  0.11271496929E+03 -0.18810145210E+03 -0.12615162021E+04  0.12835158047E+04  0.88898099379E+02 0.  0.
         13    1    3    3    0    0  0.77159873069E+02 -0.45390743447E+02 -0.46786796169E+03  0.47635532450E+03  0.00000000000E+00 0. -1.
        -13    1    3    3    0    0  0.35555096223E+02 -0.14271070866E+03 -0.79364824044E+03  0.80716048019E+03  0.00000000000E+00 0.  1.
         22    1    1    2    0    0 -0.11271496929E+03  0.18810145210E+03  0.75068560357E+03  0.78205862695E+03  0.00000000000E+00 0.  1.
<mgrwt>
<rscale>  0 0.20014120E+04</rscale>
<asrwt>0</asrwt>
<pdfrwt beam="1">  1        2 0.19818500E+00 0.20014120E+04</pdfrwt>
<pdfrwt beam="2">  1       -2 0.11959568E+00 0.20014120E+04</pdfrwt>
<totfact> 0.83564233E+00</totfact>
</mgrwt>
</event>
<event>
 6    1  0.1878398E-004  0.1443562E+04  0.7818608E-02  0.8922876E-01
         -2   -1    0    0    0  501 -0.00000000000E+00  0.00000000000E+00  0.38967047911E+03  0.38967047911E+03  0.00000000000E+00 0. -1.
          2   -1    0    0  501    0  0.00000000000E+00 -0.00000000000E+00 -0.13369451166E+04  0.13369451166E+04  0.00000000000E+00 0.  1.
         23    2    1    2    0    0 -0.22646537585E+03  0.30525944306E+02  0.33953906937E+03  0.41966956931E+03  0.92829779917E+02 0.  0.
         13    1    3    3    0    0 -0.73433465347E+02  0.25023069057E+02  0.50488006881E+02  0.92561691086E+02  0.00000000000E+00 0. -1.
        -13    1    3    3    0    0 -0.15303191050E+03  0.55028752493E+01  0.28905106249E+03  0.32710787822E+03  0.00000000000E+00 0.  1.
         22    1    1    2    0    0  0.22646537585E+03 -0.30525944306E+02 -0.12868137068E+04  0.13069460264E+04  0.00000000000E+00 0.  1.
<mgrwt>
<rscale>  0 0.14435623E+04</rscale>
<asrwt>0</asrwt>
<pdfrwt beam="1">  1        2 0.20568386E+00 0.14435623E+04</pdfrwt>
<pdfrwt beam="2">  1       -2 0.59949305E-01 0.14435623E+04</pdfrwt>
<totfact> 0.39603004E+01</totfact>
</mgrwt>
</event>
<event>
 6    1  0.2900649E-004  0.4330349E+04  0.7818608E-02  0.7941030E-01
         -2   -1    0    0    0  501 -0.00000000000E+00  0.00000000000E+00  0.14146025883E+04  0.14146025883E+04  0.00000000000E+00 0. -1.
          2   -1    0    0  501    0  0.00000000000E+00 -0.00000000000E+00 -0.33139906150E+04  0.33139906150E+04  0.00000000000E+00 0.  1.
         23    2    1    2    0    0 -0.18807879771E+03 -0.65018970472E+03  0.12945026576E+04  0.14637719235E+04  0.93652694611E+02 0.  0.
         13    1    3    3    0    0 -0.10466235733E+03 -0.49706130855E+03  0.99662015620E+03  0.11186044382E+04  0.00000000000E+00 0.  1.
        -13    1    3    3    0    0 -0.83416440373E+02 -0.15312839617E+03  0.29788250136E+03  0.34516748522E+03  0.00000000000E+00 0. -1.
         22    1    1    2    0    0  0.18807879771E+03  0.65018970472E+03 -0.31938906842E+04  0.32648212798E+04  0.00000000000E+00 0.  1.
<mgrwt>
<rscale>  0 0.43303486E+04</rscale>
<asrwt>0</asrwt>
<pdfrwt beam="1">  1        2 0.50984470E+00 0.43303486E+04</pdfrwt>
<pdfrwt beam="2">  1       -2 0.21763117E+00 0.43303486E+04</pdfrwt>
<totfact> 0.85568682E-02</totfact>
</mgrwt>
</event>
<event>
 6    1  0.1878398E-004  0.4458932E+04  0.7818608E-02  0.7917866E-01
          1   -1    0    0  501    0  0.00000000000E+00  0.00000000000E+00  0.20168346071E+04  0.20168346071E+04  0.00000000000E+00 0.  1.
         -1   -1    0    0    0  501 -0.00000000000E+00 -0.00000000000E+00 -0.24645149247E+04  0.24645149247E+04  0.00000000000E+00 0. -1.
         23    2    1    2    0    0 -0.36267483646E+03 -0.81869704950E+03 -0.22748676941E+04  0.24465493930E+04  0.93717718695E+02 0.  0.
         11    1    3    3    0    0 -0.11972476289E+03 -0.17278694437E+03 -0.52433047869E+03  0.56489981225E+03  0.00000000000E+00 0.  1.
        -11    1    3    3    0    0 -0.24295007357E+03 -0.64591010513E+03 -0.17505372154E+04  0.18816495808E+04  0.00000000000E+00 0. -1.
         22    1    1    2    0    0  0.36267483646E+03  0.81869704950E+03  0.18271873765E+04  0.20348001388E+04  0.00000000000E+00 0.  1.
<mgrwt>
<rscale>  0 0.44589322E+04</rscale>
<asrwt>0</asrwt>
<pdfrwt beam="1">  1        1 0.31028225E+00 0.44589322E+04</pdfrwt>
<pdfrwt beam="2">  1       -1 0.37915614E+00 0.44589322E+04</pdfrwt>
<totfact> 0.21689645E-02</totfact>
</mgrwt>
</event>
<event>
 6    1  0.1878398E-004  0.1911615E+04  0.7818608E-02  0.8649097E-01
         -2   -1    0    0    0  501 -0.00000000000E+00  0.00000000000E+00  0.35599377175E+03  0.35599377175E+03  0.00000000000E+00 0. -1.
          2   -1    0    0  501    0  0.00000000000E+00 -0.00000000000E+00 -0.25662461016E+04  0.25662461016E+04  0.00000000000E+00 0.  1.
         23    2    1    2    0    0  0.83584922428E+03 -0.17876867641E+03 -0.17538599267E+04  0.19532733151E+04  0.93004491646E+02 0.  0.
         13    1    3    3    0    0  0.15265636691E+03 -0.96865741505E+01 -0.25419810831E+03  0.29667233499E+03  0.00000000000E+00 0. -1.
        -13    1    3    3    0    0  0.68319285737E+03 -0.16908210226E+03 -0.14996618184E+04  0.16566009801E+04  0.00000000000E+00 0.  1.
         22    1    1    2    0    0 -0.83584922428E+03  0.17876867641E+03 -0.45639240313E+03  0.96896655826E+03  0.00000000000E+00 0.  1.
<mgrwt>
<rscale>  0 0.19116146E+04</rscale>
<asrwt>0</asrwt>
<pdfrwt beam="1">  1        2 0.39480708E+00 0.19116146E+04</pdfrwt>
<pdfrwt beam="2">  1       -2 0.54768275E-01 0.19116146E+04</pdfrwt>
<totfact> 0.93568747E+00</totfact>
</mgrwt>
</event>
<event>
 6    1  0.1878398E-004  0.3277560E+04  0.7818608E-02  0.8168629E-01
         -2   -1    0    0    0  501 -0.00000000000E+00  0.00000000000E+00  0.15627416216E+04  0.15627416216E+04  0.00000000000E+00 0.  1.
          2   -1    0    0  501    0  0.00000000000E+00 -0.00000000000E+00 -0.17185184198E+04  0.17185184198E+04  0.00000000000E+00 0. -1.
         23    2    1    2    0    0 -0.10427570302E+04  0.23411895592E+03 -0.13200196950E+04  0.17008754577E+04  0.91495452384E+02 0.  0.
         13    1    3    3    0    0 -0.98725353050E+03  0.20341673510E+03 -0.12214777494E+04  0.15836842469E+04  0.00000000000E+00 0. -1.
        -13    1    3    3    0    0 -0.55503499709E+02  0.30702220825E+02 -0.98541945582E+02  0.11719121077E+03  0.00000000000E+00 0.  1.
         22    1    1    2    0    0  0.10427570302E+04 -0.23411895592E+03  0.11642428968E+04  0.15803845837E+04  0.00000000000E+00 0.  1.
<mgrwt>
<rscale>  0 0.32775602E+04</rscale>
<asrwt>0</asrwt>
<pdfrwt beam="1">  1        2 0.26438745E+00 0.32775602E+04</pdfrwt>
<pdfrwt beam="2">  1       -2 0.24042179E+00 0.32775602E+04</pdfrwt>
<totfact> 0.59006560E-01</totfact>
</mgrwt>
</event>
<event>
 6    1  0.1878398E-004  0.9665622E+03  0.7818608E-02  0.9345999E-01
          2   -1    0    0  501    0  0.00000000000E+00  0.00000000000E+00  0.36995651442E+03  0.36995651442E+03  0.00000000000E+00 0.  1.
         -2   -1    0    0    0  501 -0.00000000000E+00 -0.00000000000E+00 -0.63131909233E+03  0.63131909233E+03  0.00000000000E+00 0. -1.
         23    2    1    2    0    0  0.21552345644E+03 -0.42725668941E+03 -0.14929175699E+03  0.50978958678E+03  0.92729472963E+02 0.  0.
         11    1    3    3    0    0  0.56466272740E+02 -0.16472783613E+03 -0.94025690225E+02  0.19790030413E+03  0.00000000000E+00 0. -1.
        -11    1    3    3    0    0  0.15905718370E+03 -0.26252885328E+03 -0.55266066768E+02  0.31188928265E+03  0.00000000000E+00 0.  1.
         22    1    1    2    0    0 -0.21552345644E+03  0.42725668941E+03 -0.11207082092E+03  0.49148601997E+03  0.00000000000E+00 0.  1.
<mgrwt>
<rscale>  0 0.96656218E+03</rscale>
<asrwt>0</asrwt>
<pdfrwt beam="1">  1        2 0.56916387E-01 0.96656218E+03</pdfrwt>
<pdfrwt beam="2">  1       -2 0.97126013E-01 0.96656218E+03</pdfrwt>
<totfact> 0.76865684E+01</totfact>
</mgrwt>
</event>
<event>
 6    1  0.1878398E-004  0.2731729E+04  0.7818608E-02  0.8324783E-01
         -2   -1    0    0    0  501 -0.00000000000E+00  0.00000000000E+00  0.12208062589E+04  0.12208062589E+04  0.00000000000E+00 0. -1.
          2   -1    0    0  501    0  0.00000000000E+00 -0.00000000000E+00 -0.15281588660E+04  0.15281588660E+04  0.00000000000E+00 0.  1.
         23    2    1    2    0    0 -0.10751215495E+04  0.97848373911E+02  0.68563279409E+03  0.12821724819E+04  0.91724012595E+02 0.  0.
         13    1    3    3    0    0 -0.37005421474E+03 -0.92699579179E+01  0.24359160959E+03  0.44312856625E+03  0.00000000000E+00 0.  1.
        -13    1    3    3    0    0 -0.70506733478E+03  0.10711833183E+03  0.44204118450E+03  0.83904391564E+03  0.00000000000E+00 0. -1.
         22    1    1    2    0    0  0.10751215495E+04 -0.97848373911E+02 -0.99298540120E+03  0.14667926430E+04  0.00000000000E+00 0.  1.
<mgrwt>
<rscale>  0 0.27317291E+04</rscale>
<asrwt>0</asrwt>
<pdfrwt beam="1">  1        2 0.23510136E+00 0.27317291E+04</pdfrwt>
<pdfrwt beam="2">  1       -2 0.18781635E+00 0.27317291E+04</pdfrwt>
<totfact> 0.17172075E+00</totfact>
</mgrwt>
</event>
<event>
 6    1  0.1878398E-004  0.8150811E+03  0.7818608E-02  0.9538441E-01
         -2   -1    0    0    0  501 -0.00000000000E+00  0.00000000000E+00  0.26197277952E+03  0.26197277952E+03  0.00000000000E+00 0. -1.
          2   -1    0    0  501    0  0.00000000000E+00 -0.00000000000E+00 -0.63399457147E+03  0.63399457147E+03  0.00000000000E+00 0.  1.
         23    2    1    2    0    0 -0.15901025185E+03 -0.20569591555E+03 -0.52591430445E+03  0.59384490019E+03  0.92037166320E+02 0.  0.
         13    1    3    3    0    0 -0.57976402124E+02 -0.13653220269E+03 -0.34338820154E+03  0.37405582809E+03  0.00000000000E+00 0. -1.
        -13    1    3    3    0    0 -0.10103384973E+03 -0.69163712867E+02 -0.18252610291E+03  0.21978907210E+03  0.00000000000E+00 0.  1.
         22    1    1    2    0    0  0.15901025185E+03  0.20569591555E+03  0.15389251250E+03  0.30212245079E+03  0.00000000000E+00 0. -1.
<mgrwt>
<rscale>  0 0.81508115E+03</rscale>
<asrwt>0</asrwt>
<pdfrwt beam="1">  1        2 0.97537624E-01 0.81508115E+03</pdfrwt>
<pdfrwt beam="2">  1       -2 0.40303505E-01 0.81508115E+03</pdfrwt>
<totfact> 0.27168565E+02</totfact>
</mgrwt>
</event>
<event>
 6    1  0.1878398E-004  0.2667056E+04  0.7818608E-02  0.8345774E-01
         -2   -1    0    0    0  501 -0.00000000000E+00  0.00000000000E+00  0.70363732839E+03  0.70363732839E+03  0.00000000000E+00 0. -1.
          2   -1    0    0  501    0  0.00000000000E+00 -0.00000000000E+00 -0.25272927348E+04  0.25272927348E+04  0.00000000000E+00 0.  1.
         23    2    1    2    0    0  0.87985998352E+03 -0.79498660278E+03 -0.16473484301E+04  0.20320800146E+04  0.97134166737E+02 0.  0.
         11    1    3    3    0    0  0.18559052526E+03 -0.20711807504E+03 -0.33775364166E+03  0.43751487120E+03  0.00000000000E+00 0. -1.
        -11    1    3    3    0    0  0.69426945826E+03 -0.58786852774E+03 -0.13095947884E+04  0.15945651434E+04  0.00000000000E+00 0.  1.
         22    1    1    2    0    0 -0.87985998352E+03  0.79498660278E+03 -0.17630697635E+03  0.11988500486E+04  0.00000000000E+00 0. -1.
<mgrwt>
<rscale>  0 0.26670564E+04</rscale>
<asrwt>0</asrwt>
<pdfrwt beam="1">  1        2 0.38881427E+00 0.26670564E+04</pdfrwt>
<pdfrwt beam="2">  1       -2 0.10825190E+00 0.26670564E+04</pdfrwt>
<totfact> 0.20159910E+00</totfact>
</mgrwt>
</event>
<event>
 6    1  0.1878398E-004  0.1084374E+04  0.7818608E-02  0.9220557E-01
         -2   -1    0    0    0  501 -0.00000000000E+00  0.00000000000E+00  0.63507839701E+03  0.63507839701E+03  0.00000000000E+00 0. -1.
          2   -1    0    0  501    0  0.00000000000E+00 -0.00000000000E+00 -0.46288261677E+03  0.46288261677E+03  0.00000000000E+00 0.  1.
         23    2    1    2    0    0 -0.24456800067E+03 -0.33783310284E+03 -0.25829108457E+03  0.49857495029E+03  0.88983056608E+02 0.  0.
         13    1    3    3    0    0 -0.12066766726E+03 -0.10631509028E+03 -0.69668911542E+02  0.17526363450E+03  0.00000000000E+00 0. -1.
        -13    1    3    3    0    0 -0.12390033341E+03 -0.23151801257E+03 -0.18862217303E+03  0.32331131579E+03  0.00000000000E+00 0.  1.
         22    1    1    2    0    0  0.24456800067E+03  0.33783310284E+03  0.43048686481E+03  0.59938606348E+03  0.00000000000E+00 0. -1.
<mgrwt>
<rscale>  0 0.10843740E+04</rscale>
<asrwt>0</asrwt>
<pdfrwt beam="1">  1        2 0.71212710E-01 0.10843740E+04</pdfrwt>
<pdfrwt beam="2">  1       -2 0.97704369E-01 0.10843740E+04</pdfrwt>
<totfact> 0.58404064E+01</totfact>
</mgrwt>
</event>
<event>
 6    1  0.1878398E-004  0.2148565E+04  0.7818608E-02  0.8540147E-01
          2   -1    0    0  501    0  0.00000000000E+00  0.00000000000E+00  0.20647857191E+04  0.20647857191E+04  0.00000000000E+00 0.  1.
         -2   -1    0    0    0  501 -0.00000000000E+00 -0.00000000000E+00 -0.55893572246E+03  0.55893572246E+03  0.00000000000E+00 0. -1.
         23    2    1    2    0    0  0.68701299493E+03  0.16801908902E+03  0.17382634575E+04  0.18792529827E+04  0.99068943603E+02 0.  0.
         11    1    3    3    0    0  0.48022654952E+03  0.12554743993E+03  0.13307202065E+04  0.14202802423E+04  0.00000000000E+00 0.  1.
        -11    1    3    3    0    0  0.20678644542E+03  0.42471649086E+02  0.40754325102E+03  0.45897274041E+03  0.00000000000E+00 0. -1.
         22    1    1    2    0    0 -0.68701299493E+03 -0.16801908902E+03 -0.23241346089E+03  0.74446845889E+03  0.00000000000E+00 0. -1.
<mgrwt>
<rscale>  0 0.21485646E+04</rscale>
<asrwt>0</asrwt>
<pdfrwt beam="1">  1        2 0.31765934E+00 0.21485646E+04</pdfrwt>
<pdfrwt beam="2">  1       -2 0.85990112E-01 0.21485646E+04</pdfrwt>
<totfact> 0.66217344E+00</totfact>
</mgrwt>
</event>
<event>
 6    1  0.1878398E-004  0.1251841E+04  0.7818608E-02  0.9068653E-01
         -2   -1    0    0    0  501 -0.00000000000E+00  0.00000000000E+00  0.78139077906E+03  0.78139077906E+03  0.00000000000E+00 0. -1.
          2   -1    0    0  501    0  0.00000000000E+00 -0.00000000000E+00 -0.50138330312E+03  0.50138330312E+03  0.00000000000E+00 0.  1.
         23    2    1    2    0    0  0.26955653152E+00  0.41610017828E+03 -0.33441751542E+03  0.54071107877E+03  0.85988168148E+02 0.  0.
         13    1    3    3    0    0  0.33918500348E+02  0.10874851306E+03 -0.11269552987E+03  0.16024040131E+03  0.00000000000E+00 0. -1.
        -13    1    3    3    0    0 -0.33648943816E+02  0.30735166522E+03 -0.22172198554E+03  0.38047067746E+03  0.00000000000E+00 0.  1.
         22    1    1    2    0    0 -0.26955653152E+00 -0.41610017828E+03  0.61442499136E+03  0.74206300341E+03  0.00000000000E+00 0. -1.
<mgrwt>
<rscale>  0 0.12518407E+04</rscale>
<asrwt>0</asrwt>
<pdfrwt beam="1">  1        2 0.77135893E-01 0.12518407E+04</pdfrwt>
<pdfrwt beam="2">  1       -2 0.12021397E+00 0.12518407E+04</pdfrwt>
<totfact> 0.31900732E+01</totfact>
</mgrwt>
</event>
<event>
 6    1  0.1878398E-004  0.2216965E+04  0.7818608E-02  0.8511400E-01
         -2   -1    0    0    0  501 -0.00000000000E+00  0.00000000000E+00  0.60863234362E+03  0.60863234362E+03  0.00000000000E+00 0. -1.
          2   -1    0    0  501    0  0.00000000000E+00 -0.00000000000E+00 -0.20188431927E+04  0.20188431927E+04  0.00000000000E+00 0.  1.
         23    2    1    2    0    0  0.70962862271E+03  0.82758626725E+03 -0.93149727472E+03  0.14368292840E+04  0.91210781555E+02 0.  0.
         11    1    3    3    0    0  0.24293215151E+03  0.33263647055E+03 -0.39158885406E+03  0.56833518491E+03  0.00000000000E+00 0. -1.
        -11    1    3    3    0    0  0.46669647119E+03  0.49494979670E+03 -0.53990842067E+03  0.86849409911E+03  0.00000000000E+00 0.  1.
         22    1    1    2    0    0 -0.70962862271E+03 -0.82758626725E+03 -0.47871357438E+03  0.11906462523E+04  0.00000000000E+00 0.  1.
<mgrwt>
<rscale>  0 0.22169648E+04</rscale>
<asrwt>0</asrwt>
<pdfrwt beam="1">  1        2 0.31059125E+00 0.22169648E+04</pdfrwt>
<pdfrwt beam="2">  1       -2 0.93635747E-01 0.22169648E+04</pdfrwt>
<totfact> 0.57381621E+00</totfact>
</mgrwt>
</event>
<event>
 6    1  0.1878398E-004  0.1731283E+04  0.7818608E-02  0.8743721E-01
         -2   -1    0    0    0  501 -0.00000000000E+00  0.00000000000E+00  0.63702242611E+03  0.63702242611E+03  0.00000000000E+00 0. -1.
          2   -1    0    0  501    0  0.00000000000E+00 -0.00000000000E+00 -0.11763090617E+04  0.11763090617E+04  0.00000000000E+00 0.  1.
         23    2    1    2    0    0 -0.17819022192E+03  0.76402306275E+03 -0.64559637501E+03  0.10216340984E+04  0.10704464504E+03 0.  0.
         13    1    3    3    0    0 -0.14732573789E+03  0.39661663686E+03 -0.34436859775E+03  0.54552668202E+03  0.00000000000E+00 0.  1.
        -13    1    3    3    0    0 -0.30864484025E+02  0.36740642589E+03 -0.30122777725E+03  0.47610741640E+03  0.00000000000E+00 0. -1.
         22    1    1    2    0    0  0.17819022192E+03 -0.76402306275E+03  0.10630973945E+03  0.79169738935E+03  0.00000000000E+00 0. -1.
<mgrwt>
<rscale>  0 0.17312831E+04</rscale>
<asrwt>0</asrwt>
<pdfrwt beam="1">  1        2 0.18097062E+00 0.17312831E+04</pdfrwt>
<pdfrwt beam="2">  1       -2 0.98003452E-01 0.17312831E+04</pdfrwt>
<totfact> 0.16097257E+01</totfact>
</mgrwt>
</event>
<event>
 6    1  0.1878398E-004  0.1494165E+04  0.7818608E-02  0.8888343E-01
          1   -1    0    0  501    0  0.00000000000E+00  0.00000000000E+00  0.16053183008E+04  0.16053183008E+04  0.00000000000E+00 0.  1.
         -1   -1    0    0    0  501 -0.00000000000E+00 -0.00000000000E+00 -0.34767681394E+03  0.34767681394E+03  0.00000000000E+00 0. -1.
         23    2    1    2    0    0  0.13264059140E+03  0.72307237816E+03  0.47872317539E+03  0.88194846473E+03  0.90719486563E+02 0.  0.
         11    1    3    3    0    0  0.41004732653E+02  0.31044174745E+03  0.25423993632E+03  0.40335271398E+03  0.00000000000E+00 0. -1.
        -11    1    3    3    0    0  0.91635858745E+02  0.41263063071E+03  0.22448323907E+03  0.47859575075E+03  0.00000000000E+00 0.  1.
         22    1    1    2    0    0 -0.13264059140E+03 -0.72307237816E+03  0.77891831148E+03  0.10710466500E+04  0.00000000000E+00 0.  1.
<mgrwt>
<rscale>  0 0.14941646E+04</rscale>
<asrwt>0</asrwt>
<pdfrwt beam="1">  1        1 0.24697204E+00 0.14941646E+04</pdfrwt>
<pdfrwt beam="2">  1       -1 0.53488741E-01 0.14941646E+04</pdfrwt>
<totfact> 0.18884610E+01</totfact>
</mgrwt>
</event>
<event>
 6    1  0.1878398E-004  0.3126632E+04  0.7818608E-02  0.8208467E-01
         -2   -1    0    0    0  501 -0.00000000000E+00  0.00000000000E+00  0.12715430618E+04  0.12715430618E+04  0.00000000000E+00 0. -1.
          2   -1    0    0  501    0  0.00000000000E+00 -0.00000000000E+00 -0.19220404406E+04  0.19220404406E+04  0.00000000000E+00 0.  1.
         23    2    1    2    0    0  0.12979294348E+04 -0.84944853792E+03 -0.13831118268E+03  0.15600234833E+04  0.91431116225E+02 0.  0.
         13    1    3    3    0    0  0.33447163747E+03 -0.20183171150E+03  0.22621540784E+01  0.39065641346E+03  0.00000000000E+00 0.  1.
        -13    1    3    3    0    0  0.96345779734E+03 -0.64761682642E+03 -0.14057333675E+03  0.11693670699E+04  0.00000000000E+00 0. -1.
         22    1    1    2    0    0 -0.12979294348E+04  0.84944853792E+03 -0.51218619615E+03  0.16335600190E+04  0.00000000000E+00 0. -1.
<mgrwt>
<rscale>  0 0.31266322E+04</rscale>
<asrwt>0</asrwt>
<pdfrwt beam="1">  1        2 0.29569853E+00 0.31266322E+04</pdfrwt>
<pdfrwt beam="2">  1       -2 0.19562201E+00 0.31266322E+04</pdfrwt>
<totfact> 0.88915866E-01</totfact>
</mgrwt>
</event>
<event>
 6    1  0.1878398E-004  0.4423898E+04  0.7818608E-02  0.7924097E-01
          1   -1    0    0  501    0  0.00000000000E+00  0.00000000000E+00  0.34781778577E+04  0.34781778577E+04  0.00000000000E+00 0.  1.
         -1   -1    0    0    0  501 -0.00000000000E+00 -0.00000000000E+00 -0.14066903203E+04  0.14066903203E+04  0.00000000000E+00 0. -1.
         23    2    1    2    0    0 -0.17433952692E+03 -0.39521690957E+03  0.34305381872E+04  0.34588214239E+04  0.90899463734E+02 0.  0.
         13    1    3    3    0    0 -0.99881879789E+02 -0.16779627487E+03  0.12449054882E+04  0.12601276341E+04  0.00000000000E+00 0. -1.
        -13    1    3    3    0    0 -0.74457647133E+02 -0.22742063470E+03  0.21856326990E+04  0.21986937898E+04  0.00000000000E+00 0.  1.
         22    1    1    2    0    0  0.17433952692E+03  0.39521690957E+03 -0.13590506497E+04  0.14260467541E+04  0.00000000000E+00 0. -1.
<mgrwt>
<rscale>  0 0.44238983E+04</rscale>
<asrwt>0</asrwt>
<pdfrwt beam="1">  1        1 0.53510429E+00 0.44238983E+04</pdfrwt>
<pdfrwt beam="2">  1       -1 0.21641390E+00 0.44238983E+04</pdfrwt>
<totfact> 0.22836644E-02</totfact>
</mgrwt>
</event>
<event>
 6    1  0.1878398E-004  0.1834194E+04  0.7818608E-02  0.8688324E-01
          2   -1    0    0  501    0  0.00000000000E+00  0.00000000000E+00  0.24922861211E+04  0.24922861211E+04  0.00000000000E+00 0.  1.
         -2   -1    0    0    0  501 -0.00000000000E+00 -0.00000000000E+00 -0.33746818823E+03  0.33746818823E+03  0.00000000000E+00 0. -1.
         23    2    1    2    0    0  0.46954227549E+03 -0.41753478206E+03  0.55351941396E+02  0.63827930559E+03  0.97628847325E+02 0.  0.
         11    1    3    3    0    0  0.46455098657E+03 -0.38730163979E+03  0.57573527875E+02  0.60755649154E+03  0.00000000000E+00 0. -1.
        -11    1    3    3    0    0  0.49912889193E+01 -0.30233142265E+02 -0.22215864796E+01  0.30722814044E+02  0.00000000000E+00 0.  1.
         22    1    1    2    0    0 -0.46954227549E+03  0.41753478206E+03  0.20994659915E+04  0.21914750038E+04  0.00000000000E+00 0.  1.
<mgrwt>
<rscale>  0 0.18341944E+04</rscale>
<asrwt>0</asrwt>
<pdfrwt beam="1">  1        2 0.38342862E+00 0.18341944E+04</pdfrwt>
<pdfrwt beam="2">  1       -2 0.51918184E-01 0.18341944E+04</pdfrwt>
<totfact> 0.11611844E+01</totfact>
</mgrwt>
</event>
<event>
 6    1  0.1950623E-004  0.3046527E+04  0.7818608E-02  0.8230568E-01
         -1   -1    0    0    0  501 -0.00000000000E+00  0.00000000000E+00  0.18554359850E+04  0.18554359850E+04  0.00000000000E+00 0.  1.
          1   -1    0    0  501    0  0.00000000000E+00 -0.00000000000E+00 -0.12505588984E+04  0.12505588984E+04  0.00000000000E+00 0. -1.
         23    2    1    2    0    0  0.93467613457E+03 -0.11833595536E+04  0.51240898049E+03  0.15951971934E+04  0.90176566067E+02 0.  0.
         13    1    3    3    0    0  0.45853277830E+03 -0.52925289390E+03  0.27136439064E+03  0.75099904593E+03  0.00000000000E+00 0. -1.
        -13    1    3    3    0    0  0.47614335627E+03 -0.65410665966E+03  0.24104458986E+03  0.84419814749E+03  0.00000000000E+00 0.  1.
         22    1    1    2    0    0 -0.93467613457E+03  0.11833595536E+04  0.92468106127E+02  0.15107976900E+04  0.00000000000E+00 0. -1.
<mgrwt>
<rscale>  0 0.30465272E+04</rscale>
<asrwt>0</asrwt>
<pdfrwt beam="1">  1        1 0.19239368E+00 0.30465272E+04</pdfrwt>
<pdfrwt beam="2">  1       -1 0.28545169E+00 0.30465272E+04</pdfrwt>
<totfact> 0.34145178E-01</totfact>
</mgrwt>
</event>
<event>
 6    1  0.1878398E-004  0.2980479E+04  0.7818608E-02  0.8249327E-01
          1   -1    0    0  501    0  0.00000000000E+00  0.00000000000E+00  0.14273526112E+04  0.14273526112E+04  0.00000000000E+00 0.  1.
         -1   -1    0    0    0  501 -0.00000000000E+00 -0.00000000000E+00 -0.15558970522E+04  0.15558970522E+04  0.00000000000E+00 0. -1.
         23    2    1    2    0    0  0.67562513853E+02  0.52743452214E+03 -0.14561828900E+04  0.15530833375E+04  0.94060490023E+02 0.  0.
         13    1    3    3    0    0  0.22247283901E+01  0.32582046745E+03 -0.94999817652E+03  0.10043208958E+04  0.00000000000E+00 0. -1.
        -13    1    3    3    0    0  0.65337785463E+02  0.20161405470E+03 -0.50618471344E+03  0.54876244166E+03  0.00000000000E+00 0.  1.
         22    1    1    2    0    0 -0.67562513853E+02 -0.52743452214E+03  0.13276384490E+04  0.14301663258E+04  0.00000000000E+00 0.  1.
<mgrwt>
<rscale>  0 0.29804790E+04</rscale>
<asrwt>0</asrwt>
<pdfrwt beam="1">  1        1 0.21959271E+00 0.29804790E+04</pdfrwt>
<pdfrwt beam="2">  1       -1 0.23936878E+00 0.29804790E+04</pdfrwt>
<totfact> 0.51291594E-01</totfact>
</mgrwt>
</event>
<event>
 6    1  0.1878398E-004  0.2468804E+04  0.7818608E-02  0.8414184E-01
          1   -1    0    0  501    0  0.00000000000E+00  0.00000000000E+00  0.80497584775E+03  0.80497584775E+03  0.00000000000E+00 0.  1.
         -1   -1    0    0    0  501 -0.00000000000E+00 -0.00000000000E+00 -0.18929113263E+04  0.18929113263E+04  0.00000000000E+00 0. -1.
         23    2    1    2    0    0 -0.37737583215E+03  0.14952391407E+03  0.72851304554E+03  0.83663620756E+03  0.66775494862E+02 0.  0.
         11    1    3    3    0    0 -0.25005814136E+03  0.66236301647E+02  0.43753751430E+03  0.50828672827E+03  0.00000000000E+00 0.  1.
        -11    1    3    3    0    0 -0.12731769079E+03  0.83287612427E+02  0.29097553124E+03  0.32834947929E+03  0.00000000000E+00 0. -1.
         22    1    1    2    0    0  0.37737583215E+03 -0.14952391407E+03 -0.18164485241E+04  0.18612509665E+04  0.00000000000E+00 0. -1.
<mgrwt>
<rscale>  0 0.24688037E+04</rscale>
<asrwt>0</asrwt>
<pdfrwt beam="1">  1        1 0.12384244E+00 0.24688037E+04</pdfrwt>
<pdfrwt beam="2">  1       -1 0.29121712E+00 0.24688037E+04</pdfrwt>
<totfact> 0.73422059E-01</totfact>
</mgrwt>
</event>
<event>
 6    1  0.1878398E-004  0.3691263E+04  0.7818608E-02  0.8069901E-01
         -2   -1    0    0    0  501 -0.00000000000E+00  0.00000000000E+00  0.21766124063E+04  0.21766124063E+04  0.00000000000E+00 0. -1.
          2   -1    0    0  501    0  0.00000000000E+00 -0.00000000000E+00 -0.15649803964E+04  0.15649803964E+04  0.00000000000E+00 0.  1.
         23    2    1    2    0    0 -0.29259703543E+03 -0.81463868819E+03 -0.13449288892E+04  0.16021116111E+04  0.93159433428E+02 0.  0.
         13    1    3    3    0    0 -0.98656852354E+02 -0.23708987419E+03 -0.47645471741E+03  0.54125214153E+03  0.00000000000E+00 0. -1.
        -13    1    3    3    0    0 -0.19394018308E+03 -0.57754881400E+03 -0.86847417175E+03  0.10608594696E+04  0.00000000000E+00 0.  1.
         22    1    1    2    0    0  0.29259703543E+03  0.81463868819E+03  0.19565608991E+04  0.21394811916E+04  0.00000000000E+00 0. -1.
<mgrwt>
<rscale>  0 0.36912631E+04</rscale>
<asrwt>0</asrwt>
<pdfrwt beam="1">  1        2 0.24076621E+00 0.36912631E+04</pdfrwt>
<pdfrwt beam="2">  1       -2 0.33486345E+00 0.36912631E+04</pdfrwt>
<totfact> 0.18268997E-01</totfact>
</mgrwt>
</event>
<event>
 6    1  0.1878398E-004  0.4342015E+04  0.7818608E-02  0.7938894E-01
         -1   -1    0    0    0  501 -0.00000000000E+00  0.00000000000E+00  0.15535213021E+04  0.15535213021E+04  0.00000000000E+00 0. -1.
          1   -1    0    0  501    0  0.00000000000E+00 -0.00000000000E+00 -0.30339295290E+04  0.30339295290E+04  0.00000000000E+00 0.  1.
         23    2    1    2    0    0  0.15338329084E+04  0.99767103897E+03  0.49208898558E+03  0.18969608858E+04  0.91203834948E+02 0.  0.
         13    1    3    3    0    0  0.64467218652E+03  0.39804157241E+03  0.16111916628E+03  0.77459583473E+03  0.00000000000E+00 0. -1.
        -13    1    3    3    0    0  0.88916072189E+03  0.59962946656E+03  0.33096981929E+03  0.11223650510E+04  0.00000000000E+00 0.  1.
         22    1    1    2    0    0 -0.15338329084E+04 -0.99767103897E+03 -0.19724972124E+04  0.26904899453E+04  0.00000000000E+00 0.  1.
<mgrwt>
<rscale>  0 0.43420153E+04</rscale>
<asrwt>0</asrwt>
<pdfrwt beam="1">  1        1 0.46675838E+00 0.43420153E+04</pdfrwt>
<pdfrwt beam="2">  1       -1 0.23900328E+00 0.43420153E+04</pdfrwt>
<totfact> 0.35352004E-02</totfact>
</mgrwt>
</event>
<event>
 6    1  0.3738061E-004  0.3195603E+04  0.7818608E-02  0.8189979E-01
          2   -1    0    0  501    0  0.00000000000E+00  0.00000000000E+00  0.15898293945E+04  0.15898293945E+04  0.00000000000E+00 0.  1.
         -2   -1    0    0    0  501 -0.00000000000E+00 -0.00000000000E+00 -0.16058137610E+04  0.16058137610E+04  0.00000000000E+00 0. -1.
         23    2    1    2    0    0  0.75964750215E+03 -0.13847061319E+04 -0.24132566757E+03  0.16002579039E+04  0.90065985062E+02 0.  0.
         11    1    3    3    0    0  0.53989284425E+03 -0.97841986342E+03 -0.21195115712E+03  0.11374150542E+04  0.00000000000E+00 0. -1.
        -11    1    3    3    0    0  0.21975465791E+03 -0.40628626851E+03 -0.29374510453E+02  0.46284284970E+03  0.00000000000E+00 0.  1.
         22    1    1    2    0    0 -0.75964750215E+03  0.13847061319E+04  0.22534130106E+03  0.15953852517E+04  0.00000000000E+00 0.  1.
<mgrwt>
<rscale>  0 0.31956032E+04</rscale>
<asrwt>0</asrwt>
<pdfrwt beam="1">  1        2 0.24458914E+00 0.31956032E+04</pdfrwt>
<pdfrwt beam="2">  1       -2 0.24704827E+00 0.31956032E+04</pdfrwt>
<totfact> 0.63782962E-01</totfact>
</mgrwt>
</event>
<event>
 6    1  0.1878398E-004  0.3326364E+04  0.7818608E-02  0.8156219E-01
         -2   -1    0    0    0  501 -0.00000000000E+00  0.00000000000E+00  0.85511837561E+03  0.85511837561E+03  0.00000000000E+00 0. -1.
          2   -1    0    0  501    0  0.00000000000E+00 -0.00000000000E+00 -0.32348442944E+04  0.32348442944E+04  0.00000000000E+00 0.  1.
         23    2    1    2    0    0  0.28894050259E+03 -0.96226772612E+03 -0.28185135945E+04  0.29936139959E+04  0.90885000191E+02 0.  0.
         13    1    3    3    0    0  0.24687883866E+02 -0.20684409395E+03 -0.55872164413E+03  0.59629174607E+03  0.00000000000E+00 0.  1.
        -13    1    3    3    0    0  0.26425261872E+03 -0.75542363217E+03 -0.22597919504E+04  0.23973222498E+04  0.00000000000E+00 0. -1.
         22    1    1    2    0    0 -0.28894050259E+03  0.96226772612E+03  0.43878767575E+03  0.10963486741E+04  0.00000000000E+00 0. -1.
<mgrwt>
<rscale>  0 0.33263643E+04</rscale>
<asrwt>0</asrwt>
<pdfrwt beam="1">  1        2 0.49766835E+00 0.33263643E+04</pdfrwt>
<pdfrwt beam="2">  1       -2 0.13155667E+00 0.33263643E+04</pdfrwt>
<totfact> 0.43160892E-01</totfact>
</mgrwt>
</event>
<event>
 6    1  0.1878398E-004  0.4587065E+04  0.7818608E-02  0.7895569E-01
         -2   -1    0    0    0  501 -0.00000000000E+00  0.00000000000E+00  0.17284202571E+04  0.17284202571E+04  0.00000000000E+00 0. -1.
          2   -1    0    0  501    0  0.00000000000E+00 -0.00000000000E+00 -0.30434102436E+04  0.30434102436E+04  0.00000000000E+00 0.  1.
         23    2    1    2    0    0 -0.10089152241E+04  0.20244852106E+04 -0.10466897364E+04  0.24940167854E+04  0.90055674233E+02 0.  0.
         11    1    3    3    0    0 -0.77044083650E+03  0.16259138654E+04 -0.83969023553E+03  0.19855111866E+04  0.00000000000E+00 0.  1.
        -11    1    3    3    0    0 -0.23847438761E+03  0.39857134516E+03 -0.20699950084E+03  0.50850559886E+03  0.00000000000E+00 0. -1.
         22    1    1    2    0    0  0.10089152241E+04 -0.20244852106E+04 -0.26830025020E+03  0.22778137153E+04  0.00000000000E+00 0.  1.
<mgrwt>
<rscale>  0 0.45870653E+04</rscale>
<asrwt>0</asrwt>
<pdfrwt beam="1">  1        2 0.46821696E+00 0.45870653E+04</pdfrwt>
<pdfrwt beam="2">  1       -2 0.26591081E+00 0.45870653E+04</pdfrwt>
<totfact> 0.63112071E-02</totfact>
</mgrwt>
</event>
<event>
 6    1  0.1878398E-004  0.2326961E+04  0.7818608E-02  0.8467366E-01
         -1   -1    0    0    0  501 -0.00000000000E+00  0.00000000000E+00  0.21920577709E+04  0.21920577709E+04  0.00000000000E+00 0. -1.
          1   -1    0    0  501    0  0.00000000000E+00 -0.00000000000E+00 -0.61754183447E+03  0.61754183447E+03  0.00000000000E+00 0.  1.
         23    2    1    2    0    0  0.70630290914E+02  0.63378201363E+03  0.19608489947E+04  0.20639981631E+04  0.92148566490E+02 0.  0.
         11    1    3    3    0    0  0.80810721707E+02  0.41870210093E+03  0.13875161562E+04  0.14515656740E+04  0.00000000000E+00 0. -1.
        -11    1    3    3    0    0 -0.10180430793E+02  0.21507991270E+03  0.57333283846E+03  0.61243248907E+03  0.00000000000E+00 0.  1.
         22    1    1    2    0    0 -0.70630290914E+02 -0.63378201363E+03 -0.38633305830E+03  0.74560144228E+03  0.00000000000E+00 0.  1.
<mgrwt>
<rscale>  0 0.23269614E+04</rscale>
<asrwt>0</asrwt>
<pdfrwt beam="1">  1        1 0.95006437E-01 0.23269614E+04</pdfrwt>
<pdfrwt beam="2">  1       -1 0.33723965E+00 0.23269614E+04</pdfrwt>
<totfact> 0.55910275E-01</totfact>
</mgrwt>
</event>
<event>
 6    1  0.1878398E-004  0.2303251E+04  0.7818608E-02  0.8476640E-01
         -2   -1    0    0    0  501 -0.00000000000E+00  0.00000000000E+00  0.11616464538E+04  0.11616464538E+04  0.00000000000E+00 0. -1.
          2   -1    0    0  501    0  0.00000000000E+00 -0.00000000000E+00 -0.11416909995E+04  0.11416909995E+04  0.00000000000E+00 0.  1.
         23    2    1    2    0    0  0.50387412010E+03  0.92047543055E+03  0.47994556895E+03  0.11575822209E+04  0.92112441008E+02 0.  0.
         11    1    3    3    0    0  0.16056573677E+03  0.28257376873E+03  0.10284030306E+03  0.34088915872E+03  0.00000000000E+00 0.  1.
        -11    1    3    3    0    0  0.34330838333E+03  0.63790166182E+03  0.37710526589E+03  0.81669306216E+03  0.00000000000E+00 0. -1.
         22    1    1    2    0    0 -0.50387412010E+03 -0.92047543055E+03 -0.45999011467E+03  0.11457552325E+04  0.00000000000E+00 0.  1.
<mgrwt>
<rscale>  0 0.23032510E+04</rscale>
<asrwt>0</asrwt>
<pdfrwt beam="1">  1        2 0.17564477E+00 0.23032510E+04</pdfrwt>
<pdfrwt beam="2">  1       -2 0.17871484E+00 0.23032510E+04</pdfrwt>
<totfact> 0.34455556E+00</totfact>
</mgrwt>
</event>
<event>
 6    1  0.1878398E-004  0.2087441E+04  0.7818608E-02  0.8566796E-01
         -2   -1    0    0    0  501 -0.00000000000E+00  0.00000000000E+00  0.33378825441E+03  0.33378825441E+03  0.00000000000E+00 0. -1.
          2   -1    0    0  501    0  0.00000000000E+00 -0.00000000000E+00 -0.32636046950E+04  0.32636046950E+04  0.00000000000E+00 0.  1.
         23    2    1    2    0    0  0.25486043963E+03 -0.55961258260E+03 -0.29168471561E+04  0.29823414974E+04  0.90793107743E+02 0.  0.
         13    1    3    3    0    0  0.76518978585E+02 -0.14973774795E+03 -0.61973125064E+03  0.64213968127E+03  0.00000000000E+00 0. -1.
        -13    1    3    3    0    0  0.17834146104E+03 -0.40987483465E+03 -0.22971159055E+04  0.23402018161E+04  0.00000000000E+00 0.  1.
         22    1    1    2    0    0 -0.25486043963E+03  0.55961258260E+03 -0.12969284453E+02  0.61505145202E+03  0.00000000000E+00 0. -1.
<mgrwt>
<rscale>  0 0.20874414E+04</rscale>
<asrwt>0</asrwt>
<pdfrwt beam="1">  1        2 0.50209304E+00 0.20874414E+04</pdfrwt>
<pdfrwt beam="2">  1       -2 0.51352038E-01 0.20874414E+04</pdfrwt>
<totfact> 0.39049234E+00</totfact>
</mgrwt>
</event>
<event>
 6    1  0.1878398E-004  0.3173012E+04  0.7818608E-02  0.8195981E-01
         -1   -1    0    0    0  501 -0.00000000000E+00  0.00000000000E+00  0.15808070563E+04  0.15808070563E+04  0.00000000000E+00 0.  1.
          1   -1    0    0  501    0  0.00000000000E+00 -0.00000000000E+00 -0.15922259140E+04  0.15922259140E+04  0.00000000000E+00 0. -1.
         23    2    1    2    0    0  0.26299184737E+02 -0.59318679660E+03 -0.14754662748E+04  0.15931604873E+04  0.92722097589E+02 0.  0.
         13    1    3    3    0    0 -0.26710357944E+02 -0.14344031759E+03 -0.42084523311E+03  0.44542033874E+03  0.00000000000E+00 0. -1.
        -13    1    3    3    0    0  0.53009542681E+02 -0.44974647901E+03 -0.10546210417E+04  0.11477401486E+04  0.00000000000E+00 0.  1.
         22    1    1    2    0    0 -0.26299184737E+02  0.59318679660E+03  0.14640474172E+04  0.15798724830E+04  0.00000000000E+00 0.  1.
<mgrwt>
<rscale>  0 0.31730124E+04</rscale>
<asrwt>0</asrwt>
<pdfrwt beam="1">  1        1 0.24495783E+00 0.31730124E+04</pdfrwt>
<pdfrwt beam="2">  1       -1 0.24320108E+00 0.31730124E+04</pdfrwt>
<totfact> 0.36593563E-01</totfact>
</mgrwt>
</event>
<event>
 6    1  0.1878398E-004  0.1960623E+04  0.7818608E-02  0.8625255E-01
          2   -1    0    0  501    0  0.00000000000E+00  0.00000000000E+00  0.11326067745E+04  0.11326067745E+04  0.00000000000E+00 0.  1.
         -2   -1    0    0    0  501 -0.00000000000E+00 -0.00000000000E+00 -0.84849409446E+03  0.84849409446E+03  0.00000000000E+00 0. -1.
         23    2    1    2    0    0 -0.37207057580E+03 -0.22550836253E+03 -0.74281067484E+03  0.86581520522E+03  0.92616067696E+02 0.  0.
         11    1    3    3    0    0 -0.18047248266E+03 -0.15933479441E+03 -0.43696590359E+03  0.49889587552E+03  0.00000000000E+00 0. -1.
        -11    1    3    3    0    0 -0.19159809314E+03 -0.66173568119E+02 -0.30584477124E+03  0.36691932970E+03  0.00000000000E+00 0.  1.
         22    1    1    2    0    0  0.37207057580E+03  0.22550836253E+03  0.10269233549E+04  0.11152856638E+04  0.00000000000E+00 0.  1.
<mgrwt>
<rscale>  0 0.19606225E+04</rscale>
<asrwt>0</asrwt>
<pdfrwt beam="1">  1        2 0.17424720E+00 0.19606225E+04</pdfrwt>
<pdfrwt beam="2">  1       -2 0.13053755E+00 0.19606225E+04</pdfrwt>
<totfact> 0.83341210E+00</totfact>
</mgrwt>
</event>
<event>
 6    1  0.1878398E-004  0.1193694E+04  0.7818608E-02  0.9118395E-01
          2   -1    0    0  501    0  0.00000000000E+00  0.00000000000E+00  0.13167435160E+04  0.13167435160E+04  0.00000000000E+00 0.  1.
         -2   -1    0    0    0  501 -0.00000000000E+00 -0.00000000000E+00 -0.27053563889E+03  0.27053563889E+03  0.00000000000E+00 0. -1.
         23    2    1    2    0    0 -0.44224759474E+03 -0.39038114268E+03  0.61438799701E+03  0.85621911601E+03  0.87511097207E+02 0.  0.
         11    1    3    3    0    0 -0.30514701425E+03 -0.31373740280E+03  0.42346612139E+03  0.60899048776E+03  0.00000000000E+00 0. -1.
        -11    1    3    3    0    0 -0.13710058049E+03 -0.76643739881E+02  0.19092187562E+03  0.24722862825E+03  0.00000000000E+00 0.  1.
         22    1    1    2    0    0  0.44224759474E+03  0.39038114268E+03  0.43181988012E+03  0.73106003890E+03  0.00000000000E+00 0.  1.
<mgrwt>
<rscale>  0 0.11936935E+04</rscale>
<asrwt>0</asrwt>
<pdfrwt beam="1">  1        2 0.20257592E+00 0.11936935E+04</pdfrwt>
<pdfrwt beam="2">  1       -2 0.41620868E-01 0.11936935E+04</pdfrwt>
<totfact> 0.87223195E+01</totfact>
</mgrwt>
</event>
<event>
 6    1  0.1878398E-004  0.1026131E+04  0.7818608E-02  0.9280340E-01
          1   -1    0    0  501    0  0.00000000000E+00  0.00000000000E+00  0.13786972192E+04  0.13786972192E+04  0.00000000000E+00 0.  1.
         -1   -1    0    0    0  501 -0.00000000000E+00 -0.00000000000E+00 -0.19093119411E+03  0.19093119411E+03  0.00000000000E+00 0. -1.
         23    2    1    2    0    0  0.26943993258E+03 -0.97853823626E+02  0.12418583159E+04  0.12779107005E+04  0.93115162887E+02 0.  0.
         11    1    3    3    0    0  0.57098891473E+02 -0.12059134570E+02  0.44450009549E+03  0.44831466742E+03  0.00000000000E+00 0. -1.
        -11    1    3    3    0    0  0.21234104111E+03 -0.85794689056E+02  0.79735822039E+03  0.82959603304E+03  0.00000000000E+00 0.  1.
         22    1    1    2    0    0 -0.26943993258E+03  0.97853823626E+02 -0.54092290800E+02  0.29171771285E+03  0.00000000000E+00 0. -1.
<mgrwt>
<rscale>  0 0.10261312E+04</rscale>
<asrwt>0</asrwt>
<pdfrwt beam="1">  1        1 0.21210726E+00 0.10261312E+04</pdfrwt>
<pdfrwt beam="2">  1       -1 0.29374031E-01 0.10261312E+04</pdfrwt>
<totfact> 0.84249135E+01</totfact>
</mgrwt>
</event>
<event>
 6    1  0.1878398E-004  0.4308095E+04  0.7818608E-02  0.7945123E-01
         -2   -1    0    0    0  501 -0.00000000000E+00  0.00000000000E+00  0.12302695838E+04  0.12302695838E+04  0.00000000000E+00 0. -1.
          2   -1    0    0  501    0  0.00000000000E+00 -0.00000000000E+00 -0.37714672718E+04  0.37714672718E+04  0.00000000000E+00 0.  1.
         23    2    1    2    0    0 -0.16627396412E+04  0.71470314730E+03  0.81705566776E+02  0.18150261397E+04  0.11018341589E+03 0.  0.
         13    1    3    3    0    0 -0.12692139834E+04  0.52251552113E+03  0.19644645388E+02  0.13727026327E+04  0.00000000000E+00 0. -1.
        -13    1    3    3    0    0 -0.39352565774E+03  0.19218762617E+03  0.62060921388E+02  0.44232350708E+03  0.00000000000E+00 0.  1.
         22    1    1    2    0    0  0.16627396412E+04 -0.71470314730E+03 -0.26229032547E+04  0.31867107159E+04  0.00000000000E+00 0.  1.
<mgrwt>
<rscale>  0 0.43080954E+04</rscale>
<asrwt>0</asrwt>
<pdfrwt beam="1">  1        2 0.58022573E+00 0.43080954E+04</pdfrwt>
<pdfrwt beam="2">  1       -2 0.18927225E+00 0.43080954E+04</pdfrwt>
<totfact> 0.62086673E-02</totfact>
</mgrwt>
</event>
<event>
 6    1  0.1878398E-004  0.2558793E+04  0.7818608E-02  0.8382334E-01
         -1   -1    0    0    0  501 -0.00000000000E+00  0.00000000000E+00  0.16023928945E+04  0.16023928945E+04  0.00000000000E+00 0.  1.
          1   -1    0    0  501    0  0.00000000000E+00 -0.00000000000E+00 -0.10215070980E+04  0.10215070980E+04  0.00000000000E+00 0. -1.
         23    2    1    2    0    0  0.10162978821E+04 -0.28527450591E+03  0.10290972145E+04  0.14771060249E+04  0.92510556229E+02 0.  0.
         11    1    3    3    0    0  0.65450329236E+03 -0.16221395213E+03  0.60114856385E+03  0.90336455642E+03  0.00000000000E+00 0. -1.
        -11    1    3    3    0    0  0.36179458977E+03 -0.12306055378E+03  0.42794865062E+03  0.57374146848E+03  0.00000000000E+00 0.  1.
         22    1    1    2    0    0 -0.10162978821E+04  0.28527450591E+03 -0.44821141802E+03  0.11467939676E+04  0.00000000000E+00 0. -1.
<mgrwt>
<rscale>  0 0.25587932E+04</rscale>
<asrwt>0</asrwt>
<pdfrwt beam="1">  1        1 0.15715494E+00 0.25587932E+04</pdfrwt>
<pdfrwt beam="2">  1       -1 0.24652198E+00 0.25587932E+04</pdfrwt>
<totfact> 0.94534540E-01</totfact>
</mgrwt>
</event>
<event>
 6    1  0.1878398E-004  0.1943141E+04  0.7818608E-02  0.8633675E-01
         -2   -1    0    0    0  501 -0.00000000000E+00  0.00000000000E+00  0.57811334136E+03  0.57811334136E+03  0.00000000000E+00 0. -1.
          2   -1    0    0  501    0  0.00000000000E+00 -0.00000000000E+00 -0.16328097489E+04  0.16328097489E+04  0.00000000000E+00 0.  1.
         23    2    1    2    0    0 -0.46576983605E+03  0.22263925623E+03 -0.14617718367E+04  0.15534885433E+04  0.10019966466E+03 0.  0.
         13    1    3    3    0    0 -0.18231921311E+03  0.96951365817E+02 -0.73221216946E+03  0.76077232068E+03  0.00000000000E+00 0.  1.
        -13    1    3    3    0    0 -0.28345062294E+03  0.12568789042E+03 -0.72955966729E+03  0.79271622260E+03  0.00000000000E+00 0. -1.
         22    1    1    2    0    0  0.46576983605E+03 -0.22263925623E+03  0.40707542917E+03  0.65743454702E+03  0.00000000000E+00 0. -1.
<mgrwt>
<rscale>  0 0.19431409E+04</rscale>
<asrwt>0</asrwt>
<pdfrwt beam="1">  1        2 0.25120150E+00 0.19431409E+04</pdfrwt>
<pdfrwt beam="2">  1       -2 0.88940514E-01 0.19431409E+04</pdfrwt>
<totfact> 0.10836637E+01</totfact>
</mgrwt>
</event>
<event>
 6    1  0.1878398E-004  0.1649374E+04  0.7818608E-02  0.8790777E-01
          1   -1    0    0  501    0  0.00000000000E+00  0.00000000000E+00  0.27315186556E+04  0.27315186556E+04  0.00000000000E+00 0.  1.
         -1   -1    0    0    0  501 -0.00000000000E+00 -0.00000000000E+00 -0.24898559624E+03  0.24898559624E+03  0.00000000000E+00 0. -1.
         23    2    1    2    0    0 -0.23043283340E+03  0.11083017142E+03  0.26570835487E+04  0.26709069474E+04  0.90930299586E+02 0.  0.
         13    1    3    3    0    0 -0.60692209300E+02  0.71440177984E+02  0.11404567764E+04  0.11443028017E+04  0.00000000000E+00 0.  1.
        -13    1    3    3    0    0 -0.16974062410E+03  0.39389993435E+02  0.15166267723E+04  0.15266041457E+04  0.00000000000E+00 0. -1.
         22    1    1    2    0    0  0.23043283340E+03 -0.11083017142E+03 -0.17455048931E+03  0.30959730445E+03  0.00000000000E+00 0. -1.
<mgrwt>
<rscale>  0 0.16493742E+04</rscale>
<asrwt>0</asrwt>
<pdfrwt beam="1">  1        1 0.42023362E+00 0.16493742E+04</pdfrwt>
<pdfrwt beam="2">  1       -1 0.38305478E-01 0.16493742E+04</pdfrwt>
<totfact> 0.58896367E+00</totfact>
</mgrwt>
</event>
<event>
 6    1  0.1878398E-004  0.3081885E+04  0.7818608E-02  0.8220727E-01
         -1   -1    0    0    0  501 -0.00000000000E+00  0.00000000000E+00  0.15955382793E+04  0.15955382793E+04  0.00000000000E+00 0. -1.
          1   -1    0    0  501    0  0.00000000000E+00 -0.00000000000E+00 -0.14882152822E+04  0.14882152822E+04  0.00000000000E+00 0.  1.
         23    2    1    2    0    0 -0.11997005502E+04 -0.77056026873E+03 -0.52753955790E+03  0.15229540864E+04  0.89702990098E+02 0.  0.
         11    1    3    3    0    0 -0.61514153893E+03 -0.37270824506E+03 -0.22262118580E+03  0.75290818911E+03  0.00000000000E+00 0.  1.
        -11    1    3    3    0    0 -0.58455901122E+03 -0.39785202367E+03 -0.30491837210E+03  0.77004589732E+03  0.00000000000E+00 0. -1.
         22    1    1    2    0    0  0.11997005502E+04  0.77056026873E+03  0.63486255498E+03  0.15607994751E+04  0.00000000000E+00 0. -1.
<mgrwt>
<rscale>  0 0.30818854E+04</rscale>
<asrwt>0</asrwt>
<pdfrwt beam="1">  1        1 0.22895620E+00 0.30818854E+04</pdfrwt>
<pdfrwt beam="2">  1       -1 0.24546743E+00 0.30818854E+04</pdfrwt>
<totfact> 0.42054019E-01</totfact>
</mgrwt>
</event>
<event>
 6    1  0.1878398E-004  0.5599397E+04  0.7818608E-02  0.7742158E-01
          2   -1    0    0  501    0  0.00000000000E+00  0.00000000000E+00  0.41239495368E+04  0.41239495368E+04  0.00000000000E+00 0.  1.
         -2   -1    0    0    0  501 -0.00000000000E+00 -0.00000000000E+00 -0.19006805580E+04  0.19006805580E+04  0.00000000000E+00 0. -1.
         23    2    1    2    0    0 -0.10514423868E+04  0.18143686621E+04  0.31061066765E+04  0.37493571145E+04  0.11097455326E+03 0.  0.
         13    1    3    3    0    0 -0.88135122816E+03  0.14768800929E+04  0.26097151828E+04  0.31254708656E+04  0.00000000000E+00 0.  1.
        -13    1    3    3    0    0 -0.17009115860E+03  0.33748856916E+03  0.49639149370E+03  0.62388624890E+03  0.00000000000E+00 0. -1.
         22    1    1    2    0    0  0.10514423868E+04 -0.18143686621E+04 -0.88283769763E+03  0.22752729803E+04  0.00000000000E+00 0. -1.
<mgrwt>
<rscale>  0 0.55993966E+04</rscale>
<asrwt>0</asrwt>
<pdfrwt beam="1">  1        2 0.63445377E+00 0.55993966E+04</pdfrwt>
<pdfrwt beam="2">  1       -2 0.29241239E+00 0.55993966E+04</pdfrwt>
<totfact> 0.65928709E-03</totfact>
</mgrwt>
</event>
<event>
 6    1  0.1878398E-004  0.1839334E+04  0.7818608E-02  0.8685657E-01
          2   -1    0    0  501    0  0.00000000000E+00  0.00000000000E+00  0.13986784780E+04  0.13986784780E+04  0.00000000000E+00 0.  1.
         -2   -1    0    0    0  501 -0.00000000000E+00 -0.00000000000E+00 -0.60470473358E+03  0.60470473358E+03  0.00000000000E+00 0. -1.
         23    2    1    2    0    0 -0.50217955755E+03  0.27722734496E+03 -0.38180454306E+03  0.69514245006E+03  0.91700643199E+02 0.  0.
         11    1    3    3    0    0 -0.26290545309E+03  0.10272102797E+03 -0.15419927900E+03  0.32163380496E+03  0.00000000000E+00 0. -1.
        -11    1    3    3    0    0 -0.23927410446E+03  0.17450631699E+03 -0.22760526406E+03  0.37350864510E+03  0.00000000000E+00 0.  1.
         22    1    1    2    0    0  0.50217955755E+03 -0.27722734496E+03  0.11757782875E+04  0.13082407615E+04  0.00000000000E+00 0.  1.
<mgrwt>
<rscale>  0 0.18393341E+04</rscale>
<asrwt>0</asrwt>
<pdfrwt beam="1">  1        2 0.21518130E+00 0.18393341E+04</pdfrwt>
<pdfrwt beam="2">  1       -2 0.93031498E-01 0.18393341E+04</pdfrwt>
<totfact> 0.13352607E+01</totfact>
</mgrwt>
</event>
<event>
 6    1  0.1878398E-004  0.1580066E+04  0.7818608E-02  0.8832889E-01
         -2   -1    0    0    0  501 -0.00000000000E+00  0.00000000000E+00  0.29621022161E+03  0.29621022161E+03  0.00000000000E+00 0.  1.
          2   -1    0    0  501    0  0.00000000000E+00 -0.00000000000E+00 -0.21071255765E+04  0.21071255765E+04  0.00000000000E+00 0. -1.
         23    2    1    2    0    0  0.71964370244E+03  0.31419282508E+02 -0.13921085033E+04  0.15701050925E+04  0.91595233869E+02 0.  0.
         11    1    3    3    0    0  0.44425109326E+03  0.49661969296E+02 -0.78869465127E+03  0.90656748121E+03  0.00000000000E+00 0. -1.
        -11    1    3    3    0    0  0.27539260918E+03 -0.18242686788E+02 -0.60341385203E+03  0.66353761132E+03  0.00000000000E+00 0.  1.
         22    1    1    2    0    0 -0.71964370244E+03 -0.31419282508E+02 -0.41880685160E+03  0.83323070558E+03  0.00000000000E+00 0. -1.
<mgrwt>
<rscale>  0 0.15800660E+04</rscale>
<asrwt>0</asrwt>
<pdfrwt beam="1">  1        2 0.32417317E+00 0.15800660E+04</pdfrwt>
<pdfrwt beam="2">  1       -2 0.45570803E-01 0.15800660E+04</pdfrwt>
<totfact> 0.25546068E+01</totfact>
</mgrwt>
</event>
<event>
 6    1  0.1878398E-004  0.3080619E+04  0.7818608E-02  0.8221077E-01
         -1   -1    0    0    0  501 -0.00000000000E+00  0.00000000000E+00  0.87248761100E+03  0.87248761100E+03  0.00000000000E+00 0.  1.
          1   -1    0    0  501    0  0.00000000000E+00 -0.00000000000E+00 -0.27192973159E+04  0.27192973159E+04  0.00000000000E+00 0. -1.
         23    2    1    2    0    0 -0.70986813844E+03  0.96039070635E+03  0.20758284712E+03  0.12154869993E+04  0.89749230177E+02 0.  0.
         11    1    3    3    0    0 -0.21549988447E+03  0.33068426320E+03  0.32931769868E+02  0.39607673954E+03  0.00000000000E+00 0. -1.
        -11    1    3    3    0    0 -0.49436825397E+03  0.62970644315E+03  0.17465107725E+03  0.81941025980E+03  0.00000000000E+00 0.  1.
         22    1    1    2    0    0  0.70986813844E+03 -0.96039070635E+03 -0.20543925521E+04  0.23762979276E+04  0.00000000000E+00 0. -1.
<mgrwt>
<rscale>  0 0.30806189E+04</rscale>
<asrwt>0</asrwt>
<pdfrwt beam="1">  1        1 0.41835341E+00 0.30806189E+04</pdfrwt>
<pdfrwt beam="2">  1       -1 0.13422887E+00 0.30806189E+04</pdfrwt>
<totfact> 0.37554526E-01</totfact>
</mgrwt>
</event>
<event>
 6    1  0.2263721E-004  0.2915974E+04  0.7818608E-02  0.8268140E-01
          2   -1    0    0  501    0  0.00000000000E+00  0.00000000000E+00  0.27670889131E+04  0.27670889131E+04  0.00000000000E+00 0. -1.
         -2   -1    0    0    0  501 -0.00000000000E+00 -0.00000000000E+00 -0.76821769053E+03  0.76821769053E+03  0.00000000000E+00 0.  1.
         23    2    1    2    0    0 -0.65306805258E+03 -0.57703143799E+03 -0.41464130145E+03  0.96927740167E+03  0.90045048622E+02 0.  0.
         11    1    3    3    0    0 -0.23475009159E+03 -0.21701710507E+03 -0.20001783922E+03  0.37710895693E+03  0.00000000000E+00 0. -1.
        -11    1    3    3    0    0 -0.41831796099E+03 -0.36001433293E+03 -0.21462346223E+03  0.59216844474E+03  0.00000000000E+00 0.  1.
         22    1    1    2    0    0  0.65306805258E+03  0.57703143799E+03  0.24135125240E+04  0.25660292020E+04  0.00000000000E+00 0. -1.
<mgrwt>
<rscale>  0 0.29159744E+04</rscale>
<asrwt>0</asrwt>
<pdfrwt beam="1">  1        2 0.42570598E+00 0.29159744E+04</pdfrwt>
<pdfrwt beam="2">  1       -2 0.11818734E+00 0.29159744E+04</pdfrwt>
<totfact> 0.11501210E+00</totfact>
</mgrwt>
</event>
<event>
 6    1  0.1878398E-004  0.5408471E+04  0.7818608E-02  0.7768411E-01
          2   -1    0    0  501    0  0.00000000000E+00  0.00000000000E+00  0.45822722982E+04  0.45822722982E+04  0.00000000000E+00 0.  1.
         -2   -1    0    0    0  501 -0.00000000000E+00 -0.00000000000E+00 -0.15959092806E+04  0.15959092806E+04  0.00000000000E+00 0. -1.
         23    2    1    2    0    0  0.66438929096E+02 -0.25726845091E+04  0.24395534973E+04  0.35471893009E+04  0.89503939909E+02 0.  0.
         11    1    3    3    0    0  0.27197606197E+02 -0.19157382037E+03  0.19418502506E+03  0.27413146918E+03  0.00000000000E+00 0. -1.
        -11    1    3    3    0    0  0.39241322899E+02 -0.23811106888E+04  0.22453684723E+04  0.32730578317E+04  0.00000000000E+00 0.  1.
         22    1    1    2    0    0 -0.66438929096E+02  0.25726845091E+04  0.54680952023E+03  0.26309922779E+04  0.00000000000E+00 0. -1.
<mgrwt>
<rscale>  0 0.54084715E+04</rscale>
<asrwt>0</asrwt>
<pdfrwt beam="1">  1        2 0.70496496E+00 0.54084715E+04</pdfrwt>
<pdfrwt beam="2">  1       -2 0.24552451E+00 0.54084715E+04</pdfrwt>
<totfact> 0.48596531E-03</totfact>
</mgrwt>
</event>
<event>
 6    1  0.1878398E-004  0.2034218E+04  0.7818608E-02  0.8590788E-01
          2   -1    0    0  501    0  0.00000000000E+00  0.00000000000E+00  0.11231343901E+04  0.11231343901E+04  0.00000000000E+00 0.  1.
         -2   -1    0    0    0  501 -0.00000000000E+00 -0.00000000000E+00 -0.92109284140E+03  0.92109284140E+03  0.00000000000E+00 0. -1.
         23    2    1    2    0    0  0.49524711798E+03 -0.73809819062E+03  0.59392131379E+03  0.10728218593E+04  0.90252799899E+02 0.  0.
         13    1    3    3    0    0  0.40533480909E+03 -0.64540444311E+03  0.53312822209E+03  0.93009080408E+03  0.00000000000E+00 0. -1.
        -13    1    3    3    0    0  0.89912308884E+02 -0.92693747507E+02  0.60793091700E+02  0.14273105519E+03  0.00000000000E+00 0.  1.
         22    1    1    2    0    0 -0.49524711798E+03  0.73809819062E+03 -0.39187976511E+03  0.97140537221E+03  0.00000000000E+00 0. -1.
<mgrwt>
<rscale>  0 0.20342183E+04</rscale>
<asrwt>0</asrwt>
<pdfrwt beam="1">  1        2 0.17278991E+00 0.20342183E+04</pdfrwt>
<pdfrwt beam="2">  1       -2 0.14170659E+00 0.20342183E+04</pdfrwt>
<totfact> 0.67980352E+00</totfact>
</mgrwt>
</event>
<event>
 6    1  0.1878398E-004  0.3724000E+04  0.7818608E-02  0.8062664E-01
         -2   -1    0    0    0  501 -0.00000000000E+00  0.00000000000E+00  0.23940358799E+04  0.23940358799E+04  0.00000000000E+00 0. -1.
          2   -1    0    0  501    0  0.00000000000E+00 -0.00000000000E+00 -0.14482008862E+04  0.14482008862E+04  0.00000000000E+00 0.  1.
         23    2    1    2    0    0 -0.39103218362E+03  0.17702726979E+04  0.40535346228E+02  0.18158263819E+04  0.93865548434E+02 0.  0.
         13    1    3    3    0    0 -0.30365517696E+02  0.27059466199E+03  0.23354220456E+02  0.27329280154E+03  0.00000000000E+00 0. -1.
        -13    1    3    3    0    0 -0.36066666593E+03  0.14996780359E+04  0.17181125772E+02  0.15425335803E+04  0.00000000000E+00 0.  1.
         22    1    1    2    0    0  0.39103218362E+03 -0.17702726979E+04  0.90529964744E+03  0.20264103842E+04  0.00000000000E+00 0. -1.
<mgrwt>
<rscale>  0 0.37240005E+04</rscale>
<asrwt>0</asrwt>
<pdfrwt beam="1">  1        2 0.22280014E+00 0.37240005E+04</pdfrwt>
<pdfrwt beam="2">  1       -2 0.36831321E+00 0.37240005E+04</pdfrwt>
<totfact> 0.13035836E-01</totfact>
</mgrwt>
</event>
<event>
 6    1  0.1878398E-004  0.3294938E+04  0.7818608E-02  0.8164185E-01
          2   -1    0    0  501    0  0.00000000000E+00  0.00000000000E+00  0.21050968175E+04  0.21050968175E+04  0.00000000000E+00 0.  1.
         -2   -1    0    0    0  501 -0.00000000000E+00 -0.00000000000E+00 -0.12893252723E+04  0.12893252723E+04  0.00000000000E+00 0. -1.
         23    2    1    2    0    0  0.57530943975E+02 -0.15801483399E+04 -0.63755165601E+02  0.15850725325E+04  0.90618026107E+02 0.  0.
         13    1    3    3    0    0  0.59670260061E+02 -0.12693578993E+04 -0.17714615594E+02  0.12708830882E+04  0.00000000000E+00 0.  1.
        -13    1    3    3    0    0 -0.21393160859E+01 -0.31079044059E+03 -0.46040550007E+02  0.31418944426E+03  0.00000000000E+00 0. -1.
         22    1    1    2    0    0 -0.57530943975E+02  0.15801483399E+04  0.87952671086E+03  0.18093495573E+04  0.00000000000E+00 0. -1.
<mgrwt>
<rscale>  0 0.32949383E+04</rscale>
<asrwt>0</asrwt>
<pdfrwt beam="1">  1        2 0.32386105E+00 0.32949383E+04</pdfrwt>
<pdfrwt beam="2">  1       -2 0.19835773E+00 0.32949383E+04</pdfrwt>
<totfact> 0.66509059E-01</totfact>
</mgrwt>
</event>
<event>
 6    1  0.1878398E-004  0.1524442E+04  0.7818608E-02  0.8868360E-01
         -2   -1    0    0    0  501 -0.00000000000E+00  0.00000000000E+00  0.95452569342E+03  0.95452569342E+03  0.00000000000E+00 0. -1.
          2   -1    0    0  501    0  0.00000000000E+00 -0.00000000000E+00 -0.60865944409E+03  0.60865944409E+03  0.00000000000E+00 0.  1.
         23    2    1    2    0    0  0.46530849622E+03  0.70904040938E+02  0.78441310303E+03  0.91986350523E+03  0.96465394721E+02 0.  0.
         13    1    3    3    0    0  0.24382240985E+03  0.11383565306E+01  0.33934350044E+03  0.41785724200E+03  0.00000000000E+00 0.  1.
        -13    1    3    3    0    0  0.22148608637E+03  0.69765684407E+02  0.44506960259E+03  0.50200626323E+03  0.00000000000E+00 0. -1.
         22    1    1    2    0    0 -0.46530849622E+03 -0.70904040938E+02 -0.43854685370E+03  0.64332163228E+03  0.00000000000E+00 0.  1.
<mgrwt>
<rscale>  0 0.15244423E+04</rscale>
<asrwt>0</asrwt>
<pdfrwt beam="1">  1        2 0.93639915E-01 0.15244423E+04</pdfrwt>
<pdfrwt beam="2">  1       -2 0.14685011E+00 0.15244423E+04</pdfrwt>
<totfact> 0.14887429E+01</totfact>
</mgrwt>
</event>
<event>
 6    1  0.1878398E-004  0.2265921E+04  0.7818608E-02  0.8491480E-01
         -2   -1    0    0    0  501 -0.00000000000E+00  0.00000000000E+00  0.67143620445E+03  0.67143620445E+03  0.00000000000E+00 0. -1.
          2   -1    0    0  501    0  0.00000000000E+00 -0.00000000000E+00 -0.19117227249E+04  0.19117227249E+04  0.00000000000E+00 0.  1.
         23    2    1    2    0    0 -0.86797995203E+03  0.27760621256E+03 -0.13850567067E+04  0.16604385962E+04  0.90663358969E+02 0.  0.
         11    1    3    3    0    0 -0.28248417353E+03  0.47177205559E+02 -0.41779081595E+03  0.50652952817E+03  0.00000000000E+00 0. -1.
        -11    1    3    3    0    0 -0.58549577850E+03  0.23042900700E+03 -0.96726589078E+03  0.11539090681E+04  0.00000000000E+00 0.  1.
         22    1    1    2    0    0  0.86797995203E+03 -0.27760621256E+03  0.14477018625E+03  0.92272033315E+03  0.00000000000E+00 0. -1.
<mgrwt>
<rscale>  0 0.22659213E+04</rscale>
<asrwt>0</asrwt>
<pdfrwt beam="1">  1        2 0.29411119E+00 0.22659213E+04</pdfrwt>
<pdfrwt beam="2">  1       -2 0.10329788E+00 0.22659213E+04</pdfrwt>
<totfact> 0.51988827E+00</totfact>
</mgrwt>
</event>
<event>
 6    1  0.1878398E-004  0.2422110E+04  0.7818608E-02  0.8431272E-01
          2   -1    0    0  501    0  0.00000000000E+00  0.00000000000E+00  0.12437914142E+04  0.12437914142E+04  0.00000000000E+00 0.  1.
         -2   -1    0    0    0  501 -0.00000000000E+00 -0.00000000000E+00 -0.11791801435E+04  0.11791801435E+04  0.00000000000E+00 0. -1.
         23    2    1    2    0    0  0.38756062850E+03 -0.66962413141E+02  0.11764228444E+04  0.12436445543E+04  0.89408406840E+02 0.  0.
         13    1    3    3    0    0  0.19773407899E+03 -0.32629980346E+01  0.48374402461E+03  0.52260663457E+03  0.00000000000E+00 0.  1.
        -13    1    3    3    0    0  0.18982654951E+03 -0.63699415107E+02  0.69267881975E+03  0.72103791975E+03  0.00000000000E+00 0. -1.
         22    1    1    2    0    0 -0.38756062850E+03  0.66962413141E+02 -0.11118115737E+04  0.11793270034E+04  0.00000000000E+00 0. -1.
<mgrwt>
<rscale>  0 0.24221099E+04</rscale>
<asrwt>0</asrwt>
<pdfrwt beam="1">  1        2 0.19135253E+00 0.24221099E+04</pdfrwt>
<pdfrwt beam="2">  1       -2 0.18141233E+00 0.24221099E+04</pdfrwt>
<totfact> 0.28389458E+00</totfact>
</mgrwt>
</event>
<event>
 6    1  0.1878398E-004  0.2983749E+04  0.7818608E-02  0.8248387E-01
         -1   -1    0    0    0  501 -0.00000000000E+00  0.00000000000E+00  0.11984549509E+04  0.11984549509E+04  0.00000000000E+00 0.  1.
          1   -1    0    0  501    0  0.00000000000E+00 -0.00000000000E+00 -0.18571329525E+04  0.18571329525E+04  0.00000000000E+00 0. -1.
         23    2    1    2    0    0 -0.13262456819E+04  0.64431663279E+03 -0.55337188568E+03  0.15773589259E+04  0.88143094793E+02 0.  0.
         13    1    3    3    0    0 -0.11023203513E+04  0.56928120133E+03 -0.45312475614E+03  0.13208002452E+04  0.00000000000E+00 0. -1.
        -13    1    3    3    0    0 -0.22392533052E+03  0.75035431467E+02 -0.10024712954E+03  0.25655868063E+03  0.00000000000E+00 0.  1.
         22    1    1    2    0    0  0.13262456819E+04 -0.64431663279E+03 -0.10530611594E+03  0.14782289775E+04  0.00000000000E+00 0.  1.
<mgrwt>
<rscale>  0 0.29837494E+04</rscale>
<asrwt>0</asrwt>
<pdfrwt beam="1">  1        1 0.28571276E+00 0.29837494E+04</pdfrwt>
<pdfrwt beam="2">  1       -1 0.18437769E+00 0.29837494E+04</pdfrwt>
<totfact> 0.61483100E-01</totfact>
</mgrwt>
</event>
<event>
 6    1  0.1878398E-004  0.2188942E+04  0.7818608E-02  0.8523045E-01
         -2   -1    0    0    0  501 -0.00000000000E+00  0.00000000000E+00  0.18230681537E+04  0.18230681537E+04  0.00000000000E+00 0. -1.
          2   -1    0    0  501    0  0.00000000000E+00 -0.00000000000E+00 -0.65706095750E+03  0.65706095750E+03  0.00000000000E+00 0.  1.
         23    2    1    2    0    0 -0.68202642619E+03  0.85318174135E+03  0.56307042431E+03  0.12324865820E+04  0.94317242799E+02 0.  0.
         11    1    3    3    0    0 -0.52385156129E+03  0.64197130771E+03  0.47049715868E+03  0.95284583985E+03  0.00000000000E+00 0.  1.
        -11    1    3    3    0    0 -0.15817486489E+03  0.21121043364E+03  0.92573265640E+02  0.27964074215E+03  0.00000000000E+00 0. -1.
         22    1    1    2    0    0  0.68202642619E+03 -0.85318174135E+03  0.60293677191E+03  0.12476425292E+04  0.00000000000E+00 0. -1.
<mgrwt>
<rscale>  0 0.21889421E+04</rscale>
<asrwt>0</asrwt>
<pdfrwt beam="1">  1        2 0.10108630E+00 0.21889421E+04</pdfrwt>
<pdfrwt beam="2">  1       -2 0.28047202E+00 0.21889421E+04</pdfrwt>
<totfact> 0.16982900E+00</totfact>
</mgrwt>
</event>
<event>
 6    1  0.1878398E-004  0.1709163E+04  0.7818608E-02  0.8756155E-01
         -2   -1    0    0    0  501 -0.00000000000E+00  0.00000000000E+00  0.38141613627E+03  0.38141613627E+03  0.00000000000E+00 0. -1.
          2   -1    0    0  501    0  0.00000000000E+00 -0.00000000000E+00 -0.19147320273E+04  0.19147320273E+04  0.00000000000E+00 0.  1.
         23    2    1    2    0    0 -0.57337739267E+03  0.40784455585E+03 -0.14148260327E+04  0.15826086323E+04  0.88422645348E+02 0.  0.
         13    1    3    3    0    0 -0.34084603322E+03  0.20880499166E+03 -0.87667250316E+03  0.96349894691E+03  0.00000000000E+00 0.  1.
        -13    1    3    3    0    0 -0.23253135946E+03  0.19903956419E+03 -0.53815352951E+03  0.61910968541E+03  0.00000000000E+00 0. -1.
         22    1    1    2    0    0  0.57337739267E+03 -0.40784455585E+03 -0.11848985840E+03  0.71353953129E+03  0.00000000000E+00 0. -1.
<mgrwt>
<rscale>  0 0.17091632E+04</rscale>
<asrwt>0</asrwt>
<pdfrwt beam="1">  1        2 0.29457416E+00 0.17091632E+04</pdfrwt>
<pdfrwt beam="2">  1       -2 0.58679405E-01 0.17091632E+04</pdfrwt>
<totfact> 0.19234561E+01</totfact>
</mgrwt>
</event>
<event>
 6    1  0.1878398E-004  0.1388310E+04  0.7818608E-02  0.8962324E-01
         -2   -1    0    0    0  501 -0.00000000000E+00  0.00000000000E+00  0.15962813682E+03  0.15962813682E+03  0.00000000000E+00 0. -1.
          2   -1    0    0  501    0  0.00000000000E+00 -0.00000000000E+00 -0.30185852754E+04  0.30185852754E+04  0.00000000000E+00 0.  1.
         23    2    1    2    0    0  0.33182313488E+03  0.87015404586E+01 -0.28235714600E+04  0.28443954140E+04  0.88584265554E+02 0.  0.
         11    1    3    3    0    0  0.11461275287E+03 -0.12505816933E+02 -0.13263352584E+04  0.13313368080E+04  0.00000000000E+00 0.  1.
        -11    1    3    3    0    0  0.21721038200E+03  0.21207357392E+02 -0.14972362016E+04  0.15130586061E+04  0.00000000000E+00 0. -1.
         22    1    1    2    0    0 -0.33182313488E+03 -0.87015404586E+01 -0.35385678576E+02  0.33381799816E+03  0.00000000000E+00 0. -1.
<mgrwt>
<rscale>  0 0.13883100E+04</rscale>
<asrwt>0</asrwt>
<pdfrwt beam="1">  1        2 0.46439772E+00 0.13883100E+04</pdfrwt>
<pdfrwt beam="2">  1       -2 0.24558175E-01 0.13883100E+04</pdfrwt>
<totfact> 0.24702419E+01</totfact>
</mgrwt>
</event>
<event>
 6    1  0.1878398E-004  0.4828261E+04  0.7818608E-02  0.7855560E-01
          2   -1    0    0  501    0  0.00000000000E+00  0.00000000000E+00  0.29000183778E+04  0.29000183778E+04  0.00000000000E+00 0.  1.
         -2   -1    0    0    0  501 -0.00000000000E+00 -0.00000000000E+00 -0.20096515057E+04  0.20096515057E+04  0.00000000000E+00 0. -1.
         23    2    1    2    0    0  0.50334053753E+03  0.23265428951E+04  0.41583260339E+02  0.23825000912E+04  0.91782230025E+02 0.  0.
         13    1    3    3    0    0  0.38470919799E+03  0.19405422131E+04  0.32033091923E+02  0.19785680092E+04  0.00000000000E+00 0.  1.
        -13    1    3    3    0    0  0.11863133954E+03  0.38600068199E+03  0.95501684157E+01  0.40393208208E+03  0.00000000000E+00 0. -1.
         22    1    1    2    0    0 -0.50334053753E+03 -0.23265428951E+04  0.84878361177E+03  0.25271697923E+04  0.00000000000E+00 0. -1.
<mgrwt>
<rscale>  0 0.48282611E+04</rscale>
<asrwt>0</asrwt>
<pdfrwt beam="1">  1        2 0.44615667E+00 0.48282611E+04</pdfrwt>
<pdfrwt beam="2">  1       -2 0.30917715E+00 0.48282611E+04</pdfrwt>
<totfact> 0.41380194E-02</totfact>
</mgrwt>
</event>
<event>
 6    1  0.1878398E-004  0.1290633E+04  0.7818608E-02  0.9037027E-01
          1   -1    0    0  501    0  0.00000000000E+00  0.00000000000E+00  0.55101259668E+03  0.55101259668E+03  0.00000000000E+00 0.  1.
         -1   -1    0    0    0  501 -0.00000000000E+00 -0.00000000000E+00 -0.75575982522E+03  0.75575982522E+03  0.00000000000E+00 0. -1.
         23    2    1    2    0    0 -0.35121765858E+03  0.39874731915E+03 -0.46827672303E+03  0.71364422102E+03  0.87474091268E+02 0.  0.
         11    1    3    3    0    0 -0.47703264863E+02  0.34513380374E+02 -0.87913681514E+02  0.10580921652E+03  0.00000000000E+00 0.  1.
        -11    1    3    3    0    0 -0.30351439371E+03  0.36423393877E+03 -0.38036304151E+03  0.60783500450E+03  0.00000000000E+00 0. -1.
         22    1    1    2    0    0  0.35121765858E+03 -0.39874731915E+03  0.26352949448E+03  0.59312820088E+03  0.00000000000E+00 0.  1.
<mgrwt>
<rscale>  0 0.12906327E+04</rscale>
<asrwt>0</asrwt>
<pdfrwt beam="1">  1        1 0.84771169E-01 0.12906327E+04</pdfrwt>
<pdfrwt beam="2">  1       -1 0.11627074E+00 0.12906327E+04</pdfrwt>
<totfact> 0.25440129E+01</totfact>
</mgrwt>
</event>
<event>
 6    1  0.2896828E-004  0.3474249E+04  0.7818608E-02  0.8119920E-01
         -2   -1    0    0    0  501 -0.00000000000E+00  0.00000000000E+00  0.10920975052E+04  0.10920975052E+04  0.00000000000E+00 0. -1.
          2   -1    0    0  501    0  0.00000000000E+00 -0.00000000000E+00 -0.27631242288E+04  0.27631242288E+04  0.00000000000E+00 0.  1.
         23    2    1    2    0    0 -0.53229276991E+03  0.24963122291E+03  0.97656151676E+03  0.11431423047E+04  0.86316814008E+02 0.  0.
         11    1    3    3    0    0 -0.43816507954E+03  0.16680919427E+03  0.77202466819E+03  0.90323642116E+03  0.00000000000E+00 0. -1.
        -11    1    3    3    0    0 -0.94127690369E+02  0.82822028643E+02  0.20453684857E+03  0.23990588352E+03  0.00000000000E+00 0.  1.
         22    1    1    2    0    0  0.53229276991E+03 -0.24963122291E+03 -0.26475882404E+04  0.27120794293E+04  0.00000000000E+00 0.  1.
<mgrwt>
<rscale>  0 0.34742487E+04</rscale>
<asrwt>0</asrwt>
<pdfrwt beam="1">  1        2 0.42509603E+00 0.34742487E+04</pdfrwt>
<pdfrwt beam="2">  1       -2 0.16801500E+00 0.34742487E+04</pdfrwt>
<totfact> 0.44119636E-01</totfact>
</mgrwt>
</event>
<event>
 6    1  0.1878398E-004  0.1177272E+04  0.7818608E-02  0.9132986E-01
          1   -1    0    0  501    0  0.00000000000E+00  0.00000000000E+00  0.50943484591E+03  0.50943484591E+03  0.00000000000E+00 0.  1.
         -1   -1    0    0    0  501 -0.00000000000E+00 -0.00000000000E+00 -0.68015081441E+03  0.68015081441E+03  0.00000000000E+00 0. -1.
         23    2    1    2    0    0  0.33973647732E+03 -0.44022609537E+01 -0.56720457010E+03  0.66743293829E+03  0.91134235301E+02 0.  0.
         13    1    3    3    0    0  0.30633835525E+03 -0.23428600110E+02 -0.53647699310E+03  0.61822297865E+03  0.00000000000E+00 0. -1.
        -13    1    3    3    0    0  0.33398122073E+02  0.19026339157E+02 -0.30727577002E+02  0.49209959644E+02  0.00000000000E+00 0.  1.
         22    1    1    2    0    0 -0.33973647732E+03  0.44022609537E+01  0.39648860160E+03  0.52215272203E+03  0.00000000000E+00 0.  1.
<mgrwt>
<rscale>  0 0.11772723E+04</rscale>
<asrwt>0</asrwt>
<pdfrwt beam="1">  1        1 0.78374592E-01 0.11772723E+04</pdfrwt>
<pdfrwt beam="2">  1       -1 0.10463859E+00 0.11772723E+04</pdfrwt>
<totfact> 0.36763181E+01</totfact>
</mgrwt>
</event>
<event>
 6    1  0.1878398E-004  0.2901178E+04  0.7818608E-02  0.8272527E-01
         -1   -1    0    0    0  501 -0.00000000000E+00  0.00000000000E+00  0.14431206428E+04  0.14431206428E+04  0.00000000000E+00 0.  1.
          1   -1    0    0  501    0  0.00000000000E+00 -0.00000000000E+00 -0.14580958348E+04  0.14580958348E+04  0.00000000000E+00 0. -1.
         23    2    1    2    0    0 -0.79280873085E+03  0.61281822231E+03  0.10395243194E+04  0.14465477603E+04  0.88304896581E+02 0.  0.
         11    1    3    3    0    0 -0.35015599297E+03  0.32630089278E+03  0.49084505960E+03  0.68557301914E+03  0.00000000000E+00 0. -1.
        -11    1    3    3    0    0 -0.44265273788E+03  0.28651732954E+03  0.54867925984E+03  0.76097474114E+03  0.00000000000E+00 0.  1.
         22    1    1    2    0    0  0.79280873085E+03 -0.61281822231E+03 -0.10544995115E+04  0.14546687173E+04  0.00000000000E+00 0. -1.
<mgrwt>
<rscale>  0 0.29011778E+04</rscale>
<asrwt>0</asrwt>
<pdfrwt beam="1">  1        1 0.22432244E+00 0.29011778E+04</pdfrwt>
<pdfrwt beam="2">  1       -1 0.22201856E+00 0.29011778E+04</pdfrwt>
<totfact> 0.64055208E-01</totfact>
</mgrwt>
</event>
<event>
 6    1  0.1878398E-004  0.1742508E+04  0.7818608E-02  0.8737485E-01
          2   -1    0    0  501    0  0.00000000000E+00  0.00000000000E+00  0.91142939572E+03  0.91142939572E+03  0.00000000000E+00 0.  1.
         -2   -1    0    0    0  501 -0.00000000000E+00 -0.00000000000E+00 -0.83284938766E+03  0.83284938766E+03  0.00000000000E+00 0. -1.
         23    2    1    2    0    0  0.35597696578E+03  0.24215154502E+03  0.79411157234E+03  0.90920849268E+03  0.10339208341E+03 0.  0.
         13    1    3    3    0    0  0.42544611684E+02  0.21466184540E+02  0.17200338264E+03  0.17848250531E+03  0.00000000000E+00 0.  1.
        -13    1    3    3    0    0  0.31343235410E+03  0.22068536048E+03  0.62210818970E+03  0.73072598737E+03  0.00000000000E+00 0. -1.
         22    1    1    2    0    0 -0.35597696578E+03 -0.24215154502E+03 -0.71553156428E+03  0.83507029070E+03  0.00000000000E+00 0. -1.
<mgrwt>
<rscale>  0 0.17425079E+04</rscale>
<asrwt>0</asrwt>
<pdfrwt beam="1">  1        2 0.14021991E+00 0.17425079E+04</pdfrwt>
<pdfrwt beam="2">  1       -2 0.12813068E+00 0.17425079E+04</pdfrwt>
<totfact> 0.12306397E+01</totfact>
</mgrwt>
</event>
<event>
 6    1  0.1878398E-004  0.2967000E+04  0.7818608E-02  0.8253218E-01
         -2   -1    0    0    0  501 -0.00000000000E+00  0.00000000000E+00  0.16437548714E+04  0.16437548714E+04  0.00000000000E+00 0. -1.
          2   -1    0    0  501    0  0.00000000000E+00 -0.00000000000E+00 -0.13388687888E+04  0.13388687888E+04  0.00000000000E+00 0.  1.
         23    2    1    2    0    0  0.25289626545E+03  0.12686356648E+04 -0.57437983807E+03  0.14184940202E+04  0.93915471533E+02 0.  0.
         11    1    3    3    0    0  0.10100861390E+03  0.61874789549E+03 -0.23285075815E+03  0.66878335343E+03  0.00000000000E+00 0. -1.
        -11    1    3    3    0    0  0.15188765155E+03  0.64988776936E+03 -0.34152907992E+03  0.74971066678E+03  0.00000000000E+00 0.  1.
         22    1    1    2    0    0 -0.25289626545E+03 -0.12686356648E+04  0.87926592068E+03  0.15641296399E+04  0.00000000000E+00 0. -1.
<mgrwt>
<rscale>  0 0.29669999E+04</rscale>
<asrwt>0</asrwt>
<pdfrwt beam="1">  1        2 0.20597981E+00 0.29669999E+04</pdfrwt>
<pdfrwt beam="2">  1       -2 0.25288536E+00 0.29669999E+04</pdfrwt>
<totfact> 0.83094512E-01</totfact>
</mgrwt>
</event>
<event>
 6    1  0.1878398E-004  0.1313351E+04  0.7818608E-02  0.9019044E-01
         -2   -1    0    0    0  501 -0.00000000000E+00  0.00000000000E+00  0.38723901122E+03  0.38723901122E+03  0.00000000000E+00 0. -1.
          2   -1    0    0  501    0  0.00000000000E+00 -0.00000000000E+00 -0.11135829920E+04  0.11135829920E+04  0.00000000000E+00 0.  1.
         23    2    1    2    0    0 -0.12553544708E+03  0.38097113367E+03  0.22474630233E+03  0.46860551441E+03  0.90454820510E+02 0.  0.
         13    1    3    3    0    0 -0.82193676741E+02  0.31027878324E+03  0.14045984295E+03  0.35036793704E+03  0.00000000000E+00 0. -1.
        -13    1    3    3    0    0 -0.43341770337E+02  0.70692350436E+02  0.84286459383E+02  0.11823757737E+03  0.00000000000E+00 0.  1.
         22    1    1    2    0    0  0.12553544708E+03 -0.38097113367E+03 -0.95109028312E+03  0.10322164888E+04  0.00000000000E+00 0.  1.
<mgrwt>
<rscale>  0 0.13133511E+04</rscale>
<asrwt>0</asrwt>
<pdfrwt beam="1">  1        2 0.17132046E+00 0.13133511E+04</pdfrwt>
<pdfrwt beam="2">  1       -2 0.59575232E-01 0.13133511E+04</pdfrwt>
<totfact> 0.55022742E+01</totfact>
</mgrwt>
</event>
<event>
 6    1  0.1878398E-004  0.3826453E+04  0.7818608E-02  0.8040502E-01
          1   -1    0    0  501    0  0.00000000000E+00  0.00000000000E+00  0.29408628131E+04  0.29408628131E+04  0.00000000000E+00 0.  1.
         -1   -1    0    0    0  501 -0.00000000000E+00 -0.00000000000E+00 -0.12446806269E+04  0.12446806269E+04  0.00000000000E+00 0. -1.
         23    2    1    2    0    0  0.88852030841E+03  0.16873328409E+04  0.10042580074E+04  0.21569184072E+04  0.84867044765E+02 0.  0.
         13    1    3    3    0    0  0.30183045668E+03  0.48976884181E+03  0.30526516677E+03  0.65127717988E+03  0.00000000000E+00 0. -1.
        -13    1    3    3    0    0  0.58668985173E+03  0.11975639991E+04  0.69899284062E+03  0.15056412273E+04  0.00000000000E+00 0.  1.
         22    1    1    2    0    0 -0.88852030841E+03 -0.16873328409E+04  0.69192417875E+03  0.20286250328E+04  0.00000000000E+00 0. -1.
<mgrwt>
<rscale>  0 0.38264526E+04</rscale>
<asrwt>0</asrwt>
<pdfrwt beam="1">  1        1 0.45244043E+00 0.38264526E+04</pdfrwt>
<pdfrwt beam="2">  1       -1 0.19148933E+00 0.38264526E+04</pdfrwt>
<totfact> 0.90341355E-02</totfact>
</mgrwt>
</event>
<event>
 6    1  0.1878398E-004  0.2789534E+04  0.7818608E-02  0.8306525E-01
          2   -1    0    0  501    0  0.00000000000E+00  0.00000000000E+00  0.30689040980E+04  0.30689040980E+04  0.00000000000E+00 0.  1.
         -2   -1    0    0    0  501 -0.00000000000E+00 -0.00000000000E+00 -0.63389873364E+03  0.63389873364E+03  0.00000000000E+00 0. -1.
         23    2    1    2    0    0  0.10663257763E+04  0.12831932277E+03  0.40557646402E+02  0.10785131403E+04  0.89605587470E+02 0.  0.
         13    1    3    3    0    0  0.39210742492E+03  0.57831836808E+01  0.17867125044E+01  0.39215414091E+03  0.00000000000E+00 0. -1.
        -13    1    3    3    0    0  0.67421835141E+03  0.12253613909E+03  0.38770933898E+02  0.68635899942E+03  0.00000000000E+00 0.  1.
         22    1    1    2    0    0 -0.10663257763E+04 -0.12831932277E+03  0.23944477180E+04  0.26242896913E+04  0.00000000000E+00 0.  1.
<mgrwt>
<rscale>  0 0.27895336E+04</rscale>
<asrwt>0</asrwt>
<pdfrwt beam="1">  1        2 0.47213908E+00 0.27895336E+04</pdfrwt>
<pdfrwt beam="2">  1       -2 0.97522884E-01 0.27895336E+04</pdfrwt>
<totfact> 0.12017996E+00</totfact>
</mgrwt>
</event>
<event>
 6    1  0.1878398E-004  0.2904013E+04  0.7818608E-02  0.8271684E-01
          2   -1    0    0  501    0  0.00000000000E+00  0.00000000000E+00  0.19715730226E+04  0.19715730226E+04  0.00000000000E+00 0.  1.
         -2   -1    0    0    0  501 -0.00000000000E+00 -0.00000000000E+00 -0.10693609912E+04  0.10693609912E+04  0.00000000000E+00 0. -1.
         23    2    1    2    0    0  0.77569662816E+03 -0.11408706567E+04 -0.17806975516E+02  0.13827042085E+04  0.90899535952E+02 0.  0.
         11    1    3    3    0    0  0.50789021771E+03 -0.80946393321E+03  0.10665498093E+02  0.95566630435E+03  0.00000000000E+00 0.  1.
        -11    1    3    3    0    0  0.26780641045E+03 -0.33140672351E+03 -0.28472473609E+02  0.42703790419E+03  0.00000000000E+00 0. -1.
         22    1    1    2    0    0 -0.77569662816E+03  0.11408706567E+04  0.92001900690E+03  0.16582298053E+04  0.00000000000E+00 0.  1.
<mgrwt>
<rscale>  0 0.29040133E+04</rscale>
<asrwt>0</asrwt>
<pdfrwt beam="1">  1        2 0.30331893E+00 0.29040133E+04</pdfrwt>
<pdfrwt beam="2">  1       -2 0.16451708E+00 0.29040133E+04</pdfrwt>
<totfact> 0.13954103E+00</totfact>
</mgrwt>
</event>
<event>
 6    1  0.1878398E-004  0.2107245E+04  0.7818608E-02  0.8558059E-01
          1   -1    0    0  501    0  0.00000000000E+00  0.00000000000E+00  0.90106231566E+03  0.90106231566E+03  0.00000000000E+00 0.  1.
         -1   -1    0    0    0  501 -0.00000000000E+00 -0.00000000000E+00 -0.12320124424E+04  0.12320124424E+04  0.00000000000E+00 0. -1.
         23    2    1    2    0    0  0.41722883946E+03  0.51537314816E+03 -0.99205546716E+03  0.11967256471E+04  0.91043056648E+02 0.  0.
         13    1    3    3    0    0  0.29438762113E+03  0.42117608236E+03 -0.78412756131E+03  0.93750167798E+03  0.00000000000E+00 0.  1.
        -13    1    3    3    0    0  0.12284121833E+03  0.94197065801E+02 -0.20792790586E+03  0.25922396911E+03  0.00000000000E+00 0. -1.
         22    1    1    2    0    0 -0.41722883946E+03 -0.51537314816E+03  0.66110534048E+03  0.93634911092E+03  0.00000000000E+00 0.  1.
<mgrwt>
<rscale>  0 0.21072446E+04</rscale>
<asrwt>0</asrwt>
<pdfrwt beam="1">  1        1 0.13862497E+00 0.21072446E+04</pdfrwt>
<pdfrwt beam="2">  1       -1 0.18954038E+00 0.21072446E+04</pdfrwt>
<totfact> 0.29711686E+00</totfact>
</mgrwt>
</event>
<event>
 6    1  0.1878398E-004  0.6199061E+04  0.7818608E-02  0.7666199E-01
         -2   -1    0    0    0  501 -0.00000000000E+00  0.00000000000E+00  0.23256189101E+04  0.23256189101E+04  0.00000000000E+00 0. -1.
          2   -1    0    0  501    0  0.00000000000E+00 -0.00000000000E+00 -0.41309817296E+04  0.41309817296E+04  0.00000000000E+00 0.  1.
         23    2    1    2    0    0 -0.13887692975E+04  0.27683171981E+04 -0.79564668691E+03  0.31990268586E+04  0.91972390816E+02 0.  0.
         11    1    3    3    0    0 -0.92758928344E+03  0.18234731919E+04 -0.56883430783E+03  0.21234521021E+04  0.00000000000E+00 0.  1.
        -11    1    3    3    0    0 -0.46118001402E+03  0.94484400623E+03 -0.22681237908E+03  0.10755747565E+04  0.00000000000E+00 0. -1.
         22    1    1    2    0    0  0.13887692975E+04 -0.27683171981E+04 -0.10097161326E+04  0.32575737811E+04  0.00000000000E+00 0. -1.
<mgrwt>
<rscale>  0 0.61990610E+04</rscale>
<asrwt>0</asrwt>
<pdfrwt beam="1">  1        2 0.63553565E+00 0.61990610E+04</pdfrwt>
<pdfrwt beam="2">  1       -2 0.35778753E+00 0.61990610E+04</pdfrwt>
<totfact> 0.24373393E-03</totfact>
</mgrwt>
</event>
<event>
 6    1  0.1878398E-004  0.1895951E+04  0.7818608E-02  0.8656874E-01
         -1   -1    0    0    0  501 -0.00000000000E+00  0.00000000000E+00  0.81536315678E+03  0.81536315678E+03  0.00000000000E+00 0. -1.
          1   -1    0    0  501    0  0.00000000000E+00 -0.00000000000E+00 -0.11021563911E+04  0.11021563911E+04  0.00000000000E+00 0.  1.
         23    2    1    2    0    0 -0.91410596709E+03 -0.23400671831E+03 -0.77683641419E+02  0.95104363759E+03  0.90002162033E+02 0.  0.
         11    1    3    3    0    0 -0.42908826485E+03 -0.10184348867E+03 -0.80704756588E+02  0.44833256959E+03  0.00000000000E+00 0. -1.
        -11    1    3    3    0    0 -0.48501770224E+03 -0.13216322964E+03  0.30211151685E+01  0.50271106800E+03  0.00000000000E+00 0.  1.
         22    1    1    2    0    0  0.91410596709E+03  0.23400671831E+03 -0.20910959287E+03  0.96647591026E+03  0.00000000000E+00 0.  1.
<mgrwt>
<rscale>  0 0.18959512E+04</rscale>
<asrwt>0</asrwt>
<pdfrwt beam="1">  1        1 0.16956252E+00 0.18959512E+04</pdfrwt>
<pdfrwt beam="2">  1       -1 0.12544049E+00 0.18959512E+04</pdfrwt>
<totfact> 0.65590782E+00</totfact>
</mgrwt>
</event>
<event>
 6    1  0.1878398E-004  0.2049284E+04  0.7818608E-02  0.8583919E-01
          2   -1    0    0  501    0  0.00000000000E+00  0.00000000000E+00  0.12015909523E+04  0.12015909523E+04  0.00000000000E+00 0.  1.
         -2   -1    0    0    0  501 -0.00000000000E+00 -0.00000000000E+00 -0.87375071272E+03  0.87375071272E+03  0.00000000000E+00 0. -1.
         23    2    1    2    0    0  0.17222757062E+03  0.10005499948E+04  0.40374980076E+02  0.10201644745E+04  0.91338862989E+02 0.  0.
         13    1    3    3    0    0  0.15952172881E+03  0.68010641636E+03  0.20849840601E+02  0.69887526454E+03  0.00000000000E+00 0. -1.
        -13    1    3    3    0    0  0.12705841801E+02  0.32044357839E+03  0.19525139475E+02  0.32128920994E+03  0.00000000000E+00 0.  1.
         22    1    1    2    0    0 -0.17222757062E+03 -0.10005499948E+04  0.28746525955E+03  0.10551771906E+04  0.00000000000E+00 0.  1.
<mgrwt>
<rscale>  0 0.20492837E+04</rscale>
<asrwt>0</asrwt>
<pdfrwt beam="1">  1        2 0.18486015E+00 0.20492837E+04</pdfrwt>
<pdfrwt beam="2">  1       -2 0.13442319E+00 0.20492837E+04</pdfrwt>
<totfact> 0.69763539E+00</totfact>
</mgrwt>
</event>
<event>
 6    1  0.1878398E-004  0.3834191E+04  0.7818608E-02  0.8038857E-01
          1   -1    0    0  501    0  0.00000000000E+00  0.00000000000E+00  0.17111279738E+04  0.17111279738E+04  0.00000000000E+00 0.  1.
         -1   -1    0    0    0  501 -0.00000000000E+00 -0.00000000000E+00 -0.21478550162E+04  0.21478550162E+04  0.00000000000E+00 0. -1.
         23    2    1    2    0    0  0.60830361102E+02  0.46898169250E+03  0.16502137239E+04  0.17191311440E+04  0.92533211027E+02 0.  0.
         11    1    3    3    0    0  0.84272804794E+01  0.35459706657E+03  0.12727745634E+04  0.13212740775E+04  0.00000000000E+00 0.  1.
        -11    1    3    3    0    0  0.52403080623E+02  0.11438462592E+03  0.37743916049E+03  0.39785706652E+03  0.00000000000E+00 0. -1.
         22    1    1    2    0    0 -0.60830361102E+02 -0.46898169250E+03 -0.20869407662E+04  0.21398518459E+04  0.00000000000E+00 0. -1.
<mgrwt>
<rscale>  0 0.38341908E+04</rscale>
<asrwt>0</asrwt>
<pdfrwt beam="1">  1        1 0.26325046E+00 0.38341908E+04</pdfrwt>
<pdfrwt beam="2">  1       -1 0.33043924E+00 0.38341908E+04</pdfrwt>
<totfact> 0.77685529E-02</totfact>
</mgrwt>
</event>
<event>
 6    1  0.1878398E-004  0.3456094E+04  0.7818608E-02  0.8124275E-01
         -2   -1    0    0    0  501 -0.00000000000E+00  0.00000000000E+00  0.24827647070E+04  0.24827647070E+04  0.00000000000E+00 0. -1.
          2   -1    0    0  501    0  0.00000000000E+00 -0.00000000000E+00 -0.12027501633E+04  0.12027501633E+04  0.00000000000E+00 0.  1.
         23    2    1    2    0    0 -0.16526405050E+04  0.49561831881E+03  0.56550563210E+03  0.18180617539E+04  0.93240357963E+02 0.  0.
         13    1    3    3    0    0 -0.66400024555E+03  0.22813907383E+03  0.26840618925E+03  0.75165527040E+03  0.00000000000E+00 0.  1.
        -13    1    3    3    0    0 -0.98864025949E+03  0.26747924498E+03  0.29709944285E+03  0.10664064835E+04  0.00000000000E+00 0. -1.
         22    1    1    2    0    0  0.16526405050E+04 -0.49561831881E+03  0.71450891164E+03  0.18674531163E+04  0.00000000000E+00 0.  1.
<mgrwt>
<rscale>  0 0.34560936E+04</rscale>
<asrwt>0</asrwt>
<pdfrwt beam="1">  1        2 0.18503849E+00 0.34560936E+04</pdfrwt>
<pdfrwt beam="2">  1       -2 0.38196380E+00 0.34560936E+04</pdfrwt>
<totfact> 0.15120353E-01</totfact>
</mgrwt>
</event>
<event>
 6    1  0.1878398E-004  0.3434866E+04  0.7818608E-02  0.8129402E-01
         -2   -1    0    0    0  501 -0.00000000000E+00  0.00000000000E+00  0.10354866676E+04  0.10354866676E+04  0.00000000000E+00 0. -1.
          2   -1    0    0  501    0  0.00000000000E+00 -0.00000000000E+00 -0.28484932955E+04  0.28484932955E+04  0.00000000000E+00 0.  1.
         23    2    1    2    0    0 -0.79717605143E+03  0.10478485136E+04 -0.21519367434E+04  0.25244396777E+04  0.92129120405E+02 0.  0.
         11    1    3    3    0    0 -0.24366680785E+03  0.25457432527E+03 -0.59142994962E+03  0.68845550738E+03  0.00000000000E+00 0.  1.
        -11    1    3    3    0    0 -0.55350924358E+03  0.79327418830E+03 -0.15605067937E+04  0.18359841704E+04  0.00000000000E+00 0. -1.
         22    1    1    2    0    0  0.79717605143E+03 -0.10478485136E+04  0.33893011543E+03  0.13595402854E+04  0.00000000000E+00 0. -1.
<mgrwt>
<rscale>  0 0.34348664E+04</rscale>
<asrwt>0</asrwt>
<pdfrwt beam="1">  1        2 0.43822973E+00 0.34348664E+04</pdfrwt>
<pdfrwt beam="2">  1       -2 0.15930564E+00 0.34348664E+04</pdfrwt>
<totfact> 0.45471992E-01</totfact>
</mgrwt>
</event>
<event>
 6    1  0.1878398E-004  0.1914109E+04  0.7818608E-02  0.8647865E-01
          2   -1    0    0  501    0  0.00000000000E+00  0.00000000000E+00  0.17991176177E+04  0.17991176177E+04  0.00000000000E+00 0.  1.
         -2   -1    0    0    0  501 -0.00000000000E+00 -0.00000000000E+00 -0.50911270760E+03  0.50911270760E+03  0.00000000000E+00 0. -1.
         23    2    1    2    0    0 -0.29668979965E+03 -0.84724122096E+03  0.25469044935E+03  0.93793161467E+03  0.94899763446E+02 0.  0.
         11    1    3    3    0    0 -0.15733816483E+03 -0.53410673619E+03  0.19545539931E+03  0.59010856364E+03  0.00000000000E+00 0. -1.
        -11    1    3    3    0    0 -0.13935163483E+03 -0.31313448477E+03  0.59235050035E+02  0.34782305104E+03  0.00000000000E+00 0.  1.
         22    1    1    2    0    0  0.29668979965E+03  0.84724122096E+03  0.10353144608E+04  0.13702987106E+04  0.00000000000E+00 0.  1.
<mgrwt>
<rscale>  0 0.19141093E+04</rscale>
<asrwt>0</asrwt>
<pdfrwt beam="1">  1        2 0.27678732E+00 0.19141093E+04</pdfrwt>
<pdfrwt beam="2">  1       -2 0.78325033E-01 0.19141093E+04</pdfrwt>
<totfact> 0.11713582E+01</totfact>
</mgrwt>
</event>
<event>
 6    1  0.1878398E-004  0.5263261E+03  0.7818608E-02  0.1007127E+00
          2   -1    0    0  501    0  0.00000000000E+00  0.00000000000E+00  0.10962626865E+04  0.10962626865E+04  0.00000000000E+00 0.  1.
         -2   -1    0    0    0  501 -0.00000000000E+00 -0.00000000000E+00 -0.63173541309E+02  0.63173541309E+02  0.00000000000E+00 0. -1.
         23    2    1    2    0    0  0.11847908425E+03 -0.16450114561E+03  0.87377563140E+03  0.90160155988E+03  0.91124082723E+02 0.  0.
         13    1    3    3    0    0  0.13323025302E+03 -0.14241679864E+03  0.79009513477E+03  0.81380781935E+03  0.00000000000E+00 0. -1.
        -13    1    3    3    0    0 -0.14751168763E+02 -0.22084346961E+02  0.83680496629E+02  0.87793740533E+02  0.00000000000E+00 0.  1.
         22    1    1    2    0    0 -0.11847908425E+03  0.16450114561E+03  0.15931351382E+03  0.25783466795E+03  0.00000000000E+00 0. -1.
<mgrwt>
<rscale>  0 0.52632612E+03</rscale>
<asrwt>0</asrwt>
<pdfrwt beam="1">  1        2 0.16865578E+00 0.52632612E+03</pdfrwt>
<pdfrwt beam="2">  1       -2 0.97190072E-02 0.52632612E+03</pdfrwt>
<totfact> 0.15891945E+03</totfact>
</mgrwt>
</event>
<event>
 6    1  0.1878398E-004  0.1410803E+04  0.7818608E-02  0.8946036E-01
         -2   -1    0    0    0  501 -0.00000000000E+00  0.00000000000E+00  0.73948217628E+03  0.73948217628E+03  0.00000000000E+00 0. -1.
          2   -1    0    0  501    0  0.00000000000E+00 -0.00000000000E+00 -0.67289112681E+03  0.67289112681E+03  0.00000000000E+00 0.  1.
         23    2    1    2    0    0  0.17883176006E+03  0.17346325241E+03  0.69098747356E+03  0.74010758721E+03  0.90693184325E+02 0.  0.
         13    1    3    3    0    0  0.14357946045E+02  0.53080484962E+02  0.22265309296E+03  0.22934273109E+03  0.00000000000E+00 0. -1.
        -13    1    3    3    0    0  0.16447381401E+03  0.12038276745E+03  0.46833438060E+03  0.51076485612E+03  0.00000000000E+00 0.  1.
         22    1    1    2    0    0 -0.17883176006E+03 -0.17346325241E+03 -0.62439642409E+03  0.67226571589E+03  0.00000000000E+00 0.  1.
<mgrwt>
<rscale>  0 0.14108026E+04</rscale>
<asrwt>0</asrwt>
<pdfrwt beam="1">  1        2 0.10352171E+00 0.14108026E+04</pdfrwt>
<pdfrwt beam="2">  1       -2 0.11376649E+00 0.14108026E+04</pdfrwt>
<totfact> 0.25354168E+01</totfact>
</mgrwt>
</event>
<event>
 6    1  0.1878398E-004  0.1936404E+04  0.7818608E-02  0.8636945E-01
         -1   -1    0    0    0  501 -0.00000000000E+00  0.00000000000E+00  0.37665328133E+03  0.37665328133E+03  0.00000000000E+00 0. -1.
          1   -1    0    0  501    0  0.00000000000E+00 -0.00000000000E+00 -0.24888003763E+04  0.24888003763E+04  0.00000000000E+00 0.  1.
         23    2    1    2    0    0 -0.78250477869E+03 -0.50603950257E+03 -0.14355718274E+04  0.17138704867E+04  0.89977034536E+02 0.  0.
         13    1    3    3    0    0 -0.30161174711E+03 -0.16514182484E+03 -0.46524846906E+03  0.57853055777E+03  0.00000000000E+00 0. -1.
        -13    1    3    3    0    0 -0.48089303158E+03 -0.34089767773E+03 -0.97032335838E+03  0.11353399290E+04  0.00000000000E+00 0.  1.
         22    1    1    2    0    0  0.78250477869E+03  0.50603950257E+03 -0.67657526753E+03  0.11515831709E+04  0.00000000000E+00 0.  1.
<mgrwt>
<rscale>  0 0.19364037E+04</rscale>
<asrwt>0</asrwt>
<pdfrwt beam="1">  1        1 0.38289238E+00 0.19364037E+04</pdfrwt>
<pdfrwt beam="2">  1       -1 0.57946656E-01 0.19364037E+04</pdfrwt>
<totfact> 0.38835787E+00</totfact>
</mgrwt>
</event>
<event>
 6    1  0.1878398E-004  0.9805895E+03  0.7818608E-02  0.9330094E-01
         -2   -1    0    0    0  501 -0.00000000000E+00  0.00000000000E+00  0.98901989603E+03  0.98901989603E+03  0.00000000000E+00 0. -1.
          2   -1    0    0  501    0  0.00000000000E+00 -0.00000000000E+00 -0.24305774298E+03  0.24305774298E+03  0.00000000000E+00 0.  1.
         23    2    1    2    0    0  0.16942427548E+03 -0.36083819036E+03  0.72552740161E+03  0.83292057241E+03  0.91966758794E+02 0.  0.
         11    1    3    3    0    0  0.15783800002E+03 -0.24264137777E+03  0.53861640834E+03  0.61146979303E+03  0.00000000000E+00 0. -1.
        -11    1    3    3    0    0  0.11586275459E+02 -0.11819681258E+03  0.18691099327E+03  0.22145077938E+03  0.00000000000E+00 0.  1.
         22    1    1    2    0    0 -0.16942427548E+03  0.36083819036E+03  0.20434751441E+02  0.39915706659E+03  0.00000000000E+00 0.  1.
<mgrwt>
<rscale>  0 0.98058950E+03</rscale>
<asrwt>0</asrwt>
<pdfrwt beam="1">  1        2 0.37393499E-01 0.98058950E+03</pdfrwt>
<pdfrwt beam="2">  1       -2 0.15215691E+00 0.98058950E+03</pdfrwt>
<totfact> 0.40008954E+01</totfact>
</mgrwt>
</event>
<event>
 6    1  0.1878398E-004  0.2845398E+04  0.7818608E-02  0.8289311E-01
          2   -1    0    0  501    0  0.00000000000E+00  0.00000000000E+00  0.16514260099E+04  0.16514260099E+04  0.00000000000E+00 0.  1.
         -2   -1    0    0    0  501 -0.00000000000E+00 -0.00000000000E+00 -0.12256517292E+04  0.12256517292E+04  0.00000000000E+00 0. -1.
         23    2    1    2    0    0 -0.74547135746E+03  0.10943321909E+04 -0.30939484611E+03  0.13625599499E+04  0.86913506191E+02 0.  0.
         11    1    3    3    0    0 -0.28384492797E+03  0.35781465237E+03 -0.81340640322E+02  0.46391331987E+03  0.00000000000E+00 0. -1.
        -11    1    3    3    0    0 -0.46162642949E+03  0.73651753850E+03 -0.22805420579E+03  0.89864663005E+03  0.00000000000E+00 0.  1.
         22    1    1    2    0    0  0.74547135746E+03 -0.10943321909E+04  0.73516912686E+03  0.15145177892E+04  0.00000000000E+00 0.  1.
<mgrwt>
<rscale>  0 0.28453985E+04</rscale>
<asrwt>0</asrwt>
<pdfrwt beam="1">  1        2 0.25406554E+00 0.28453985E+04</pdfrwt>
<pdfrwt beam="2">  1       -2 0.18856180E+00 0.28453985E+04</pdfrwt>
<totfact> 0.14343675E+00</totfact>
</mgrwt>
</event>
<event>
 6    1  0.1878398E-004  0.3222019E+04  0.7818608E-02  0.8183026E-01
         -2   -1    0    0    0  501 -0.00000000000E+00  0.00000000000E+00  0.81600626209E+03  0.81600626209E+03  0.00000000000E+00 0. -1.
          2   -1    0    0  501    0  0.00000000000E+00 -0.00000000000E+00 -0.31805538308E+04  0.31805538308E+04  0.00000000000E+00 0.  1.
         23    2    1    2    0    0 -0.35788427480E+03  0.15585003165E+04 -0.14128625315E+04  0.21357245815E+04  0.90191819939E+02 0.  0.
         11    1    3    3    0    0 -0.97137524940E+02  0.61419445164E+03 -0.56201935772E+03  0.83817437424E+03  0.00000000000E+00 0. -1.
        -11    1    3    3    0    0 -0.26074674986E+03  0.94430586481E+03 -0.85084317379E+03  0.12975502072E+04  0.00000000000E+00 0.  1.
         22    1    1    2    0    0  0.35788427480E+03 -0.15585003165E+04 -0.95168503718E+03  0.18608355114E+04  0.00000000000E+00 0.  1.
<mgrwt>
<rscale>  0 0.32220191E+04</rscale>
<asrwt>0</asrwt>
<pdfrwt beam="1">  1        2 0.48931597E+00 0.32220191E+04</pdfrwt>
<pdfrwt beam="2">  1       -2 0.12553942E+00 0.32220191E+04</pdfrwt>
<totfact> 0.53180649E-01</totfact>
</mgrwt>
</event>
<event>
 6    1  0.1878398E-004  0.2994025E+04  0.7818608E-02  0.8245439E-01
          2   -1    0    0  501    0  0.00000000000E+00  0.00000000000E+00  0.12005771765E+04  0.12005771765E+04  0.00000000000E+00 0.  1.
         -2   -1    0    0    0  501 -0.00000000000E+00 -0.00000000000E+00 -0.18666406463E+04  0.18666406463E+04  0.00000000000E+00 0. -1.
         23    2    1    2    0    0  0.21280375131E+03 -0.51407613078E+03 -0.17555986542E+04  0.18438427279E+04  0.89831320058E+02 0.  0.
         11    1    3    3    0    0  0.11077079829E+03 -0.35768507314E+03 -0.10886215852E+04  0.11512192393E+04  0.00000000000E+00 0. -1.
        -11    1    3    3    0    0  0.10203295301E+03 -0.15639105763E+03 -0.66697706901E+03  0.69262348862E+03  0.00000000000E+00 0.  1.
         22    1    1    2    0    0 -0.21280375131E+03  0.51407613078E+03  0.10895351843E+04  0.12233750948E+04  0.00000000000E+00 0.  1.
<mgrwt>
<rscale>  0 0.29940248E+04</rscale>
<asrwt>0</asrwt>
<pdfrwt beam="1">  1        2 0.18470418E+00 0.29940248E+04</pdfrwt>
<pdfrwt beam="2">  1       -2 0.28717548E+00 0.29940248E+04</pdfrwt>
<totfact> 0.61708340E-01</totfact>
</mgrwt>
</event>
<event>
 6    1  0.1878398E-004  0.8533798E+03  0.7818608E-02  0.9485812E-01
         -1   -1    0    0    0  501 -0.00000000000E+00  0.00000000000E+00  0.29689028675E+03  0.29689028675E+03  0.00000000000E+00 0. -1.
          1   -1    0    0  501    0  0.00000000000E+00 -0.00000000000E+00 -0.61323756375E+03  0.61323756375E+03  0.00000000000E+00 0.  1.
         23    2    1    2    0    0 -0.19196369079E+03 -0.23749744492E+02  0.23975909483E+03  0.32134231591E+03  0.91445893812E+02 0.  0.
         11    1    3    3    0    0 -0.11118167895E+03 -0.14488302615E+02  0.20343462304E+03  0.23228629425E+03  0.00000000000E+00 0.  1.
        -11    1    3    3    0    0 -0.80782011840E+02 -0.92614418766E+01  0.36324471793E+02  0.89056021658E+02  0.00000000000E+00 0. -1.
         22    1    1    2    0    0  0.19196369079E+03  0.23749744492E+02 -0.55610637184E+03  0.58878553459E+03  0.00000000000E+00 0.  1.
<mgrwt>
<rscale>  0 0.85337981E+03</rscale>
<asrwt>0</asrwt>
<pdfrwt beam="1">  1        1 0.94344240E-01 0.85337981E+03</pdfrwt>
<pdfrwt beam="2">  1       -1 0.45675429E-01 0.85337981E+03</pdfrwt>
<totfact> 0.15948440E+02</totfact>
</mgrwt>
</event>
<event>
 6    1  0.1878398E-004  0.8482317E+03  0.7818608E-02  0.9492713E-01
         -2   -1    0    0    0  501 -0.00000000000E+00  0.00000000000E+00  0.22666371768E+03  0.22666371768E+03  0.00000000000E+00 0. -1.
          2   -1    0    0  501    0  0.00000000000E+00 -0.00000000000E+00 -0.79357313790E+03  0.79357313790E+03  0.00000000000E+00 0.  1.
         23    2    1    2    0    0 -0.41975911443E+02 -0.41673620941E+03 -0.30891548711E+03  0.52831011826E+03  0.90839184842E+02 0.  0.
         11    1    3    3    0    0 -0.67886190215E+02 -0.33835110900E+03 -0.23510899691E+03  0.41757184796E+03  0.00000000000E+00 0.  1.
        -11    1    3    3    0    0  0.25910278772E+02 -0.78385100411E+02 -0.73806490197E+02  0.11073827029E+03  0.00000000000E+00 0. -1.
         22    1    1    2    0    0  0.41975911443E+02  0.41673620941E+03 -0.25799393311E+03  0.49192673733E+03  0.00000000000E+00 0. -1.
<mgrwt>
<rscale>  0 0.84823166E+03</rscale>
<asrwt>0</asrwt>
<pdfrwt beam="1">  1        2 0.12208817E+00 0.84823166E+03</pdfrwt>
<pdfrwt beam="2">  1       -2 0.34871341E-01 0.84823166E+03</pdfrwt>
<totfact> 0.26958409E+02</totfact>
</mgrwt>
</event>
<event>
 6    1  0.1878398E-004  0.3919794E+04  0.7818608E-02  0.8020925E-01
          2   -1    0    0  501    0  0.00000000000E+00  0.00000000000E+00  0.25859559447E+04  0.25859559447E+04  0.00000000000E+00 0.  1.
         -2   -1    0    0    0  501 -0.00000000000E+00 -0.00000000000E+00 -0.14854069273E+04  0.14854069273E+04  0.00000000000E+00 0. -1.
         23    2    1    2    0    0 -0.15529274688E+03 -0.14617786300E+04  0.18952375128E+04  0.24003026084E+04  0.92815847496E+02 0.  0.
         11    1    3    3    0    0 -0.63820478148E+02 -0.99161453549E+03  0.12565298721E+04  0.16019487382E+04  0.00000000000E+00 0. -1.
        -11    1    3    3    0    0 -0.91472268727E+02 -0.47016409452E+03  0.63870764064E+03  0.79835387012E+03  0.00000000000E+00 0.  1.
         22    1    1    2    0    0  0.15529274688E+03  0.14617786300E+04 -0.79468849535E+03  0.16710602637E+04  0.00000000000E+00 0. -1.
<mgrwt>
<rscale>  0 0.39197943E+04</rscale>
<asrwt>0</asrwt>
<pdfrwt beam="1">  1        2 0.39783938E+00 0.39197943E+04</pdfrwt>
<pdfrwt beam="2">  1       -2 0.22852414E+00 0.39197943E+04</pdfrwt>
<totfact> 0.21507187E-01</totfact>
</mgrwt>
</event>
<event>
 6    1  0.1878398E-004  0.3690177E+04  0.7818608E-02  0.8070142E-01
         -2   -1    0    0    0  501 -0.00000000000E+00  0.00000000000E+00  0.17620920722E+04  0.17620920722E+04  0.00000000000E+00 0.  1.
          2   -1    0    0  501    0  0.00000000000E+00 -0.00000000000E+00 -0.19319939328E+04  0.19319939328E+04  0.00000000000E+00 0. -1.
         23    2    1    2    0    0 -0.15227387513E+04  0.91092116237E+03  0.41702667771E+03  0.18251302063E+04  0.93157668185E+02 0.  0.
         11    1    3    3    0    0 -0.28284954718E+03  0.18001658996E+03  0.42869662049E+02  0.33800539482E+03  0.00000000000E+00 0. -1.
        -11    1    3    3    0    0 -0.12398892041E+04  0.73090457241E+03  0.37415701566E+03  0.14871248114E+04  0.00000000000E+00 0.  1.
         22    1    1    2    0    0  0.15227387513E+04 -0.91092116237E+03 -0.58692853824E+03  0.18689557988E+04  0.00000000000E+00 0.  1.
<mgrwt>
<rscale>  0 0.36901768E+04</rscale>
<asrwt>0</asrwt>
<pdfrwt beam="1">  1        2 0.29722984E+00 0.36901768E+04</pdfrwt>
<pdfrwt beam="2">  1       -2 0.27109109E+00 0.36901768E+04</pdfrwt>
<totfact> 0.28147980E-01</totfact>
</mgrwt>
</event>
<event>
 6    1  0.1878398E-004  0.2624688E+04  0.7818608E-02  0.8359863E-01
          2   -1    0    0  501    0  0.00000000000E+00  0.00000000000E+00  0.18211473957E+04  0.18211473957E+04  0.00000000000E+00 0.  1.
         -2   -1    0    0    0  501 -0.00000000000E+00 -0.00000000000E+00 -0.94569330084E+03  0.94569330084E+03  0.00000000000E+00 0. -1.
         23    2    1    2    0    0 -0.99728594465E+03 -0.95093641455E+02 -0.45274844466E+03  0.11031868738E+04  0.91750031431E+02 0.  0.
         13    1    3    3    0    0 -0.92676427257E+03 -0.64379592967E+02 -0.42189662166E+03  0.10203104960E+04  0.00000000000E+00 0.  1.
        -13    1    3    3    0    0 -0.70521672082E+02 -0.30714048487E+02 -0.30851822998E+02  0.82876377756E+02  0.00000000000E+00 0. -1.
         22    1    1    2    0    0  0.99728594465E+03  0.95093641455E+02  0.13282025395E+04  0.16636538227E+04  0.00000000000E+00 0.  1.
<mgrwt>
<rscale>  0 0.26246881E+04</rscale>
<asrwt>0</asrwt>
<pdfrwt beam="1">  1        2 0.28017652E+00 0.26246881E+04</pdfrwt>
<pdfrwt beam="2">  1       -2 0.14549128E+00 0.26246881E+04</pdfrwt>
<totfact> 0.24082019E+00</totfact>
</mgrwt>
</event>
<event>
 6    1  0.1878398E-004  0.2192327E+04  0.7818608E-02  0.8521629E-01
         -2   -1    0    0    0  501 -0.00000000000E+00  0.00000000000E+00  0.83125754690E+03  0.83125754690E+03  0.00000000000E+00 0. -1.
          2   -1    0    0  501    0  0.00000000000E+00 -0.00000000000E+00 -0.14454897904E+04  0.14454897904E+04  0.00000000000E+00 0.  1.
         23    2    1    2    0    0  0.68897170686E+03 -0.38963411366E+03 -0.10923256150E+04  0.13520473712E+04  0.91433525135E+02 0.  0.
         11    1    3    3    0    0  0.37975646299E+03 -0.23040138160E+03 -0.68528989970E+03  0.81665293390E+03  0.00000000000E+00 0. -1.
        -11    1    3    3    0    0  0.30921524386E+03 -0.15923273206E+03 -0.40703571527E+03  0.53539443731E+03  0.00000000000E+00 0.  1.
         22    1    1    2    0    0 -0.68897170686E+03  0.38963411366E+03  0.47809337149E+03  0.92469996606E+03  0.00000000000E+00 0. -1.
<mgrwt>
<rscale>  0 0.21923269E+04</rscale>
<asrwt>0</asrwt>
<pdfrwt beam="1">  1        2 0.22238304E+00 0.21923269E+04</pdfrwt>
<pdfrwt beam="2">  1       -2 0.12788578E+00 0.21923269E+04</pdfrwt>
<totfact> 0.56446040E+00</totfact>
</mgrwt>
</event>
<event>
 6    1  0.1878398E-004  0.1828666E+04  0.7818608E-02  0.8691202E-01
          2   -1    0    0  501    0  0.00000000000E+00  0.00000000000E+00  0.15679553039E+04  0.15679553039E+04  0.00000000000E+00 0.  1.
         -2   -1    0    0    0  501 -0.00000000000E+00 -0.00000000000E+00 -0.53318143156E+03  0.53318143156E+03  0.00000000000E+00 0. -1.
         23    2    1    2    0    0  0.30195068639E+03  0.84055672684E+03  0.30622966751E+03  0.94853685412E+03  0.90750902541E+02 0.  0.
         13    1    3    3    0    0  0.12800536885E+03  0.28254519892E+03  0.14375169465E+03  0.34187967708E+03  0.00000000000E+00 0. -1.
        -13    1    3    3    0    0  0.17394531754E+03  0.55801152792E+03  0.16247797286E+03  0.60665717704E+03  0.00000000000E+00 0.  1.
         22    1    1    2    0    0 -0.30195068639E+03 -0.84055672684E+03  0.72854420482E+03  0.11525998813E+04  0.00000000000E+00 0.  1.
<mgrwt>
<rscale>  0 0.18286658E+04</rscale>
<asrwt>0</asrwt>
<pdfrwt beam="1">  1        2 0.24122389E+00 0.18286658E+04</pdfrwt>
<pdfrwt beam="2">  1       -2 0.82027913E-01 0.18286658E+04</pdfrwt>
<totfact> 0.14301311E+01</totfact>
</mgrwt>
</event>
<event>
 6    1  0.1878398E-004  0.2354917E+04  0.7818608E-02  0.8456577E-01
         -2   -1    0    0    0  501 -0.00000000000E+00  0.00000000000E+00  0.49155298877E+03  0.49155298877E+03  0.00000000000E+00 0. -1.
          2   -1    0    0  501    0  0.00000000000E+00 -0.00000000000E+00 -0.28204659898E+04  0.28204659898E+04  0.00000000000E+00 0.  1.
         23    2    1    2    0    0  0.35803782292E+03 -0.89459077995E+03 -0.21878193147E+03  0.99229121934E+03  0.91063627337E+02 0.  0.
         11    1    3    3    0    0  0.16184456518E+03 -0.39588047804E+03 -0.14348732574E+03  0.45111376483E+03  0.00000000000E+00 0.  1.
        -11    1    3    3    0    0  0.19619325775E+03 -0.49871030191E+03 -0.75294605723E+02  0.54117745451E+03  0.00000000000E+00 0. -1.
         22    1    1    2    0    0 -0.35803782292E+03  0.89459077995E+03 -0.21101310696E+04  0.23197277593E+04  0.00000000000E+00 0.  1.
<mgrwt>
<rscale>  0 0.23549170E+04</rscale>
<asrwt>0</asrwt>
<pdfrwt beam="1">  1        2 0.43391784E+00 0.23549170E+04</pdfrwt>
<pdfrwt beam="2">  1       -2 0.75623538E-01 0.23549170E+04</pdfrwt>
<totfact> 0.31805707E+00</totfact>
</mgrwt>
</event>
<event>
 6    1  0.1878398E-004  0.2976727E+04  0.7818608E-02  0.8250408E-01
          2   -1    0    0  501    0  0.00000000000E+00  0.00000000000E+00  0.17382905021E+04  0.17382905021E+04  0.00000000000E+00 0.  1.
         -2   -1    0    0    0  501 -0.00000000000E+00 -0.00000000000E+00 -0.12743704525E+04  0.12743704525E+04  0.00000000000E+00 0. -1.
         23    2    1    2    0    0 -0.70886479912E+03 -0.82836805224E+02  0.15523529369E+04  0.17111090386E+04  0.93505408698E+02 0.  0.
         11    1    3    3    0    0 -0.50649133498E+03 -0.89642001086E+02  0.11806980479E+04  0.12878730687E+04  0.00000000000E+00 0. -1.
        -11    1    3    3    0    0 -0.20237346414E+03  0.68051958618E+01  0.37165488906E+03  0.42323596993E+03  0.00000000000E+00 0.  1.
         22    1    1    2    0    0  0.70886479912E+03  0.82836805224E+02 -0.10884328874E+04  0.13015519160E+04  0.00000000000E+00 0. -1.
<mgrwt>
<rscale>  0 0.29767271E+04</rscale>
<asrwt>0</asrwt>
<pdfrwt beam="1">  1        2 0.26742931E+00 0.29767271E+04</pdfrwt>
<pdfrwt beam="2">  1       -2 0.19605699E+00 0.29767271E+04</pdfrwt>
<totfact> 0.11310468E+00</totfact>
</mgrwt>
</event>
<event>
 6    1  0.1878398E-004  0.5797869E+03  0.7818608E-02  0.9948253E-01
         -1   -1    0    0    0  501 -0.00000000000E+00  0.00000000000E+00  0.99504341589E+03  0.99504341589E+03  0.00000000000E+00 0. -1.
          1   -1    0    0  501    0  0.00000000000E+00 -0.00000000000E+00 -0.84456820985E+02  0.84456820985E+02  0.00000000000E+00 0.  1.
         23    2    1    2    0    0 -0.26530551440E+01 -0.20591305068E+03  0.82727385217E+03  0.85735560776E+03  0.90936178332E+02 0.  0.
         13    1    3    3    0    0  0.28484150602E+02 -0.17588707351E+03  0.59570421517E+03  0.62178060554E+03  0.00000000000E+00 0. -1.
        -13    1    3    3    0    0 -0.31137205746E+02 -0.30025977170E+02  0.23156963700E+03  0.23557500221E+03  0.00000000000E+00 0.  1.
         22    1    1    2    0    0  0.26530551440E+01  0.20591305068E+03  0.83312742734E+02  0.22214462911E+03  0.00000000000E+00 0.  1.
<mgrwt>
<rscale>  0 0.57978687E+03</rscale>
<asrwt>0</asrwt>
<pdfrwt beam="1">  1        1 0.12993358E-01 0.57978687E+03</pdfrwt>
<pdfrwt beam="2">  1       -1 0.15308359E+00 0.57978687E+03</pdfrwt>
<totfact> 0.15856407E+02</totfact>
</mgrwt>
</event>
<event>
 6    1  0.1878398E-004  0.1134847E+04  0.7818608E-02  0.9171877E-01
         -1   -1    0    0    0  501 -0.00000000000E+00  0.00000000000E+00  0.22642866547E+03  0.22642866547E+03  0.00000000000E+00 0. -1.
          1   -1    0    0  501    0  0.00000000000E+00 -0.00000000000E+00 -0.14219473000E+04  0.14219473000E+04  0.00000000000E+00 0.  1.
         23    2    1    2    0    0 -0.70383012318E+02  0.38056151915E+03 -0.62522811610E+01  0.39772201751E+03  0.91448750206E+02 0.  0.
         11    1    3    3    0    0 -0.70390702406E+00  0.38576542040E+02  0.27057320833E+02  0.47124767284E+02  0.00000000000E+00 0. -1.
        -11    1    3    3    0    0 -0.69679105294E+02  0.34198497711E+03 -0.33309601994E+02  0.35059725023E+03  0.00000000000E+00 0.  1.
         22    1    1    2    0    0  0.70383012318E+02 -0.38056151915E+03 -0.11892663534E+04  0.12506539480E+04  0.00000000000E+00 0.  1.
<mgrwt>
<rscale>  0 0.11348474E+04</rscale>
<asrwt>0</asrwt>
<pdfrwt beam="1">  1        1 0.21876113E+00 0.11348474E+04</pdfrwt>
<pdfrwt beam="2">  1       -1 0.34835178E-01 0.11348474E+04</pdfrwt>
<totfact> 0.57666686E+01</totfact>
</mgrwt>
</event>
<event>
 6    1  0.1878398E-004  0.3029634E+04  0.7818608E-02  0.8235319E-01
          2   -1    0    0  501    0  0.00000000000E+00  0.00000000000E+00  0.31913258835E+04  0.31913258835E+04  0.00000000000E+00 0.  1.
         -2   -1    0    0    0  501 -0.00000000000E+00 -0.00000000000E+00 -0.71903375818E+03  0.71903375818E+03  0.00000000000E+00 0. -1.
         23    2    1    2    0    0  0.14658779283E+04 -0.37676143443E+03  0.12585470500E+04  0.19702760385E+04  0.85438352191E+02 0.  0.
         11    1    3    3    0    0  0.40411456816E+03 -0.86085407607E+02  0.30005989259E+03  0.51064196923E+03  0.00000000000E+00 0. -1.
        -11    1    3    3    0    0  0.10617633601E+04 -0.29067602682E+03  0.95848715736E+03  0.14596340693E+04  0.00000000000E+00 0.  1.
         22    1    1    2    0    0 -0.14658779283E+04  0.37676143443E+03  0.12137450753E+04  0.19400836031E+04  0.00000000000E+00 0. -1.
<mgrwt>
<rscale>  0 0.30296343E+04</rscale>
<asrwt>0</asrwt>
<pdfrwt beam="1">  1        2 0.49097321E+00 0.30296343E+04</pdfrwt>
<pdfrwt beam="2">  1       -2 0.11062058E+00 0.30296343E+04</pdfrwt>
<totfact> 0.72655873E-01</totfact>
</mgrwt>
</event>
<event>
 6    1  0.1878398E-004  0.2474202E+04  0.7818608E-02  0.8412234E-01
         -1   -1    0    0    0  501 -0.00000000000E+00  0.00000000000E+00  0.93781568015E+03  0.93781568015E+03  0.00000000000E+00 0. -1.
          1   -1    0    0  501    0  0.00000000000E+00 -0.00000000000E+00 -0.16318972003E+04  0.16318972003E+04  0.00000000000E+00 0.  1.
         23    2    1    2    0    0  0.11185212048E+03 -0.84819249301E+03  0.57832372421E+03  0.10364299620E+04  0.88245873070E+02 0.  0.
         11    1    3    3    0    0  0.11780815182E+03 -0.58563959782E+03  0.39506148181E+03  0.71618857404E+03  0.00000000000E+00 0.  1.
        -11    1    3    3    0    0 -0.59560313417E+01 -0.26255289519E+03  0.18326224240E+03  0.32024138798E+03  0.00000000000E+00 0. -1.
         22    1    1    2    0    0 -0.11185212048E+03  0.84819249301E+03 -0.12724052443E+04  0.15332829184E+04  0.00000000000E+00 0.  1.
<mgrwt>
<rscale>  0 0.24742019E+04</rscale>
<asrwt>0</asrwt>
<pdfrwt beam="1">  1        1 0.25106111E+00 0.24742019E+04</pdfrwt>
<pdfrwt beam="2">  1       -1 0.14427934E+00 0.24742019E+04</pdfrwt>
<totfact> 0.18290731E+00</totfact>
</mgrwt>
</event>
<event>
 6    1  0.1878398E-004  0.7367944E+03  0.7818608E-02  0.9656299E-01
          1   -1    0    0  501    0  0.00000000000E+00  0.00000000000E+00  0.13988767143E+04  0.13988767143E+04  0.00000000000E+00 0.  1.
         -1   -1    0    0    0  501 -0.00000000000E+00 -0.00000000000E+00 -0.97018187245E+02  0.97018187245E+02  0.00000000000E+00 0. -1.
         23    2    1    2    0    0  0.32896329154E+03 -0.10272274555E+03  0.43387969575E+03  0.56200194128E+03  0.93945633121E+02 0.  0.
         13    1    3    3    0    0  0.83746034134E+02 -0.61614335574E+02  0.89131425140E+02  0.13694573936E+03  0.00000000000E+00 0.  1.
        -13    1    3    3    0    0  0.24521725741E+03 -0.41108409972E+02  0.34474827061E+03  0.42505620192E+03  0.00000000000E+00 0. -1.
         22    1    1    2    0    0 -0.32896329154E+03  0.10272274555E+03  0.86797883126E+03  0.93389296022E+03  0.00000000000E+00 0.  1.
<mgrwt>
<rscale>  0 0.73679436E+03</rscale>
<asrwt>0</asrwt>
<pdfrwt beam="1">  1        1 0.21521179E+00 0.73679436E+03</pdfrwt>
<pdfrwt beam="2">  1       -1 0.14925876E-01 0.73679436E+03</pdfrwt>
<totfact> 0.25964948E+02</totfact>
</mgrwt>
</event>
<event>
 6    1  0.1878398E-004  0.2080404E+04  0.7818608E-02  0.8569925E-01
         -2   -1    0    0    0  501 -0.00000000000E+00  0.00000000000E+00  0.47264285410E+03  0.47264285410E+03  0.00000000000E+00 0. -1.
          2   -1    0    0  501    0  0.00000000000E+00 -0.00000000000E+00 -0.22892985133E+04  0.22892985133E+04  0.00000000000E+00 0.  1.
         23    2    1    2    0    0 -0.22087478876E+03 -0.54952016704E+03 -0.20421489517E+04  0.21282179962E+04  0.90451160044E+02 0.  0.
         13    1    3    3    0    0 -0.11009289584E+03 -0.37912940648E+03 -0.12862322117E+04  0.13454563743E+04  0.00000000000E+00 0.  1.
        -13    1    3    3    0    0 -0.11078189291E+03 -0.17039076056E+03 -0.75591673996E+03  0.78276162197E+03  0.00000000000E+00 0. -1.
         22    1    1    2    0    0  0.22087478876E+03  0.54952016704E+03  0.22549329243E+03  0.63372337122E+03  0.00000000000E+00 0. -1.
<mgrwt>
<rscale>  0 0.20804044E+04</rscale>
<asrwt>0</asrwt>
<pdfrwt beam="1">  1        2 0.35219977E+00 0.20804044E+04</pdfrwt>
<pdfrwt beam="2">  1       -2 0.72714285E-01 0.20804044E+04</pdfrwt>
<totfact> 0.72565194E+00</totfact>
</mgrwt>
</event>
<event>
 6    1  0.1878398E-004  0.2625188E+04  0.7818608E-02  0.8359696E-01
         -4   -1    0    0    0  501 -0.00000000000E+00  0.00000000000E+00  0.12267241040E+04  0.12267241040E+04  0.00000000000E+00 0. -1.
          4   -1    0    0  501    0  0.00000000000E+00 -0.00000000000E+00 -0.14044743638E+04  0.14044743638E+04  0.00000000000E+00 0.  1.
         23    2    1    2    0    0  0.57927912391E+03  0.93119537038E+02  0.10860788342E+04  0.12378214441E+04  0.91646831274E+02 0.  0.
         11    1    3    3    0    0  0.52133066449E+03  0.80976746560E+02  0.90785845196E+03  0.10500237445E+04  0.00000000000E+00 0. -1.
        -11    1    3    3    0    0  0.57948459413E+02  0.12142790478E+02  0.17822038227E+03  0.18779769957E+03  0.00000000000E+00 0.  1.
         22    1    1    2    0    0 -0.57927912391E+03 -0.93119537038E+02 -0.12638290940E+04  0.13933770238E+04  0.00000000000E+00 0.  1.
<mgrwt>
<rscale>  0 0.26251877E+04</rscale>
<asrwt>0</asrwt>
<pdfrwt beam="1">  1        4 0.21607298E+00 0.26251877E+04</pdfrwt>
<pdfrwt beam="2">  1       -4 0.18872679E+00 0.26251877E+04</pdfrwt>
<totfact> 0.28467813E-02</totfact>
</mgrwt>
</event>
<event>
 6    1  0.1878398E-004  0.1987301E+04  0.7818608E-02  0.8612581E-01
          2   -1    0    0  501    0  0.00000000000E+00  0.00000000000E+00  0.82541463275E+03  0.82541463275E+03  0.00000000000E+00 0.  1.
         -2   -1    0    0    0  501 -0.00000000000E+00 -0.00000000000E+00 -0.11961756573E+04  0.11961756573E+04  0.00000000000E+00 0. -1.
         23    2    1    2    0    0  0.61715931158E+03  0.52192174764E+03 -0.76996427091E+03  0.11201186275E+04  0.92373343800E+02 0.  0.
         13    1    3    3    0    0  0.45677949316E+03  0.33515007691E+03 -0.51365219430E+03  0.76472979289E+03  0.00000000000E+00 0. -1.
        -13    1    3    3    0    0  0.16037981843E+03  0.18677167073E+03 -0.25631207661E+03  0.35538883460E+03  0.00000000000E+00 0.  1.
         22    1    1    2    0    0 -0.61715931158E+03 -0.52192174764E+03  0.39920324635E+03  0.90147166258E+03  0.00000000000E+00 0.  1.
<mgrwt>
<rscale>  0 0.19873006E+04</rscale>
<asrwt>0</asrwt>
<pdfrwt beam="1">  1        2 0.12698687E+00 0.19873006E+04</pdfrwt>
<pdfrwt beam="2">  1       -2 0.18402702E+00 0.19873006E+04</pdfrwt>
<totfact> 0.52237579E+00</totfact>
</mgrwt>
</event>
<event>
 6    1  0.1878398E-004  0.2514159E+04  0.7818608E-02  0.8397959E-01
         -2   -1    0    0    0  501 -0.00000000000E+00  0.00000000000E+00  0.87045068445E+03  0.87045068445E+03  0.00000000000E+00 0. -1.
          2   -1    0    0  501    0  0.00000000000E+00 -0.00000000000E+00 -0.18154374598E+04  0.18154374598E+04  0.00000000000E+00 0.  1.
         23    2    1    2    0    0 -0.65425952465E+03  0.89648817944E+03  0.15420948393E+03  0.11238449317E+04  0.86604180506E+02 0.  0.
         11    1    3    3    0    0 -0.38883417792E+03  0.49640242108E+03  0.12501139150E+03  0.64283374956E+03  0.00000000000E+00 0. -1.
        -11    1    3    3    0    0 -0.26542534673E+03  0.40008575836E+03  0.29198092426E+02  0.48101118213E+03  0.00000000000E+00 0.  1.
         22    1    1    2    0    0  0.65425952465E+03 -0.89648817944E+03 -0.10991962593E+04  0.15620432125E+04  0.00000000000E+00 0.  1.
<mgrwt>
<rscale>  0 0.25141589E+04</rscale>
<asrwt>0</asrwt>
<pdfrwt beam="1">  1        2 0.27929807E+00 0.25141589E+04</pdfrwt>
<pdfrwt beam="2">  1       -2 0.13391549E+00 0.25141589E+04</pdfrwt>
<totfact> 0.30355737E+00</totfact>
</mgrwt>
</event>
<event>
 6    1  0.1878398E-004  0.1957775E+04  0.7818608E-02  0.8626620E-01
         -2   -1    0    0    0  501 -0.00000000000E+00  0.00000000000E+00  0.49139026676E+03  0.49139026676E+03  0.00000000000E+00 0. -1.
          2   -1    0    0  501    0  0.00000000000E+00 -0.00000000000E+00 -0.19500206058E+04  0.19500206058E+04  0.00000000000E+00 0.  1.
         23    2    1    2    0    0  0.29990538727E+02  0.65196377962E+03  0.17540503173E+03  0.68185757831E+03  0.90590449801E+02 0.  0.
         11    1    3    3    0    0 -0.28116026755E+02  0.36067259258E+03  0.90025047960E+02  0.37279986489E+03  0.00000000000E+00 0. -1.
        -11    1    3    3    0    0  0.58106565482E+02  0.29129118704E+03  0.85379983770E+02  0.30905771342E+03  0.00000000000E+00 0.  1.
         22    1    1    2    0    0 -0.29990538727E+02 -0.65196377962E+03 -0.16340353707E+04  0.17595532942E+04  0.00000000000E+00 0.  1.
<mgrwt>
<rscale>  0 0.19577754E+04</rscale>
<asrwt>0</asrwt>
<pdfrwt beam="1">  1        2 0.30000318E+00 0.19577754E+04</pdfrwt>
<pdfrwt beam="2">  1       -2 0.75598501E-01 0.19577754E+04</pdfrwt>
<totfact> 0.10416532E+01</totfact>
</mgrwt>
</event>
<event>
 6    1  0.1878398E-004  0.9607037E+03  0.7818608E-02  0.9352726E-01
          2   -1    0    0  501    0  0.00000000000E+00  0.00000000000E+00  0.21577999936E+04  0.21577999936E+04  0.00000000000E+00 0.  1.
         -2   -1    0    0    0  501 -0.00000000000E+00 -0.00000000000E+00 -0.10693200382E+03  0.10693200382E+03  0.00000000000E+00 0. -1.
         23    2    1    2    0    0 -0.21724263889E+03  0.40132710152E+03  0.13533916227E+04  0.14312266950E+04  0.92104079375E+02 0.  0.
         11    1    3    3    0    0 -0.79990382626E+02  0.11469833106E+03  0.30095571771E+03  0.33185616234E+03  0.00000000000E+00 0. -1.
        -11    1    3    3    0    0 -0.13725225627E+03  0.28662877046E+03  0.10524359050E+04  0.10993705327E+04  0.00000000000E+00 0.  1.
         22    1    1    2    0    0  0.21724263889E+03 -0.40132710152E+03  0.69747636707E+03  0.83350530244E+03  0.00000000000E+00 0. -1.
<mgrwt>
<rscale>  0 0.96070365E+03</rscale>
<asrwt>0</asrwt>
<pdfrwt beam="1">  1        2 0.33196920E+00 0.96070365E+03</pdfrwt>
<pdfrwt beam="2">  1       -2 0.16451079E-01 0.96070365E+03</pdfrwt>
<totfact> 0.16486437E+02</totfact>
</mgrwt>
</event>
<event>
 6    1  0.1878398E-004  0.1791334E+04  0.7818608E-02  0.8710921E-01
         -2   -1    0    0    0  501 -0.00000000000E+00  0.00000000000E+00  0.63664917781E+03  0.63664917781E+03  0.00000000000E+00 0. -1.
          2   -1    0    0  501    0  0.00000000000E+00 -0.00000000000E+00 -0.12600653558E+04  0.12600653558E+04  0.00000000000E+00 0.  1.
         23    2    1    2    0    0  0.80072531083E+03  0.37966281003E+03 -0.19306015495E+03  0.91156927566E+03  0.91550249505E+02 0.  0.
         11    1    3    3    0    0  0.44098709479E+03  0.20015590010E+03 -0.59496418917E+02  0.48792604561E+03  0.00000000000E+00 0. -1.
        -11    1    3    3    0    0  0.35973821603E+03  0.17950690993E+03 -0.13356373604E+03  0.42364323006E+03  0.00000000000E+00 0.  1.
         22    1    1    2    0    0 -0.80072531083E+03 -0.37966281003E+03 -0.43035602306E+03  0.98514525797E+03  0.00000000000E+00 0.  1.
<mgrwt>
<rscale>  0 0.17913342E+04</rscale>
<asrwt>0</asrwt>
<pdfrwt beam="1">  1        2 0.19385620E+00 0.17913342E+04</pdfrwt>
<pdfrwt beam="2">  1       -2 0.97946029E-01 0.17913342E+04</pdfrwt>
<totfact> 0.14301686E+01</totfact>
</mgrwt>
</event>
<event>
 6    1  0.1878398E-004  0.1542854E+04  0.7818608E-02  0.8856445E-01
         -1   -1    0    0    0  501 -0.00000000000E+00  0.00000000000E+00  0.56293308772E+03  0.56293308772E+03  0.00000000000E+00 0. -1.
          1   -1    0    0  501    0  0.00000000000E+00 -0.00000000000E+00 -0.10571408450E+04  0.10571408450E+04  0.00000000000E+00 0.  1.
         23    2    1    2    0    0 -0.71067992688E+03  0.28802787666E+03 -0.30927996767E+03  0.83126197567E+03  0.85535709441E+02 0.  0.
         13    1    3    3    0    0 -0.60311165535E+03  0.22799564888E+03 -0.22900662197E+03  0.68422928733E+03  0.00000000000E+00 0. -1.
        -13    1    3    3    0    0 -0.10756827153E+03  0.60032227787E+02 -0.80273345696E+02  0.14703268835E+03  0.00000000000E+00 0.  1.
         22    1    1    2    0    0  0.71067992688E+03 -0.28802787666E+03 -0.18492778962E+03  0.78881195705E+03  0.00000000000E+00 0. -1.
<mgrwt>
<rscale>  0 0.15428539E+04</rscale>
<asrwt>0</asrwt>
<pdfrwt beam="1">  1        1 0.16263705E+00 0.15428539E+04</pdfrwt>
<pdfrwt beam="2">  1       -1 0.86605092E-01 0.15428539E+04</pdfrwt>
<totfact> 0.17319705E+01</totfact>
</mgrwt>
</event>
<event>
 6    1  0.1878398E-004  0.1669121E+04  0.7818608E-02  0.8779175E-01
          4   -1    0    0  501    0  0.00000000000E+00  0.00000000000E+00  0.72753873802E+03  0.72753873802E+03  0.00000000000E+00 0.  1.
         -4   -1    0    0    0  501 -0.00000000000E+00 -0.00000000000E+00 -0.95732477569E+03  0.95732477569E+03  0.00000000000E+00 0. -1.
         23    2    1    2    0    0 -0.78996508300E+03  0.65789620133E+02  0.13976625461E+03  0.81025388468E+03  0.92755836629E+02 0.  0.
         13    1    3    3    0    0 -0.72300696006E+03  0.69182574337E+02  0.10237766106E+03  0.73348924898E+03  0.00000000000E+00 0.  1.
        -13    1    3    3    0    0 -0.66958122941E+02 -0.33929542034E+01  0.37388593547E+02  0.76764635696E+02  0.00000000000E+00 0. -1.
         22    1    1    2    0    0  0.78996508300E+03 -0.65789620133E+02 -0.36955229227E+03  0.87460962903E+03  0.00000000000E+00 0. -1.
<mgrwt>
<rscale>  0 0.16691206E+04</rscale>
<asrwt>0</asrwt>
<pdfrwt beam="1">  1        4 0.11192904E+00 0.16691206E+04</pdfrwt>
<pdfrwt beam="2">  1       -4 0.14728073E+00 0.16691206E+04</pdfrwt>
<totfact> 0.37508872E-01</totfact>
</mgrwt>
</event>
<event>
 6    1  0.1878398E-004  0.2302946E+04  0.7818608E-02  0.8476761E-01
         -2   -1    0    0    0  501 -0.00000000000E+00  0.00000000000E+00  0.91539010704E+03  0.91539010704E+03  0.00000000000E+00 0. -1.
          2   -1    0    0  501    0  0.00000000000E+00 -0.00000000000E+00 -0.14484423328E+04  0.14484423328E+04  0.00000000000E+00 0.  1.
         23    2    1    2    0    0  0.54225800579E+03 -0.58416182686E+03 -0.11172236954E+04  0.13756294795E+04  0.94227886953E+02 0.  0.
         11    1    3    3    0    0  0.14121943789E+03 -0.19274394335E+03 -0.39259197553E+03  0.45958852966E+03  0.00000000000E+00 0.  1.
        -11    1    3    3    0    0  0.40103856790E+03 -0.39141788351E+03 -0.72463171983E+03  0.91604094988E+03  0.00000000000E+00 0. -1.
         22    1    1    2    0    0 -0.54225800579E+03  0.58416182686E+03  0.58417146962E+03  0.98820296029E+03  0.00000000000E+00 0. -1.
<mgrwt>
<rscale>  0 0.23029458E+04</rscale>
<asrwt>0</asrwt>
<pdfrwt beam="1">  1        2 0.22283728E+00 0.23029458E+04</pdfrwt>
<pdfrwt beam="2">  1       -2 0.14082925E+00 0.23029458E+04</pdfrwt>
<totfact> 0.43534614E+00</totfact>
</mgrwt>
</event>
<event>
 6    1  0.1878398E-004  0.1586014E+04  0.7818608E-02  0.8829187E-01
         -2   -1    0    0    0  501 -0.00000000000E+00  0.00000000000E+00  0.30875446033E+03  0.30875446033E+03  0.00000000000E+00 0. -1.
          2   -1    0    0  501    0  0.00000000000E+00 -0.00000000000E+00 -0.20367639760E+04  0.20367639760E+04  0.00000000000E+00 0.  1.
         23    2    1    2    0    0  0.21265703828E+03  0.51661570536E+03 -0.40034949501E+02  0.56749342554E+03  0.91275341124E+02 0.  0.
         13    1    3    3    0    0  0.62637976211E+02  0.85375295058E+02  0.17388413195E+02  0.10730710127E+03  0.00000000000E+00 0. -1.
        -13    1    3    3    0    0  0.15001906207E+03  0.43124041030E+03 -0.57423362696E+02  0.46018632427E+03  0.00000000000E+00 0.  1.
         22    1    1    2    0    0 -0.21265703828E+03 -0.51661570536E+03 -0.16879745662E+04  0.17780250108E+04  0.00000000000E+00 0.  1.
<mgrwt>
<rscale>  0 0.15860138E+04</rscale>
<asrwt>0</asrwt>
<pdfrwt beam="1">  1        2 0.31334830E+00 0.15860138E+04</pdfrwt>
<pdfrwt beam="2">  1       -2 0.47500686E-01 0.15860138E+04</pdfrwt>
<totfact> 0.25705692E+01</totfact>
</mgrwt>
</event>
<event>
 6    1  0.1878398E-004  0.1259756E+04  0.7818608E-02  0.9062102E-01
          2   -1    0    0  501    0  0.00000000000E+00  0.00000000000E+00  0.85630080186E+03  0.85630080186E+03  0.00000000000E+00 0.  1.
         -2   -1    0    0    0  501 -0.00000000000E+00 -0.00000000000E+00 -0.46332586900E+03  0.46332586900E+03  0.00000000000E+00 0. -1.
         23    2    1    2    0    0 -0.47002300031E+03  0.37142431155E+03  0.52705427690E+01  0.60604953128E+03  0.91600304114E+02 0.  0.
         13    1    3    3    0    0 -0.38843668248E+03  0.25820025645E+03  0.87497493700E+00  0.46642383548E+03  0.00000000000E+00 0. -1.
        -13    1    3    3    0    0 -0.81586317834E+02  0.11322405510E+03  0.43955678320E+01  0.13962569580E+03  0.00000000000E+00 0.  1.
         22    1    1    2    0    0  0.47002300031E+03 -0.37142431155E+03  0.38770439010E+03  0.71357713958E+03  0.00000000000E+00 0.  1.
<mgrwt>
<rscale>  0 0.12597560E+04</rscale>
<asrwt>0</asrwt>
<pdfrwt beam="1">  1        2 0.13173858E+00 0.12597560E+04</pdfrwt>
<pdfrwt beam="2">  1       -2 0.71280903E-01 0.12597560E+04</pdfrwt>
<totfact> 0.55189837E+01</totfact>
</mgrwt>
</event>
<event>
 6    1  0.1878398E-004  0.1134875E+04  0.7818608E-02  0.9171852E-01
          2   -1    0    0  501    0  0.00000000000E+00  0.00000000000E+00  0.20681793011E+04  0.20681793011E+04  0.00000000000E+00 0.  1.
         -2   -1    0    0    0  501 -0.00000000000E+00 -0.00000000000E+00 -0.15568537592E+03  0.15568537592E+03  0.00000000000E+00 0. -1.
         23    2    1    2    0    0  0.34972851852E+03 -0.10282304432E+03  0.18052170579E+04  0.18438765964E+04  0.90496750190E+02 0.  0.
         11    1    3    3    0    0  0.20488427476E+03 -0.13299495834E+02  0.98299872901E+03  0.10042116031E+04  0.00000000000E+00 0.  1.
        -11    1    3    3    0    0  0.14484424376E+03 -0.89523548489E+02  0.82221832886E+03  0.83966499331E+03  0.00000000000E+00 0. -1.
         22    1    1    2    0    0 -0.34972851852E+03  0.10282304432E+03  0.10727686730E+03  0.37998808056E+03  0.00000000000E+00 0. -1.
<mgrwt>
<rscale>  0 0.11348749E+04</rscale>
<asrwt>0</asrwt>
<pdfrwt beam="1">  1        2 0.31818141E+00 0.11348749E+04</pdfrwt>
<pdfrwt beam="2">  1       -2 0.23951598E-01 0.11348749E+04</pdfrwt>
<totfact> 0.94256781E+01</totfact>
</mgrwt>
</event>
<event>
 6    1  0.1878398E-004  0.3033992E+04  0.7818608E-02  0.8234090E-01
         -2   -1    0    0    0  501 -0.00000000000E+00  0.00000000000E+00  0.75881182634E+03  0.75881182634E+03  0.00000000000E+00 0. -1.
          2   -1    0    0  501    0  0.00000000000E+00 -0.00000000000E+00 -0.30327363953E+04  0.30327363953E+04  0.00000000000E+00 0.  1.
         23    2    1    2    0    0  0.78856532273E+03  0.34331562708E+03  0.42165686388E+03  0.96208534874E+03  0.90071190700E+02 0.  0.
         11    1    3    3    0    0  0.27549511687E+03  0.10263030794E+03  0.10050706013E+03  0.31069632869E+03  0.00000000000E+00 0. -1.
        -11    1    3    3    0    0  0.51307020586E+03  0.24068531914E+03  0.32114980374E+03  0.65138902005E+03  0.00000000000E+00 0.  1.
         22    1    1    2    0    0 -0.78856532273E+03 -0.34331562708E+03 -0.26955814329E+04  0.28294628729E+04  0.00000000000E+00 0.  1.
<mgrwt>
<rscale>  0 0.30339916E+04</rscale>
<asrwt>0</asrwt>
<pdfrwt beam="1">  1        2 0.46657483E+00 0.30339916E+04</pdfrwt>
<pdfrwt beam="2">  1       -2 0.11674028E+00 0.30339916E+04</pdfrwt>
<totfact> 0.80510985E-01</totfact>
</mgrwt>
</event>
<event>
 6    1  0.1878398E-004  0.1242100E+04  0.7818608E-02  0.9076784E-01
          2   -1    0    0  501    0  0.00000000000E+00  0.00000000000E+00  0.34673219415E+04  0.34673219415E+04  0.00000000000E+00 0.  1.
         -2   -1    0    0    0  501 -0.00000000000E+00 -0.00000000000E+00 -0.11123948952E+03  0.11123948952E+03  0.00000000000E+00 0. -1.
         23    2    1    2    0    0  0.12892946157E+03 -0.20627134383E+03  0.33229345760E+04  0.33330630501E+04  0.90798821344E+02 0.  0.
         13    1    3    3    0    0  0.79316295322E+02 -0.48590572620E+02  0.10397389689E+04  0.10438913937E+04  0.00000000000E+00 0. -1.
        -13    1    3    3    0    0  0.49613166251E+02 -0.15768077121E+03  0.22831956071E+04  0.22891716563E+04  0.00000000000E+00 0.  1.
         22    1    1    2    0    0 -0.12892946157E+03  0.20627134383E+03  0.33147875923E+02  0.24549838090E+03  0.00000000000E+00 0. -1.
<mgrwt>
<rscale>  0 0.12421000E+04</rscale>
<asrwt>0</asrwt>
<pdfrwt beam="1">  1        2 0.53343406E+00 0.12421000E+04</pdfrwt>
<pdfrwt beam="2">  1       -2 0.17113770E-01 0.12421000E+04</pdfrwt>
<totfact> 0.24180227E+01</totfact>
</mgrwt>
</event>
<event>
 6    1  0.1878398E-004  0.1390342E+04  0.7818608E-02  0.8960840E-01
         -2   -1    0    0    0  501 -0.00000000000E+00  0.00000000000E+00  0.17192747953E+04  0.17192747953E+04  0.00000000000E+00 0. -1.
          2   -1    0    0  501    0  0.00000000000E+00 -0.00000000000E+00 -0.28108508890E+03  0.28108508890E+03  0.00000000000E+00 0.  1.
         23    2    1    2    0    0  0.21104077821E+03  0.65238725106E+03  0.58659654202E+03  0.90703547990E+03  0.92035445742E+02 0.  0.
         13    1    3    3    0    0 -0.59054153430E+01  0.63243735944E+02  0.64054050234E+02  0.90208455357E+02  0.00000000000E+00 0.  1.
        -13    1    3    3    0    0  0.21694619355E+03  0.58914351511E+03  0.52254249179E+03  0.81682702454E+03  0.00000000000E+00 0. -1.
         22    1    1    2    0    0 -0.21104077821E+03 -0.65238725106E+03  0.85159316438E+03  0.10933244043E+04  0.00000000000E+00 0.  1.
<mgrwt>
<rscale>  0 0.13903417E+04</rscale>
<asrwt>0</asrwt>
<pdfrwt beam="1">  1        2 0.43243861E-01 0.13903417E+04</pdfrwt>
<pdfrwt beam="2">  1       -2 0.26450381E+00 0.13903417E+04</pdfrwt>
<totfact> 0.60347097E+00</totfact>
</mgrwt>
</event>
<event>
 6    1  0.1878398E-004  0.2918473E+04  0.7818608E-02  0.8267402E-01
          1   -1    0    0  501    0  0.00000000000E+00  0.00000000000E+00  0.40164205719E+04  0.40164205719E+04  0.00000000000E+00 0.  1.
         -1   -1    0    0    0  501 -0.00000000000E+00 -0.00000000000E+00 -0.53016655715E+03  0.53016655715E+03  0.00000000000E+00 0. -1.
         23    2    1    2    0    0 -0.12413398120E+04  0.58994825514E+03  0.25013395669E+04  0.28557234616E+04  0.97434014102E+02 0.  0.
         13    1    3    3    0    0 -0.49111736580E+03  0.26496576048E+03  0.10950923157E+04  0.12290770118E+04  0.00000000000E+00 0. -1.
        -13    1    3    3    0    0 -0.75022244620E+03  0.32498249466E+03  0.14062472513E+04  0.16266464497E+04  0.00000000000E+00 0.  1.
         22    1    1    2    0    0  0.12413398120E+04 -0.58994825514E+03  0.98491444782E+03  0.16908636675E+04  0.00000000000E+00 0. -1.
<mgrwt>
<rscale>  0 0.29184735E+04</rscale>
<asrwt>0</asrwt>
<pdfrwt beam="1">  1        1 0.61791084E+00 0.29184735E+04</pdfrwt>
<pdfrwt beam="2">  1       -1 0.81564088E-01 0.29184735E+04</pdfrwt>
<totfact> 0.11899492E-01</totfact>
</mgrwt>
</event>
<event>
 6    1  0.1878398E-004  0.8230524E+03  0.7818608E-02  0.9527236E-01
         -2   -1    0    0    0  501 -0.00000000000E+00  0.00000000000E+00  0.24527891195E+03  0.24527891195E+03  0.00000000000E+00 0. -1.
          2   -1    0    0  501    0  0.00000000000E+00 -0.00000000000E+00 -0.69045399769E+03  0.69045399769E+03  0.00000000000E+00 0.  1.
         23    2    1    2    0    0 -0.38441855521E+03  0.96791461030E+00 -0.37567050429E+03  0.54508031552E+03  0.90585098845E+02 0.  0.
         11    1    3    3    0    0 -0.25001003454E+03  0.11414476030E+02 -0.18348808430E+03  0.31032754424E+03  0.00000000000E+00 0. -1.
        -11    1    3    3    0    0 -0.13440852067E+03 -0.10446561419E+02 -0.19218241998E+03  0.23475277128E+03  0.00000000000E+00 0.  1.
         22    1    1    2    0    0  0.38441855521E+03 -0.96791461030E+00 -0.69504581458E+02  0.39065259412E+03  0.00000000000E+00 0. -1.
<mgrwt>
<rscale>  0 0.82305238E+03</rscale>
<asrwt>0</asrwt>
<pdfrwt beam="1">  1        2 0.10622369E+00 0.82305238E+03</pdfrwt>
<pdfrwt beam="2">  1       -2 0.37735218E-01 0.82305238E+03</pdfrwt>
<totfact> 0.27760493E+02</totfact>
</mgrwt>
</event>
<event>
 6    1  0.1878398E-004  0.2584728E+04  0.7818608E-02  0.8373407E-01
         -1   -1    0    0    0  501 -0.00000000000E+00  0.00000000000E+00  0.85031814543E+03  0.85031814543E+03  0.00000000000E+00 0.  1.
          1   -1    0    0  501    0  0.00000000000E+00 -0.00000000000E+00 -0.19642122841E+04  0.19642122841E+04  0.00000000000E+00 0. -1.
         23    2    1    2    0    0 -0.29309121989E+03 -0.82424375937E+03  0.47634499909E+03  0.99955363813E+03  0.83202639999E+02 0.  0.
         11    1    3    3    0    0 -0.16902396906E+03 -0.53670957767E+03  0.34445655371E+03  0.65975494714E+03  0.00000000000E+00 0.  1.
        -11    1    3    3    0    0 -0.12406725083E+03 -0.28753418170E+03  0.13188844538E+03  0.33979869099E+03  0.00000000000E+00 0. -1.
         22    1    1    2    0    0  0.29309121989E+03  0.82424375937E+03 -0.15902391378E+04  0.18149767914E+04  0.00000000000E+00 0. -1.
<mgrwt>
<rscale>  0 0.25847285E+04</rscale>
<asrwt>0</asrwt>
<pdfrwt beam="1">  1        1 0.30218650E+00 0.25847285E+04</pdfrwt>
<pdfrwt beam="2">  1       -1 0.13081818E+00 0.25847285E+04</pdfrwt>
<totfact> 0.13870755E+00</totfact>
</mgrwt>
</event>
<event>
 6    1  0.1878398E-004  0.1290697E+04  0.7818608E-02  0.9036976E-01
         -2   -1    0    0    0  501 -0.00000000000E+00  0.00000000000E+00  0.19140994530E+03  0.19140994530E+03  0.00000000000E+00 0. -1.
          2   -1    0    0  501    0  0.00000000000E+00 -0.00000000000E+00 -0.21758245031E+04  0.21758245031E+04  0.00000000000E+00 0.  1.
         23    2    1    2    0    0 -0.27154652052E+03 -0.39038432428E+03 -0.17873098191E+04  0.18524648772E+04  0.10493949707E+03 0.  0.
         13    1    3    3    0    0 -0.71714154150E+02 -0.36251684749E+02 -0.29571478923E+03  0.30643815220E+03  0.00000000000E+00 0. -1.
        -13    1    3    3    0    0 -0.19983236637E+03 -0.35413263953E+03 -0.14915950299E+04  0.15460267250E+04  0.00000000000E+00 0.  1.
         22    1    1    2    0    0  0.27154652052E+03  0.39038432428E+03 -0.19710473863E+03  0.51476957121E+03  0.00000000000E+00 0. -1.
<mgrwt>
<rscale>  0 0.12906966E+04</rscale>
<asrwt>0</asrwt>
<pdfrwt beam="1">  1        2 0.33474223E+00 0.12906966E+04</pdfrwt>
<pdfrwt beam="2">  1       -2 0.29447684E-01 0.12906966E+04</pdfrwt>
<totfact> 0.55588514E+01</totfact>
</mgrwt>
</event>
<event>
 6    1  0.1878398E-004  0.3542867E+04  0.7818608E-02  0.8103706E-01
         -2   -1    0    0    0  501 -0.00000000000E+00  0.00000000000E+00  0.10775282035E+04  0.10775282035E+04  0.00000000000E+00 0. -1.
          2   -1    0    0  501    0  0.00000000000E+00 -0.00000000000E+00 -0.29121988016E+04  0.29121988016E+04  0.00000000000E+00 0.  1.
         23    2    1    2    0    0  0.16641952355E+03  0.12657048330E+04  0.46306699080E+03  0.13611718488E+04  0.93024631186E+02 0.  0.
         13    1    3    3    0    0  0.47564080331E+02  0.24683138518E+03  0.12776752363E+03  0.28197981229E+03  0.00000000000E+00 0. -1.
        -13    1    3    3    0    0  0.11885544322E+03  0.10188734478E+04  0.33529946717E+03  0.10791920365E+04  0.00000000000E+00 0.  1.
         22    1    1    2    0    0 -0.16641952355E+03 -0.12657048330E+04 -0.22977375889E+04  0.26285551562E+04  0.00000000000E+00 0.  1.
<mgrwt>
<rscale>  0 0.35428668E+04</rscale>
<asrwt>0</asrwt>
<pdfrwt beam="1">  1        2 0.44803059E+00 0.35428668E+04</pdfrwt>
<pdfrwt beam="2">  1       -2 0.16577357E+00 0.35428668E+04</pdfrwt>
<totfact> 0.36932207E-01</totfact>
</mgrwt>
</event>
<event>
 6    1  0.1878398E-004  0.5189596E+04  0.7818608E-02  0.7799908E-01
         -1   -1    0    0    0  501 -0.00000000000E+00  0.00000000000E+00  0.26646051938E+04  0.26646051938E+04  0.00000000000E+00 0.  1.
          1   -1    0    0  501    0  0.00000000000E+00 -0.00000000000E+00 -0.25268197081E+04  0.25268197081E+04  0.00000000000E+00 0. -1.
         23    2    1    2    0    0  0.69739556910E+03  0.86641180457E+03  0.24131748744E+04  0.26587530193E+04  0.92329021002E+02 0.  0.
         13    1    3    3    0    0  0.39417291291E+03  0.50044241482E+03  0.12732685330E+04  0.14237372135E+04  0.00000000000E+00 0. -1.
        -13    1    3    3    0    0  0.30322265620E+03  0.36596938974E+03  0.11399063414E+04  0.12350158058E+04  0.00000000000E+00 0.  1.
         22    1    1    2    0    0 -0.69739556910E+03 -0.86641180457E+03 -0.22753893887E+04  0.25326718826E+04  0.00000000000E+00 0. -1.
<mgrwt>
<rscale>  0 0.51895961E+04</rscale>
<asrwt>0</asrwt>
<pdfrwt beam="1">  1        1 0.38874149E+00 0.51895961E+04</pdfrwt>
<pdfrwt beam="2">  1       -1 0.40993926E+00 0.51895961E+04</pdfrwt>
<totfact> 0.56497185E-03</totfact>
</mgrwt>
</event>
<event>
 6    1  0.1878398E-004  0.1553010E+04  0.7818608E-02  0.8849947E-01
          2   -1    0    0  501    0  0.00000000000E+00  0.00000000000E+00  0.10232651963E+04  0.10232651963E+04  0.00000000000E+00 0.  1.
         -2   -1    0    0    0  501 -0.00000000000E+00 -0.00000000000E+00 -0.58925129198E+03  0.58925129198E+03  0.00000000000E+00 0. -1.
         23    2    1    2    0    0  0.22088839043E+03 -0.40184334715E+03  0.86502625990E+03  0.98319827991E+03  0.90214581004E+02 0.  0.
         11    1    3    3    0    0  0.69894005732E+02 -0.21600442837E+03  0.39119637296E+03  0.45230265014E+03  0.00000000000E+00 0. -1.
        -11    1    3    3    0    0  0.15099438470E+03 -0.18583891878E+03  0.47382988695E+03  0.53089562977E+03  0.00000000000E+00 0.  1.
         22    1    1    2    0    0 -0.22088839043E+03  0.40184334715E+03 -0.43101235561E+03  0.62931820835E+03  0.00000000000E+00 0. -1.
<mgrwt>
<rscale>  0 0.15530104E+04</rscale>
<asrwt>0</asrwt>
<pdfrwt beam="1">  1        2 0.15742541E+00 0.15530104E+04</pdfrwt>
<pdfrwt beam="2">  1       -2 0.90654045E-01 0.15530104E+04</pdfrwt>
<totfact> 0.24348174E+01</totfact>
</mgrwt>
</event>
<event>
 6    1  0.1878398E-004  0.3702533E+04  0.7818608E-02  0.8067401E-01
          2   -1    0    0  501    0  0.00000000000E+00  0.00000000000E+00  0.27809613548E+04  0.27809613548E+04  0.00000000000E+00 0.  1.
         -2   -1    0    0    0  501 -0.00000000000E+00 -0.00000000000E+00 -0.12323752185E+04  0.12323752185E+04  0.00000000000E+00 0. -1.
         23    2    1    2    0    0 -0.40315171164E+03 -0.11849361891E+04 -0.70214918267E+03  0.14379891111E+04  0.90521456392E+02 0.  0.
         11    1    3    3    0    0 -0.68702828014E+02 -0.12720245415E+03 -0.63118811005E+02  0.15774830339E+03  0.00000000000E+00 0. -1.
        -11    1    3    3    0    0 -0.33444888363E+03 -0.10577337350E+04 -0.63903037167E+03  0.12802408077E+04  0.00000000000E+00 0.  1.
         22    1    1    2    0    0  0.40315171164E+03  0.11849361891E+04  0.22507353189E+04  0.25753474622E+04  0.00000000000E+00 0.  1.
<mgrwt>
<rscale>  0 0.37025331E+04</rscale>
<asrwt>0</asrwt>
<pdfrwt beam="1">  1        2 0.42784021E+00 0.37025331E+04</pdfrwt>
<pdfrwt beam="2">  1       -2 0.18959619E+00 0.37025331E+04</pdfrwt>
<totfact> 0.29923630E-01</totfact>
</mgrwt>
</event>
<event>
 6    1  0.1878398E-004  0.1295841E+04  0.7818608E-02  0.9032870E-01
         -1   -1    0    0    0  501 -0.00000000000E+00  0.00000000000E+00  0.36978528448E+03  0.36978528448E+03  0.00000000000E+00 0. -1.
          1   -1    0    0  501    0  0.00000000000E+00 -0.00000000000E+00 -0.11352554026E+04  0.11352554026E+04  0.00000000000E+00 0.  1.
         23    2    1    2    0    0  0.42133191180E+03 -0.59691120083E+01  0.18163778278E+03  0.46842620418E+03  0.94205171983E+02 0.  0.
         13    1    3    3    0    0  0.17945686991E+03  0.91085572119E+01  0.12689016303E+03  0.21997465183E+03  0.00000000000E+00 0. -1.
        -13    1    3    3    0    0  0.24187504189E+03 -0.15077669220E+02  0.54747619754E+02  0.24845155235E+03  0.00000000000E+00 0.  1.
         22    1    1    2    0    0 -0.42133191180E+03  0.59691120083E+01 -0.94710790095E+03  0.10366144829E+04  0.00000000000E+00 0.  1.
<mgrwt>
<rscale>  0 0.12958406E+04</rscale>
<asrwt>0</asrwt>
<pdfrwt beam="1">  1        1 0.17465468E+00 0.12958406E+04</pdfrwt>
<pdfrwt beam="2">  1       -1 0.56890044E-01 0.12958406E+04</pdfrwt>
<totfact> 0.36672771E+01</totfact>
</mgrwt>
</event>
<event>
 6    1  0.1878398E-004  0.1868789E+04  0.7818608E-02  0.8670550E-01
          4   -1    0    0  501    0  0.00000000000E+00  0.00000000000E+00  0.57982021435E+03  0.57982021435E+03  0.00000000000E+00 0.  1.
         -4   -1    0    0    0  501 -0.00000000000E+00 -0.00000000000E+00 -0.15057992414E+04  0.15057992414E+04  0.00000000000E+00 0. -1.
         23    2    1    2    0    0  0.83169217314E+03 -0.39130378551E+03 -0.29106111871E+03  0.96850206095E+03  0.91919224495E+02 0.  0.
         13    1    3    3    0    0  0.48713287289E+03 -0.26981582650E+03 -0.20278582245E+03  0.59263910254E+03  0.00000000000E+00 0. -1.
        -13    1    3    3    0    0  0.34455930026E+03 -0.12148795901E+03 -0.88275296257E+02  0.37586295841E+03  0.00000000000E+00 0.  1.
         22    1    1    2    0    0 -0.83169217314E+03  0.39130378551E+03 -0.63491790832E+03  0.11171173948E+04  0.00000000000E+00 0. -1.
<mgrwt>
<rscale>  0 0.18687887E+04</rscale>
<asrwt>0</asrwt>
<pdfrwt beam="1">  1        4 0.89203111E-01 0.18687887E+04</pdfrwt>
<pdfrwt beam="2">  1       -4 0.23166142E+00 0.18687887E+04</pdfrwt>
<totfact> 0.16701447E-01</totfact>
</mgrwt>
</event>
<event>
 6    1  0.1878398E-004  0.6592936E+03  0.7818608E-02  0.9789495E-01
         -1   -1    0    0    0  501 -0.00000000000E+00  0.00000000000E+00  0.36035367197E+03  0.36035367197E+03  0.00000000000E+00 0. -1.
          1   -1    0    0  501    0  0.00000000000E+00 -0.00000000000E+00 -0.30155651758E+03  0.30155651758E+03  0.00000000000E+00 0.  1.
         23    2    1    2    0    0 -0.23959771352E+03  0.14178927381E+03 -0.13521783086E+03  0.32256806574E+03  0.90857210845E+02 0.  0.
         11    1    3    3    0    0 -0.15157723764E+03  0.81359400382E+02 -0.13008253670E+03  0.21567678910E+03  0.00000000000E+00 0.  1.
        -11    1    3    3    0    0 -0.88020475875E+02  0.60429873430E+02 -0.51352941590E+01  0.10689127664E+03  0.00000000000E+00 0. -1.
         22    1    1    2    0    0  0.23959771352E+03 -0.14178927381E+03  0.19401498525E+03  0.33934212381E+03  0.00000000000E+00 0. -1.
<mgrwt>
<rscale>  0 0.65929356E+03</rscale>
<asrwt>0</asrwt>
<pdfrwt beam="1">  1        1 0.46393310E-01 0.65929356E+03</pdfrwt>
<pdfrwt beam="2">  1       -1 0.55439027E-01 0.65929356E+03</pdfrwt>
<totfact> 0.29054582E+02</totfact>
</mgrwt>
</event>
<event>
 6    1  0.1878398E-004  0.4787225E+04  0.7818608E-02  0.7862195E-01
          2   -1    0    0  501    0  0.00000000000E+00  0.00000000000E+00  0.18351588089E+04  0.18351588089E+04  0.00000000000E+00 0.  1.
         -2   -1    0    0    0  501 -0.00000000000E+00 -0.00000000000E+00 -0.31220086724E+04  0.31220086724E+04  0.00000000000E+00 0. -1.
         23    2    1    2    0    0  0.37485066248E+03 -0.21330137848E+04 -0.16971352315E+04  0.27529454170E+04  0.90441415941E+02 0.  0.
         11    1    3    3    0    0  0.33393623940E+03 -0.19237420025E+04 -0.14949996257E+04  0.24591300464E+04  0.00000000000E+00 0.  1.
        -11    1    3    3    0    0  0.40914423081E+02 -0.20927178230E+03 -0.20213560584E+03  0.29381537065E+03  0.00000000000E+00 0. -1.
         22    1    1    2    0    0 -0.37485066248E+03  0.21330137848E+04  0.41028536794E+03  0.22042220643E+04  0.00000000000E+00 0. -1.
<mgrwt>
<rscale>  0 0.47872254E+04</rscale>
<asrwt>0</asrwt>
<pdfrwt beam="1">  1        2 0.28233212E+00 0.47872254E+04</pdfrwt>
<pdfrwt beam="2">  1       -2 0.48030903E+00 0.47872254E+04</pdfrwt>
<totfact> 0.13481405E-02</totfact>
</mgrwt>
</event>
<event>
 6    1  0.1878398E-004  0.1943594E+04  0.7818608E-02  0.8633456E-01
         -2   -1    0    0    0  501 -0.00000000000E+00  0.00000000000E+00  0.36820432761E+03  0.36820432761E+03  0.00000000000E+00 0. -1.
          2   -1    0    0  501    0  0.00000000000E+00 -0.00000000000E+00 -0.25648520878E+04  0.25648520878E+04  0.00000000000E+00 0.  1.
         23    2    1    2    0    0  0.82111549156E+03 -0.42754299348E+03 -0.15373984978E+04  0.17965559747E+04  0.83639508805E+02 0.  0.
         11    1    3    3    0    0  0.35521366166E+03 -0.20063796113E+03 -0.75346623556E+03  0.85682186305E+03  0.00000000000E+00 0. -1.
        -11    1    3    3    0    0  0.46590182990E+03 -0.22690503235E+03 -0.78393226225E+03  0.93973411166E+03  0.00000000000E+00 0.  1.
         22    1    1    2    0    0 -0.82111549156E+03  0.42754299348E+03 -0.65924926237E+03  0.11365004407E+04  0.00000000000E+00 0. -1.
<mgrwt>
<rscale>  0 0.19435942E+04</rscale>
<asrwt>0</asrwt>
<pdfrwt beam="1">  1        2 0.39459261E+00 0.19435942E+04</pdfrwt>
<pdfrwt beam="2">  1       -2 0.56646822E-01 0.19435942E+04</pdfrwt>
<totfact> 0.87140098E+00</totfact>
</mgrwt>
</event>
<event>
 6    1  0.1878398E-004  0.1841732E+04  0.7818608E-02  0.8684416E-01
          2   -1    0    0  501    0  0.00000000000E+00  0.00000000000E+00  0.72128808521E+03  0.72128808521E+03  0.00000000000E+00 0.  1.
         -2   -1    0    0    0  501 -0.00000000000E+00 -0.00000000000E+00 -0.11756662667E+04  0.11756662667E+04  0.00000000000E+00 0. -1.
         23    2    1    2    0    0 -0.22545006061E+03  0.56766964237E+03  0.47917986517E+03  0.78133471279E+03  0.88283846343E+02 0.  0.
         11    1    3    3    0    0 -0.89327166192E+01  0.11396965496E+03  0.83052170067E+02  0.14130300291E+03  0.00000000000E+00 0.  1.
        -11    1    3    3    0    0 -0.21651734399E+03  0.45369998741E+03  0.39612769511E+03  0.64003170988E+03  0.00000000000E+00 0. -1.
         22    1    1    2    0    0  0.22545006061E+03 -0.56766964237E+03 -0.93355804668E+03  0.11156196391E+04  0.00000000000E+00 0. -1.
<mgrwt>
<rscale>  0 0.18417319E+04</rscale>
<asrwt>0</asrwt>
<pdfrwt beam="1">  1        2 0.11096740E+00 0.18417319E+04</pdfrwt>
<pdfrwt beam="2">  1       -2 0.18087173E+00 0.18417319E+04</pdfrwt>
<totfact> 0.66315377E+00</totfact>
</mgrwt>
</event>
<event>
 6    1  0.1878398E-004  0.1550026E+04  0.7818608E-02  0.8851851E-01
         -2   -1    0    0    0  501 -0.00000000000E+00  0.00000000000E+00  0.62092000811E+03  0.62092000811E+03  0.00000000000E+00 0. -1.
          2   -1    0    0  501    0  0.00000000000E+00 -0.00000000000E+00 -0.96734683748E+03  0.96734683748E+03  0.00000000000E+00 0.  1.
         23    2    1    2    0    0 -0.73122131161E+03 -0.58912121945E+02 -0.42121258437E+03  0.85087403722E+03  0.91713365001E+02 0.  0.
         13    1    3    3    0    0 -0.52025697176E+03 -0.27108957948E+02 -0.25277105529E+03  0.57904699175E+03  0.00000000000E+00 0.  1.
        -13    1    3    3    0    0 -0.21096433985E+03 -0.31803163997E+02 -0.16844152909E+03  0.27182704547E+03  0.00000000000E+00 0. -1.
         22    1    1    2    0    0  0.73122131161E+03  0.58912121945E+02  0.74785755002E+02  0.73739280836E+03  0.00000000000E+00 0.  1.
<mgrwt>
<rscale>  0 0.15500258E+04</rscale>
<asrwt>0</asrwt>
<pdfrwt beam="1">  1        2 0.14882259E+00 0.15500258E+04</pdfrwt>
<pdfrwt beam="2">  1       -2 0.95526155E-01 0.15500258E+04</pdfrwt>
<totfact> 0.23426921E+01</totfact>
</mgrwt>
</event>
<event>
 6    1  0.1878398E-004  0.1899094E+04  0.7818608E-02  0.8655307E-01
         -2   -1    0    0    0  501 -0.00000000000E+00  0.00000000000E+00  0.10276520609E+04  0.10276520609E+04  0.00000000000E+00 0. -1.
          2   -1    0    0  501    0  0.00000000000E+00 -0.00000000000E+00 -0.87737821697E+03  0.87737821697E+03  0.00000000000E+00 0.  1.
         23    2    1    2    0    0 -0.54436539078E+03  0.53614978984E+03  0.63714354201E+03  0.99903227633E+03  0.91232232308E+02 0.  0.
         13    1    3    3    0    0 -0.29292305020E+03  0.31583704797E+03  0.41131240540E+03  0.59559621309E+03  0.00000000000E+00 0.  1.
        -13    1    3    3    0    0 -0.25144234058E+03  0.22031274187E+03  0.22583113661E+03  0.40343606325E+03  0.00000000000E+00 0. -1.
         22    1    1    2    0    0  0.54436539078E+03 -0.53614978984E+03 -0.48686969809E+03  0.90599800151E+03  0.00000000000E+00 0. -1.
<mgrwt>
<rscale>  0 0.18990940E+04</rscale>
<asrwt>0</asrwt>
<pdfrwt beam="1">  1        2 0.13498126E+00 0.18990940E+04</pdfrwt>
<pdfrwt beam="2">  1       -2 0.15810032E+00 0.18990940E+04</pdfrwt>
<totfact> 0.74024584E+00</totfact>
</mgrwt>
</event>
<event>
 6    1  0.1878398E-004  0.1931282E+04  0.7818608E-02  0.8639440E-01
          2   -1    0    0  501    0  0.00000000000E+00  0.00000000000E+00  0.48414204644E+03  0.48414204644E+03  0.00000000000E+00 0.  1.
         -2   -1    0    0    0  501 -0.00000000000E+00 -0.00000000000E+00 -0.19260096668E+04  0.19260096668E+04  0.00000000000E+00 0. -1.
         23    2    1    2    0    0  0.28682953205E+03 -0.16241080533E+03 -0.18524063715E+04  0.18836628565E+04  0.90155097255E+02 0.  0.
         11    1    3    3    0    0  0.13651682321E+03 -0.74808415655E+02 -0.11261695149E+04  0.11368777060E+04  0.00000000000E+00 0. -1.
        -11    1    3    3    0    0  0.15031270884E+03 -0.87602389678E+02 -0.72623685658E+03  0.74678515047E+03  0.00000000000E+00 0.  1.
         22    1    1    2    0    0 -0.28682953205E+03  0.16241080533E+03  0.41053875112E+03  0.52648885678E+03  0.00000000000E+00 0.  1.
<mgrwt>
<rscale>  0 0.19312817E+04</rscale>
<asrwt>0</asrwt>
<pdfrwt beam="1">  1        2 0.74483391E-01 0.19312817E+04</pdfrwt>
<pdfrwt beam="2">  1       -2 0.29630918E+00 0.19312817E+04</pdfrwt>
<totfact> 0.20018061E+00</totfact>
</mgrwt>
</event>
<event>
 6    1  0.1878398E-004  0.1409907E+04  0.7818608E-02  0.8946678E-01
          2   -1    0    0  501    0  0.00000000000E+00  0.00000000000E+00  0.21139182145E+04  0.21139182145E+04  0.00000000000E+00 0.  1.
         -2   -1    0    0    0  501 -0.00000000000E+00 -0.00000000000E+00 -0.23508935801E+03  0.23508935801E+03  0.00000000000E+00 0. -1.
         23    2    1    2    0    0  0.58448709727E+03  0.37641426298E+03  0.77695723935E+03  0.10461515080E+04  0.86357174552E+02 0.  0.
         13    1    3    3    0    0  0.29467058746E+03  0.20248244975E+03  0.46167874508E+03  0.58393249715E+03  0.00000000000E+00 0.  1.
        -13    1    3    3    0    0  0.28981650981E+03  0.17393181323E+03  0.31527849427E+03  0.46221901081E+03  0.00000000000E+00 0. -1.
         22    1    1    2    0    0 -0.58448709727E+03 -0.37641426298E+03  0.11018716171E+04  0.13028560645E+04  0.00000000000E+00 0.  1.
<mgrwt>
<rscale>  0 0.14099073E+04</rscale>
<asrwt>0</asrwt>
<pdfrwt beam="1">  1        2 0.32521817E+00 0.14099073E+04</pdfrwt>
<pdfrwt beam="2">  1       -2 0.36167595E-01 0.14099073E+04</pdfrwt>
<totfact> 0.40418643E+01</totfact>
</mgrwt>
</event>
<event>
 6    1  0.1878398E-004  0.9967451E+03  0.7818608E-02  0.9312122E-01
          2   -1    0    0  501    0  0.00000000000E+00  0.00000000000E+00  0.19664436109E+04  0.19664436109E+04  0.00000000000E+00 0.  1.
         -2   -1    0    0    0  501 -0.00000000000E+00 -0.00000000000E+00 -0.12630680958E+03  0.12630680958E+03  0.00000000000E+00 0. -1.
         23    2    1    2    0    0 -0.49365146008E+03  0.39626009174E+02  0.91283207856E+03  0.10414864035E+04  0.78546421338E+02 0.  0.
         13    1    3    3    0    0 -0.35267286582E+03 -0.58441116318E+01  0.61960159617E+03  0.71296454463E+03  0.00000000000E+00 0. -1.
        -13    1    3    3    0    0 -0.14097859425E+03  0.45470120806E+02  0.29323048239E+03  0.32852185883E+03  0.00000000000E+00 0.  1.
         22    1    1    2    0    0  0.49365146008E+03 -0.39626009174E+02  0.92730472280E+03  0.10512640171E+04  0.00000000000E+00 0. -1.
<mgrwt>
<rscale>  0 0.99674514E+03</rscale>
<asrwt>0</asrwt>
<pdfrwt beam="1">  1        2 0.30252976E+00 0.99674514E+03</pdfrwt>
<pdfrwt beam="2">  1       -2 0.19431818E-01 0.99674514E+03</pdfrwt>
<totfact> 0.15711485E+02</totfact>
</mgrwt>
</event>
<event>
 6    1  0.1878398E-004  0.1530658E+04  0.7818608E-02  0.8864318E-01
         -2   -1    0    0    0  501 -0.00000000000E+00  0.00000000000E+00  0.47357233478E+03  0.47357233478E+03  0.00000000000E+00 0. -1.
          2   -1    0    0  501    0  0.00000000000E+00 -0.00000000000E+00 -0.12368294946E+04  0.12368294946E+04  0.00000000000E+00 0.  1.
         23    2    1    2    0    0 -0.64582311073E+03 -0.18758866246E+03  0.18819710732E+02  0.67893625648E+03  0.91231914445E+02 0.  0.
         13    1    3    3    0    0 -0.34297104955E+03 -0.68932784065E+02 -0.25043794991E+02  0.35072505074E+03  0.00000000000E+00 0.  1.
        -13    1    3    3    0    0 -0.30285206117E+03 -0.11865587840E+03  0.43863505723E+02  0.32821120574E+03  0.00000000000E+00 0. -1.
         22    1    1    2    0    0  0.64582311073E+03  0.18758866246E+03 -0.78207687055E+03  0.10314655729E+04  0.00000000000E+00 0.  1.
<mgrwt>
<rscale>  0 0.15306577E+04</rscale>
<asrwt>0</asrwt>
<pdfrwt beam="1">  1        2 0.19028146E+00 0.15306577E+04</pdfrwt>
<pdfrwt beam="2">  1       -2 0.72857283E-01 0.15306577E+04</pdfrwt>
<totfact> 0.29557512E+01</totfact>
</mgrwt>
</event>
<event>
 6    1  0.1878398E-004  0.9933247E+03  0.7818608E-02  0.9315897E-01
          2   -1    0    0  501    0  0.00000000000E+00  0.00000000000E+00  0.10889334997E+03  0.10889334997E+03  0.00000000000E+00 0.  1.
         -2   -1    0    0    0  501 -0.00000000000E+00 -0.00000000000E+00 -0.22652757873E+04  0.22652757873E+04  0.00000000000E+00 0. -1.
         23    2    1    2    0    0  0.50065816002E+02  0.28325792798E+03 -0.20427202812E+04  0.20648784562E+04  0.90968411785E+02 0.  0.
         11    1    3    3    0    0  0.21627338190E+02  0.52825159654E+01 -0.15182136014E+03  0.15344501336E+03  0.00000000000E+00 0.  1.
        -11    1    3    3    0    0  0.28438477813E+02  0.27797541201E+03 -0.18908989210E+04  0.19114334428E+04  0.00000000000E+00 0. -1.
         22    1    1    2    0    0 -0.50065816002E+02 -0.28325792798E+03 -0.11366215621E+03  0.30929068115E+03  0.00000000000E+00 0.  1.
<mgrwt>
<rscale>  0 0.99332466E+03</rscale>
<asrwt>0</asrwt>
<pdfrwt beam="1">  1        2 0.16752824E-01 0.99332466E+03</pdfrwt>
<pdfrwt beam="2">  1       -2 0.34850394E+00 0.99332466E+03</pdfrwt>
<totfact> 0.57152249E+00</totfact>
</mgrwt>
</event>
<event>
 6    1  0.1960511E-004  0.2677522E+04  0.7818608E-02  0.8342335E-01
         -1   -1    0    0    0  501 -0.00000000000E+00  0.00000000000E+00  0.83615688545E+03  0.83615688545E+03  0.00000000000E+00 0. -1.
          1   -1    0    0  501    0  0.00000000000E+00 -0.00000000000E+00 -0.21434740956E+04  0.21434740956E+04  0.00000000000E+00 0.  1.
         23    2    1    2    0    0 -0.29631308613E+02  0.44353083314E+03  0.74910196520E+03  0.87571619211E+03  0.90152540010E+02 0.  0.
         11    1    3    3    0    0 -0.22366278920E+02  0.90571859998E+02  0.22737774913E+03  0.24577256367E+03  0.00000000000E+00 0.  1.
        -11    1    3    3    0    0 -0.72650296926E+01  0.35295897314E+03  0.52172421607E+03  0.62994362844E+03  0.00000000000E+00 0. -1.
         22    1    1    2    0    0  0.29631308613E+02 -0.44353083314E+03 -0.20564191753E+04  0.21039147889E+04  0.00000000000E+00 0.  1.
<mgrwt>
<rscale>  0 0.26775217E+04</rscale>
<asrwt>0</asrwt>
<pdfrwt beam="1">  1        1 0.32976524E+00 0.26775217E+04</pdfrwt>
<pdfrwt beam="2">  1       -1 0.12863952E+00 0.26775217E+04</pdfrwt>
<totfact> 0.10843908E+00</totfact>
</mgrwt>
</event>
<event>
 6    1  0.1878398E-004  0.3751206E+04  0.7818608E-02  0.8056708E-01
         -2   -1    0    0    0  501 -0.00000000000E+00  0.00000000000E+00  0.46992797328E+04  0.46992797328E+04  0.00000000000E+00 0. -1.
          2   -1    0    0  501    0  0.00000000000E+00 -0.00000000000E+00 -0.74860110732E+03  0.74860110732E+03  0.00000000000E+00 0.  1.
         23    2    1    2    0    0 -0.12918209343E+04 -0.86063305382E+03  0.45034472397E+03  0.16188041888E+04  0.90697582838E+02 0.  0.
         11    1    3    3    0    0 -0.25644130761E+03 -0.20480124271E+03  0.12019341334E+03  0.34950271798E+03  0.00000000000E+00 0.  1.
        -11    1    3    3    0    0 -0.10353796267E+04 -0.65583181111E+03  0.33015131063E+03  0.12693014708E+04  0.00000000000E+00 0. -1.
         22    1    1    2    0    0  0.12918209343E+04  0.86063305382E+03  0.35003339015E+04  0.38290766513E+04  0.00000000000E+00 0. -1.
<mgrwt>
<rscale>  0 0.37512057E+04</rscale>
<asrwt>0</asrwt>
<pdfrwt beam="1">  1        2 0.11516940E+00 0.37512057E+04</pdfrwt>
<pdfrwt beam="2">  1       -2 0.72296609E+00 0.37512057E+04</pdfrwt>
<totfact> 0.56369461E-03</totfact>
</mgrwt>
</event>
<event>
 6    1  0.1878398E-004  0.2997503E+04  0.7818608E-02  0.8244444E-01
         -1   -1    0    0    0  501 -0.00000000000E+00  0.00000000000E+00  0.80555740739E+03  0.80555740739E+03  0.00000000000E+00 0. -1.
          1   -1    0    0  501    0  0.00000000000E+00 -0.00000000000E+00 -0.27884485365E+04  0.27884485365E+04  0.00000000000E+00 0.  1.
         23    2    1    2    0    0 -0.12572040645E+04 -0.80275711130E+03 -0.82925112552E+03  0.17083054647E+04  0.75293372906E+02 0.  0.
         11    1    3    3    0    0 -0.50277643123E+03 -0.29129210526E+03 -0.35364388841E+03  0.68021998662E+03  0.00000000000E+00 0. -1.
        -11    1    3    3    0    0 -0.75442763322E+03 -0.51146500604E+03 -0.47560723711E+03  0.10280854780E+04  0.00000000000E+00 0.  1.
         22    1    1    2    0    0  0.12572040645E+04  0.80275711130E+03 -0.11536400036E+04  0.18857004792E+04  0.00000000000E+00 0.  1.
<mgrwt>
<rscale>  0 0.29975025E+04</rscale>
<asrwt>0</asrwt>
<pdfrwt beam="1">  1        1 0.42899208E+00 0.29975025E+04</pdfrwt>
<pdfrwt beam="2">  1       -1 0.12393191E+00 0.29975025E+04</pdfrwt>
<totfact> 0.41308868E-01</totfact>
</mgrwt>
</event>
<event>
 6    1  0.1878398E-004  0.1608839E+04  0.7818608E-02  0.8815136E-01
          2   -1    0    0  501    0  0.00000000000E+00  0.00000000000E+00  0.40063073768E+03  0.40063073768E+03  0.00000000000E+00 0.  1.
         -2   -1    0    0    0  501 -0.00000000000E+00 -0.00000000000E+00 -0.16151809272E+04  0.16151809272E+04  0.00000000000E+00 0. -1.
         23    2    1    2    0    0 -0.30716206724E+03  0.34864575888E+03 -0.14281197561E+04  0.15044269168E+04  0.88723783384E+02 0.  0.
         13    1    3    3    0    0 -0.16410615332E+03  0.21956894892E+03 -0.95540069658E+03  0.99394760622E+03  0.00000000000E+00 0.  1.
        -13    1    3    3    0    0 -0.14305591393E+03  0.12907680996E+03 -0.47271905948E+03  0.51047931062E+03  0.00000000000E+00 0. -1.
         22    1    1    2    0    0  0.30716206724E+03 -0.34864575888E+03  0.21356956657E+03  0.51138474802E+03  0.00000000000E+00 0.  1.
<mgrwt>
<rscale>  0 0.16088395E+04</rscale>
<asrwt>0</asrwt>
<pdfrwt beam="1">  1        2 0.61635497E-01 0.16088395E+04</pdfrwt>
<pdfrwt beam="2">  1       -2 0.24848938E+00 0.16088395E+04</pdfrwt>
<totfact> 0.49950399E+00</totfact>
</mgrwt>
</event>
<event>
 6    1  0.1878398E-004  0.2709331E+04  0.7818608E-02  0.8331984E-01
         -2   -1    0    0    0  501 -0.00000000000E+00  0.00000000000E+00  0.69533373627E+03  0.69533373627E+03  0.00000000000E+00 0. -1.
          2   -1    0    0  501    0  0.00000000000E+00 -0.00000000000E+00 -0.26391905678E+04  0.26391905678E+04  0.00000000000E+00 0.  1.
         23    2    1    2    0    0 -0.44628084816E+03 -0.87127935558E+03 -0.21213041797E+04  0.23396464863E+04  0.12537921382E+03 0.  0.
         11    1    3    3    0    0 -0.29916244894E+03 -0.69365299313E+03 -0.15826478437E+04  0.17536894945E+04  0.00000000000E+00 0. -1.
        -11    1    3    3    0    0 -0.14711839922E+03 -0.17762636244E+03 -0.53865633597E+03  0.58595699186E+03  0.00000000000E+00 0.  1.
         22    1    1    2    0    0  0.44628084816E+03  0.87127935558E+03  0.17744734816E+03  0.99487781775E+03  0.00000000000E+00 0. -1.
<mgrwt>
<rscale>  0 0.27093307E+04</rscale>
<asrwt>0</asrwt>
<pdfrwt beam="1">  1        2 0.40602932E+00 0.27093307E+04</pdfrwt>
<pdfrwt beam="2">  1       -2 0.10697442E+00 0.27093307E+04</pdfrwt>
<totfact> 0.17774188E+00</totfact>
</mgrwt>
</event>
<event>
 6    1  0.1878398E-004  0.2002300E+04  0.7818608E-02  0.8605546E-01
          2   -1    0    0  501    0  0.00000000000E+00  0.00000000000E+00  0.14441629437E+04  0.14441629437E+04  0.00000000000E+00 0. -1.
         -2   -1    0    0    0  501 -0.00000000000E+00 -0.00000000000E+00 -0.69403647747E+03  0.69403647747E+03  0.00000000000E+00 0.  1.
         23    2    1    2    0    0 -0.12763958798E+03  0.88764820826E+03 -0.94433554389E+02  0.90633383009E+03  0.91170770045E+02 0.  0.
         13    1    3    3    0    0  0.95048536710E+01  0.19348051688E+03 -0.25884286501E+02  0.19543553655E+03  0.00000000000E+00 0. -1.
        -13    1    3    3    0    0 -0.13714444166E+03  0.69416769138E+03 -0.68549267888E+02  0.71089829354E+03  0.00000000000E+00 0.  1.
         22    1    1    2    0    0  0.12763958798E+03 -0.88764820826E+03  0.84456002060E+03  0.12318655911E+04  0.00000000000E+00 0. -1.
<mgrwt>
<rscale>  0 0.20023004E+04</rscale>
<asrwt>0</asrwt>
<pdfrwt beam="1">  1        2 0.22217891E+00 0.20023004E+04</pdfrwt>
<pdfrwt beam="2">  1       -2 0.10677484E+00 0.20023004E+04</pdfrwt>
<totfact> 0.89558996E+00</totfact>
</mgrwt>
</event>
<event>
 6    1  0.1878398E-004  0.1979740E+04  0.7818608E-02  0.8616152E-01
          2   -1    0    0  501    0  0.00000000000E+00  0.00000000000E+00  0.31309039440E+04  0.31309039440E+04  0.00000000000E+00 0.  1.
         -2   -1    0    0    0  501 -0.00000000000E+00 -0.00000000000E+00 -0.31295829249E+03  0.31295829249E+03  0.00000000000E+00 0. -1.
         23    2    1    2    0    0 -0.53172345820E+03  0.68990507538E+03  0.60235611392E+03  0.10632035360E+04  0.94180794170E+02 0.  0.
         13    1    3    3    0    0 -0.41450474601E+03  0.59324606886E+03  0.48444963406E+03  0.87088835716E+03  0.00000000000E+00 0. -1.
        -13    1    3    3    0    0 -0.11721871219E+03  0.96659006513E+02  0.11790647986E+03  0.19231517886E+03  0.00000000000E+00 0.  1.
         22    1    1    2    0    0  0.53172345820E+03 -0.68990507538E+03  0.22155895376E+04  0.23806587005E+04  0.00000000000E+00 0.  1.
<mgrwt>
<rscale>  0 0.19797397E+04</rscale>
<asrwt>0</asrwt>
<pdfrwt beam="1">  1        2 0.48167751E+00 0.19797397E+04</pdfrwt>
<pdfrwt beam="2">  1       -2 0.48147432E-01 0.19797397E+04</pdfrwt>
<totfact> 0.54852014E+00</totfact>
</mgrwt>
</event>
<event>
 6    1  0.1878398E-004  0.2185630E+04  0.7818608E-02  0.8524433E-01
          2   -1    0    0  501    0  0.00000000000E+00  0.00000000000E+00  0.28060131757E+04  0.28060131757E+04  0.00000000000E+00 0.  1.
         -2   -1    0    0    0  501 -0.00000000000E+00 -0.00000000000E+00 -0.42560204123E+03  0.42560204123E+03  0.00000000000E+00 0. -1.
         23    2    1    2    0    0 -0.22667221957E+03 -0.49821603711E+03 -0.19877587584E+03  0.59498760786E+03  0.12206100904E+03 0.  0.
         13    1    3    3    0    0 -0.23551157835E+02 -0.19018071418E+03 -0.60597820173E+02  0.20098621070E+03  0.00000000000E+00 0. -1.
        -13    1    3    3    0    0 -0.20312106174E+03 -0.30803532293E+03 -0.13817805567E+03  0.39400139716E+03  0.00000000000E+00 0.  1.
         22    1    1    2    0    0  0.22667221957E+03  0.49821603711E+03  0.25791870103E+04  0.26366276091E+04  0.00000000000E+00 0.  1.
<mgrwt>
<rscale>  0 0.21856303E+04</rscale>
<asrwt>0</asrwt>
<pdfrwt beam="1">  1        2 0.43169432E+00 0.21856303E+04</pdfrwt>
<pdfrwt beam="2">  1       -2 0.65477239E-01 0.21856303E+04</pdfrwt>
<totfact> 0.45128810E+00</totfact>
</mgrwt>
</event>
<event>
 6    1  0.1878398E-004  0.2719831E+04  0.7818608E-02  0.8328599E-01
         -2   -1    0    0    0  501 -0.00000000000E+00  0.00000000000E+00  0.14974614208E+04  0.14974614208E+04  0.00000000000E+00 0. -1.
          2   -1    0    0  501    0  0.00000000000E+00 -0.00000000000E+00 -0.12350033271E+04  0.12350033271E+04  0.00000000000E+00 0.  1.
         23    2    1    2    0    0  0.53641639186E+03  0.88047416963E+03 -0.75722946824E+03  0.12823819803E+04  0.90165220855E+02 0.  0.
         11    1    3    3    0    0  0.40985106192E+03  0.59320810566E+03 -0.52994921539E+03  0.89482954828E+03  0.00000000000E+00 0.  1.
        -11    1    3    3    0    0  0.12656532994E+03  0.28726606397E+03 -0.22728025284E+03  0.38755243205E+03  0.00000000000E+00 0. -1.
         22    1    1    2    0    0 -0.53641639186E+03 -0.88047416963E+03  0.10196875620E+04  0.14500827676E+04  0.00000000000E+00 0. -1.
<mgrwt>
<rscale>  0 0.27198308E+04</rscale>
<asrwt>0</asrwt>
<pdfrwt beam="1">  1        2 0.19000051E+00 0.27198308E+04</pdfrwt>
<pdfrwt beam="2">  1       -2 0.23037868E+00 0.27198308E+04</pdfrwt>
<totfact> 0.13445441E+00</totfact>
</mgrwt>
</event>
<event>
 6    1  0.1878398E-004  0.3199476E+04  0.7818608E-02  0.8188956E-01
          1   -1    0    0  501    0  0.00000000000E+00  0.00000000000E+00  0.16459127092E+04  0.16459127092E+04  0.00000000000E+00 0.  1.
         -1   -1    0    0    0  501 -0.00000000000E+00 -0.00000000000E+00 -0.15548582701E+04  0.15548582701E+04  0.00000000000E+00 0. -1.
         23    2    1    2    0    0 -0.41344704882E+03 -0.14382601944E+04 -0.51634658345E+03  0.15856961045E+04  0.91035665981E+02 0.  0.
         11    1    3    3    0    0 -0.13366049607E+03 -0.50962403205E+03 -0.13791577114E+03  0.54461228611E+03  0.00000000000E+00 0.  1.
        -11    1    3    3    0    0 -0.27978655274E+03 -0.92863616237E+03 -0.37843081230E+03  0.10410838184E+04  0.00000000000E+00 0. -1.
         22    1    1    2    0    0  0.41344704882E+03  0.14382601944E+04  0.60740102264E+03  0.16150748748E+04  0.00000000000E+00 0.  1.
<mgrwt>
<rscale>  0 0.31994756E+04</rscale>
<asrwt>0</asrwt>
<pdfrwt beam="1">  1        1 0.25321734E+00 0.31994756E+04</pdfrwt>
<pdfrwt beam="2">  1       -1 0.23920896E+00 0.31994756E+04</pdfrwt>
<totfact> 0.35629238E-01</totfact>
</mgrwt>
</event>
<event>
 6    1  0.1878398E-004  0.1242412E+04  0.7818608E-02  0.9076523E-01
         -2   -1    0    0    0  501 -0.00000000000E+00  0.00000000000E+00  0.21381506342E+03  0.21381506342E+03  0.00000000000E+00 0. -1.
          2   -1    0    0  501    0  0.00000000000E+00 -0.00000000000E+00 -0.18048151068E+04  0.18048151068E+04  0.00000000000E+00 0.  1.
         23    2    1    2    0    0 -0.47048601844E+03  0.35485268008E+03 -0.11011278803E+04  0.12523063129E+04  0.92254942833E+02 0.  0.
         13    1    3    3    0    0 -0.11600075477E+03  0.75720956660E+02 -0.34529470998E+03  0.37204606586E+03  0.00000000000E+00 0. -1.
        -13    1    3    3    0    0 -0.35448526366E+03  0.27913172342E+03 -0.75583317035E+03  0.88026024707E+03  0.00000000000E+00 0.  1.
         22    1    1    2    0    0  0.47048601844E+03 -0.35485268008E+03 -0.48987216306E+03  0.76632385729E+03  0.00000000000E+00 0. -1.
<mgrwt>
<rscale>  0 0.12424116E+04</rscale>
<asrwt>0</asrwt>
<pdfrwt beam="1">  1        2 0.27766386E+00 0.12424116E+04</pdfrwt>
<pdfrwt beam="2">  1       -2 0.32894626E-01 0.12424116E+04</pdfrwt>
<totfact> 0.72772831E+01</totfact>
</mgrwt>
</event>
<event>
 6    1  0.1878398E-004  0.1516337E+04  0.7818608E-02  0.8873661E-01
          1   -1    0    0  501    0  0.00000000000E+00  0.00000000000E+00  0.15420885612E+04  0.15420885612E+04  0.00000000000E+00 0.  1.
         -1   -1    0    0    0  501 -0.00000000000E+00 -0.00000000000E+00 -0.37275367605E+03  0.37275367605E+03  0.00000000000E+00 0. -1.
         23    2    1    2    0    0 -0.33465788315E+03 -0.20554321023E+03 -0.22769429432E+03  0.46365843142E+03  0.94289656611E+02 0.  0.
         11    1    3    3    0    0 -0.27513816506E+03 -0.13189157936E+03 -0.20063786404E+03  0.36517386416E+03  0.00000000000E+00 0.  1.
        -11    1    3    3    0    0 -0.59519718089E+02 -0.73651630864E+02 -0.27056430280E+02  0.98484567267E+02  0.00000000000E+00 0. -1.
         22    1    1    2    0    0  0.33465788315E+03  0.20554321023E+03  0.13970291795E+04  0.14511838058E+04  0.00000000000E+00 0.  1.
<mgrwt>
<rscale>  0 0.15163366E+04</rscale>
<asrwt>0</asrwt>
<pdfrwt beam="1">  1        1 0.23724439E+00 0.15163366E+04</pdfrwt>
<pdfrwt beam="2">  1       -1 0.57346720E-01 0.15163366E+04</pdfrwt>
<totfact> 0.18196846E+01</totfact>
</mgrwt>
</event>
<event>
 6    1  0.1878398E-004  0.2303761E+04  0.7818608E-02  0.8476440E-01
         -4   -1    0    0    0  501 -0.00000000000E+00  0.00000000000E+00  0.11037332910E+04  0.11037332910E+04  0.00000000000E+00 0. -1.
          4   -1    0    0  501    0  0.00000000000E+00 -0.00000000000E+00 -0.12021283787E+04  0.12021283787E+04  0.00000000000E+00 0.  1.
         23    2    1    2    0    0  0.50706170693E+03 -0.41501444837E+03 -0.99526265672E+03  0.11951321782E+04  0.91894507438E+02 0.  0.
         13    1    3    3    0    0  0.46369204094E+03 -0.33991754274E+03 -0.86518377162E+03  0.10387960355E+04  0.00000000000E+00 0.  1.
        -13    1    3    3    0    0  0.43369665989E+02 -0.75096905628E+02 -0.13007888510E+03  0.15633614269E+03  0.00000000000E+00 0. -1.
         22    1    1    2    0    0 -0.50706170693E+03  0.41501444837E+03  0.89686756902E+03  0.11107294915E+04  0.00000000000E+00 0. -1.
<mgrwt>
<rscale>  0 0.23037614E+04</rscale>
<asrwt>0</asrwt>
<pdfrwt beam="1">  1        4 0.18494283E+00 0.23037614E+04</pdfrwt>
<pdfrwt beam="2">  1       -4 0.16980512E+00 0.23037614E+04</pdfrwt>
<totfact> 0.63830176E-02</totfact>
</mgrwt>
</event>
<event>
 6    1  0.1878398E-004  0.3950328E+03  0.7818608E-02  0.1045513E+00
         -1   -1    0    0    0  501 -0.00000000000E+00  0.00000000000E+00  0.54801913710E+02  0.54801913710E+02  0.00000000000E+00 0.  1.
          1   -1    0    0  501    0  0.00000000000E+00 -0.00000000000E+00 -0.71188613270E+03  0.71188613270E+03  0.00000000000E+00 0. -1.
         23    2    1    2    0    0  0.40566962363E+02 -0.12288641582E+03 -0.83172202970E+02  0.17836691662E+03  0.90279521308E+02 0.  0.
         13    1    3    3    0    0 -0.48996078739E+01 -0.88233058710E+02 -0.82947195813E+02  0.12119948886E+03  0.00000000000E+00 0.  1.
        -13    1    3    3    0    0  0.45466570236E+02 -0.34653357114E+02 -0.22500715763E+00  0.57167427759E+02  0.00000000000E+00 0. -1.
         22    1    1    2    0    0 -0.40566962363E+02  0.12288641582E+03 -0.57391201602E+03  0.58832112979E+03  0.00000000000E+00 0. -1.
<mgrwt>
<rscale>  0 0.39503277E+03</rscale>
<asrwt>0</asrwt>
<pdfrwt beam="1">  1        1 0.10952094E+00 0.39503277E+03</pdfrwt>
<pdfrwt beam="2">  1       -1 0.84310636E-02 0.39503277E+03</pdfrwt>
<totfact> 0.21905119E+03</totfact>
</mgrwt>
</event>
<event>
 6    1  0.1878398E-004  0.1405166E+04  0.7818608E-02  0.8950088E-01
          2   -1    0    0  501    0  0.00000000000E+00  0.00000000000E+00  0.10767376347E+04  0.10767376347E+04  0.00000000000E+00 0.  1.
         -2   -1    0    0    0  501 -0.00000000000E+00 -0.00000000000E+00 -0.45844281901E+03  0.45844281901E+03  0.00000000000E+00 0. -1.
         23    2    1    2    0    0  0.46584706824E+03  0.22776164889E+02 -0.25925118615E+03  0.54139011867E+03  0.91432151889E+02 0.  0.
         11    1    3    3    0    0  0.15661607912E+03 -0.30225072770E+02 -0.11140851900E+03  0.19456106848E+03  0.00000000000E+00 0.  1.
        -11    1    3    3    0    0  0.30923098912E+03  0.53001237659E+02 -0.14784266716E+03  0.34682905019E+03  0.00000000000E+00 0. -1.
         22    1    1    2    0    0 -0.46584706824E+03 -0.22776164889E+02  0.87754600181E+03  0.99379033501E+03  0.00000000000E+00 0.  1.
<mgrwt>
<rscale>  0 0.14051657E+04</rscale>
<asrwt>0</asrwt>
<pdfrwt beam="1">  1        2 0.16565194E+00 0.14051657E+04</pdfrwt>
<pdfrwt beam="2">  1       -2 0.70529664E-01 0.14051657E+04</pdfrwt>
<totfact> 0.40075623E+01</totfact>
</mgrwt>
</event>
<event>
 6    1  0.1878398E-004  0.3581999E+04  0.7818608E-02  0.8094628E-01
          1   -1    0    0  501    0  0.00000000000E+00  0.00000000000E+00  0.26316220475E+04  0.26316220475E+04  0.00000000000E+00 0.  1.
         -1   -1    0    0    0  501 -0.00000000000E+00 -0.00000000000E+00 -0.12188978091E+04  0.12188978091E+04  0.00000000000E+00 0. -1.
         23    2    1    2    0    0 -0.64996091714E+03  0.16675839834E+04  0.68991461295E+03  0.19203024361E+04  0.91069957698E+02 0.  0.
         13    1    3    3    0    0 -0.33883732032E+03  0.89971897938E+03  0.41771015876E+03  0.10482302935E+04  0.00000000000E+00 0. -1.
        -13    1    3    3    0    0 -0.31112359682E+03  0.76786500405E+03  0.27220445420E+03  0.87207214256E+03  0.00000000000E+00 0.  1.
         22    1    1    2    0    0  0.64996091714E+03 -0.16675839834E+04  0.72280962546E+03  0.19302174205E+04  0.00000000000E+00 0.  1.
<mgrwt>
<rscale>  0 0.35819985E+04</rscale>
<asrwt>0</asrwt>
<pdfrwt beam="1">  1        1 0.40486493E+00 0.35819985E+04</pdfrwt>
<pdfrwt beam="2">  1       -1 0.18752274E+00 0.35819985E+04</pdfrwt>
<totfact> 0.16337660E-01</totfact>
</mgrwt>
</event>
<event>
 6    1  0.1878398E-004  0.2483844E+04  0.7818608E-02  0.8408764E-01
         -2   -1    0    0    0  501 -0.00000000000E+00  0.00000000000E+00  0.25448687285E+04  0.25448687285E+04  0.00000000000E+00 0. -1.
          2   -1    0    0  501    0  0.00000000000E+00 -0.00000000000E+00 -0.60607053131E+03  0.60607053131E+03  0.00000000000E+00 0.  1.
         23    2    1    2    0    0  0.54244583054E+03  0.99671952384E+03  0.33573225752E+03  0.11868828209E+04  0.90980182034E+02 0.  0.
         13    1    3    3    0    0  0.39486781718E+03  0.72762646344E+03  0.20228283433E+03  0.85222016428E+03  0.00000000000E+00 0. -1.
        -13    1    3    3    0    0  0.14757801337E+03  0.26909306040E+03  0.13344942319E+03  0.33466265662E+03  0.00000000000E+00 0.  1.
         22    1    1    2    0    0 -0.54244583054E+03 -0.99671952384E+03  0.16030659396E+04  0.19640564389E+04  0.00000000000E+00 0. -1.
<mgrwt>
<rscale>  0 0.24838437E+04</rscale>
<asrwt>0</asrwt>
<pdfrwt beam="1">  1        2 0.93241621E-01 0.24838437E+04</pdfrwt>
<pdfrwt beam="2">  1       -2 0.39151826E+00 0.24838437E+04</pdfrwt>
<totfact> 0.36907483E-01</totfact>
</mgrwt>
</event>
<event>
 6    1  0.1878398E-004  0.1347208E+04  0.7818608E-02  0.8992944E-01
         -1   -1    0    0    0  501 -0.00000000000E+00  0.00000000000E+00  0.37634034409E+03  0.37634034409E+03  0.00000000000E+00 0. -1.
          1   -1    0    0  501    0  0.00000000000E+00 -0.00000000000E+00 -0.12056707410E+04  0.12056707410E+04  0.00000000000E+00 0.  1.
         23    2    1    2    0    0  0.50858297389E+03 -0.10575341917E+03  0.81924704564E+02  0.53309436439E+03  0.87392889498E+02 0.  0.
         13    1    3    3    0    0  0.84485600657E+02 -0.41706368900E+02  0.39259389118E+02  0.10207123767E+03  0.00000000000E+00 0.  1.
        -13    1    3    3    0    0  0.42409737323E+03 -0.64047050274E+02  0.42665315446E+02  0.43102312673E+03  0.00000000000E+00 0. -1.
         22    1    1    2    0    0 -0.50858297389E+03  0.10575341917E+03 -0.91125510151E+03  0.10489167207E+04  0.00000000000E+00 0.  1.
<mgrwt>
<rscale>  0 0.13472083E+04</rscale>
<asrwt>0</asrwt>
<pdfrwt beam="1">  1        1 0.18548780E+00 0.13472083E+04</pdfrwt>
<pdfrwt beam="2">  1       -1 0.57898515E-01 0.13472083E+04</pdfrwt>
<totfact> 0.31311792E+01</totfact>
</mgrwt>
</event>
<event>
 6    1  0.1878398E-004  0.3212762E+04  0.7818608E-02  0.8185455E-01
          2   -1    0    0  501    0  0.00000000000E+00  0.00000000000E+00  0.20722745017E+04  0.20722745017E+04  0.00000000000E+00 0.  1.
         -2   -1    0    0    0  501 -0.00000000000E+00 -0.00000000000E+00 -0.12452307478E+04  0.12452307478E+04  0.00000000000E+00 0. -1.
         23    2    1    2    0    0 -0.72224816058E+01 -0.10598249348E+04  0.16584826656E+04  0.19704448498E+04  0.93846136567E+02 0.  0.
         11    1    3    3    0    0  0.26146417506E+02 -0.86964115294E+03  0.13871839366E+04  0.16374488218E+04  0.00000000000E+00 0. -1.
        -11    1    3    3    0    0 -0.33368899112E+02 -0.19018378190E+03  0.27129872900E+03  0.33299602803E+03  0.00000000000E+00 0.  1.
         22    1    1    2    0    0  0.72224816058E+01  0.10598249348E+04 -0.83143891169E+03  0.13470603998E+04  0.00000000000E+00 0. -1.
<mgrwt>
<rscale>  0 0.32127620E+04</rscale>
<asrwt>0</asrwt>
<pdfrwt beam="1">  1        2 0.31881146E+00 0.32127620E+04</pdfrwt>
<pdfrwt beam="2">  1       -2 0.19157396E+00 0.32127620E+04</pdfrwt>
<totfact> 0.77492909E-01</totfact>
</mgrwt>
</event>
<event>
 6    1  0.1878398E-004  0.2676330E+04  0.7818608E-02  0.8342726E-01
          1   -1    0    0  501    0  0.00000000000E+00  0.00000000000E+00  0.12484860110E+04  0.12484860110E+04  0.00000000000E+00 0.  1.
         -1   -1    0    0    0  501 -0.00000000000E+00 -0.00000000000E+00 -0.14342851516E+04  0.14342851516E+04  0.00000000000E+00 0. -1.
         23    2    1    2    0    0  0.12074617761E+04 -0.53654814046E+03  0.10676745998E+03  0.13294629702E+04  0.10111701561E+03 0.  0.
         11    1    3    3    0    0  0.37311727973E+03 -0.19525857406E+03 -0.47173750819E+01  0.42114684946E+03  0.00000000000E+00 0.  1.
        -11    1    3    3    0    0  0.83434449639E+03 -0.34128956640E+03  0.11148483506E+03  0.90831612076E+03  0.00000000000E+00 0. -1.
         22    1    1    2    0    0 -0.12074617761E+04  0.53654814046E+03 -0.29256660051E+03  0.13533081924E+04  0.00000000000E+00 0. -1.
<mgrwt>
<rscale>  0 0.26763295E+04</rscale>
<asrwt>0</asrwt>
<pdfrwt beam="1">  1        1 0.19207477E+00 0.26763295E+04</pdfrwt>
<pdfrwt beam="2">  1       -1 0.22065925E+00 0.26763295E+04</pdfrwt>
<totfact> 0.93898498E-01</totfact>
</mgrwt>
</event>
<event>
 6    1  0.1878398E-004  0.9749835E+03  0.7818608E-02  0.9336416E-01
         -3   -1    0    0    0  501 -0.00000000000E+00  0.00000000000E+00  0.12437843527E+03  0.12437843527E+03  0.00000000000E+00 0.  1.
          3   -1    0    0  501    0  0.00000000000E+00 -0.00000000000E+00 -0.19106866482E+04  0.19106866482E+04  0.00000000000E+00 0. -1.
         23    2    1    2    0    0 -0.23674062854E+03  0.40690938021E+03 -0.67306712419E+03  0.82637691418E+03  0.90873988122E+02 0.  0.
         13    1    3    3    0    0 -0.69393935151E+02  0.81435138416E+02 -0.10019285555E+03  0.14658038173E+03  0.00000000000E+00 0.  1.
        -13    1    3    3    0    0 -0.16734669339E+03  0.32547424179E+03 -0.57287426865E+03  0.67979653246E+03  0.00000000000E+00 0. -1.
         22    1    1    2    0    0  0.23674062854E+03 -0.40690938021E+03 -0.11132410887E+04  0.12086881692E+04  0.00000000000E+00 0. -1.
<mgrwt>
<rscale>  0 0.97498352E+03</rscale>
<asrwt>0</asrwt>
<pdfrwt beam="1">  1        3 0.29395179E+00 0.97498352E+03</pdfrwt>
<pdfrwt beam="2">  1       -3 0.19135144E-01 0.97498352E+03</pdfrwt>
<totfact> 0.27641813E+00</totfact>
</mgrwt>
</event>
<event>
 6    1  0.2416001E-004  0.3569383E+04  0.7818608E-02  0.8097541E-01
          2   -1    0    0  501    0  0.00000000000E+00  0.00000000000E+00  0.20349082146E+04  0.20349082146E+04  0.00000000000E+00 0.  1.
         -2   -1    0    0    0  501 -0.00000000000E+00 -0.00000000000E+00 -0.15652421878E+04  0.15652421878E+04  0.00000000000E+00 0. -1.
         23    2    1    2    0    0 -0.45339685464E+03  0.36102917333E+03 -0.14664129419E+04  0.15791821827E+04  0.86825561787E+02 0.  0.
         13    1    3    3    0    0 -0.16437131870E+03  0.81148867836E+02 -0.48660581910E+03  0.51998874252E+03  0.00000000000E+00 0. -1.
        -13    1    3    3    0    0 -0.28902553594E+03  0.27988030549E+03 -0.97980712278E+03  0.10591934402E+04  0.00000000000E+00 0.  1.
         22    1    1    2    0    0  0.45339685464E+03 -0.36102917333E+03  0.19360789687E+04  0.20209682196E+04  0.00000000000E+00 0.  1.
<mgrwt>
<rscale>  0 0.35693832E+04</rscale>
<asrwt>0</asrwt>
<pdfrwt beam="1">  1        2 0.31306280E+00 0.35693832E+04</pdfrwt>
<pdfrwt beam="2">  1       -2 0.24080649E+00 0.35693832E+04</pdfrwt>
<totfact> 0.38227903E-01</totfact>
</mgrwt>
</event>
<event>
 6    1  0.1878398E-004  0.3824151E+04  0.7818608E-02  0.8040992E-01
         -2   -1    0    0    0  501 -0.00000000000E+00  0.00000000000E+00  0.15048515978E+04  0.15048515978E+04  0.00000000000E+00 0. -1.
          2   -1    0    0  501    0  0.00000000000E+00 -0.00000000000E+00 -0.24294969271E+04  0.24294969271E+04  0.00000000000E+00 0.  1.
         23    2    1    2    0    0  0.82455746185E+03 -0.15309386589E+03  0.13039981743E+04  0.15531335817E+04  0.92086613582E+02 0.  0.
         11    1    3    3    0    0  0.43013371295E+03 -0.11285461835E+03  0.74910942683E+03  0.87115791293E+03  0.00000000000E+00 0.  1.
        -11    1    3    3    0    0  0.39442374890E+03 -0.40239247538E+02  0.55488874746E+03  0.68197566877E+03  0.00000000000E+00 0. -1.
         22    1    1    2    0    0 -0.82455746185E+03  0.15309386589E+03 -0.22286435036E+04  0.23812149432E+04  0.00000000000E+00 0.  1.
<mgrwt>
<rscale>  0 0.38241508E+04</rscale>
<asrwt>0</asrwt>
<pdfrwt beam="1">  1        2 0.37376876E+00 0.38241508E+04</pdfrwt>
<pdfrwt beam="2">  1       -2 0.23151563E+00 0.38241508E+04</pdfrwt>
<totfact> 0.25594232E-01</totfact>
</mgrwt>
</event>
<event>
 6    1  0.1878398E-004  0.1741357E+04  0.7818608E-02  0.8738122E-01
          2   -1    0    0  501    0  0.00000000000E+00  0.00000000000E+00  0.12075180970E+04  0.12075180970E+04  0.00000000000E+00 0.  1.
         -2   -1    0    0    0  501 -0.00000000000E+00 -0.00000000000E+00 -0.62780131979E+03  0.62780131979E+03  0.00000000000E+00 0. -1.
         23    2    1    2    0    0  0.74949668422E+03  0.15516729191E+03 -0.14124017398E+03  0.78384374251E+03  0.92951911115E+02 0.  0.
         13    1    3    3    0    0  0.75538721827E+01  0.11151911321E+01 -0.13322451975E+02  0.15355531994E+02  0.00000000000E+00 0.  1.
        -13    1    3    3    0    0  0.74194281204E+03  0.15405210078E+03 -0.12791772201E+03  0.76848821051E+03  0.00000000000E+00 0. -1.
         22    1    1    2    0    0 -0.74949668422E+03 -0.15516729191E+03  0.72095695122E+03  0.10514756743E+04  0.00000000000E+00 0.  1.
<mgrwt>
<rscale>  0 0.17413575E+04</rscale>
<asrwt>0</asrwt>
<pdfrwt beam="1">  1        2 0.18577201E+00 0.17413575E+04</pdfrwt>
<pdfrwt beam="2">  1       -2 0.96584819E-01 0.17413575E+04</pdfrwt>
<totfact> 0.15943284E+01</totfact>
</mgrwt>
</event>
<event>
 6    1  0.1878398E-004  0.8873310E+03  0.7818608E-02  0.9441558E-01
         -2   -1    0    0    0  501 -0.00000000000E+00  0.00000000000E+00  0.10083919979E+03  0.10083919979E+03  0.00000000000E+00 0. -1.
          2   -1    0    0  501    0  0.00000000000E+00 -0.00000000000E+00 -0.19520096849E+04  0.19520096849E+04  0.00000000000E+00 0.  1.
         23    2    1    2    0    0 -0.20402816012E+03 -0.33239857276E+03 -0.46938416334E+03  0.61707392309E+03  0.91336917365E+02 0.  0.
         13    1    3    3    0    0 -0.82298154220E+02 -0.15679681049E+03 -0.14616072905E+03  0.22961094199E+03  0.00000000000E+00 0. -1.
        -13    1    3    3    0    0 -0.12173000590E+03 -0.17560176227E+03 -0.32322343429E+03  0.38746298110E+03  0.00000000000E+00 0.  1.
         22    1    1    2    0    0  0.20402816012E+03  0.33239857276E+03 -0.13817863217E+04  0.14357749615E+04  0.00000000000E+00 0.  1.
<mgrwt>
<rscale>  0 0.88733104E+03</rscale>
<asrwt>0</asrwt>
<pdfrwt beam="1">  1        2 0.30030916E+00 0.88733104E+03</pdfrwt>
<pdfrwt beam="2">  1       -2 0.15513724E-01 0.88733104E+03</pdfrwt>
<totfact> 0.23787172E+02</totfact>
</mgrwt>
</event>
<event>
 6    1  0.1878398E-004  0.2410965E+04  0.7818608E-02  0.8435410E-01
          1   -1    0    0  501    0  0.00000000000E+00  0.00000000000E+00  0.26006178417E+04  0.26006178417E+04  0.00000000000E+00 0.  1.
         -1   -1    0    0    0  501 -0.00000000000E+00 -0.00000000000E+00 -0.55878588356E+03  0.55878588356E+03  0.00000000000E+00 0. -1.
         23    2    1    2    0    0 -0.60908508829E+03  0.11468228258E+01 -0.33830425874E+03  0.70256950804E+03  0.90377996022E+02 0.  0.
         11    1    3    3    0    0 -0.47509688196E+03 -0.10656445939E+02 -0.30268548315E+03  0.56342622303E+03  0.00000000000E+00 0.  1.
        -11    1    3    3    0    0 -0.13398820632E+03  0.11803268765E+02 -0.35618775594E+02  0.13914328501E+03  0.00000000000E+00 0. -1.
         22    1    1    2    0    0  0.60908508829E+03 -0.11468228258E+01  0.23801362169E+04  0.24568342172E+04  0.00000000000E+00 0.  1.
<mgrwt>
<rscale>  0 0.24109654E+04</rscale>
<asrwt>0</asrwt>
<pdfrwt beam="1">  1        1 0.40009505E+00 0.24109654E+04</pdfrwt>
<pdfrwt beam="2">  1       -1 0.85967060E-01 0.24109654E+04</pdfrwt>
<totfact> 0.13782575E+00</totfact>
</mgrwt>
</event>
<event>
 6    1  0.1878398E-004  0.9689347E+03  0.7818608E-02  0.9343289E-01
         -1   -1    0    0    0  501 -0.00000000000E+00  0.00000000000E+00  0.46189293501E+03  0.46189293501E+03  0.00000000000E+00 0. -1.
          1   -1    0    0  501    0  0.00000000000E+00 -0.00000000000E+00 -0.50814509363E+03  0.50814509363E+03  0.00000000000E+00 0.  1.
         23    2    1    2    0    0 -0.26810862957E+03 -0.17818071844E+03 -0.37995860791E+03  0.50636724030E+03  0.91698596811E+02 0.  0.
         13    1    3    3    0    0 -0.20701464374E+03 -0.17729245152E+03 -0.32525516131E+03  0.42435668493E+03  0.00000000000E+00 0.  1.
        -13    1    3    3    0    0 -0.61093985831E+02 -0.88826692213E+00 -0.54703446594E+02  0.82010555370E+02  0.00000000000E+00 0. -1.
         22    1    1    2    0    0  0.26810862957E+03  0.17818071844E+03  0.33370644928E+03  0.46367078834E+03  0.00000000000E+00 0. -1.
<mgrwt>
<rscale>  0 0.96893473E+03</rscale>
<asrwt>0</asrwt>
<pdfrwt beam="1">  1        1 0.78176168E-01 0.96893473E+03</pdfrwt>
<pdfrwt beam="2">  1       -1 0.71060451E-01 0.96893473E+03</pdfrwt>
<totfact> 0.87114017E+01</totfact>
</mgrwt>
</event>
<event>
 6    1  0.1878398E-004  0.1548274E+04  0.7818608E-02  0.8852971E-01
          2   -1    0    0  501    0  0.00000000000E+00  0.00000000000E+00  0.51972157297E+03  0.51972157297E+03  0.00000000000E+00 0.  1.
         -2   -1    0    0    0  501 -0.00000000000E+00 -0.00000000000E+00 -0.11530942926E+04  0.11530942926E+04  0.00000000000E+00 0. -1.
         23    2    1    2    0    0  0.65384705551E+03  0.37531478978E+03 -0.14162750201E+03  0.77271002596E+03  0.92979951986E+02 0.  0.
         11    1    3    3    0    0  0.30488487252E+03  0.20232557374E+03 -0.27965800930E+02  0.36697753242E+03  0.00000000000E+00 0. -1.
        -11    1    3    3    0    0  0.34896218299E+03  0.17298921604E+03 -0.11366170108E+03  0.40573249354E+03  0.00000000000E+00 0.  1.
         22    1    1    2    0    0 -0.65384705551E+03 -0.37531478978E+03 -0.49174521762E+03  0.90010583960E+03  0.00000000000E+00 0. -1.
<mgrwt>
<rscale>  0 0.15482739E+04</rscale>
<asrwt>0</asrwt>
<pdfrwt beam="1">  1        2 0.79957167E-01 0.15482739E+04</pdfrwt>
<pdfrwt beam="2">  1       -2 0.17739912E+00 0.15482739E+04</pdfrwt>
<totfact> 0.10699201E+01</totfact>
</mgrwt>
</event>
<event>
 6    1  0.1878398E-004  0.1689350E+04  0.7818608E-02  0.8767462E-01
         -2   -1    0    0    0  501 -0.00000000000E+00  0.00000000000E+00  0.58045247724E+03  0.58045247724E+03  0.00000000000E+00 0. -1.
          2   -1    0    0  501    0  0.00000000000E+00 -0.00000000000E+00 -0.12291716649E+04  0.12291716649E+04  0.00000000000E+00 0.  1.
         23    2    1    2    0    0  0.39369277722E+03 -0.34390351629E+03  0.38192277609E+03  0.65399163620E+03  0.92608973536E+02 0.  0.
         11    1    3    3    0    0  0.17952555729E+03 -0.10357107300E+03  0.12421126727E+03  0.24162953420E+03  0.00000000000E+00 0. -1.
        -11    1    3    3    0    0  0.21416721994E+03 -0.24033244329E+03  0.25771150882E+03  0.41236210201E+03  0.00000000000E+00 0.  1.
         22    1    1    2    0    0 -0.39369277722E+03  0.34390351629E+03 -0.10306419637E+04  0.11556325059E+04  0.00000000000E+00 0.  1.
<mgrwt>
<rscale>  0 0.16893499E+04</rscale>
<asrwt>0</asrwt>
<pdfrwt beam="1">  1        2 0.18910333E+00 0.16893499E+04</pdfrwt>
<pdfrwt beam="2">  1       -2 0.89300381E-01 0.16893499E+04</pdfrwt>
<totfact> 0.18650118E+01</totfact>
</mgrwt>
</event>
<event>
 6    1  0.1878398E-004  0.2377635E+04  0.7818608E-02  0.8447925E-01
          2   -1    0    0  501    0  0.00000000000E+00  0.00000000000E+00  0.11050928629E+04  0.11050928629E+04  0.00000000000E+00 0.  1.
         -2   -1    0    0    0  501 -0.00000000000E+00 -0.00000000000E+00 -0.12788849821E+04  0.12788849821E+04  0.00000000000E+00 0. -1.
         23    2    1    2    0    0  0.16806454816E+03 -0.47632891004E+03  0.99027795847E+03  0.11150436196E+04  0.86815411296E+02 0.  0.
         13    1    3    3    0    0  0.97739823608E+02 -0.36766094789E+03  0.78569974782E+03  0.87295574884E+03  0.00000000000E+00 0. -1.
        -13    1    3    3    0    0  0.70324724552E+02 -0.10866796215E+03  0.20457821066E+03  0.24208787074E+03  0.00000000000E+00 0.  1.
         22    1    1    2    0    0 -0.16806454816E+03  0.47632891004E+03 -0.11640700776E+04  0.12689342255E+04  0.00000000000E+00 0. -1.
<mgrwt>
<rscale>  0 0.23776347E+04</rscale>
<asrwt>0</asrwt>
<pdfrwt beam="1">  1        2 0.17001429E+00 0.23776347E+04</pdfrwt>
<pdfrwt beam="2">  1       -2 0.19675154E+00 0.23776347E+04</pdfrwt>
<totfact> 0.27223068E+00</totfact>
</mgrwt>
</event>
<event>
 6    1  0.1878398E-004  0.1115630E+04  0.7818608E-02  0.9190090E-01
          2   -1    0    0  501    0  0.00000000000E+00  0.00000000000E+00  0.10064639120E+04  0.10064639120E+04  0.00000000000E+00 0.  1.
         -2   -1    0    0    0  501 -0.00000000000E+00 -0.00000000000E+00 -0.30915945062E+03  0.30915945062E+03  0.00000000000E+00 0. -1.
         23    2    1    2    0    0  0.38912329984E+03  0.16547679628E+03 -0.71346183661E+02  0.43834157966E+03  0.90849050366E+02 0.  0.
         11    1    3    3    0    0  0.38326056129E+02  0.50271092318E+02 -0.80457170003E+01  0.63724429093E+02  0.00000000000E+00 0. -1.
        -11    1    3    3    0    0  0.35079724371E+03  0.11520570396E+03 -0.63300466661E+02  0.37461715057E+03  0.00000000000E+00 0.  1.
         22    1    1    2    0    0 -0.38912329984E+03 -0.16547679628E+03  0.76865064508E+03  0.87728178299E+03  0.00000000000E+00 0.  1.
<mgrwt>
<rscale>  0 0.11156305E+04</rscale>
<asrwt>0</asrwt>
<pdfrwt beam="1">  1        2 0.15484060E+00 0.11156305E+04</pdfrwt>
<pdfrwt beam="2">  1       -2 0.47562993E-01 0.11156305E+04</pdfrwt>
<totfact> 0.10363437E+02</totfact>
</mgrwt>
</event>
<event>
 6    1  0.1878398E-004  0.1124815E+04  0.7818608E-02  0.9181337E-01
         -2   -1    0    0    0  501 -0.00000000000E+00  0.00000000000E+00  0.25070794609E+03  0.25070794609E+03  0.00000000000E+00 0. -1.
          2   -1    0    0  501    0  0.00000000000E+00 -0.00000000000E+00 -0.12616365256E+04  0.12616365256E+04  0.00000000000E+00 0.  1.
         23    2    1    2    0    0 -0.31750495111E+03  0.45109803600E+03 -0.39025282193E+03  0.68196068805E+03  0.92055868687E+02 0.  0.
         11    1    3    3    0    0 -0.48970792857E+02  0.30705987149E+02 -0.62245252967E+02  0.84943909239E+02  0.00000000000E+00 0. -1.
        -11    1    3    3    0    0 -0.26853415825E+03  0.42039204885E+03 -0.32800756897E+03  0.59701677881E+03  0.00000000000E+00 0.  1.
         22    1    1    2    0    0  0.31750495111E+03 -0.45109803600E+03 -0.62067575756E+03  0.83038378361E+03  0.00000000000E+00 0.  1.
<mgrwt>
<rscale>  0 0.11248152E+04</rscale>
<asrwt>0</asrwt>
<pdfrwt beam="1">  1        2 0.19409792E+00 0.11248152E+04</pdfrwt>
<pdfrwt beam="2">  1       -2 0.38570454E-01 0.11248152E+04</pdfrwt>
<totfact> 0.10951880E+02</totfact>
</mgrwt>
</event>
<event>
 6    1  0.1878398E-004  0.2663401E+03  0.7818608E-02  0.1103393E+00
          1   -1    0    0  501    0  0.00000000000E+00  0.00000000000E+00  0.62421633223E+03  0.62421633223E+03  0.00000000000E+00 0.  1.
         -1   -1    0    0    0  501 -0.00000000000E+00 -0.00000000000E+00 -0.28410433108E+02  0.28410433108E+02  0.00000000000E+00 0. -1.
         23    2    1    2    0    0 -0.88048299796E+02 -0.55386296789E+02  0.46690796188E+03  0.48699215786E+03  0.91313591447E+02 0.  0.
         13    1    3    3    0    0 -0.54038312872E+02 -0.54343170798E+02  0.15176330601E+03  0.17001594197E+03  0.00000000000E+00 0. -1.
        -13    1    3    3    0    0 -0.34009986924E+02 -0.10431259910E+01  0.31514465586E+03  0.31697621589E+03  0.00000000000E+00 0.  1.
         22    1    1    2    0    0  0.88048299796E+02  0.55386296789E+02  0.12889793725E+03  0.16563460748E+03  0.00000000000E+00 0. -1.
<mgrwt>
<rscale>  0 0.26634006E+03</rscale>
<asrwt>0</asrwt>
<pdfrwt beam="1">  1        1 0.96033272E-01 0.26634006E+03</pdfrwt>
<pdfrwt beam="2">  1       -1 0.43708363E-02 0.26634006E+03</pdfrwt>
<totfact> 0.71294907E+03</totfact>
</mgrwt>
</event>
<event>
 6    1  0.1878398E-004  0.2979470E+04  0.7818608E-02  0.8249618E-01
         -2   -1    0    0    0  501 -0.00000000000E+00  0.00000000000E+00  0.13032044482E+04  0.13032044482E+04  0.00000000000E+00 0. -1.
          2   -1    0    0  501    0  0.00000000000E+00 -0.00000000000E+00 -0.17029645529E+04  0.17029645529E+04  0.00000000000E+00 0.  1.
         23    2    1    2    0    0  0.83072381409E+03  0.12348168155E+04 -0.21719058471E+03  0.15067670360E+04  0.91107232087E+02 0.  0.
         13    1    3    3    0    0  0.85703224019E+02  0.14197799291E+03  0.33600404086E+01  0.16587369577E+03  0.00000000000E+00 0. -1.
        -13    1    3    3    0    0  0.74502059007E+03  0.10928388226E+04 -0.22055062512E+03  0.13408933403E+04  0.00000000000E+00 0.  1.
         22    1    1    2    0    0 -0.83072381409E+03 -0.12348168155E+04 -0.18256952000E+03  0.14994019650E+04  0.00000000000E+00 0.  1.
<mgrwt>
<rscale>  0 0.29794704E+04</rscale>
<asrwt>0</asrwt>
<pdfrwt beam="1">  1        2 0.26199455E+00 0.29794704E+04</pdfrwt>
<pdfrwt beam="2">  1       -2 0.20049299E+00 0.29794704E+04</pdfrwt>
<totfact> 0.11060085E+00</totfact>
</mgrwt>
</event>
<event>
 6    1  0.1878398E-004  0.8890291E+03  0.7818608E-02  0.9439400E-01
         -2   -1    0    0    0  501 -0.00000000000E+00  0.00000000000E+00  0.21052548885E+03  0.21052548885E+03  0.00000000000E+00 0. -1.
          2   -1    0    0  501    0  0.00000000000E+00 -0.00000000000E+00 -0.93857123631E+03  0.93857123631E+03  0.00000000000E+00 0.  1.
         23    2    1    2    0    0  0.11123916330E+03 -0.41206297225E+03 -0.23556479006E+03  0.49740083138E+03  0.98725742303E+02 0.  0.
         11    1    3    3    0    0  0.38317168424E+02 -0.10434022041E+03 -0.11222663165E+03  0.15795538561E+03  0.00000000000E+00 0.  1.
        -11    1    3    3    0    0  0.72921994879E+02 -0.30772275184E+03 -0.12333815841E+03  0.33944544578E+03  0.00000000000E+00 0. -1.
         22    1    1    2    0    0 -0.11123916330E+03  0.41206297225E+03 -0.49248095741E+03  0.65169589377E+03  0.00000000000E+00 0. -1.
<mgrwt>
<rscale>  0 0.88902906E+03</rscale>
<asrwt>0</asrwt>
<pdfrwt beam="1">  1        2 0.14439558E+00 0.88902906E+03</pdfrwt>
<pdfrwt beam="2">  1       -2 0.32388536E-01 0.88902906E+03</pdfrwt>
<totfact> 0.24573289E+02</totfact>
</mgrwt>
</event>
<event>
 6    1  0.2159324E-004  0.2620538E+04  0.7818608E-02  0.8361258E-01
         -1   -1    0    0    0  501 -0.00000000000E+00  0.00000000000E+00  0.12237870467E+04  0.12237870467E+04  0.00000000000E+00 0. -1.
          1   -1    0    0  501    0  0.00000000000E+00 -0.00000000000E+00 -0.14028625294E+04  0.14028625294E+04  0.00000000000E+00 0.  1.
         23    2    1    2    0    0  0.78362276560E+03  0.10865535651E+03  0.95530198727E+03  0.12436517925E+04  0.90538769580E+02 0.  0.
         11    1    3    3    0    0  0.52810686756E+03  0.11259020424E+03  0.62269593350E+03  0.82421092158E+03  0.00000000000E+00 0.  1.
        -11    1    3    3    0    0  0.25551589804E+03 -0.39348477350E+01  0.33260605377E+03  0.41944087090E+03  0.00000000000E+00 0. -1.
         22    1    1    2    0    0 -0.78362276560E+03 -0.10865535651E+03 -0.11343774699E+04  0.13829977836E+04  0.00000000000E+00 0.  1.
<mgrwt>
<rscale>  0 0.26205381E+04</rscale>
<asrwt>0</asrwt>
<pdfrwt beam="1">  1        1 0.21582500E+00 0.26205381E+04</pdfrwt>
<pdfrwt beam="2">  1       -1 0.18827493E+00 0.26205381E+04</pdfrwt>
<totfact> 0.12217617E+00</totfact>
</mgrwt>
</event>
<event>
 6    1  0.1878398E-004  0.1019416E+04  0.7818608E-02  0.9287503E-01
         -1   -1    0    0    0  501 -0.00000000000E+00  0.00000000000E+00  0.30627870658E+03  0.30627870658E+03  0.00000000000E+00 0. -1.
          1   -1    0    0  501    0  0.00000000000E+00 -0.00000000000E+00 -0.84825352899E+03  0.84825352899E+03  0.00000000000E+00 0.  1.
         23    2    1    2    0    0 -0.21353961115E+03  0.38020666649E+03  0.16620695134E+02  0.44588195017E+03  0.91532459886E+02 0.  0.
         13    1    3    3    0    0 -0.19195448443E+03  0.37138289189E+03  0.14449204294E+01  0.41805964201E+03  0.00000000000E+00 0.  1.
        -13    1    3    3    0    0 -0.21585126722E+02  0.88237745946E+01  0.15175774704E+02  0.27822308164E+02  0.00000000000E+00 0. -1.
         22    1    1    2    0    0  0.21353961115E+03 -0.38020666649E+03 -0.55859551755E+03  0.70865028540E+03  0.00000000000E+00 0. -1.
<mgrwt>
<rscale>  0 0.10194155E+04</rscale>
<asrwt>0</asrwt>
<pdfrwt beam="1">  1        1 0.13050054E+00 0.10194155E+04</pdfrwt>
<pdfrwt beam="2">  1       -1 0.47119802E-01 0.10194155E+04</pdfrwt>
<totfact> 0.90355251E+01</totfact>
</mgrwt>
</event>
<event>
 6    1  0.1878398E-004  0.1614731E+04  0.7818608E-02  0.8811549E-01
         -2   -1    0    0    0  501 -0.00000000000E+00  0.00000000000E+00  0.19021009806E+03  0.19021009806E+03  0.00000000000E+00 0. -1.
          2   -1    0    0  501    0  0.00000000000E+00 -0.00000000000E+00 -0.34269415824E+04  0.34269415824E+04  0.00000000000E+00 0.  1.
         23    2    1    2    0    0 -0.95068290658E+02  0.45652188623E+02 -0.34108374714E+04  0.34135957988E+04  0.87760578447E+02 0.  0.
         11    1    3    3    0    0 -0.15785329541E+02 -0.23293190110E+02 -0.11155608814E+04  0.11159156910E+04  0.00000000000E+00 0. -1.
        -11    1    3    3    0    0 -0.79282961116E+02  0.68945378733E+02 -0.22952765900E+04  0.22976801078E+04  0.00000000000E+00 0.  1.
         22    1    1    2    0    0  0.95068290658E+02 -0.45652188623E+02  0.17410598707E+03  0.20355588164E+03  0.00000000000E+00 0. -1.
<mgrwt>
<rscale>  0 0.16147308E+04</rscale>
<asrwt>0</asrwt>
<pdfrwt beam="1">  1        2 0.52722176E+00 0.16147308E+04</pdfrwt>
<pdfrwt beam="2">  1       -2 0.29263093E-01 0.16147308E+04</pdfrwt>
<totfact> 0.95006775E+00</totfact>
</mgrwt>
</event>
<event>
 6    1  0.1878398E-004  0.2891908E+04  0.7818608E-02  0.8275289E-01
         -2   -1    0    0    0  501 -0.00000000000E+00  0.00000000000E+00  0.14363716755E+04  0.14363716755E+04  0.00000000000E+00 0. -1.
          2   -1    0    0  501    0  0.00000000000E+00 -0.00000000000E+00 -0.14556004429E+04  0.14556004429E+04  0.00000000000E+00 0.  1.
         23    2    1    2    0    0 -0.24218146650E+02 -0.67963355612E+03  0.12648603929E+04  0.14389155948E+04  0.90099867705E+02 0.  0.
         11    1    3    3    0    0  0.27362952797E+02 -0.30081026452E+03  0.60793213758E+03  0.67883505385E+03  0.00000000000E+00 0.  1.
        -11    1    3    3    0    0 -0.51581099447E+02 -0.37882329160E+03  0.65692825529E+03  0.76008054091E+03  0.00000000000E+00 0. -1.
         22    1    1    2    0    0  0.24218146650E+02  0.67963355612E+03 -0.12840891602E+04  0.14530565236E+04  0.00000000000E+00 0.  1.
<mgrwt>
<rscale>  0 0.28919082E+04</rscale>
<asrwt>0</asrwt>
<pdfrwt beam="1">  1        2 0.22393853E+00 0.28919082E+04</pdfrwt>
<pdfrwt beam="2">  1       -2 0.22098026E+00 0.28919082E+04</pdfrwt>
<totfact> 0.11319255E+00</totfact>
</mgrwt>
</event>
<event>
 6    1  0.1878398E-004  0.1105863E+04  0.7818608E-02  0.9199496E-01
         -1   -1    0    0    0  501 -0.00000000000E+00  0.00000000000E+00  0.30510105363E+03  0.30510105363E+03  0.00000000000E+00 0. -1.
          1   -1    0    0  501    0  0.00000000000E+00 -0.00000000000E+00 -0.10020728071E+04  0.10020728071E+04  0.00000000000E+00 0.  1.
         23    2    1    2    0    0  0.37362464650E+03  0.18930575501E+03 -0.77045653452E+03  0.88193033233E+03  0.93625819812E+02 0.  0.
         13    1    3    3    0    0  0.22910607009E+03  0.65499208838E+02 -0.45138020136E+03  0.51041534449E+03  0.00000000000E+00 0.  1.
        -13    1    3    3    0    0  0.14451857641E+03  0.12380654617E+03 -0.31907633316E+03  0.37151498784E+03  0.00000000000E+00 0. -1.
         22    1    1    2    0    0 -0.37362464650E+03 -0.18930575501E+03  0.73484781097E+02  0.42524352835E+03  0.00000000000E+00 0. -1.
<mgrwt>
<rscale>  0 0.11058634E+04</rscale>
<asrwt>0</asrwt>
<pdfrwt beam="1">  1        1 0.15416504E+00 0.11058634E+04</pdfrwt>
<pdfrwt beam="2">  1       -1 0.46938625E-01 0.11058634E+04</pdfrwt>
<totfact> 0.67907977E+01</totfact>
</mgrwt>
</event>
<event>
 6    1  0.1878398E-004  0.2994918E+04  0.7818608E-02  0.8245184E-01
         -2   -1    0    0    0  501 -0.00000000000E+00  0.00000000000E+00  0.12875979115E+04  0.12875979115E+04  0.00000000000E+00 0. -1.
          2   -1    0    0  501    0  0.00000000000E+00 -0.00000000000E+00 -0.17415242785E+04  0.17415242785E+04  0.00000000000E+00 0.  1.
         23    2    1    2    0    0 -0.12282159075E+04  0.36160098767E+03 -0.10099244893E+04  0.16332699408E+04  0.91398225731E+02 0.  0.
         11    1    3    3    0    0 -0.38326037270E+03  0.81605979719E+02 -0.34682965865E+03  0.52329615069E+03  0.00000000000E+00 0. -1.
        -11    1    3    3    0    0 -0.84495553476E+03  0.27999500795E+03 -0.66309483068E+03  0.11099737901E+04  0.00000000000E+00 0.  1.
         22    1    1    2    0    0  0.12282159075E+04 -0.36160098767E+03  0.55599812239E+03  0.13958522492E+04  0.00000000000E+00 0. -1.
<mgrwt>
<rscale>  0 0.29949177E+04</rscale>
<asrwt>0</asrwt>
<pdfrwt beam="1">  1        2 0.26792681E+00 0.29949177E+04</pdfrwt>
<pdfrwt beam="2">  1       -2 0.19809199E+00 0.29949177E+04</pdfrwt>
<totfact> 0.10903515E+00</totfact>
</mgrwt>
</event>
<event>
 6    1  0.1878398E-004  0.1850408E+04  0.7818608E-02  0.8679943E-01
         -2   -1    0    0    0  501 -0.00000000000E+00  0.00000000000E+00  0.69591218866E+03  0.69591218866E+03  0.00000000000E+00 0. -1.
          2   -1    0    0  501    0  0.00000000000E+00 -0.00000000000E+00 -0.12300431233E+04  0.12300431233E+04  0.00000000000E+00 0.  1.
         23    2    1    2    0    0 -0.35446567087E+03 -0.50449788320E+03 -0.98254731283E+03  0.11635635005E+04  0.91196336527E+02 0.  0.
         11    1    3    3    0    0 -0.14686437498E+03 -0.14373516418E+03 -0.36423455831E+03  0.41820539873E+03  0.00000000000E+00 0. -1.
        -11    1    3    3    0    0 -0.20760129589E+03 -0.36076271902E+03 -0.61831275452E+03  0.74535810178E+03  0.00000000000E+00 0.  1.
         22    1    1    2    0    0  0.35446567087E+03  0.50449788320E+03  0.44841637817E+03  0.76239181147E+03  0.00000000000E+00 0. -1.
<mgrwt>
<rscale>  0 0.18504075E+04</rscale>
<asrwt>0</asrwt>
<pdfrwt beam="1">  1        2 0.18923740E+00 0.18504075E+04</pdfrwt>
<pdfrwt beam="2">  1       -2 0.10706341E+00 0.18504075E+04</pdfrwt>
<totfact> 0.11989853E+01</totfact>
</mgrwt>
</event>
<event>
 6    1  0.1878398E-004  0.1760227E+04  0.7818608E-02  0.8727741E-01
          4   -1    0    0  501    0  0.00000000000E+00  0.00000000000E+00  0.97897888776E+03  0.97897888776E+03  0.00000000000E+00 0.  1.
         -4   -1    0    0    0  501 -0.00000000000E+00 -0.00000000000E+00 -0.79123200190E+03  0.79123200190E+03  0.00000000000E+00 0. -1.
         23    2    1    2    0    0  0.57878211460E+03 -0.64651720827E+03  0.22830192370E+03  0.90152340393E+03  0.87461092521E+02 0.  0.
         13    1    3    3    0    0  0.48540503628E+03 -0.58168955684E+03  0.18495667566E+03  0.77986522018E+03  0.00000000000E+00 0.  1.
        -13    1    3    3    0    0  0.93377078321E+02 -0.64827651432E+02  0.43345248040E+02  0.12165818375E+03  0.00000000000E+00 0. -1.
         22    1    1    2    0    0 -0.57878211460E+03  0.64651720827E+03 -0.40555037836E+02  0.86868748573E+03  0.00000000000E+00 0. -1.
<mgrwt>
<rscale>  0 0.17602266E+04</rscale>
<asrwt>0</asrwt>
<pdfrwt beam="1">  1        4 0.15061214E+00 0.17602266E+04</pdfrwt>
<pdfrwt beam="2">  1       -4 0.12172800E+00 0.17602266E+04</pdfrwt>
<totfact> 0.28520404E-01</totfact>
</mgrwt>
</event>
<event>
 6    1  0.1878398E-004  0.1066847E+04  0.7818608E-02  0.9238121E-01
         -1   -1    0    0    0  501 -0.00000000000E+00  0.00000000000E+00  0.18462091410E+03  0.18462091410E+03  0.00000000000E+00 0. -1.
          1   -1    0    0  501    0  0.00000000000E+00 -0.00000000000E+00 -0.15412153403E+04  0.15412153403E+04  0.00000000000E+00 0.  1.
         23    2    1    2    0    0  0.32556805751E+03 -0.28058917035E+03 -0.18272241977E+03  0.47575612495E+03  0.90727973349E+02 0.  0.
         13    1    3    3    0    0  0.16786410263E+03 -0.19868624114E+03 -0.12747263832E+03  0.28966161792E+03  0.00000000000E+00 0.  1.
        -13    1    3    3    0    0  0.15770395488E+03 -0.81902929201E+02 -0.55249781452E+02  0.18609450703E+03  0.00000000000E+00 0. -1.
         22    1    1    2    0    0 -0.32556805751E+03  0.28058917035E+03 -0.11738720065E+04  0.12500801295E+04  0.00000000000E+00 0.  1.
<mgrwt>
<rscale>  0 0.10668469E+04</rscale>
<asrwt>0</asrwt>
<pdfrwt beam="1">  1        1 0.23711005E+00 0.10668469E+04</pdfrwt>
<pdfrwt beam="2">  1       -1 0.28403218E-01 0.10668469E+04</pdfrwt>
<totfact> 0.68690414E+01</totfact>
</mgrwt>
</event>
<event>
 6    1  0.1878398E-004  0.8920568E+03  0.7818608E-02  0.9435566E-01
         -1   -1    0    0    0  501 -0.00000000000E+00  0.00000000000E+00  0.32356210046E+03  0.32356210046E+03  0.00000000000E+00 0. -1.
          1   -1    0    0  501    0  0.00000000000E+00 -0.00000000000E+00 -0.61484749370E+03  0.61484749370E+03  0.00000000000E+00 0.  1.
         23    2    1    2    0    0  0.10471871692E+03  0.12662801024E+03  0.28356403555E+03  0.34053625605E+03  0.92497117664E+02 0.  0.
         13    1    3    3    0    0  0.31778245141E+02  0.10408037150E+03  0.13408159832E+03  0.17268600292E+03  0.00000000000E+00 0. -1.
        -13    1    3    3    0    0  0.72940471780E+02  0.22547638739E+02  0.14948243722E+03  0.16785025313E+03  0.00000000000E+00 0.  1.
         22    1    1    2    0    0 -0.10471871692E+03 -0.12662801024E+03 -0.57484942879E+03  0.59787333811E+03  0.00000000000E+00 0.  1.
<mgrwt>
<rscale>  0 0.89205683E+03</rscale>
<asrwt>0</asrwt>
<pdfrwt beam="1">  1        1 0.94591921E-01 0.89205683E+03</pdfrwt>
<pdfrwt beam="2">  1       -1 0.49778785E-01 0.89205683E+03</pdfrwt>
<totfact> 0.13485162E+02</totfact>
</mgrwt>
</event>
<event>
 6    1  0.1878398E-004  0.2930233E+04  0.7818608E-02  0.8263939E-01
          2   -1    0    0  501    0  0.00000000000E+00  0.00000000000E+00  0.24018414157E+04  0.24018414157E+04  0.00000000000E+00 0.  1.
         -2   -1    0    0    0  501 -0.00000000000E+00 -0.00000000000E+00 -0.89371716085E+03  0.89371716085E+03  0.00000000000E+00 0. -1.
         23    2    1    2    0    0 -0.12693397257E+03  0.72817650253E+03  0.21757068307E+04  0.22995566951E+04  0.88924284796E+02 0.  0.
         13    1    3    3    0    0 -0.17129082667E+02  0.21070476503E+03  0.73523522816E+03  0.76502336187E+03  0.00000000000E+00 0.  1.
        -13    1    3    3    0    0 -0.10980488990E+03  0.51747173750E+03  0.14404716026E+04  0.15345333332E+04  0.00000000000E+00 0. -1.
         22    1    1    2    0    0  0.12693397257E+03 -0.72817650253E+03 -0.66758257588E+03  0.99600188145E+03  0.00000000000E+00 0. -1.
<mgrwt>
<rscale>  0 0.29302334E+04</rscale>
<asrwt>0</asrwt>
<pdfrwt beam="1">  1        2 0.36951406E+00 0.29302334E+04</pdfrwt>
<pdfrwt beam="2">  1       -2 0.13749495E+00 0.29302334E+04</pdfrwt>
<totfact> 0.12848944E+00</totfact>
</mgrwt>
</event>
<event>
 6    1  0.1878398E-004  0.2343478E+04  0.7818608E-02  0.8460973E-01
         -1   -1    0    0    0  501 -0.00000000000E+00  0.00000000000E+00  0.89373250350E+03  0.89373250350E+03  0.00000000000E+00 0. -1.
          1   -1    0    0  501    0  0.00000000000E+00 -0.00000000000E+00 -0.15362233366E+04  0.15362233366E+04  0.00000000000E+00 0.  1.
         23    2    1    2    0    0  0.34203843299E+03  0.64443197028E+03 -0.12702834948E+04  0.14674557205E+04  0.86736846566E+02 0.  0.
         13    1    3    3    0    0  0.27139890586E+03  0.46937270969E+03 -0.87416701272E+03  0.10286574128E+04  0.00000000000E+00 0. -1.
        -13    1    3    3    0    0  0.70639527130E+02  0.17505926059E+03 -0.39611648209E+03  0.43879830776E+03  0.00000000000E+00 0.  1.
         22    1    1    2    0    0 -0.34203843299E+03 -0.64443197028E+03  0.62779266175E+03  0.96250011954E+03  0.00000000000E+00 0. -1.
<mgrwt>
<rscale>  0 0.23434784E+04</rscale>
<asrwt>0</asrwt>
<pdfrwt beam="1">  1        1 0.23634205E+00 0.23434784E+04</pdfrwt>
<pdfrwt beam="2">  1       -1 0.13749731E+00 0.23434784E+04</pdfrwt>
<totfact> 0.24429352E+00</totfact>
</mgrwt>
</event>
<event>
 6    1  0.1878398E-004  0.1216382E+04  0.7818608E-02  0.9098637E-01
          3   -1    0    0  501    0  0.00000000000E+00  0.00000000000E+00  0.59962704277E+03  0.59962704277E+03  0.00000000000E+00 0.  1.
         -3   -1    0    0    0  501 -0.00000000000E+00 -0.00000000000E+00 -0.61687767709E+03  0.61687767709E+03  0.00000000000E+00 0. -1.
         23    2    1    2    0    0 -0.47658952748E+03 -0.36626126741E+03 -0.77747920612E+02  0.61239809405E+03  0.87759858259E+02 0.  0.
         13    1    3    3    0    0 -0.29501508160E+03 -0.23893741501E+03 -0.72919727140E+01  0.37970799245E+03  0.00000000000E+00 0.  1.
        -13    1    3    3    0    0 -0.18157444588E+03 -0.12732385240E+03 -0.70455947898E+02  0.23269010159E+03  0.00000000000E+00 0. -1.
         22    1    1    2    0    0  0.47658952748E+03  0.36626126741E+03  0.60497286291E+02  0.60410662582E+03  0.00000000000E+00 0.  1.
<mgrwt>
<rscale>  0 0.12163824E+04</rscale>
<asrwt>0</asrwt>
<pdfrwt beam="1">  1        3 0.92250314E-01 0.12163824E+04</pdfrwt>
<pdfrwt beam="2">  1       -3 0.94904258E-01 0.12163824E+04</pdfrwt>
<totfact> 0.26885519E+00</totfact>
</mgrwt>
</event>
<event>
 6    1  0.1878398E-004  0.1228182E+04  0.7818608E-02  0.9088540E-01
         -1   -1    0    0    0  501 -0.00000000000E+00  0.00000000000E+00  0.80968650075E+03  0.80968650075E+03  0.00000000000E+00 0. -1.
          1   -1    0    0  501    0  0.00000000000E+00 -0.00000000000E+00 -0.46574565588E+03  0.46574565588E+03  0.00000000000E+00 0.  1.
         23    2    1    2    0    0  0.48464277711E+02  0.30017600189E+03  0.72281962980E+03  0.78963018876E+03  0.92699511570E+02 0.  0.
         13    1    3    3    0    0  0.19377723208E+02  0.89065056474E+02  0.33430044858E+03  0.34650378117E+03  0.00000000000E+00 0.  1.
        -13    1    3    3    0    0  0.29086554503E+02  0.21111094542E+03  0.38851918122E+03  0.44312640759E+03  0.00000000000E+00 0. -1.
         22    1    1    2    0    0 -0.48464277711E+02 -0.30017600189E+03 -0.37887878493E+03  0.48580196788E+03  0.00000000000E+00 0.  1.
<mgrwt>
<rscale>  0 0.12281823E+04</rscale>
<asrwt>0</asrwt>
<pdfrwt beam="1">  1        1 0.71653178E-01 0.12281823E+04</pdfrwt>
<pdfrwt beam="2">  1       -1 0.12456715E+00 0.12281823E+04</pdfrwt>
<totfact> 0.27252914E+01</totfact>
</mgrwt>
</event>
<event>
 6    1  0.1878398E-004  0.1626659E+04  0.7818608E-02  0.8804336E-01
         -2   -1    0    0    0  501 -0.00000000000E+00  0.00000000000E+00  0.36658297079E+03  0.36658297079E+03  0.00000000000E+00 0. -1.
          2   -1    0    0  501    0  0.00000000000E+00 -0.00000000000E+00 -0.18045157458E+04  0.18045157458E+04  0.00000000000E+00 0.  1.
         23    2    1    2    0    0  0.68441118502E+03 -0.17587197398E+03 -0.12512702270E+04  0.14402139594E+04  0.95861600702E+02 0.  0.
         13    1    3    3    0    0  0.60141416728E+03 -0.14112050903E+03 -0.11445962707E+04  0.13006593027E+04  0.00000000000E+00 0.  1.
        -13    1    3    3    0    0  0.82997017737E+02 -0.34751464943E+02 -0.10667395628E+03  0.13955465674E+03  0.00000000000E+00 0. -1.
         22    1    1    2    0    0 -0.68441118502E+03  0.17587197398E+03 -0.18666254796E+03  0.73088475714E+03  0.00000000000E+00 0. -1.
<mgrwt>
<rscale>  0 0.16266588E+04</rscale>
<asrwt>0</asrwt>
<pdfrwt beam="1">  1        2 0.27761781E+00 0.16266588E+04</pdfrwt>
<pdfrwt beam="2">  1       -2 0.56397380E-01 0.16266588E+04</pdfrwt>
<totfact> 0.24221158E+01</totfact>
</mgrwt>
</event>
<event>
 6    1  0.1878398E-004  0.3768981E+04  0.7818608E-02  0.8052844E-01
          2   -1    0    0  501    0  0.00000000000E+00  0.00000000000E+00  0.13835221654E+04  0.13835221654E+04  0.00000000000E+00 0.  1.
         -2   -1    0    0    0  501 -0.00000000000E+00 -0.00000000000E+00 -0.25668578988E+04  0.25668578988E+04  0.00000000000E+00 0. -1.
         23    2    1    2    0    0 -0.12893604659E+04  0.13633000536E+04 -0.76771662737E+03  0.20284600116E+04  0.64990398103E+02 0.  0.
         11    1    3    3    0    0 -0.10243372193E+04  0.11028034009E+04 -0.63934833545E+03  0.16353006983E+04  0.00000000000E+00 0. -1.
        -11    1    3    3    0    0 -0.26502324660E+03  0.26049665263E+03 -0.12836829192E+03  0.39315931331E+03  0.00000000000E+00 0.  1.
         22    1    1    2    0    0  0.12893604659E+04 -0.13633000536E+04 -0.41561910598E+03  0.19219200525E+04  0.00000000000E+00 0. -1.
<mgrwt>
<rscale>  0 0.37689812E+04</rscale>
<asrwt>0</asrwt>
<pdfrwt beam="1">  1        2 0.21284956E+00 0.37689812E+04</pdfrwt>
<pdfrwt beam="2">  1       -2 0.39490122E+00 0.37689812E+04</pdfrwt>
<totfact> 0.95209095E-02</totfact>
</mgrwt>
</event>
<event>
 6    1  0.1878398E-004  0.1875729E+04  0.7818608E-02  0.8667033E-01
          2   -1    0    0  501    0  0.00000000000E+00  0.00000000000E+00  0.25971241021E+04  0.25971241021E+04  0.00000000000E+00 0.  1.
         -2   -1    0    0    0  501 -0.00000000000E+00 -0.00000000000E+00 -0.33867835200E+03  0.33867835200E+03  0.00000000000E+00 0. -1.
         23    2    1    2    0    0 -0.27517145319E+03 -0.88994684085E+03  0.12700371178E+04  0.15776138322E+04  0.90257491985E+02 0.  0.
         11    1    3    3    0    0 -0.10007568615E+03 -0.31175767592E+03  0.52057440094E+03  0.61498430742E+03  0.00000000000E+00 0. -1.
        -11    1    3    3    0    0 -0.17509576703E+03 -0.57818916492E+03  0.74946271683E+03  0.96262952478E+03  0.00000000000E+00 0.  1.
         22    1    1    2    0    0  0.27517145319E+03  0.88994684085E+03  0.98840863231E+03  0.13581886219E+04  0.00000000000E+00 0. -1.
<mgrwt>
<rscale>  0 0.18757289E+04</rscale>
<asrwt>0</asrwt>
<pdfrwt beam="1">  1        2 0.39955754E+00 0.18757289E+04</pdfrwt>
<pdfrwt beam="2">  1       -2 0.52104364E-01 0.18757289E+04</pdfrwt>
<totfact> 0.99815370E+00</totfact>
</mgrwt>
</event>
<event>
 6    1  0.1878398E-004  0.2476897E+04  0.7818608E-02  0.8411262E-01
          1   -1    0    0  501    0  0.00000000000E+00  0.00000000000E+00  0.14379641021E+04  0.14379641021E+04  0.00000000000E+00 0.  1.
         -1   -1    0    0    0  501 -0.00000000000E+00 -0.00000000000E+00 -0.10666157051E+04  0.10666157051E+04  0.00000000000E+00 0. -1.
         23    2    1    2    0    0 -0.85116895302E+03 -0.61423733189E+03  0.84721810498E+03  0.13520920348E+04  0.92726839260E+02 0.  0.
         13    1    3    3    0    0 -0.46780812318E+02 -0.41905374580E+02  0.26068227205E+02  0.68000421245E+02  0.00000000000E+00 0.  1.
        -13    1    3    3    0    0 -0.80438814070E+03 -0.57233195731E+03  0.82114987778E+03  0.12840916136E+04  0.00000000000E+00 0. -1.
         22    1    1    2    0    0  0.85116895302E+03  0.61423733189E+03 -0.47586970803E+03  0.11524877724E+04  0.00000000000E+00 0. -1.
<mgrwt>
<rscale>  0 0.24768973E+04</rscale>
<asrwt>0</asrwt>
<pdfrwt beam="1">  1        1 0.22122525E+00 0.24768973E+04</pdfrwt>
<pdfrwt beam="2">  1       -1 0.16409472E+00 0.24768973E+04</pdfrwt>
<totfact> 0.17510025E+00</totfact>
</mgrwt>
</event>
<event>
 6    1  0.1878398E-004  0.1731585E+04  0.7818608E-02  0.8743552E-01
          2   -1    0    0  501    0  0.00000000000E+00  0.00000000000E+00  0.19579434932E+04  0.19579434932E+04  0.00000000000E+00 0.  1.
         -2   -1    0    0    0  501 -0.00000000000E+00 -0.00000000000E+00 -0.38284907818E+03  0.38284907818E+03  0.00000000000E+00 0. -1.
         23    2    1    2    0    0  0.24101045970E+03 -0.72452746310E+03  0.24397302626E+03  0.80622089234E+03  0.86274000841E+02 0.  0.
         13    1    3    3    0    0  0.15159524020E+03 -0.32076573061E+03  0.11887563164E+03  0.37416999690E+03  0.00000000000E+00 0. -1.
        -13    1    3    3    0    0  0.89415219506E+02 -0.40376173249E+03  0.12509739462E+03  0.43205089543E+03  0.00000000000E+00 0.  1.
         22    1    1    2    0    0 -0.24101045970E+03  0.72452746310E+03  0.13311213887E+04  0.15345716790E+04  0.00000000000E+00 0.  1.
<mgrwt>
<rscale>  0 0.17315852E+04</rscale>
<asrwt>0</asrwt>
<pdfrwt beam="1">  1        2 0.30122207E+00 0.17315852E+04</pdfrwt>
<pdfrwt beam="2">  1       -2 0.58899859E-01 0.17315852E+04</pdfrwt>
<totfact> 0.18025460E+01</totfact>
</mgrwt>
</event>
<event>
 6    1  0.1878398E-004  0.6454769E+03  0.7818608E-02  0.9815304E-01
         -2   -1    0    0    0  501 -0.00000000000E+00  0.00000000000E+00  0.95528315622E+02  0.95528315622E+02  0.00000000000E+00 0. -1.
          2   -1    0    0  501    0  0.00000000000E+00 -0.00000000000E+00 -0.10903584036E+04  0.10903584036E+04  0.00000000000E+00 0.  1.
         23    2    1    2    0    0 -0.17521455458E+03  0.23888038051E+03 -0.30260146881E+03  0.43292959061E+03  0.89980026493E+02 0.  0.
         11    1    3    3    0    0 -0.30370301093E+02  0.32609321761E+02 -0.80901103048E+01  0.45289876782E+02  0.00000000000E+00 0. -1.
        -11    1    3    3    0    0 -0.14484425349E+03  0.20627105875E+03 -0.29451135850E+03  0.38763971382E+03  0.00000000000E+00 0.  1.
         22    1    1    2    0    0  0.17521455458E+03 -0.23888038051E+03 -0.69222861913E+03  0.75295712858E+03  0.00000000000E+00 0.  1.
<mgrwt>
<rscale>  0 0.64547688E+03</rscale>
<asrwt>0</asrwt>
<pdfrwt beam="1">  1        2 0.16774744E+00 0.64547688E+03</pdfrwt>
<pdfrwt beam="2">  1       -2 0.14696664E-01 0.64547688E+03</pdfrwt>
<totfact> 0.80831109E+02</totfact>
</mgrwt>
</event>
<event>
 6    1  0.1878398E-004  0.3556478E+04  0.7818608E-02  0.8100534E-01
          1   -1    0    0  501    0  0.00000000000E+00  0.00000000000E+00  0.23416814733E+04  0.23416814733E+04  0.00000000000E+00 0. -1.
         -1   -1    0    0    0  501 -0.00000000000E+00 -0.00000000000E+00 -0.13503688841E+04  0.13503688841E+04  0.00000000000E+00 0.  1.
         23    2    1    2    0    0  0.17696830858E+04  0.11854141763E+03  0.38125582523E+03  0.18164172518E+04  0.90472849861E+02 0.  0.
         13    1    3    3    0    0  0.12332073338E+03  0.20513261773E+02  0.47325256287E+02  0.13367302298E+03  0.00000000000E+00 0. -1.
        -13    1    3    3    0    0  0.16463623524E+04  0.98028155861E+02  0.33393056894E+03  0.16827442288E+04  0.00000000000E+00 0.  1.
         22    1    1    2    0    0 -0.17696830858E+04 -0.11854141763E+03  0.61005676400E+03  0.18756331057E+04  0.00000000000E+00 0. -1.
<mgrwt>
<rscale>  0 0.35564779E+04</rscale>
<asrwt>0</asrwt>
<pdfrwt beam="1">  1        1 0.36025869E+00 0.35564779E+04</pdfrwt>
<pdfrwt beam="2">  1       -1 0.20774906E+00 0.35564779E+04</pdfrwt>
<totfact> 0.18842516E-01</totfact>
</mgrwt>
</event>
<event>
 6    1  0.1878398E-004  0.1200817E+04  0.7818608E-02  0.9112142E-01
         -2   -1    0    0    0  501 -0.00000000000E+00  0.00000000000E+00  0.62059129945E+03  0.62059129945E+03  0.00000000000E+00 0. -1.
          2   -1    0    0  501    0  0.00000000000E+00 -0.00000000000E+00 -0.58088182814E+03  0.58088182814E+03  0.00000000000E+00 0.  1.
         23    2    1    2    0    0  0.47814236767E+03 -0.20556203924E+03  0.31250032041E+03  0.61385869355E+03  0.91050368763E+02 0.  0.
         11    1    3    3    0    0  0.19114232241E+03 -0.34446854853E+02  0.11522204264E+03  0.22582757214E+03  0.00000000000E+00 0. -1.
        -11    1    3    3    0    0  0.28700004526E+03 -0.17111518439E+03  0.19727827777E+03  0.38803112141E+03  0.00000000000E+00 0.  1.
         22    1    1    2    0    0 -0.47814236767E+03  0.20556203924E+03 -0.27279084910E+03  0.58761443404E+03  0.00000000000E+00 0.  1.
<mgrwt>
<rscale>  0 0.12008167E+04</rscale>
<asrwt>0</asrwt>
<pdfrwt beam="1">  1        2 0.89366435E-01 0.12008167E+04</pdfrwt>
<pdfrwt beam="2">  1       -2 0.95475584E-01 0.12008167E+04</pdfrwt>
<totfact> 0.46891967E+01</totfact>
</mgrwt>
</event>
<event>
 6    1  0.1878398E-004  0.4091207E+04  0.7818608E-02  0.7986396E-01
          1   -1    0    0  501    0  0.00000000000E+00  0.00000000000E+00  0.30131822691E+04  0.30131822691E+04  0.00000000000E+00 0.  1.
         -1   -1    0    0    0  501 -0.00000000000E+00 -0.00000000000E+00 -0.13887290131E+04  0.13887290131E+04  0.00000000000E+00 0. -1.
         23    2    1    2    0    0 -0.17926841393E+03 -0.19863457730E+04  0.12968621884E+04  0.23807673977E+04  0.92169256622E+02 0.  0.
         11    1    3    3    0    0 -0.14366467643E+03 -0.11403324780E+04  0.72201683314E+03  0.13573157359E+04  0.00000000000E+00 0. -1.
        -11    1    3    3    0    0 -0.35603737499E+02 -0.84601329507E+03  0.57484535521E+03  0.10234516618E+04  0.00000000000E+00 0.  1.
         22    1    1    2    0    0  0.17926841393E+03  0.19863457730E+04  0.32759106774E+03  0.20211438845E+04  0.00000000000E+00 0. -1.
<mgrwt>
<rscale>  0 0.40912070E+04</rscale>
<asrwt>0</asrwt>
<pdfrwt beam="1">  1        1 0.46356650E+00 0.40912070E+04</pdfrwt>
<pdfrwt beam="2">  1       -1 0.21365062E+00 0.40912070E+04</pdfrwt>
<totfact> 0.55125243E-02</totfact>
</mgrwt>
</event>
<event>
 6    1  0.1878398E-004  0.1806780E+04  0.7818608E-02  0.8702702E-01
         -1   -1    0    0    0  501 -0.00000000000E+00  0.00000000000E+00  0.61408820636E+03  0.61408820636E+03  0.00000000000E+00 0. -1.
          1   -1    0    0  501    0  0.00000000000E+00 -0.00000000000E+00 -0.13289847922E+04  0.13289847922E+04  0.00000000000E+00 0.  1.
         23    2    1    2    0    0  0.11188676340E+02 -0.30157025028E+03 -0.12714516014E+04  0.13099669350E+04  0.91402373338E+02 0.  0.
         11    1    3    3    0    0  0.44642417521E+02 -0.93131938414E+02 -0.46624514478E+03  0.47754689657E+03  0.00000000000E+00 0.  1.
        -11    1    3    3    0    0 -0.33453741181E+02 -0.20843831187E+03 -0.80520645658E+03  0.83242003843E+03  0.00000000000E+00 0. -1.
         22    1    1    2    0    0 -0.11188676340E+02  0.30157025028E+03  0.55655501556E+03  0.63310606353E+03  0.00000000000E+00 0. -1.
<mgrwt>
<rscale>  0 0.18067804E+04</rscale>
<asrwt>0</asrwt>
<pdfrwt beam="1">  1        1 0.20445920E+00 0.18067804E+04</pdfrwt>
<pdfrwt beam="2">  1       -1 0.94475108E-01 0.18067804E+04</pdfrwt>
<totfact> 0.88187898E+00</totfact>
</mgrwt>
</event>
<event>
 6    1  0.1878398E-004  0.2764496E+04  0.7818608E-02  0.8314377E-01
         -2   -1    0    0    0  501 -0.00000000000E+00  0.00000000000E+00  0.10427196125E+04  0.10427196125E+04  0.00000000000E+00 0. -1.
          2   -1    0    0  501    0  0.00000000000E+00 -0.00000000000E+00 -0.18323323386E+04  0.18323323386E+04  0.00000000000E+00 0.  1.
         23    2    1    2    0    0 -0.59080861013E+03  0.11182024560E+04 -0.97151842494E+03  0.15973504094E+04  0.90822540321E+02 0.  0.
         11    1    3    3    0    0 -0.35958658668E+03  0.68659850539E+03 -0.65045514847E+03  0.10118359161E+04  0.00000000000E+00 0. -1.
        -11    1    3    3    0    0 -0.23122202345E+03  0.43160395063E+03 -0.32106327647E+03  0.58551449326E+03  0.00000000000E+00 0.  1.
         22    1    1    2    0    0  0.59080861013E+03 -0.11182024560E+04  0.18190569887E+03  0.12777015417E+04  0.00000000000E+00 0. -1.
<mgrwt>
<rscale>  0 0.27644955E+04</rscale>
<asrwt>0</asrwt>
<pdfrwt beam="1">  1        2 0.28189728E+00 0.27644955E+04</pdfrwt>
<pdfrwt beam="2">  1       -2 0.16041841E+00 0.27644955E+04</pdfrwt>
<totfact> 0.18073393E+00</totfact>
</mgrwt>
</event>
<event>
 6    1  0.2041925E-004  0.3430055E+04  0.7818608E-02  0.8130569E-01
         -2   -1    0    0    0  501 -0.00000000000E+00  0.00000000000E+00  0.13820585552E+04  0.13820585552E+04  0.00000000000E+00 0. -1.
          2   -1    0    0  501    0  0.00000000000E+00 -0.00000000000E+00 -0.21282157842E+04  0.21282157842E+04  0.00000000000E+00 0.  1.
         23    2    1    2    0    0  0.76234486512E+03  0.38693530031E+03 -0.18934147469E+04  0.20795093579E+04  0.91930113915E+02 0.  0.
         13    1    3    3    0    0  0.50678767342E+03  0.21256065488E+03 -0.11649736005E+04  0.12880913274E+04  0.00000000000E+00 0.  1.
        -13    1    3    3    0    0  0.25555719169E+03  0.17437464543E+03 -0.72844114639E+03  0.79141803047E+03  0.00000000000E+00 0. -1.
         22    1    1    2    0    0 -0.76234486512E+03 -0.38693530031E+03  0.11472575179E+04  0.14307649815E+04  0.00000000000E+00 0. -1.
<mgrwt>
<rscale>  0 0.34300547E+04</rscale>
<asrwt>0</asrwt>
<pdfrwt beam="1">  1        2 0.32741781E+00 0.34300547E+04</pdfrwt>
<pdfrwt beam="2">  1       -2 0.21262439E+00 0.34300547E+04</pdfrwt>
<totfact> 0.51576861E-01</totfact>
</mgrwt>
</event>
<event>
 6    1  0.1878398E-004  0.2589328E+04  0.7818608E-02  0.8371835E-01
         -1   -1    0    0    0  501 -0.00000000000E+00  0.00000000000E+00  0.10939743439E+04  0.10939743439E+04  0.00000000000E+00 0.  1.
          1   -1    0    0  501    0  0.00000000000E+00 -0.00000000000E+00 -0.15321696943E+04  0.15321696943E+04  0.00000000000E+00 0. -1.
         23    2    1    2    0    0 -0.44117652542E+03  0.11484321259E+04  0.18421557525E+03  0.12474024254E+04  0.92435698466E+02 0.  0.
         11    1    3    3    0    0 -0.21797697692E+03  0.59491985643E+03  0.14047876515E+03  0.64898218889E+03  0.00000000000E+00 0.  1.
        -11    1    3    3    0    0 -0.22319954850E+03  0.55351226946E+03  0.43736810096E+02  0.59842023650E+03  0.00000000000E+00 0. -1.
         22    1    1    2    0    0  0.44117652542E+03 -0.11484321259E+04 -0.62241092569E+03  0.13787416128E+04  0.00000000000E+00 0.  1.
<mgrwt>
<rscale>  0 0.25893276E+04</rscale>
<asrwt>0</asrwt>
<pdfrwt beam="1">  1        1 0.23571841E+00 0.25893276E+04</pdfrwt>
<pdfrwt beam="2">  1       -1 0.16830374E+00 0.25893276E+04</pdfrwt>
<totfact> 0.13875082E+00</totfact>
</mgrwt>
</event>
<event>
 6    1  0.1878398E-004  0.3225343E+04  0.7818608E-02  0.8182156E-01
          2   -1    0    0  501    0  0.00000000000E+00  0.00000000000E+00  0.13554384249E+04  0.13554384249E+04  0.00000000000E+00 0. -1.
         -2   -1    0    0    0  501 -0.00000000000E+00 -0.00000000000E+00 -0.19187223238E+04  0.19187223238E+04  0.00000000000E+00 0.  1.
         23    2    1    2    0    0 -0.19480508499E+03  0.11799126874E+04 -0.13782402084E+04  0.18269922175E+04  0.90617436419E+02 0.  0.
         11    1    3    3    0    0 -0.17896705108E+02  0.95363201501E+02 -0.15289421986E+03  0.18108306028E+03  0.00000000000E+00 0. -1.
        -11    1    3    3    0    0 -0.17690837988E+03  0.10845494859E+04 -0.12253459886E+04  0.16459091573E+04  0.00000000000E+00 0.  1.
         22    1    1    2    0    0  0.19480508499E+03 -0.11799126874E+04  0.81495630956E+03  0.14471685311E+04  0.00000000000E+00 0. -1.
<mgrwt>
<rscale>  0 0.32253434E+04</rscale>
<asrwt>0</asrwt>
<pdfrwt beam="1">  1        2 0.20852899E+00 0.32253434E+04</pdfrwt>
<pdfrwt beam="2">  1       -2 0.29518805E+00 0.32253434E+04</pdfrwt>
<totfact> 0.43869641E-01</totfact>
</mgrwt>
</event>
<event>
 6    1  0.1878398E-004  0.1704267E+04  0.7818608E-02  0.8758935E-01
          1   -1    0    0  501    0  0.00000000000E+00  0.00000000000E+00  0.58340763710E+03  0.58340763710E+03  0.00000000000E+00 0.  1.
         -1   -1    0    0    0  501 -0.00000000000E+00 -0.00000000000E+00 -0.12446379141E+04  0.12446379141E+04  0.00000000000E+00 0. -1.
         23    2    1    2    0    0  0.36239711838E+03  0.37659755450E+03  0.38716501157E+03  0.65659769894E+03  0.89813153861E+02 0.  0.
         13    1    3    3    0    0  0.20725279157E+03  0.23404609779E+03  0.28245355484E+03  0.42132090637E+03  0.00000000000E+00 0.  1.
        -13    1    3    3    0    0  0.15514432681E+03  0.14255145671E+03  0.10471145673E+03  0.23527679257E+03  0.00000000000E+00 0. -1.
         22    1    1    2    0    0 -0.36239711838E+03 -0.37659755450E+03 -0.10483952885E+04  0.11714478522E+04  0.00000000000E+00 0. -1.
<mgrwt>
<rscale>  0 0.17042667E+04</rscale>
<asrwt>0</asrwt>
<pdfrwt beam="1">  1        1 0.89755023E-01 0.17042667E+04</pdfrwt>
<pdfrwt beam="2">  1       -1 0.19148275E+00 0.17042667E+04</pdfrwt>
<totfact> 0.58515971E+00</totfact>
</mgrwt>
</event>
<event>
 6    1  0.1878398E-004  0.1534906E+04  0.7818608E-02  0.8861567E-01
         -2   -1    0    0    0  501 -0.00000000000E+00  0.00000000000E+00  0.62404696724E+03  0.62404696724E+03  0.00000000000E+00 0. -1.
          2   -1    0    0  501    0  0.00000000000E+00 -0.00000000000E+00 -0.94381372139E+03  0.94381372139E+03  0.00000000000E+00 0.  1.
         23    2    1    2    0    0  0.73218323278E+03  0.22187180247E+03 -0.15730995119E+03  0.78574075159E+03  0.85572921406E+02 0.  0.
         13    1    3    3    0    0  0.52072879339E+03  0.12689873715E+03 -0.83257916523E+02  0.54239620797E+03  0.00000000000E+00 0.  1.
        -13    1    3    3    0    0  0.21145443939E+03  0.94973065322E+02 -0.74052034662E+02  0.24334454362E+03  0.00000000000E+00 0. -1.
         22    1    1    2    0    0 -0.73218323278E+03 -0.22187180247E+03 -0.16245680296E+03  0.78211993704E+03  0.00000000000E+00 0.  1.
<mgrwt>
<rscale>  0 0.15349060E+04</rscale>
<asrwt>0</asrwt>
<pdfrwt beam="1">  1        2 0.14520211E+00 0.15349060E+04</pdfrwt>
<pdfrwt beam="2">  1       -2 0.96007225E-01 0.15349060E+04</pdfrwt>
<totfact> 0.24019980E+01</totfact>
</mgrwt>
</event>
<event>
 6    1  0.1878398E-004  0.4106112E+04  0.7818608E-02  0.7983476E-01
         -1   -1    0    0    0  501 -0.00000000000E+00  0.00000000000E+00  0.14745312980E+04  0.14745312980E+04  0.00000000000E+00 0.  1.
          1   -1    0    0  501    0  0.00000000000E+00 -0.00000000000E+00 -0.28585612268E+04  0.28585612268E+04  0.00000000000E+00 0. -1.
         23    2    1    2    0    0  0.11843164225E+04  0.56662141013E+03 -0.23566547839E+04  0.26991817807E+04  0.89973907304E+02 0.  0.
         13    1    3    3    0    0  0.75834034349E+03  0.31531822717E+03 -0.14870560102E+04  0.16987763945E+04  0.00000000000E+00 0. -1.
        -13    1    3    3    0    0  0.42597607898E+03  0.25130318296E+03 -0.86959877367E+03  0.10004053862E+04  0.00000000000E+00 0.  1.
         22    1    1    2    0    0 -0.11843164225E+04 -0.56662141013E+03  0.97262485502E+03  0.16339107441E+04  0.00000000000E+00 0.  1.
<mgrwt>
<rscale>  0 0.41061115E+04</rscale>
<asrwt>0</asrwt>
<pdfrwt beam="1">  1        1 0.43977865E+00 0.41061115E+04</pdfrwt>
<pdfrwt beam="2">  1       -1 0.22685097E+00 0.41061115E+04</pdfrwt>
<totfact> 0.58140425E-02</totfact>
</mgrwt>
</event>
<event>
 6    1  0.1878398E-004  0.9712422E+03  0.7818608E-02  0.9340661E-01
         -1   -1    0    0    0  501 -0.00000000000E+00  0.00000000000E+00  0.50943445868E+03  0.50943445868E+03  0.00000000000E+00 0. -1.
          1   -1    0    0  501    0  0.00000000000E+00 -0.00000000000E+00 -0.46292091097E+03  0.46292091097E+03  0.00000000000E+00 0.  1.
         23    2    1    2    0    0  0.27624593082E+03  0.27492115092E+03 -0.25977013456E+03  0.47667084543E+03  0.88550090656E+02 0.  0.
         13    1    3    3    0    0  0.13520803567E+03  0.88711067780E+02 -0.14132505828E+03  0.21476414634E+03  0.00000000000E+00 0. -1.
        -13    1    3    3    0    0  0.14103789515E+03  0.18621008314E+03 -0.11844507628E+03  0.26190669909E+03  0.00000000000E+00 0.  1.
         22    1    1    2    0    0 -0.27624593082E+03 -0.27492115092E+03  0.30628368228E+03  0.49568452422E+03  0.00000000000E+00 0. -1.
<mgrwt>
<rscale>  0 0.97124222E+03</rscale>
<asrwt>0</asrwt>
<pdfrwt beam="1">  1        1 0.71218601E-01 0.97124222E+03</pdfrwt>
<pdfrwt beam="2">  1       -1 0.78374532E-01 0.97124222E+03</pdfrwt>
<totfact> 0.80674002E+01</totfact>
</mgrwt>
</event>
<event>
 6    1  0.1878398E-004  0.7589990E+03  0.7818608E-02  0.9621337E-01
          3   -1    0    0  501    0  0.00000000000E+00  0.00000000000E+00  0.10698263906E+04  0.10698263906E+04  0.00000000000E+00 0.  1.
         -3   -1    0    0    0  501 -0.00000000000E+00 -0.00000000000E+00 -0.13461986421E+03  0.13461986421E+03  0.00000000000E+00 0. -1.
         23    2    1    2    0    0  0.30071186681E+03 -0.19902113995E+03  0.31543350180E+03  0.48739978282E+03  0.89572391147E+02 0.  0.
         13    1    3    3    0    0  0.68416730041E+02 -0.96079392939E+01  0.37354144831E+02  0.78539757977E+02  0.00000000000E+00 0. -1.
        -13    1    3    3    0    0  0.23229513677E+03 -0.18941320065E+03  0.27807935697E+03  0.40886002485E+03  0.00000000000E+00 0.  1.
         22    1    1    2    0    0 -0.30071186681E+03  0.19902113995E+03  0.61977302462E+03  0.71704647202E+03  0.00000000000E+00 0.  1.
<mgrwt>
<rscale>  0 0.75899903E+03</rscale>
<asrwt>0</asrwt>
<pdfrwt beam="1">  1        3 0.16458867E+00 0.75899903E+03</pdfrwt>
<pdfrwt beam="2">  1       -3 0.20710749E-01 0.75899903E+03</pdfrwt>
<totfact> 0.14450186E+01</totfact>
</mgrwt>
</event>
<event>
 6    1  0.1878398E-004  0.3309718E+04  0.7818608E-02  0.8160427E-01
          2   -1    0    0  501    0  0.00000000000E+00  0.00000000000E+00  0.10189072542E+04  0.10189072542E+04  0.00000000000E+00 0.  1.
         -2   -1    0    0    0  501 -0.00000000000E+00 -0.00000000000E+00 -0.26877409969E+04  0.26877409969E+04  0.00000000000E+00 0. -1.
         23    2    1    2    0    0  0.10261772543E+04  0.12949678305E+04 -0.76118165127E+03  0.18214920882E+04  0.91948257033E+02 0.  0.
         13    1    3    3    0    0  0.76666471846E+03  0.90429532836E+03 -0.53074623135E+03  0.12989289409E+04  0.00000000000E+00 0.  1.
        -13    1    3    3    0    0  0.25951253582E+03  0.39067250212E+03 -0.23043541991E+03  0.52256314730E+03  0.00000000000E+00 0. -1.
         22    1    1    2    0    0 -0.10261772543E+04 -0.12949678305E+04 -0.90765209148E+03  0.18851561629E+04  0.00000000000E+00 0.  1.
<mgrwt>
<rscale>  0 0.33097183E+04</rscale>
<asrwt>0</asrwt>
<pdfrwt beam="1">  1        2 0.15675496E+00 0.33097183E+04</pdfrwt>
<pdfrwt beam="2">  1       -2 0.41349861E+00 0.33097183E+04</pdfrwt>
<totfact> 0.12359422E-01</totfact>
</mgrwt>
</event>
<event>
 6    1  0.1878398E-004  0.3987212E+04  0.7818608E-02  0.8007131E-01
          1   -1    0    0  501    0  0.00000000000E+00  0.00000000000E+00  0.32298281050E+04  0.32298281050E+04  0.00000000000E+00 0.  1.
         -1   -1    0    0    0  501 -0.00000000000E+00 -0.00000000000E+00 -0.12305500941E+04  0.12305500941E+04  0.00000000000E+00 0. -1.
         23    2    1    2    0    0  0.14328604833E+03 -0.98440679395E+03  0.29315101104E+04  0.30970571382E+04  0.91781056014E+02 0.  0.
         11    1    3    3    0    0  0.23043218205E+02 -0.39787982467E+03  0.12618860724E+04  0.13233275499E+04  0.00000000000E+00 0. -1.
        -11    1    3    3    0    0  0.12024283012E+03 -0.58652696928E+03  0.16696240381E+04  0.17737295883E+04  0.00000000000E+00 0.  1.
         22    1    1    2    0    0 -0.14328604833E+03  0.98440679395E+03 -0.93223209951E+03  0.13633210609E+04  0.00000000000E+00 0. -1.
<mgrwt>
<rscale>  0 0.39872122E+04</rscale>
<asrwt>0</asrwt>
<pdfrwt beam="1">  1        1 0.49689663E+00 0.39872122E+04</pdfrwt>
<pdfrwt beam="2">  1       -1 0.18931540E+00 0.39872122E+04</pdfrwt>
<totfact> 0.56452167E-02</totfact>
</mgrwt>
</event>
<event>
 6    1  0.1878398E-004  0.2385912E+04  0.7818608E-02  0.8444797E-01
         -2   -1    0    0    0  501 -0.00000000000E+00  0.00000000000E+00  0.92740952149E+03  0.92740952149E+03  0.00000000000E+00 0. -1.
          2   -1    0    0  501    0  0.00000000000E+00 -0.00000000000E+00 -0.15345363158E+04  0.15345363158E+04  0.00000000000E+00 0.  1.
         23    2    1    2    0    0 -0.35157798403E+03  0.74757700879E+03 -0.11895138811E+04  0.14511772279E+04  0.92160786110E+02 0.  0.
         13    1    3    3    0    0 -0.24090461468E+03  0.40495909131E+03 -0.67508004291E+03  0.82326178299E+03  0.00000000000E+00 0. -1.
        -13    1    3    3    0    0 -0.11067336935E+03  0.34261791748E+03 -0.51443383819E+03  0.62791544489E+03  0.00000000000E+00 0.  1.
         22    1    1    2    0    0  0.35157798403E+03 -0.74757700879E+03  0.58238708678E+03  0.10107686094E+04  0.00000000000E+00 0. -1.
<mgrwt>
<rscale>  0 0.23859116E+04</rscale>
<asrwt>0</asrwt>
<pdfrwt beam="1">  1        2 0.23608251E+00 0.23859116E+04</pdfrwt>
<pdfrwt beam="2">  1       -2 0.14267839E+00 0.23859116E+04</pdfrwt>
<totfact> 0.37357438E+00</totfact>
</mgrwt>
</event>
<event>
 6    1  0.1878398E-004  0.1559708E+04  0.7818608E-02  0.8845690E-01
         -2   -1    0    0    0  501 -0.00000000000E+00  0.00000000000E+00  0.15863820620E+04  0.15863820620E+04  0.00000000000E+00 0. -1.
          2   -1    0    0  501    0  0.00000000000E+00 -0.00000000000E+00 -0.38337082507E+03  0.38337082507E+03  0.00000000000E+00 0.  1.
         23    2    1    2    0    0 -0.11626271520E+03 -0.62972971652E+03  0.48358056676E+02  0.64941183207E+03  0.96543726700E+02 0.  0.
         13    1    3    3    0    0 -0.93484018807E+02 -0.43752431211E+03 -0.91663484480E+01  0.44749391885E+03  0.00000000000E+00 0. -1.
        -13    1    3    3    0    0 -0.22778696395E+02 -0.19220540441E+03  0.57524405124E+02  0.20191791322E+03  0.00000000000E+00 0.  1.
         22    1    1    2    0    0  0.11626271520E+03  0.62972971652E+03  0.11546531802E+04  0.13203410550E+04  0.00000000000E+00 0. -1.
<mgrwt>
<rscale>  0 0.15597084E+04</rscale>
<asrwt>0</asrwt>
<pdfrwt beam="1">  1        2 0.58980128E-01 0.15597084E+04</pdfrwt>
<pdfrwt beam="2">  1       -2 0.24405878E+00 0.15597084E+04</pdfrwt>
<totfact> 0.56108857E+00</totfact>
</mgrwt>
</event>
<event>
 6    1  0.1878398E-004  0.1718646E+04  0.7818608E-02  0.8750801E-01
          2   -1    0    0  501    0  0.00000000000E+00  0.00000000000E+00  0.22678461708E+04  0.22678461708E+04  0.00000000000E+00 0.  1.
         -2   -1    0    0    0  501 -0.00000000000E+00 -0.00000000000E+00 -0.32561103112E+03  0.32561103112E+03  0.00000000000E+00 0. -1.
         23    2    1    2    0    0  0.24848889949E+03  0.37339073599E+03  0.20758563692E+04  0.21254593302E+04  0.85031312049E+02 0.  0.
         11    1    3    3    0    0  0.19682217595E+03  0.28471958096E+03  0.17471256049E+04  0.17810817185E+04  0.00000000000E+00 0.  1.
        -11    1    3    3    0    0  0.51666723545E+02  0.88671155029E+02  0.32873076433E+03  0.34437761175E+03  0.00000000000E+00 0. -1.
         22    1    1    2    0    0 -0.24848889949E+03 -0.37339073599E+03 -0.13362122955E+03  0.46799787166E+03  0.00000000000E+00 0. -1.
<mgrwt>
<rscale>  0 0.17186457E+04</rscale>
<asrwt>0</asrwt>
<pdfrwt beam="1">  1        2 0.34889940E+00 0.17186457E+04</pdfrwt>
<pdfrwt beam="2">  1       -2 0.50094006E-01 0.17186457E+04</pdfrwt>
<totfact> 0.16946146E+01</totfact>
</mgrwt>
</event>
<event>
 6    1  0.1878398E-004  0.2728295E+04  0.7818608E-02  0.8325882E-01
         -2   -1    0    0    0  501 -0.00000000000E+00  0.00000000000E+00  0.12914614444E+04  0.12914614444E+04  0.00000000000E+00 0. -1.
          2   -1    0    0  501    0  0.00000000000E+00 -0.00000000000E+00 -0.14409245038E+04  0.14409245038E+04  0.00000000000E+00 0.  1.
         23    2    1    2    0    0 -0.11112145217E+04 -0.77233035918E+03 -0.23457445051E+03  0.13764597533E+04  0.91238054928E+02 0.  0.
         11    1    3    3    0    0 -0.57765424756E+03 -0.40613639060E+03 -0.16846793007E+03  0.72595636299E+03  0.00000000000E+00 0.  1.
        -11    1    3    3    0    0 -0.53356027417E+03 -0.36619396858E+03 -0.66106520440E+02  0.65050339034E+03  0.00000000000E+00 0. -1.
         22    1    1    2    0    0  0.11112145217E+04  0.77233035918E+03  0.85111391108E+02  0.13559261949E+04  0.00000000000E+00 0. -1.
<mgrwt>
<rscale>  0 0.27282950E+04</rscale>
<asrwt>0</asrwt>
<pdfrwt beam="1">  1        2 0.22168069E+00 0.27282950E+04</pdfrwt>
<pdfrwt beam="2">  1       -2 0.19868638E+00 0.27282950E+04</pdfrwt>
<totfact> 0.16285153E+00</totfact>
</mgrwt>
</event>
<event>
 6    1  0.1878398E-004  0.1965048E+04  0.7818608E-02  0.8623138E-01
         -2   -1    0    0    0  501 -0.00000000000E+00  0.00000000000E+00  0.12684202902E+04  0.12684202902E+04  0.00000000000E+00 0. -1.
          2   -1    0    0  501    0  0.00000000000E+00 -0.00000000000E+00 -0.76106738322E+03  0.76106738322E+03  0.00000000000E+00 0.  1.
         23    2    1    2    0    0 -0.11587976565E+03 -0.89514643829E+03  0.64953678293E+03  0.11157418003E+04  0.90920110459E+02 0.  0.
         13    1    3    3    0    0 -0.42498835217E+02 -0.11378264372E+03  0.10467902634E+03  0.16034444038E+03  0.00000000000E+00 0. -1.
        -13    1    3    3    0    0 -0.73380930431E+02 -0.78136379457E+03  0.54485775659E+03  0.95539735991E+03  0.00000000000E+00 0.  1.
         22    1    1    2    0    0  0.11587976565E+03  0.89514643829E+03 -0.14218387596E+03  0.91374587312E+03  0.00000000000E+00 0.  1.
<mgrwt>
<rscale>  0 0.19650479E+04</rscale>
<asrwt>0</asrwt>
<pdfrwt beam="1">  1        2 0.11708729E+00 0.19650479E+04</pdfrwt>
<pdfrwt beam="2">  1       -2 0.19514158E+00 0.19650479E+04</pdfrwt>
<totfact> 0.49059137E+00</totfact>
</mgrwt>
</event>
<event>
 6    1  0.1878398E-004  0.1783284E+04  0.7818608E-02  0.8715239E-01
          2   -1    0    0  501    0  0.00000000000E+00  0.00000000000E+00  0.17892732728E+04  0.17892732728E+04  0.00000000000E+00 0.  1.
         -2   -1    0    0    0  501 -0.00000000000E+00 -0.00000000000E+00 -0.44432893335E+03  0.44432893335E+03  0.00000000000E+00 0. -1.
         23    2    1    2    0    0 -0.51061975407E+03  0.60517985212E+03  0.16710620021E+03  0.81434963211E+03  0.90915644979E+02 0.  0.
         13    1    3    3    0    0 -0.44959472695E+03  0.49827207874E+03  0.11606509009E+03  0.68108853175E+03  0.00000000000E+00 0.  1.
        -13    1    3    3    0    0 -0.61025027127E+02  0.10690777338E+03  0.51041110118E+02  0.13326110035E+03  0.00000000000E+00 0. -1.
         22    1    1    2    0    0  0.51061975407E+03 -0.60517985212E+03  0.11778381393E+04  0.14192525741E+04  0.00000000000E+00 0.  1.
<mgrwt>
<rscale>  0 0.17832845E+04</rscale>
<asrwt>0</asrwt>
<pdfrwt beam="1">  1        2 0.27527281E+00 0.17832845E+04</pdfrwt>
<pdfrwt beam="2">  1       -2 0.68358299E-01 0.17832845E+04</pdfrwt>
<totfact> 0.16187588E+01</totfact>
</mgrwt>
</event>
<event>
 6    1  0.1878398E-004  0.1638014E+04  0.7818608E-02  0.8797529E-01
          1   -1    0    0  501    0  0.00000000000E+00  0.00000000000E+00  0.37674498404E+03  0.37674498404E+03  0.00000000000E+00 0.  1.
         -1   -1    0    0    0  501 -0.00000000000E+00 -0.00000000000E+00 -0.17804416791E+04  0.17804416791E+04  0.00000000000E+00 0. -1.
         23    2    1    2    0    0  0.12963276348E+03  0.59861040679E+03  0.72580447652E+01  0.61902790984E+03  0.89463967403E+02 0.  0.
         11    1    3    3    0    0  0.71194708195E+02  0.42921869575E+03 -0.29595992017E+02  0.43608863549E+03  0.00000000000E+00 0.  1.
        -11    1    3    3    0    0  0.58438055286E+02  0.16939171104E+03  0.36854036782E+02  0.18293927436E+03  0.00000000000E+00 0. -1.
         22    1    1    2    0    0 -0.12963276348E+03 -0.59861040679E+03 -0.14109547399E+04  0.15381587533E+04  0.00000000000E+00 0. -1.
<mgrwt>
<rscale>  0 0.16380140E+04</rscale>
<asrwt>0</asrwt>
<pdfrwt beam="1">  1        1 0.57960765E-01 0.16380140E+04</pdfrwt>
<pdfrwt beam="2">  1       -1 0.27391411E+00 0.16380140E+04</pdfrwt>
<totfact> 0.30317347E+00</totfact>
</mgrwt>
</event>
<event>
 6    1  0.1878398E-004  0.1364260E+04  0.7818608E-02  0.8980103E-01
         -2   -1    0    0    0  501 -0.00000000000E+00  0.00000000000E+00  0.99884291909E+03  0.99884291909E+03  0.00000000000E+00 0. -1.
          2   -1    0    0  501    0  0.00000000000E+00 -0.00000000000E+00 -0.46584028771E+03  0.46584028771E+03  0.00000000000E+00 0.  1.
         23    2    1    2    0    0  0.47047093510E+03  0.31644926290E+03 -0.13376546661E+03  0.58943310926E+03  0.89750506826E+02 0.  0.
         13    1    3    3    0    0  0.36191680818E+02  0.58880745694E+02 -0.14353159210E+02  0.70588902479E+02  0.00000000000E+00 0.  1.
        -13    1    3    3    0    0  0.43427925428E+03  0.25756851720E+03 -0.11941230740E+03  0.51884420678E+03  0.00000000000E+00 0. -1.
         22    1    1    2    0    0 -0.47047093510E+03 -0.31644926290E+03  0.66676809799E+03  0.87525009755E+03  0.00000000000E+00 0. -1.
<mgrwt>
<rscale>  0 0.13642599E+04</rscale>
<asrwt>0</asrwt>
<pdfrwt beam="1">  1        2 0.71667737E-01 0.13642599E+04</pdfrwt>
<pdfrwt beam="2">  1       -2 0.15366814E+00 0.13642599E+04</pdfrwt>
<totfact> 0.18305066E+01</totfact>
</mgrwt>
</event>
<event>
 6    1  0.1878398E-004  0.1661734E+04  0.7818608E-02  0.8783495E-01
         -2   -1    0    0    0  501 -0.00000000000E+00  0.00000000000E+00  0.28478262625E+03  0.28478262625E+03  0.00000000000E+00 0. -1.
          2   -1    0    0  501    0  0.00000000000E+00 -0.00000000000E+00 -0.24240945515E+04  0.24240945515E+04  0.00000000000E+00 0.  1.
         23    2    1    2    0    0  0.68433096238E+03  0.39310969537E+03 -0.66377413620E+03  0.10355404317E+04  0.94359860011E+02 0.  0.
         11    1    3    3    0    0  0.29088430645E+03  0.12218417626E+03 -0.23197014451E+03  0.39160286083E+03  0.00000000000E+00 0.  1.
        -11    1    3    3    0    0  0.39344665593E+03  0.27092551912E+03 -0.43180399169E+03  0.64393757090E+03  0.00000000000E+00 0. -1.
         22    1    1    2    0    0 -0.68433096238E+03 -0.39310969537E+03 -0.14755377890E+04  0.16733367460E+04  0.00000000000E+00 0.  1.
<mgrwt>
<rscale>  0 0.16617340E+04</rscale>
<asrwt>0</asrwt>
<pdfrwt beam="1">  1        2 0.37293763E+00 0.16617340E+04</pdfrwt>
<pdfrwt beam="2">  1       -2 0.43812711E-01 0.16617340E+04</pdfrwt>
<totfact> 0.18182570E+01</totfact>
</mgrwt>
</event>
<event>
 6    1  0.1878398E-004  0.2821439E+04  0.7818608E-02  0.8296643E-01
         -2   -1    0    0    0  501 -0.00000000000E+00  0.00000000000E+00  0.16814528436E+04  0.16814528436E+04  0.00000000000E+00 0. -1.
          2   -1    0    0  501    0  0.00000000000E+00 -0.00000000000E+00 -0.11835773537E+04  0.11835773537E+04  0.00000000000E+00 0.  1.
         23    2    1    2    0    0 -0.12849208757E+04 -0.10823586208E+03 -0.32832484766E+03  0.13335787104E+04  0.88872450356E+02 0.  0.
         11    1    3    3    0    0 -0.73362184449E+03 -0.10586018655E+03 -0.18625703614E+03  0.76426374591E+03  0.00000000000E+00 0. -1.
        -11    1    3    3    0    0 -0.55129903126E+03 -0.23756755279E+01 -0.14206781152E+03  0.56931496448E+03  0.00000000000E+00 0.  1.
         22    1    1    2    0    0  0.12849208757E+04  0.10823586208E+03  0.82620033757E+03  0.15314514869E+04  0.00000000000E+00 0. -1.
<mgrwt>
<rscale>  0 0.28214390E+04</rscale>
<asrwt>0</asrwt>
<pdfrwt beam="1">  1        2 0.18208882E+00 0.28214390E+04</pdfrwt>
<pdfrwt beam="2">  1       -2 0.25868505E+00 0.28214390E+04</pdfrwt>
<totfact> 0.95655054E-01</totfact>
</mgrwt>
</event>
<event>
 6    1  0.1878398E-004  0.1473630E+04  0.7818608E-02  0.8902180E-01
          2   -1    0    0  501    0  0.00000000000E+00  0.00000000000E+00  0.13897091005E+04  0.13897091005E+04  0.00000000000E+00 0.  1.
         -2   -1    0    0    0  501 -0.00000000000E+00 -0.00000000000E+00 -0.39065479624E+03  0.39065479624E+03  0.00000000000E+00 0. -1.
         23    2    1    2    0    0  0.72698194106E+03 -0.28417303918E+01  0.62169825031E+03  0.96127390809E+03  0.95015755878E+02 0.  0.
         13    1    3    3    0    0  0.65659528493E+03  0.77522389613E+01  0.52237411238E+03  0.83907817197E+03  0.00000000000E+00 0.  1.
        -13    1    3    3    0    0  0.70386656137E+02 -0.10593969353E+02  0.99324137929E+02  0.12219573611E+03  0.00000000000E+00 0. -1.
         22    1    1    2    0    0 -0.72698194106E+03  0.28417303918E+01  0.37735605395E+03  0.81908998865E+03  0.00000000000E+00 0. -1.
<mgrwt>
<rscale>  0 0.14736302E+04</rscale>
<asrwt>0</asrwt>
<pdfrwt beam="1">  1        2 0.21380140E+00 0.14736302E+04</pdfrwt>
<pdfrwt beam="2">  1       -2 0.60100739E-01 0.14736302E+04</pdfrwt>
<totfact> 0.36644515E+01</totfact>
</mgrwt>
</event>
<event>
 6    1  0.1878398E-004  0.1923514E+04  0.7818608E-02  0.8643240E-01
         -1   -1    0    0    0  501 -0.00000000000E+00  0.00000000000E+00  0.30914459398E+03  0.30914459398E+03  0.00000000000E+00 0.  1.
          1   -1    0    0  501    0  0.00000000000E+00 -0.00000000000E+00 -0.29920521540E+04  0.29920521540E+04  0.00000000000E+00 0. -1.
         23    2    1    2    0    0  0.87631975020E+03 -0.37642774193E+03 -0.15259083988E+04  0.18017697880E+04  0.91344280967E+02 0.  0.
         13    1    3    3    0    0  0.49699855551E+03 -0.26033364139E+03 -0.86916862233E+03  0.10345217557E+04  0.00000000000E+00 0. -1.
        -13    1    3    3    0    0  0.37932119469E+03 -0.11609410054E+03 -0.65673977652E+03  0.76724803225E+03  0.00000000000E+00 0.  1.
         22    1    1    2    0    0 -0.87631975020E+03  0.37642774193E+03 -0.11569991612E+04  0.14994269600E+04  0.00000000000E+00 0.  1.
<mgrwt>
<rscale>  0 0.19235142E+04</rscale>
<asrwt>0</asrwt>
<pdfrwt beam="1">  1        1 0.46031571E+00 0.19235142E+04</pdfrwt>
<pdfrwt beam="2">  1       -1 0.47560707E-01 0.19235142E+04</pdfrwt>
<totfact> 0.25022437E+00</totfact>
</mgrwt>
</event>
<event>
 6    1  0.1878398E-004  0.2490285E+04  0.7818608E-02  0.8406455E-01
          2   -1    0    0  501    0  0.00000000000E+00  0.00000000000E+00  0.11359766030E+04  0.11359766030E+04  0.00000000000E+00 0.  1.
         -2   -1    0    0    0  501 -0.00000000000E+00 -0.00000000000E+00 -0.13647991974E+04  0.13647991974E+04  0.00000000000E+00 0. -1.
         23    2    1    2    0    0 -0.88934026841E+03  0.69298897104E+03 -0.64126172072E+03  0.13002484746E+04  0.90937748793E+02 0.  0.
         13    1    3    3    0    0 -0.59262827285E+03  0.47076358182E+03 -0.47819299982E+03  0.89526262338E+03  0.00000000000E+00 0.  1.
        -13    1    3    3    0    0 -0.29671199556E+03  0.22222538922E+03 -0.16306872089E+03  0.40498585119E+03  0.00000000000E+00 0. -1.
         22    1    1    2    0    0  0.88934026841E+03 -0.69298897104E+03  0.41243912637E+03  0.12005273258E+04  0.00000000000E+00 0.  1.
<mgrwt>
<rscale>  0 0.24902851E+04</rscale>
<asrwt>0</asrwt>
<pdfrwt beam="1">  1        2 0.17476563E+00 0.24902851E+04</pdfrwt>
<pdfrwt beam="2">  1       -2 0.20996911E+00 0.24902851E+04</pdfrwt>
<totfact> 0.21171087E+00</totfact>
</mgrwt>
</event>
<event>
 6    1  0.1878398E-004  0.1572058E+04  0.7818608E-02  0.8837900E-01
         -2   -1    0    0    0  501 -0.00000000000E+00  0.00000000000E+00  0.11241117802E+04  0.11241117802E+04  0.00000000000E+00 0. -1.
          2   -1    0    0  501    0  0.00000000000E+00 -0.00000000000E+00 -0.54962665697E+03  0.54962665697E+03  0.00000000000E+00 0.  1.
         23    2    1    2    0    0  0.26485894738E+03  0.57897888120E+03  0.77450107236E+03  0.10063755772E+04  0.87023470759E+02 0.  0.
         11    1    3    3    0    0  0.22762421071E+03  0.44654577932E+03  0.65026835668E+03  0.82101452486E+03  0.00000000000E+00 0.  1.
        -11    1    3    3    0    0  0.37234736664E+02  0.13243310188E+03  0.12423271568E+03  0.18536105237E+03  0.00000000000E+00 0. -1.
         22    1    1    2    0    0 -0.26485894738E+03 -0.57897888120E+03 -0.20001594917E+03  0.66736285992E+03  0.00000000000E+00 0.  1.
<mgrwt>
<rscale>  0 0.15720583E+04</rscale>
<asrwt>0</asrwt>
<pdfrwt beam="1">  1        2 0.84557948E-01 0.15720583E+04</pdfrwt>
<pdfrwt beam="2">  1       -2 0.17294027E+00 0.15720583E+04</pdfrwt>
<totfact> 0.10745350E+01</totfact>
</mgrwt>
</event>
<event>
 6    1  0.1878398E-004  0.1289310E+04  0.7818608E-02  0.9038085E-01
         -1   -1    0    0    0  501 -0.00000000000E+00  0.00000000000E+00  0.38731822489E+03  0.38731822489E+03  0.00000000000E+00 0. -1.
          1   -1    0    0  501    0  0.00000000000E+00 -0.00000000000E+00 -0.10729685034E+04  0.10729685034E+04  0.00000000000E+00 0.  1.
         23    2    1    2    0    0 -0.12547628512E+02  0.32740753800E+03 -0.96926835789E+03  0.10269365767E+04  0.88116082884E+02 0.  0.
         11    1    3    3    0    0 -0.83934214202E+01  0.16674808629E+03 -0.36005918412E+03  0.39688536113E+03  0.00000000000E+00 0.  1.
        -11    1    3    3    0    0 -0.41542070918E+01  0.16065945171E+03 -0.60920917376E+03  0.63005121558E+03  0.00000000000E+00 0. -1.
         22    1    1    2    0    0  0.12547628512E+02 -0.32740753800E+03  0.28361807937E+03  0.43335015157E+03  0.00000000000E+00 0. -1.
<mgrwt>
<rscale>  0 0.12893103E+04</rscale>
<asrwt>0</asrwt>
<pdfrwt beam="1">  1        1 0.16507207E+00 0.12893103E+04</pdfrwt>
<pdfrwt beam="2">  1       -1 0.59587420E-01 0.12893103E+04</pdfrwt>
<totfact> 0.37315109E+01</totfact>
</mgrwt>
</event>
<event>
 6    1  0.1878398E-004  0.6611602E+03  0.7818608E-02  0.9786060E-01
          1   -1    0    0  501    0  0.00000000000E+00  0.00000000000E+00  0.20979072546E+04  0.20979072546E+04  0.00000000000E+00 0.  1.
         -1   -1    0    0    0  501 -0.00000000000E+00 -0.00000000000E+00 -0.52091526392E+02  0.52091526392E+02  0.00000000000E+00 0. -1.
         23    2    1    2    0    0 -0.87237334601E+02  0.26892042020E+03  0.50936995021E+03  0.58775866703E+03  0.77935611512E+02 0.  0.
         11    1    3    3    0    0  0.13004526748E+02  0.36324831198E+02  0.49568672703E+02  0.62814523727E+02  0.00000000000E+00 0. -1.
        -11    1    3    3    0    0 -0.10024186135E+03  0.23259558900E+03  0.45980127751E+03  0.52494414330E+03  0.00000000000E+00 0.  1.
         22    1    1    2    0    0  0.87237334601E+02 -0.26892042020E+03  0.15364457780E+04  0.15622401139E+04  0.00000000000E+00 0.  1.
<mgrwt>
<rscale>  0 0.66116017E+03</rscale>
<asrwt>0</asrwt>
<pdfrwt beam="1">  1        1 0.32275490E+00 0.66116017E+03</pdfrwt>
<pdfrwt beam="2">  1       -1 0.80140826E-02 0.66116017E+03</pdfrwt>
<totfact> 0.23770385E+02</totfact>
</mgrwt>
</event>
<event>
 6    1  0.1878398E-004  0.2187215E+04  0.7818608E-02  0.8523768E-01
          2   -1    0    0  501    0  0.00000000000E+00  0.00000000000E+00  0.11501877161E+04  0.11501877161E+04  0.00000000000E+00 0.  1.
         -2   -1    0    0    0  501 -0.00000000000E+00 -0.00000000000E+00 -0.10398107590E+04  0.10398107590E+04  0.00000000000E+00 0. -1.
         23    2    1    2    0    0 -0.13273307415E+03  0.10344193999E+04  0.37783950140E+03  0.11133472890E+04  0.95592538548E+02 0.  0.
         13    1    3    3    0    0 -0.78932896597E+02  0.71482687955E+03  0.30499684178E+03  0.78117279995E+03  0.00000000000E+00 0. -1.
        -13    1    3    3    0    0 -0.53800177551E+02  0.31959252030E+03  0.72842659621E+02  0.33217448908E+03  0.00000000000E+00 0.  1.
         22    1    1    2    0    0  0.13273307415E+03 -0.10344193999E+04 -0.26746254428E+03  0.10766511860E+04  0.00000000000E+00 0. -1.
<mgrwt>
<rscale>  0 0.21872152E+04</rscale>
<asrwt>0</asrwt>
<pdfrwt beam="1">  1        2 0.17695196E+00 0.21872152E+04</pdfrwt>
<pdfrwt beam="2">  1       -2 0.15997089E+00 0.21872152E+04</pdfrwt>
<totfact> 0.46804840E+00</totfact>
</mgrwt>
</event>
<event>
 6    1  0.1878398E-004  0.1301438E+04  0.7818608E-02  0.9028426E-01
         -1   -1    0    0    0  501 -0.00000000000E+00  0.00000000000E+00  0.10887604800E+04  0.10887604800E+04  0.00000000000E+00 0. -1.
          1   -1    0    0  501    0  0.00000000000E+00 -0.00000000000E+00 -0.38891467626E+03  0.38891467626E+03  0.00000000000E+00 0.  1.
         23    2    1    2    0    0 -0.33568916465E+03  0.18601519384E+03  0.94449766669E+03  0.10225450631E+04  0.78953759104E+02 0.  0.
         13    1    3    3    0    0 -0.14052558101E+03  0.44716593378E+02  0.29523427219E+03  0.33001558769E+03  0.00000000000E+00 0.  1.
        -13    1    3    3    0    0 -0.19516358364E+03  0.14129860047E+03  0.64926339450E+03  0.69252947541E+03  0.00000000000E+00 0. -1.
         22    1    1    2    0    0  0.33568916465E+03 -0.18601519384E+03 -0.24465186299E+03  0.45513009312E+03  0.00000000000E+00 0.  1.
<mgrwt>
<rscale>  0 0.13014376E+04</rscale>
<asrwt>0</asrwt>
<pdfrwt beam="1">  1        1 0.59833028E-01 0.13014376E+04</pdfrwt>
<pdfrwt beam="2">  1       -1 0.16750161E+00 0.13014376E+04</pdfrwt>
<totfact> 0.15709743E+01</totfact>
</mgrwt>
</event>
<event>
 6    1  0.1878398E-004  0.3084701E+04  0.7818608E-02  0.8219949E-01
          2   -1    0    0  501    0  0.00000000000E+00  0.00000000000E+00  0.26268112388E+04  0.26268112388E+04  0.00000000000E+00 0.  1.
         -2   -1    0    0    0  501 -0.00000000000E+00 -0.00000000000E+00 -0.90560171625E+03  0.90560171625E+03  0.00000000000E+00 0. -1.
         23    2    1    2    0    0 -0.80175044895E+03  0.73157616766E+03 -0.39097964355E+03  0.11576812766E+04  0.96712899484E+02 0.  0.
         11    1    3    3    0    0 -0.41078029930E+03  0.41531985838E+03 -0.25022033347E+03  0.63548505438E+03  0.00000000000E+00 0. -1.
        -11    1    3    3    0    0 -0.39097014965E+03  0.31625630928E+03 -0.14075931008E+03  0.52219622217E+03  0.00000000000E+00 0.  1.
         22    1    1    2    0    0  0.80175044895E+03 -0.73157616766E+03  0.21121891661E+04  0.23747316785E+04  0.00000000000E+00 0.  1.
<mgrwt>
<rscale>  0 0.30847008E+04</rscale>
<asrwt>0</asrwt>
<pdfrwt beam="1">  1        2 0.40412480E+00 0.30847008E+04</pdfrwt>
<pdfrwt beam="2">  1       -2 0.13932334E+00 0.30847008E+04</pdfrwt>
<totfact> 0.90705862E-01</totfact>
</mgrwt>
</event>
<event>
 6    1  0.1878398E-004  0.2321599E+04  0.7818608E-02  0.8469453E-01
          2   -1    0    0  501    0  0.00000000000E+00  0.00000000000E+00  0.20993579018E+04  0.20993579018E+04  0.00000000000E+00 0.  1.
         -2   -1    0    0    0  501 -0.00000000000E+00 -0.00000000000E+00 -0.64184165906E+03  0.64184165906E+03  0.00000000000E+00 0. -1.
         23    2    1    2    0    0 -0.60413511239E+03 -0.18764036309E+03 -0.41641907094E+03  0.76336698460E+03  0.95583317829E+02 0.  0.
         13    1    3    3    0    0 -0.22560345853E+03 -0.10019015626E+03 -0.11869220340E+03  0.27390295190E+03  0.00000000000E+00 0. -1.
        -13    1    3    3    0    0 -0.37853165387E+03 -0.87450206831E+02 -0.29772686754E+03  0.48946403270E+03  0.00000000000E+00 0.  1.
         22    1    1    2    0    0  0.60413511239E+03  0.18764036309E+03  0.18739353137E+04  0.19778325762E+04  0.00000000000E+00 0.  1.
<mgrwt>
<rscale>  0 0.23215989E+04</rscale>
<asrwt>0</asrwt>
<pdfrwt beam="1">  1        2 0.32297813E+00 0.23215989E+04</pdfrwt>
<pdfrwt beam="2">  1       -2 0.98744872E-01 0.23215989E+04</pdfrwt>
<totfact> 0.45290256E+00</totfact>
</mgrwt>
</event>
<event>
 6    1  0.1878398E-004  0.4050383E+03  0.7818608E-02  0.1042049E+00
          1   -1    0    0  501    0  0.00000000000E+00  0.00000000000E+00  0.15022369774E+03  0.15022369774E+03  0.00000000000E+00 0.  1.
         -1   -1    0    0    0  501 -0.00000000000E+00 -0.00000000000E+00 -0.27301961566E+03  0.27301961566E+03  0.00000000000E+00 0. -1.
         23    2    1    2    0    0  0.10126048414E+03  0.15224395023E+03 -0.29757213712E+01  0.20463685071E+03  0.91844867677E+02 0.  0.
         13    1    3    3    0    0  0.56249232916E+02  0.73198346899E+02  0.43995679313E+02  0.10226237818E+03  0.00000000000E+00 0.  1.
        -13    1    3    3    0    0  0.45011251221E+02  0.79045603335E+02 -0.46971400685E+02  0.10237447253E+03  0.00000000000E+00 0. -1.
         22    1    1    2    0    0 -0.10126048414E+03 -0.15224395023E+03 -0.11982019655E+03  0.21860646269E+03  0.00000000000E+00 0.  1.
<mgrwt>
<rscale>  0 0.40503835E+03</rscale>
<asrwt>0</asrwt>
<pdfrwt beam="1">  1        1 0.23111338E-01 0.40503835E+03</pdfrwt>
<pdfrwt beam="2">  1       -1 0.42003017E-01 0.40503835E+03</pdfrwt>
<totfact> 0.12028222E+03</totfact>
</mgrwt>
</event>
<event>
 6    1  0.1878398E-004  0.7837542E+03  0.7818608E-02  0.9583835E-01
          2   -1    0    0  501    0  0.00000000000E+00  0.00000000000E+00  0.24221651032E+03  0.24221651032E+03  0.00000000000E+00 0.  1.
         -2   -1    0    0    0  501 -0.00000000000E+00 -0.00000000000E+00 -0.63400990442E+03  0.63400990442E+03  0.00000000000E+00 0. -1.
         23    2    1    2    0    0  0.18365188604E+03  0.64068282362E+02 -0.57141401377E+03  0.61146930518E+03  0.97713745130E+02 0.  0.
         13    1    3    3    0    0  0.24870755413E+02 -0.52905183580E+01 -0.20020307565E+03  0.20181133655E+03  0.00000000000E+00 0. -1.
        -13    1    3    3    0    0  0.15878113062E+03  0.69358800720E+02 -0.37121093813E+03  0.40965796863E+03  0.00000000000E+00 0.  1.
         22    1    1    2    0    0 -0.18365188604E+03 -0.64068282362E+02  0.17962061968E+03  0.26475710956E+03  0.00000000000E+00 0.  1.
<mgrwt>
<rscale>  0 0.78375421E+03</rscale>
<asrwt>0</asrwt>
<pdfrwt beam="1">  1        2 0.37264079E-01 0.78375421E+03</pdfrwt>
<pdfrwt beam="2">  1       -2 0.97539985E-01 0.78375421E+03</pdfrwt>
<totfact> 0.12309699E+02</totfact>
</mgrwt>
</event>
<event>
 6    1  0.1878398E-004  0.4412186E+04  0.7818608E-02  0.7926193E-01
         -2   -1    0    0    0  501 -0.00000000000E+00  0.00000000000E+00  0.22905167217E+04  0.22905167217E+04  0.00000000000E+00 0. -1.
          2   -1    0    0  501    0  0.00000000000E+00 -0.00000000000E+00 -0.21247810496E+04  0.21247810496E+04  0.00000000000E+00 0.  1.
         23    2    1    2    0    0 -0.13400937891E+04 -0.14078152854E+04  0.11252319443E+04  0.22477119396E+04  0.90921909437E+02 0.  0.
         11    1    3    3    0    0 -0.80331295945E+03 -0.83014657814E+03  0.61811628705E+03  0.13101613627E+04  0.00000000000E+00 0.  1.
        -11    1    3    3    0    0 -0.53678082962E+03 -0.57766870729E+03  0.50711565722E+03  0.93755057689E+03  0.00000000000E+00 0. -1.
         22    1    1    2    0    0  0.13400937891E+04  0.14078152854E+04 -0.95949627224E+03  0.21675858317E+04  0.00000000000E+00 0.  1.
<mgrwt>
<rscale>  0 0.44121861E+04</rscale>
<asrwt>0</asrwt>
<pdfrwt beam="1">  1        2 0.32688939E+00 0.44121861E+04</pdfrwt>
<pdfrwt beam="2">  1       -2 0.35238719E+00 0.44121861E+04</pdfrwt>
<totfact> 0.65259729E-02</totfact>
</mgrwt>
</event>
<event>
 6    1  0.1878398E-004  0.1320888E+04  0.7818608E-02  0.9013163E-01
          1   -1    0    0  501    0  0.00000000000E+00  0.00000000000E+00  0.19964784362E+04  0.19964784362E+04  0.00000000000E+00 0.  1.
         -1   -1    0    0    0  501 -0.00000000000E+00 -0.00000000000E+00 -0.21847790896E+03  0.21847790896E+03  0.00000000000E+00 0. -1.
         23    2    1    2    0    0 -0.44651330507E+03  0.38453286936E+03  0.13811883979E+04  0.15045342697E+04  0.93286221835E+02 0.  0.
         11    1    3    3    0    0 -0.30512728227E+03  0.27982520293E+03  0.10658849775E+04  0.11434664786E+04  0.00000000000E+00 0. -1.
        -11    1    3    3    0    0 -0.14138602280E+03  0.10470766643E+03  0.31530342041E+03  0.36106779111E+03  0.00000000000E+00 0.  1.
         22    1    1    2    0    0  0.44651330507E+03 -0.38453286936E+03  0.39681212936E+03  0.71042207541E+03  0.00000000000E+00 0. -1.
<mgrwt>
<rscale>  0 0.13208882E+04</rscale>
<asrwt>0</asrwt>
<pdfrwt beam="1">  1        1 0.30715052E+00 0.13208882E+04</pdfrwt>
<pdfrwt beam="2">  1       -1 0.33611987E-01 0.13208882E+04</pdfrwt>
<totfact> 0.24552587E+01</totfact>
</mgrwt>
</event>
<event>
 6    1  0.1878398E-004  0.2167578E+04  0.7818608E-02  0.8532045E-01
         -2   -1    0    0    0  501 -0.00000000000E+00  0.00000000000E+00  0.70204220969E+03  0.70204220969E+03  0.00000000000E+00 0. -1.
          2   -1    0    0  501    0  0.00000000000E+00 -0.00000000000E+00 -0.16731163252E+04  0.16731163252E+04  0.00000000000E+00 0.  1.
         23    2    1    2    0    0 -0.35578841496E+03  0.55577121424E+03  0.45298394502E+03  0.80563363908E+03  0.91564551919E+02 0.  0.
         11    1    3    3    0    0 -0.19152431824E+03  0.38025371445E+03  0.28412000775E+03  0.51185801805E+03  0.00000000000E+00 0.  1.
        -11    1    3    3    0    0 -0.16426409672E+03  0.17551749979E+03  0.16886393727E+03  0.29377562103E+03  0.00000000000E+00 0. -1.
         22    1    1    2    0    0  0.35578841496E+03 -0.55577121424E+03 -0.14240580606E+04  0.15695248958E+04  0.00000000000E+00 0.  1.
<mgrwt>
<rscale>  0 0.21675777E+04</rscale>
<asrwt>0</asrwt>
<pdfrwt beam="1">  1        2 0.25740251E+00 0.21675777E+04</pdfrwt>
<pdfrwt beam="2">  1       -2 0.10800649E+00 0.21675777E+04</pdfrwt>
<totfact> 0.63894223E+00</totfact>
</mgrwt>
</event>
<event>
 6    1  0.1878398E-004  0.2147959E+04  0.7818608E-02  0.8540406E-01
          1   -1    0    0  501    0  0.00000000000E+00  0.00000000000E+00  0.18331274037E+04  0.18331274037E+04  0.00000000000E+00 0.  1.
         -1   -1    0    0    0  501 -0.00000000000E+00 -0.00000000000E+00 -0.62921538318E+03  0.62921538318E+03  0.00000000000E+00 0. -1.
         23    2    1    2    0    0 -0.98830425697E+03 -0.13356982277E+03  0.15233446290E+03  0.10130665670E+04  0.92259842931E+02 0.  0.
         11    1    3    3    0    0 -0.65187519677E+03 -0.45989584500E+02  0.11322771624E+03  0.66323210852E+03  0.00000000000E+00 0.  1.
        -11    1    3    3    0    0 -0.33642906020E+03 -0.87580238266E+02  0.39106746657E+02  0.34983445845E+03  0.00000000000E+00 0. -1.
         22    1    1    2    0    0  0.98830425697E+03  0.13356982277E+03  0.10515775576E+04  0.14492762199E+04  0.00000000000E+00 0.  1.
<mgrwt>
<rscale>  0 0.21479590E+04</rscale>
<asrwt>0</asrwt>
<pdfrwt beam="1">  1        1 0.28201960E+00 0.21479590E+04</pdfrwt>
<pdfrwt beam="2">  1       -1 0.96802367E-01 0.21479590E+04</pdfrwt>
<totfact> 0.36353738E+00</totfact>
</mgrwt>
</event>
<event>
 6    1  0.1878398E-004  0.5713195E+04  0.7818608E-02  0.7727016E-01
          2   -1    0    0  501    0  0.00000000000E+00  0.00000000000E+00  0.26200664868E+04  0.26200664868E+04  0.00000000000E+00 0.  1.
         -2   -1    0    0    0  501 -0.00000000000E+00 -0.00000000000E+00 -0.31144818408E+04  0.31144818408E+04  0.00000000000E+00 0. -1.
         23    2    1    2    0    0  0.13333561790E+04  0.23290940565E+04  0.73285718630E+03  0.27834950051E+04  0.90812794724E+02 0.  0.
         11    1    3    3    0    0  0.55735413638E+03  0.94332615889E+03  0.25568158657E+03  0.11251137494E+04  0.00000000000E+00 0.  1.
        -11    1    3    3    0    0  0.77600204260E+03  0.13857678976E+04  0.47717559973E+03  0.16583812557E+04  0.00000000000E+00 0. -1.
         22    1    1    2    0    0 -0.13333561790E+04 -0.23290940565E+04 -0.12272725403E+04  0.29510533225E+04  0.00000000000E+00 0. -1.
<mgrwt>
<rscale>  0 0.57131951E+04</rscale>
<asrwt>0</asrwt>
<pdfrwt beam="1">  1        2 0.40308715E+00 0.57131951E+04</pdfrwt>
<pdfrwt beam="2">  1       -2 0.47915105E+00 0.57131951E+04</pdfrwt>
<totfact> 0.45920069E-03</totfact>
</mgrwt>
</event>
<event>
 6    1  0.1878398E-004  0.1858578E+04  0.7818608E-02  0.8675754E-01
          1   -1    0    0  501    0  0.00000000000E+00  0.00000000000E+00  0.73561439604E+03  0.73561439604E+03  0.00000000000E+00 0.  1.
         -1   -1    0    0    0  501 -0.00000000000E+00 -0.00000000000E+00 -0.11739550225E+04  0.11739550225E+04  0.00000000000E+00 0. -1.
         23    2    1    2    0    0 -0.50991423069E+03 -0.10856450634E+03 -0.10073134358E+04  0.11378642725E+04  0.90862367696E+02 0.  0.
         13    1    3    3    0    0 -0.81279923472E+02  0.69934434444E+01 -0.21002897497E+03  0.22531645421E+03  0.00000000000E+00 0.  1.
        -13    1    3    3    0    0 -0.42863430722E+03 -0.11555794978E+03 -0.79728446085E+03  0.91254781825E+03  0.00000000000E+00 0. -1.
         22    1    1    2    0    0  0.50991423069E+03  0.10856450634E+03  0.56897280936E+03  0.77170514608E+03  0.00000000000E+00 0.  1.
<mgrwt>
<rscale>  0 0.18585782E+04</rscale>
<asrwt>0</asrwt>
<pdfrwt beam="1">  1        1 0.11317145E+00 0.18585782E+04</pdfrwt>
<pdfrwt beam="2">  1       -1 0.18060847E+00 0.18585782E+04</pdfrwt>
<totfact> 0.48825532E+00</totfact>
</mgrwt>
</event>
<event>
 6    1  0.2293031E-004  0.4190758E+04  0.7818608E-02  0.7967133E-01
         -1   -1    0    0    0  501 -0.00000000000E+00  0.00000000000E+00  0.20781028188E+04  0.20781028188E+04  0.00000000000E+00 0. -1.
          1   -1    0    0  501    0  0.00000000000E+00 -0.00000000000E+00 -0.21127992219E+04  0.21127992219E+04  0.00000000000E+00 0.  1.
         23    2    1    2    0    0 -0.56583088560E+03  0.19871519867E+04  0.32501449840E+03  0.20936825620E+04  0.94523207334E+02 0.  0.
         11    1    3    3    0    0 -0.37996569383E+03  0.12213571940E+04  0.23538303084E+03  0.13005739098E+04  0.00000000000E+00 0.  1.
        -11    1    3    3    0    0 -0.18586519177E+03  0.76579479274E+03  0.89631467562E+02  0.79310865213E+03  0.00000000000E+00 0. -1.
         22    1    1    2    0    0  0.56583088560E+03 -0.19871519867E+04 -0.35971090143E+03  0.20972194787E+04  0.00000000000E+00 0.  1.
<mgrwt>
<rscale>  0 0.41907584E+04</rscale>
<asrwt>0</asrwt>
<pdfrwt beam="1">  1        1 0.32504604E+00 0.41907584E+04</pdfrwt>
<pdfrwt beam="2">  1       -1 0.31970812E+00 0.41907584E+04</pdfrwt>
<totfact> 0.47314148E-02</totfact>
</mgrwt>
</event>
<event>
 6    1  0.1878398E-004  0.1362080E+04  0.7818608E-02  0.8981734E-01
         -2   -1    0    0    0  501 -0.00000000000E+00  0.00000000000E+00  0.22749905513E+03  0.22749905513E+03  0.00000000000E+00 0. -1.
          2   -1    0    0  501    0  0.00000000000E+00 -0.00000000000E+00 -0.20387587983E+04  0.20387587983E+04  0.00000000000E+00 0.  1.
         23    2    1    2    0    0 -0.43015518663E+03  0.50534599469E+03 -0.67897917228E+03  0.95382981725E+03  0.91490682363E+02 0.  0.
         11    1    3    3    0    0 -0.24590693783E+03  0.28556001684E+03 -0.32022893230E+03  0.49453140888E+03  0.00000000000E+00 0.  1.
        -11    1    3    3    0    0 -0.18424824880E+03  0.21978597785E+03 -0.35875023998E+03  0.45929840837E+03  0.00000000000E+00 0. -1.
         22    1    1    2    0    0  0.43015518663E+03 -0.50534599469E+03 -0.11322805709E+04  0.13124280362E+04  0.00000000000E+00 0.  1.
<mgrwt>
<rscale>  0 0.13620803E+04</rscale>
<asrwt>0</asrwt>
<pdfrwt beam="1">  1        2 0.31365520E+00 0.13620803E+04</pdfrwt>
<pdfrwt beam="2">  1       -2 0.34999855E-01 0.13620803E+04</pdfrwt>
<totfact> 0.47571811E+01</totfact>
</mgrwt>
</event>
<event>
 6    1  0.1878398E-004  0.3681405E+04  0.7818608E-02  0.8072095E-01
          2   -1    0    0  501    0  0.00000000000E+00  0.00000000000E+00  0.38164270702E+04  0.38164270702E+04  0.00000000000E+00 0. -1.
         -2   -1    0    0    0  501 -0.00000000000E+00 -0.00000000000E+00 -0.88778974433E+03  0.88778974433E+03  0.00000000000E+00 0.  1.
         23    2    1    2    0    0  0.46111319915E+03  0.15890823401E+04  0.24929510456E+04  0.29931847865E+04  0.80883770598E+02 0.  0.
         11    1    3    3    0    0  0.19073912426E+03  0.71305972690E+03  0.11791820965E+04  0.13911527610E+04  0.00000000000E+00 0. -1.
        -11    1    3    3    0    0  0.27037407489E+03  0.87602261324E+03  0.13137689491E+04  0.16020320256E+04  0.00000000000E+00 0.  1.
         22    1    1    2    0    0 -0.46111319915E+03 -0.15890823401E+04  0.43568628032E+03  0.17110320281E+04  0.00000000000E+00 0.  1.
<mgrwt>
<rscale>  0 0.36814045E+04</rscale>
<asrwt>0</asrwt>
<pdfrwt beam="1">  1        2 0.58714262E+00 0.36814045E+04</pdfrwt>
<pdfrwt beam="2">  1       -2 0.13658304E+00 0.36814045E+04</pdfrwt>
<totfact> 0.14754681E-01</totfact>
</mgrwt>
</event>
<event>
 6    1  0.1878398E-004  0.1919727E+04  0.7818608E-02  0.8645099E-01
         -2   -1    0    0    0  501 -0.00000000000E+00  0.00000000000E+00  0.73802599070E+03  0.73802599070E+03  0.00000000000E+00 0. -1.
          2   -1    0    0  501    0  0.00000000000E+00 -0.00000000000E+00 -0.12483815425E+04  0.12483815425E+04  0.00000000000E+00 0.  1.
         23    2    1    2    0    0  0.20947782604E+03 -0.76866977190E+03 -0.80570244130E+03  0.11367229076E+04  0.90820520836E+02 0.  0.
         13    1    3    3    0    0  0.10142698218E+03 -0.38728378582E+03 -0.34069582195E+03  0.52568983875E+03  0.00000000000E+00 0.  1.
        -13    1    3    3    0    0  0.10805084386E+03 -0.38138598608E+03 -0.46500661934E+03  0.61103306888E+03  0.00000000000E+00 0. -1.
         22    1    1    2    0    0 -0.20947782604E+03  0.76866977190E+03  0.29534688948E+03  0.84968462559E+03  0.00000000000E+00 0. -1.
<mgrwt>
<rscale>  0 0.19197271E+04</rscale>
<asrwt>0</asrwt>
<pdfrwt beam="1">  1        2 0.19205870E+00 0.19197271E+04</pdfrwt>
<pdfrwt beam="2">  1       -2 0.11354246E+00 0.19197271E+04</pdfrwt>
<totfact> 0.10084874E+01</totfact>
</mgrwt>
</event>
<event>
 6    1  0.1878398E-004  0.2670450E+04  0.7818608E-02  0.8344657E-01
          2   -1    0    0  501    0  0.00000000000E+00  0.00000000000E+00  0.34302748322E+04  0.34302748322E+04  0.00000000000E+00 0.  1.
         -2   -1    0    0    0  501 -0.00000000000E+00 -0.00000000000E+00 -0.51973259625E+03  0.51973259625E+03  0.00000000000E+00 0. -1.
         23    2    1    2    0    0 -0.53303691695E+03 -0.26362610637E+03 -0.30874301929E+03  0.67625963222E+03  0.91530101146E+02 0.  0.
         13    1    3    3    0    0 -0.37025430385E+03 -0.22031166152E+03 -0.19439785541E+03  0.47266902153E+03  0.00000000000E+00 0. -1.
        -13    1    3    3    0    0 -0.16278261310E+03 -0.43314444854E+02 -0.11434516387E+03  0.20359061069E+03  0.00000000000E+00 0.  1.
         22    1    1    2    0    0  0.53303691695E+03  0.26362610637E+03  0.32192852553E+04  0.32737477963E+04  0.00000000000E+00 0.  1.
<mgrwt>
<rscale>  0 0.26704499E+04</rscale>
<asrwt>0</asrwt>
<pdfrwt beam="1">  1        2 0.52773458E+00 0.26704499E+04</pdfrwt>
<pdfrwt beam="2">  1       -2 0.79958863E-01 0.26704499E+04</pdfrwt>
<totfact> 0.11063839E+00</totfact>
</mgrwt>
</event>
<event>
 6    1  0.1878398E-004  0.1293353E+04  0.7818608E-02  0.9034853E-01
          2   -1    0    0  501    0  0.00000000000E+00  0.00000000000E+00  0.13321569670E+04  0.13321569670E+04  0.00000000000E+00 0. -1.
         -2   -1    0    0    0  501 -0.00000000000E+00 -0.00000000000E+00 -0.31391987112E+03  0.31391987112E+03  0.00000000000E+00 0.  1.
         23    2    1    2    0    0 -0.53334843248E+03 -0.17099999111E+03  0.91458253635E+03  0.10764753852E+04  0.92932727226E+02 0.  0.
         13    1    3    3    0    0 -0.10198893109E+03 -0.40607227683E+02  0.25526522951E+03  0.27786872152E+03  0.00000000000E+00 0.  1.
        -13    1    3    3    0    0 -0.43135950139E+03 -0.13039276343E+03  0.65931730684E+03  0.79860666369E+03  0.00000000000E+00 0. -1.
         22    1    1    2    0    0  0.53334843248E+03  0.17099999111E+03  0.10365455949E+03  0.56960145286E+03  0.00000000000E+00 0.  1.
<mgrwt>
<rscale>  0 0.12933531E+04</rscale>
<asrwt>0</asrwt>
<pdfrwt beam="1">  1        2 0.20494722E+00 0.12933531E+04</pdfrwt>
<pdfrwt beam="2">  1       -2 0.48295365E-01 0.12933531E+04</pdfrwt>
<totfact> 0.63039950E+01</totfact>
</mgrwt>
</event>
<event>
 6    1  0.1878398E-004  0.1992516E+04  0.7818608E-02  0.8610128E-01
          2   -1    0    0  501    0  0.00000000000E+00  0.00000000000E+00  0.11302166026E+04  0.11302166026E+04  0.00000000000E+00 0.  1.
         -2   -1    0    0    0  501 -0.00000000000E+00 -0.00000000000E+00 -0.87817667433E+03  0.87817667433E+03  0.00000000000E+00 0. -1.
         23    2    1    2    0    0  0.33708395786E+03 -0.88282566723E+03  0.43775755754E+03  0.10453264095E+04  0.89826888448E+02 0.  0.
         13    1    3    3    0    0  0.85632080904E+02 -0.30805063787E+03  0.11486029231E+03  0.33973656783E+03  0.00000000000E+00 0.  1.
        -13    1    3    3    0    0  0.25145187695E+03 -0.57477502936E+03  0.32289726523E+03  0.70558984168E+03  0.00000000000E+00 0. -1.
         22    1    1    2    0    0 -0.33708395786E+03  0.88282566723E+03 -0.18571762923E+03  0.96306686744E+03  0.00000000000E+00 0. -1.
<mgrwt>
<rscale>  0 0.19925159E+04</rscale>
<asrwt>0</asrwt>
<pdfrwt beam="1">  1        2 0.17387948E+00 0.19925159E+04</pdfrwt>
<pdfrwt beam="2">  1       -2 0.13510410E+00 0.19925159E+04</pdfrwt>
<totfact> 0.76410734E+00</totfact>
</mgrwt>
</event>
<event>
 6    1  0.1878398E-004  0.3084782E+04  0.7818608E-02  0.8219927E-01
          2   -1    0    0  501    0  0.00000000000E+00  0.00000000000E+00  0.22852281055E+04  0.22852281055E+04  0.00000000000E+00 0.  1.
         -2   -1    0    0    0  501 -0.00000000000E+00 -0.00000000000E+00 -0.10410204757E+04  0.10410204757E+04  0.00000000000E+00 0. -1.
         23    2    1    2    0    0 -0.11233265582E+01 -0.81345375249E+03  0.20339194899E+04  0.21925144452E+04  0.92643574742E+02 0.  0.
         13    1    3    3    0    0  0.35332452107E+02 -0.58525217999E+03  0.15131380258E+04  0.16227615911E+04  0.00000000000E+00 0. -1.
        -13    1    3    3    0    0 -0.36455778665E+02 -0.22820157250E+03  0.52078146408E+03  0.56975285416E+03  0.00000000000E+00 0.  1.
         22    1    1    2    0    0  0.11233265582E+01  0.81345375249E+03 -0.78971186001E+03  0.11337341360E+04  0.00000000000E+00 0. -1.
<mgrwt>
<rscale>  0 0.30847815E+04</rscale>
<asrwt>0</asrwt>
<pdfrwt beam="1">  1        2 0.35157355E+00 0.30847815E+04</pdfrwt>
<pdfrwt beam="2">  1       -2 0.16015700E+00 0.30847815E+04</pdfrwt>
<totfact> 0.98698827E-01</totfact>
</mgrwt>
</event>
<event>
 6    1  0.1878398E-004  0.5456076E+03  0.7818608E-02  0.1002516E+00
         -3   -1    0    0    0  501 -0.00000000000E+00  0.00000000000E+00  0.14918602865E+04  0.14918602865E+04  0.00000000000E+00 0. -1.
          3   -1    0    0  501    0  0.00000000000E+00 -0.00000000000E+00 -0.49885311458E+02  0.49885311458E+02  0.00000000000E+00 0.  1.
         23    2    1    2    0    0  0.10906816738E+03  0.16441053981E+03  0.12419427180E+04  0.12607836885E+04  0.90703381951E+02 0.  0.
         11    1    3    3    0    0  0.86293895639E+02  0.70212788941E+02  0.83937170954E+03  0.84671207558E+03  0.00000000000E+00 0.  1.
        -11    1    3    3    0    0  0.22774271744E+02  0.94197750870E+02  0.40257100851E+03  0.41407161291E+03  0.00000000000E+00 0. -1.
         22    1    1    2    0    0 -0.10906816738E+03 -0.16441053981E+03  0.20003225699E+03  0.28096190947E+03  0.00000000000E+00 0.  1.
<mgrwt>
<rscale>  0 0.54560761E+03</rscale>
<asrwt>0</asrwt>
<pdfrwt beam="1">  1        3 0.76746644E-02 0.54560761E+03</pdfrwt>
<pdfrwt beam="2">  1       -3 0.22951693E+00 0.54560761E+03</pdfrwt>
<totfact> 0.31016475E+01</totfact>
</mgrwt>
</event>
<event>
 6    1  0.1878398E-004  0.1679467E+04  0.7818608E-02  0.8773163E-01
          2   -1    0    0  501    0  0.00000000000E+00  0.00000000000E+00  0.84349866431E+03  0.84349866431E+03  0.00000000000E+00 0.  1.
         -2   -1    0    0    0  501 -0.00000000000E+00 -0.00000000000E+00 -0.83598493789E+03  0.83598493789E+03  0.00000000000E+00 0. -1.
         23    2    1    2    0    0 -0.40053236890E+03  0.16705069364E+03  0.71944989898E+03  0.84570591805E+03  0.96323568746E+02 0.  0.
         13    1    3    3    0    0 -0.15688178941E+03  0.22737041646E+02  0.21375495934E+03  0.26612037042E+03  0.00000000000E+00 0.  1.
        -13    1    3    3    0    0 -0.24365057949E+03  0.14431365199E+03  0.50569493964E+03  0.57958554763E+03  0.00000000000E+00 0. -1.
         22    1    1    2    0    0  0.40053236890E+03 -0.16705069364E+03 -0.71193617257E+03  0.83377768415E+03  0.00000000000E+00 0. -1.
<mgrwt>
<rscale>  0 0.16794668E+04</rscale>
<asrwt>0</asrwt>
<pdfrwt beam="1">  1        2 0.12976903E+00 0.16794668E+04</pdfrwt>
<pdfrwt beam="2">  1       -2 0.12861307E+00 0.16794668E+04</pdfrwt>
<totfact> 0.13639505E+01</totfact>
</mgrwt>
</event>
<event>
 6    1  0.1878398E-004  0.3811074E+04  0.7818608E-02  0.8043783E-01
         -2   -1    0    0    0  501 -0.00000000000E+00  0.00000000000E+00  0.15375794320E+04  0.15375794320E+04  0.00000000000E+00 0. -1.
          2   -1    0    0  501    0  0.00000000000E+00 -0.00000000000E+00 -0.23615498700E+04  0.23615498700E+04  0.00000000000E+00 0.  1.
         23    2    1    2    0    0 -0.14259100848E+04  0.95972596718E+03 -0.12514756426E+04  0.21279561874E+04  0.87822261763E+02 0.  0.
         11    1    3    3    0    0 -0.56919050328E+03  0.36850205857E+03 -0.44305310998E+03  0.80998003337E+03  0.00000000000E+00 0.  1.
        -11    1    3    3    0    0 -0.85671958151E+03  0.59122390861E+03 -0.80842253258E+03  0.13179761540E+04  0.00000000000E+00 0. -1.
         22    1    1    2    0    0  0.14259100848E+04 -0.95972596718E+03  0.42750520457E+03  0.17711731146E+04  0.00000000000E+00 0. -1.
<mgrwt>
<rscale>  0 0.38110736E+04</rscale>
<asrwt>0</asrwt>
<pdfrwt beam="1">  1        2 0.36331536E+00 0.38110736E+04</pdfrwt>
<pdfrwt beam="2">  1       -2 0.23655068E+00 0.38110736E+04</pdfrwt>
<totfact> 0.26071966E-01</totfact>
</mgrwt>
</event>
<event>
 6    1  0.1878398E-004  0.2294878E+04  0.7818608E-02  0.8479944E-01
         -1   -1    0    0    0  501 -0.00000000000E+00  0.00000000000E+00  0.92819308952E+03  0.92819308952E+03  0.00000000000E+00 0. -1.
          1   -1    0    0  501    0  0.00000000000E+00 -0.00000000000E+00 -0.14184717926E+04  0.14184717926E+04  0.00000000000E+00 0.  1.
         23    2    1    2    0    0 -0.71132669699E+03 -0.82143112285E+02 -0.11602982490E+04  0.13660225658E+04  0.83620947731E+02 0.  0.
         13    1    3    3    0    0 -0.32903611750E+03 -0.28689317145E+01 -0.57396706725E+03  0.66159745441E+03  0.00000000000E+00 0.  1.
        -13    1    3    3    0    0 -0.38229057949E+03 -0.79274180571E+02 -0.58633118174E+03  0.70442511138E+03  0.00000000000E+00 0. -1.
         22    1    1    2    0    0  0.71132669699E+03  0.82143112285E+02  0.67001954588E+03  0.98064231635E+03  0.00000000000E+00 0. -1.
<mgrwt>
<rscale>  0 0.22948775E+04</rscale>
<asrwt>0</asrwt>
<pdfrwt beam="1">  1        1 0.21822643E+00 0.22948775E+04</pdfrwt>
<pdfrwt beam="2">  1       -1 0.14279894E+00 0.22948775E+04</pdfrwt>
<totfact> 0.26831371E+00</totfact>
</mgrwt>
</event>
<event>
 6    1  0.1878398E-004  0.2119618E+04  0.7818608E-02  0.8552650E-01
          2   -1    0    0  501    0  0.00000000000E+00  0.00000000000E+00  0.33648333863E+04  0.33648333863E+04  0.00000000000E+00 0.  1.
         -2   -1    0    0    0  501 -0.00000000000E+00 -0.00000000000E+00 -0.33380412735E+03  0.33380412735E+03  0.00000000000E+00 0. -1.
         23    2    1    2    0    0  0.43513776932E+03  0.74419518006E+03  0.25881217695E+04  0.27294428023E+04  0.91172215836E+02 0.  0.
         13    1    3    3    0    0  0.39253036197E+03  0.60964118380E+03  0.22044953397E+04  0.23206770910E+04  0.00000000000E+00 0. -1.
        -13    1    3    3    0    0  0.42607407353E+02  0.13455399625E+03  0.38362642978E+03  0.40876571125E+03  0.00000000000E+00 0.  1.
         22    1    1    2    0    0 -0.43513776932E+03 -0.74419518006E+03  0.44290748948E+03  0.96919471137E+03  0.00000000000E+00 0. -1.
<mgrwt>
<rscale>  0 0.21196181E+04</rscale>
<asrwt>0</asrwt>
<pdfrwt beam="1">  1        2 0.51766665E+00 0.21196181E+04</pdfrwt>
<pdfrwt beam="2">  1       -2 0.51354483E-01 0.21196181E+04</pdfrwt>
<totfact> 0.33323273E+00</totfact>
</mgrwt>
</event>
<event>
 6    1  0.1878398E-004  0.2072348E+04  0.7818608E-02  0.8573523E-01
         -1   -1    0    0    0  501 -0.00000000000E+00  0.00000000000E+00  0.13212129916E+04  0.13212129916E+04  0.00000000000E+00 0.  1.
          1   -1    0    0  501    0  0.00000000000E+00 -0.00000000000E+00 -0.81262974232E+03  0.81262974232E+03  0.00000000000E+00 0. -1.
         23    2    1    2    0    0 -0.63818155164E+03  0.19525566647E+03  0.10682033140E+04  0.12628805735E+04  0.91698172150E+02 0.  0.
         11    1    3    3    0    0 -0.11434360888E+03  0.21669750081E+02  0.13060449064E+03  0.17493304987E+03  0.00000000000E+00 0.  1.
        -11    1    3    3    0    0 -0.52383794276E+03  0.17358591639E+03  0.93759882335E+03  0.10879475236E+04  0.00000000000E+00 0. -1.
         22    1    1    2    0    0  0.63818155164E+03 -0.19525566647E+03 -0.55962006467E+03  0.87096216045E+03  0.00000000000E+00 0. -1.
<mgrwt>
<rscale>  0 0.20723484E+04</rscale>
<asrwt>0</asrwt>
<pdfrwt beam="1">  1        1 0.12501996E+00 0.20723484E+04</pdfrwt>
<pdfrwt beam="2">  1       -1 0.20326354E+00 0.20723484E+04</pdfrwt>
<totfact> 0.28399311E+00</totfact>
</mgrwt>
</event>
<event>
 6    1  0.1878398E-004  0.1887932E+04  0.7818608E-02  0.8660887E-01
         -1   -1    0    0    0  501 -0.00000000000E+00  0.00000000000E+00  0.62658185078E+03  0.62658185078E+03  0.00000000000E+00 0.  1.
          1   -1    0    0  501    0  0.00000000000E+00 -0.00000000000E+00 -0.14221163079E+04  0.14221163079E+04  0.00000000000E+00 0. -1.
         23    2    1    2    0    0  0.36867069824E+03  0.24834554813E+02 -0.13379654210E+04  0.13923703522E+04  0.10958508578E+03 0.  0.
         13    1    3    3    0    0  0.24875601734E+03  0.18929821895E+02 -0.69807329160E+03  0.74131249468E+03  0.00000000000E+00 0.  1.
        -13    1    3    3    0    0  0.11991468090E+03  0.59047329183E+01 -0.63989212943E+03  0.65105785755E+03  0.00000000000E+00 0. -1.
         22    1    1    2    0    0 -0.36867069824E+03 -0.24834554813E+02  0.54243096394E+03  0.65632780643E+03  0.00000000000E+00 0.  1.
<mgrwt>
<rscale>  0 0.18879325E+04</rscale>
<asrwt>0</asrwt>
<pdfrwt beam="1">  1        1 0.21878712E+00 0.18879325E+04</pdfrwt>
<pdfrwt beam="2">  1       -1 0.96397209E-01 0.18879325E+04</pdfrwt>
<totfact> 0.71933527E+00</totfact>
</mgrwt>
</event>
<event>
 6    1  0.1878398E-004  0.1902372E+04  0.7818608E-02  0.8653676E-01
         -1   -1    0    0    0  501 -0.00000000000E+00  0.00000000000E+00  0.10237630556E+04  0.10237630556E+04  0.00000000000E+00 0.  1.
          1   -1    0    0  501    0  0.00000000000E+00 -0.00000000000E+00 -0.88375445363E+03  0.88375445363E+03  0.00000000000E+00 0. -1.
         23    2    1    2    0    0 -0.38064516670E+03 -0.83406863161E+03  0.31592070659E+03  0.97397249498E+03  0.90858697737E+02 0.  0.
         13    1    3    3    0    0 -0.22335399926E+03 -0.42096979562E+03  0.20128931445E+03  0.51731998407E+03  0.00000000000E+00 0. -1.
        -13    1    3    3    0    0 -0.15729116744E+03 -0.41309883599E+03  0.11463139213E+03  0.45665251091E+03  0.00000000000E+00 0.  1.
         22    1    1    2    0    0  0.38064516670E+03  0.83406863161E+03 -0.17591210457E+03  0.93354501429E+03  0.00000000000E+00 0. -1.
<mgrwt>
<rscale>  0 0.19023724E+04</rscale>
<asrwt>0</asrwt>
<pdfrwt beam="1">  1        1 0.13596222E+00 0.19023724E+04</pdfrwt>
<pdfrwt beam="2">  1       -1 0.15750201E+00 0.19023724E+04</pdfrwt>
<totfact> 0.53602529E+00</totfact>
</mgrwt>
</event>
<event>
 6    1  0.1878398E-004  0.9340110E+03  0.7818608E-02  0.9384037E-01
          2   -1    0    0  501    0  0.00000000000E+00  0.00000000000E+00  0.90459917879E+03  0.90459917879E+03  0.00000000000E+00 0.  1.
         -2   -1    0    0    0  501 -0.00000000000E+00 -0.00000000000E+00 -0.24109478679E+03  0.24109478679E+03  0.00000000000E+00 0. -1.
         23    2    1    2    0    0 -0.30506925786E+03  0.15657061610E+03  0.71543106480E+03  0.79888279324E+03  0.93757660655E+02 0.  0.
         13    1    3    3    0    0 -0.25459167618E+03  0.14237979288E+03  0.51672323742E+03  0.59337326455E+03  0.00000000000E+00 0.  1.
        -13    1    3    3    0    0 -0.50477581677E+02  0.14190823221E+02  0.19870782739E+03  0.20550952869E+03  0.00000000000E+00 0. -1.
         22    1    1    2    0    0  0.30506925786E+03 -0.15657061610E+03 -0.51926672809E+02  0.34681117234E+03  0.00000000000E+00 0. -1.
<mgrwt>
<rscale>  0 0.93401102E+03</rscale>
<asrwt>0</asrwt>
<pdfrwt beam="1">  1        2 0.13916910E+00 0.93401102E+03</pdfrwt>
<pdfrwt beam="2">  1       -2 0.37091506E-01 0.93401102E+03</pdfrwt>
<totfact> 0.19952817E+02</totfact>
</mgrwt>
</event>
<event>
 6    1  0.1878398E-004  0.4549567E+04  0.7818608E-02  0.7902016E-01
          2   -1    0    0  501    0  0.00000000000E+00  0.00000000000E+00  0.36952431701E+04  0.36952431701E+04  0.00000000000E+00 0.  1.
         -2   -1    0    0    0  501 -0.00000000000E+00 -0.00000000000E+00 -0.14003518842E+04  0.14003518842E+04  0.00000000000E+00 0. -1.
         23    2    1    2    0    0  0.69823533506E+03  0.71283180071E+03  0.34363185799E+04  0.35795086364E+04  0.94524792021E+02 0.  0.
         13    1    3    3    0    0  0.25794664981E+03  0.27336670787E+03  0.14595932206E+04  0.15072087449E+04  0.00000000000E+00 0. -1.
        -13    1    3    3    0    0  0.44028868525E+03  0.43946509284E+03  0.19767253593E+04  0.20722998915E+04  0.00000000000E+00 0.  1.
         22    1    1    2    0    0 -0.69823533506E+03 -0.71283180071E+03 -0.11414272940E+04  0.15160864179E+04  0.00000000000E+00 0. -1.
<mgrwt>
<rscale>  0 0.45495673E+04</rscale>
<asrwt>0</asrwt>
<pdfrwt beam="1">  1        2 0.56849895E+00 0.45495673E+04</pdfrwt>
<pdfrwt beam="2">  1       -2 0.21543875E+00 0.45495673E+04</pdfrwt>
<totfact> 0.46798505E-02</totfact>
</mgrwt>
</event>
<event>
 6    1  0.1878398E-004  0.1367150E+04  0.7818608E-02  0.8977947E-01
          2   -1    0    0  501    0  0.00000000000E+00  0.00000000000E+00  0.22599021932E+04  0.22599021932E+04  0.00000000000E+00 0.  1.
         -2   -1    0    0    0  501 -0.00000000000E+00 -0.00000000000E+00 -0.20676756770E+03  0.20676756770E+03  0.00000000000E+00 0. -1.
         23    2    1    2    0    0  0.32610930086E+03  0.40873490314E+03  0.18170859712E+04  0.18929708291E+04  0.90142309526E+02 0.  0.
         13    1    3    3    0    0  0.23176947946E+03  0.33740529803E+03  0.13202370971E+04  0.13822392772E+04  0.00000000000E+00 0. -1.
        -13    1    3    3    0    0  0.94339821395E+02  0.71329605108E+02  0.49684887404E+03  0.51073155190E+03  0.00000000000E+00 0.  1.
         22    1    1    2    0    0 -0.32610930086E+03 -0.40873490314E+03  0.23604865433E+03  0.57369893181E+03  0.00000000000E+00 0. -1.
<mgrwt>
<rscale>  0 0.13671496E+04</rscale>
<asrwt>0</asrwt>
<pdfrwt beam="1">  1        2 0.34767724E+00 0.13671496E+04</pdfrwt>
<pdfrwt beam="2">  1       -2 0.31810397E-01 0.13671496E+04</pdfrwt>
<totfact> 0.42903953E+01</totfact>
</mgrwt>
</event>
<event>
 6    1  0.1878398E-004  0.9229818E+03  0.7818608E-02  0.9397300E-01
         -2   -1    0    0    0  501 -0.00000000000E+00  0.00000000000E+00  0.26289021031E+03  0.26289021031E+03  0.00000000000E+00 0. -1.
          2   -1    0    0  501    0  0.00000000000E+00 -0.00000000000E+00 -0.81012472221E+03  0.81012472221E+03  0.00000000000E+00 0.  1.
         23    2    1    2    0    0 -0.14311664325E+03 -0.12443593309E+03  0.20681219373E+03  0.29548479851E+03  0.92592157637E+02 0.  0.
         11    1    3    3    0    0 -0.29980775557E+02 -0.84928704438E+00  0.79750386370E+02  0.85203828069E+02  0.00000000000E+00 0.  1.
        -11    1    3    3    0    0 -0.11313586770E+03 -0.12358664605E+03  0.12706180736E+03  0.21028097044E+03  0.00000000000E+00 0. -1.
         22    1    1    2    0    0  0.14311664325E+03  0.12443593309E+03 -0.75404670563E+03  0.77753013401E+03  0.00000000000E+00 0.  1.
<mgrwt>
<rscale>  0 0.92298182E+03</rscale>
<asrwt>0</asrwt>
<pdfrwt beam="1">  1        2 0.12463457E+00 0.92298182E+03</pdfrwt>
<pdfrwt beam="2">  1       -2 0.40444648E-01 0.92298182E+03</pdfrwt>
<totfact> 0.19628531E+02</totfact>
</mgrwt>
</event>
<event>
 6    1  0.1878398E-004  0.2005745E+04  0.7818608E-02  0.8603939E-01
          1   -1    0    0  501    0  0.00000000000E+00  0.00000000000E+00  0.11174933669E+04  0.11174933669E+04  0.00000000000E+00 0. -1.
         -1   -1    0    0    0  501 -0.00000000000E+00 -0.00000000000E+00 -0.90000867926E+03  0.90000867926E+03  0.00000000000E+00 0.  1.
         23    2    1    2    0    0  0.40563202984E+03 -0.42281311587E+03 -0.70713216707E+03  0.92286758544E+03  0.91325812184E+02 0.  0.
         11    1    3    3    0    0  0.32490353603E+03 -0.28230754293E+03 -0.49595122109E+03  0.65667912272E+03  0.00000000000E+00 0. -1.
        -11    1    3    3    0    0  0.80728493813E+02 -0.14050557294E+03 -0.21118094598E+03  0.26618846272E+03  0.00000000000E+00 0.  1.
         22    1    1    2    0    0 -0.40563202984E+03  0.42281311587E+03  0.92461685472E+03  0.10946344607E+04  0.00000000000E+00 0. -1.
<mgrwt>
<rscale>  0 0.20057455E+04</rscale>
<asrwt>0</asrwt>
<pdfrwt beam="1">  1        1 0.17192206E+00 0.20057455E+04</pdfrwt>
<pdfrwt beam="2">  1       -1 0.13846287E+00 0.20057455E+04</pdfrwt>
<totfact> 0.49208761E+00</totfact>
</mgrwt>
</event>
<event>
 6    1  0.1878398E-004  0.2758523E+04  0.7818608E-02  0.8316262E-01
         -2   -1    0    0    0  501 -0.00000000000E+00  0.00000000000E+00  0.11670492995E+04  0.11670492995E+04  0.00000000000E+00 0. -1.
          2   -1    0    0  501    0  0.00000000000E+00 -0.00000000000E+00 -0.16300615643E+04  0.16300615643E+04  0.00000000000E+00 0.  1.
         23    2    1    2    0    0 -0.99221892730E+03  0.39348167101E+03 -0.11150284381E+04  0.15463305812E+04  0.92323471807E+02 0.  0.
         13    1    3    3    0    0 -0.27606108605E+03  0.15473255207E+03 -0.32752640566E+03  0.45543982293E+03  0.00000000000E+00 0.  1.
        -13    1    3    3    0    0 -0.71615784124E+03  0.23874911895E+03 -0.78750203239E+03  0.10908907582E+04  0.00000000000E+00 0. -1.
         22    1    1    2    0    0  0.99221892730E+03 -0.39348167101E+03  0.65201617333E+03  0.12507802826E+04  0.00000000000E+00 0. -1.
<mgrwt>
<rscale>  0 0.27585229E+04</rscale>
<asrwt>0</asrwt>
<pdfrwt beam="1">  1        2 0.25077870E+00 0.27585229E+04</pdfrwt>
<pdfrwt beam="2">  1       -2 0.17954605E+00 0.27585229E+04</pdfrwt>
<totfact> 0.17111038E+00</totfact>
</mgrwt>
</event>
<event>
 6    1  0.1878398E-004  0.3276180E+04  0.7818608E-02  0.8168983E-01
          2   -1    0    0  501    0  0.00000000000E+00  0.00000000000E+00  0.13087447508E+04  0.13087447508E+04  0.00000000000E+00 0.  1.
         -2   -1    0    0    0  501 -0.00000000000E+00 -0.00000000000E+00 -0.20503146274E+04  0.20503146274E+04  0.00000000000E+00 0. -1.
         23    2    1    2    0    0 -0.88260414130E+03  0.96149237326E+03 -0.13838835414E+04  0.19044032339E+04  0.90334750054E+02 0.  0.
         13    1    3    3    0    0 -0.43826501970E+02  0.77773353866E+02 -0.10975332132E+03  0.14147525716E+03  0.00000000000E+00 0. -1.
        -13    1    3    3    0    0 -0.83877763933E+03  0.88371901940E+03 -0.12741302201E+04  0.17629279768E+04  0.00000000000E+00 0.  1.
         22    1    1    2    0    0  0.88260414130E+03 -0.96149237326E+03  0.64231366479E+03  0.14546561443E+04  0.00000000000E+00 0. -1.
<mgrwt>
<rscale>  0 0.32761798E+04</rscale>
<asrwt>0</asrwt>
<pdfrwt beam="1">  1        2 0.20134535E+00 0.32761798E+04</pdfrwt>
<pdfrwt beam="2">  1       -2 0.31543302E+00 0.32761798E+04</pdfrwt>
<totfact> 0.34925817E-01</totfact>
</mgrwt>
</event>
<event>
 6    1  0.1878398E-004  0.2332142E+04  0.7818608E-02  0.8465355E-01
         -2   -1    0    0    0  501 -0.00000000000E+00  0.00000000000E+00  0.13005386508E+04  0.13005386508E+04  0.00000000000E+00 0. -1.
          2   -1    0    0  501    0  0.00000000000E+00 -0.00000000000E+00 -0.10455060738E+04  0.10455060738E+04  0.00000000000E+00 0.  1.
         23    2    1    2    0    0  0.83828719331E+03  0.78684011011E+03 -0.56520105709E+02  0.11548655394E+04  0.93151029548E+02 0.  0.
         11    1    3    3    0    0  0.47854865792E+03  0.50431137367E+03 -0.55571867704E+02  0.69744319632E+03  0.00000000000E+00 0. -1.
        -11    1    3    3    0    0  0.35973853539E+03  0.28252873644E+03 -0.94823800439E+00  0.45742234305E+03  0.00000000000E+00 0.  1.
         22    1    1    2    0    0 -0.83828719331E+03 -0.78684011011E+03  0.31155268272E+03  0.11911791853E+04  0.00000000000E+00 0. -1.
<mgrwt>
<rscale>  0 0.23321416E+04</rscale>
<asrwt>0</asrwt>
<pdfrwt beam="1">  1        2 0.16084709E+00 0.23321416E+04</pdfrwt>
<pdfrwt beam="2">  1       -2 0.20008287E+00 0.23321416E+04</pdfrwt>
<totfact> 0.28295511E+00</totfact>
</mgrwt>
</event>
<event>
 6    1  0.1878398E-004  0.8689904E+03  0.7818608E-02  0.9465197E-01
         -1   -1    0    0    0  501 -0.00000000000E+00  0.00000000000E+00  0.20667267414E+03  0.20667267414E+03  0.00000000000E+00 0. -1.
          1   -1    0    0  501    0  0.00000000000E+00 -0.00000000000E+00 -0.91345453590E+03  0.91345453590E+03  0.00000000000E+00 0.  1.
         23    2    1    2    0    0  0.32004000378E+03  0.72698595538E+02 -0.23789039287E+00  0.34107966766E+03  0.92868688408E+02 0.  0.
         13    1    3    3    0    0  0.11304522715E+03  0.65649405663E+02 -0.22946107475E+02  0.13272374201E+03  0.00000000000E+00 0.  1.
        -13    1    3    3    0    0  0.20699477663E+03  0.70491898750E+01  0.22708217082E+02  0.20835592565E+03  0.00000000000E+00 0. -1.
         22    1    1    2    0    0 -0.32004000378E+03 -0.72698595538E+02 -0.70654397137E+03  0.77904754238E+03  0.00000000000E+00 0.  1.
<mgrwt>
<rscale>  0 0.86899043E+03</rscale>
<asrwt>0</asrwt>
<pdfrwt beam="1">  1        1 0.14053147E+00 0.86899043E+03</pdfrwt>
<pdfrwt beam="2">  1       -1 0.31795796E-01 0.86899043E+03</pdfrwt>
<totfact> 0.16459782E+02</totfact>
</mgrwt>
</event>
<event>
 6    1  0.1878398E-004  0.1519295E+04  0.7818608E-02  0.8871723E-01
         -1   -1    0    0    0  501 -0.00000000000E+00  0.00000000000E+00  0.51846390497E+03  0.51846390497E+03  0.00000000000E+00 0. -1.
          1   -1    0    0  501    0  0.00000000000E+00 -0.00000000000E+00 -0.11130264036E+04  0.11130264036E+04  0.00000000000E+00 0.  1.
         23    2    1    2    0    0  0.22477452300E+03 -0.71870012248E+03 -0.38028744101E+03  0.84856805662E+03  0.91628361772E+02 0.  0.
         11    1    3    3    0    0  0.51015255354E+02 -0.22538574011E+03 -0.74926157195E+02  0.24293047803E+03  0.00000000000E+00 0. -1.
        -11    1    3    3    0    0  0.17375926764E+03 -0.49331438237E+03 -0.30536128382E+03  0.60563757859E+03  0.00000000000E+00 0.  1.
         22    1    1    2    0    0 -0.22477452300E+03  0.71870012248E+03 -0.21427505759E+03  0.78292225192E+03  0.00000000000E+00 0.  1.
<mgrwt>
<rscale>  0 0.15192946E+04</rscale>
<asrwt>0</asrwt>
<pdfrwt beam="1">  1        1 0.17123483E+00 0.15192946E+04</pdfrwt>
<pdfrwt beam="2">  1       -1 0.79763678E-01 0.15192946E+04</pdfrwt>
<totfact> 0.18796535E+01</totfact>
</mgrwt>
</event>
<event>
 6    1  0.1878398E-004  0.1871666E+04  0.7818608E-02  0.8669090E-01
         -2   -1    0    0    0  501 -0.00000000000E+00  0.00000000000E+00  0.50076516364E+03  0.50076516364E+03  0.00000000000E+00 0. -1.
          2   -1    0    0  501    0  0.00000000000E+00 -0.00000000000E+00 -0.17488912306E+04  0.17488912306E+04  0.00000000000E+00 0.  1.
         23    2    1    2    0    0 -0.94767843416E+02 -0.29899165867E+03 -0.16826011152E+04  0.17137967824E+04  0.87039890496E+02 0.  0.
         13    1    3    3    0    0 -0.59038982117E+02 -0.15813887965E+03 -0.67576755096E+03  0.69653089637E+03  0.00000000000E+00 0.  1.
        -13    1    3    3    0    0 -0.35728861299E+02 -0.14085277902E+03 -0.10068335642E+04  0.10172658861E+04  0.00000000000E+00 0. -1.
         22    1    1    2    0    0  0.94767843416E+02  0.29899165867E+03  0.43447504820E+03  0.53585961184E+03  0.00000000000E+00 0. -1.
<mgrwt>
<rscale>  0 0.18716664E+04</rscale>
<asrwt>0</asrwt>
<pdfrwt beam="1">  1        2 0.26906020E+00 0.18716664E+04</pdfrwt>
<pdfrwt beam="2">  1       -2 0.77040792E-01 0.18716664E+04</pdfrwt>
<totfact> 0.13005254E+01</totfact>
</mgrwt>
</event>
<event>
 6    1  0.1878398E-004  0.4880380E+04  0.7818608E-02  0.7847229E-01
         -2   -1    0    0    0  501 -0.00000000000E+00  0.00000000000E+00  0.21218830116E+04  0.21218830116E+04  0.00000000000E+00 0. -1.
          2   -1    0    0  501    0  0.00000000000E+00 -0.00000000000E+00 -0.28062470121E+04  0.28062470121E+04  0.00000000000E+00 0.  1.
         23    2    1    2    0    0  0.84761655818E+03  0.22649693102E+04 -0.20219714472E+02  0.24202170590E+04  0.92206125926E+02 0.  0.
         13    1    3    3    0    0  0.47559096776E+02  0.79427756312E+02  0.48552209282E+01  0.92704958493E+02  0.00000000000E+00 0.  1.
        -13    1    3    3    0    0  0.80005746141E+03  0.21855415539E+04 -0.25074935400E+02  0.23275121005E+04  0.00000000000E+00 0. -1.
         22    1    1    2    0    0 -0.84761655818E+03 -0.22649693102E+04 -0.66414428611E+03  0.25079129648E+04  0.00000000000E+00 0. -1.
<mgrwt>
<rscale>  0 0.48803803E+04</rscale>
<asrwt>0</asrwt>
<pdfrwt beam="1">  1        2 0.43173031E+00 0.48803803E+04</pdfrwt>
<pdfrwt beam="2">  1       -2 0.32644354E+00 0.48803803E+04</pdfrwt>
<totfact> 0.36792133E-02</totfact>
</mgrwt>
</event>
<event>
 6    1  0.1878398E-004  0.1936007E+04  0.7818608E-02  0.8637138E-01
         -1   -1    0    0    0  501 -0.00000000000E+00  0.00000000000E+00  0.43998738800E+03  0.43998738800E+03  0.00000000000E+00 0. -1.
          1   -1    0    0  501    0  0.00000000000E+00 -0.00000000000E+00 -0.21296768480E+04  0.21296768480E+04  0.00000000000E+00 0.  1.
         23    2    1    2    0    0 -0.55967938760E+03 -0.31494598050E+03  0.11081025487E+03  0.65805988081E+03  0.91279278088E+02 0.  0.
         13    1    3    3    0    0 -0.35532148505E+03 -0.24869118307E+03  0.67953133768E+02  0.43899691419E+03  0.00000000000E+00 0.  1.
        -13    1    3    3    0    0 -0.20435790255E+03 -0.66254797431E+02  0.42857121105E+02  0.21906296662E+03  0.00000000000E+00 0. -1.
         22    1    1    2    0    0  0.55967938760E+03  0.31494598050E+03 -0.18004997148E+04  0.19116043551E+04  0.00000000000E+00 0. -1.
<mgrwt>
<rscale>  0 0.19360072E+04</rscale>
<asrwt>0</asrwt>
<pdfrwt beam="1">  1        1 0.32764259E+00 0.19360072E+04</pdfrwt>
<pdfrwt beam="2">  1       -1 0.67690368E-01 0.19360072E+04</pdfrwt>
<totfact> 0.50151598E+00</totfact>
</mgrwt>
</event>
<event>
 6    1  0.1878398E-004  0.2689754E+04  0.7818608E-02  0.8338337E-01
         -2   -1    0    0    0  501 -0.00000000000E+00  0.00000000000E+00  0.10928725288E+04  0.10928725288E+04  0.00000000000E+00 0. -1.
          2   -1    0    0  501    0  0.00000000000E+00 -0.00000000000E+00 -0.16549910773E+04  0.16549910773E+04  0.00000000000E+00 0.  1.
         23    2    1    2    0    0 -0.75425001143E+03  0.64480901040E+03 -0.12062458902E+04  0.15648286228E+04  0.94803646095E+02 0.  0.
         11    1    3    3    0    0 -0.18935120820E+03  0.17282457047E+03 -0.37801027127E+03  0.45674279129E+03  0.00000000000E+00 0.  1.
        -11    1    3    3    0    0 -0.56489880322E+03  0.47198443993E+03 -0.82823561894E+03  0.11080858315E+04  0.00000000000E+00 0. -1.
         22    1    1    2    0    0  0.75425001143E+03 -0.64480901040E+03  0.64412734171E+03  0.11830349834E+04  0.00000000000E+00 0. -1.
<mgrwt>
<rscale>  0 0.26897541E+04</rscale>
<asrwt>0</asrwt>
<pdfrwt beam="1">  1        2 0.25461401E+00 0.26897541E+04</pdfrwt>
<pdfrwt beam="2">  1       -2 0.16813424E+00 0.26897541E+04</pdfrwt>
<totfact> 0.20053005E+00</totfact>
</mgrwt>
</event>
<event>
 6    1  0.1878398E-004  0.3038713E+04  0.7818608E-02  0.8232762E-01
         -2   -1    0    0    0  501 -0.00000000000E+00  0.00000000000E+00  0.11888627779E+04  0.11888627779E+04  0.00000000000E+00 0. -1.
          2   -1    0    0  501    0  0.00000000000E+00 -0.00000000000E+00 -0.19417244812E+04  0.19417244812E+04  0.00000000000E+00 0.  1.
         23    2    1    2    0    0 -0.69852210934E+03 -0.67103539578E+03 -0.15808501213E+04  0.18563084591E+04  0.92586985783E+02 0.  0.
         11    1    3    3    0    0 -0.63974456938E+03 -0.64580563800E+03 -0.14727828830E+04  0.17307303247E+04  0.00000000000E+00 0. -1.
        -11    1    3    3    0    0 -0.58777539952E+02 -0.25229757780E+02 -0.10806723823E+03  0.12557813448E+03  0.00000000000E+00 0.  1.
         22    1    1    2    0    0  0.69852210934E+03  0.67103539578E+03  0.82798841799E+03  0.12742787999E+04  0.00000000000E+00 0. -1.
<mgrwt>
<rscale>  0 0.30387129E+04</rscale>
<asrwt>0</asrwt>
<pdfrwt beam="1">  1        2 0.29872684E+00 0.30387129E+04</pdfrwt>
<pdfrwt beam="2">  1       -2 0.18290197E+00 0.30387129E+04</pdfrwt>
<totfact> 0.10638831E+00</totfact>
</mgrwt>
</event>
<event>
 6    1  0.1878398E-004  0.2370960E+04  0.7818608E-02  0.8450457E-01
          2   -1    0    0  501    0  0.00000000000E+00  0.00000000000E+00  0.15415207775E+04  0.15415207775E+04  0.00000000000E+00 0.  1.
         -2   -1    0    0    0  501 -0.00000000000E+00 -0.00000000000E+00 -0.91167269185E+03  0.91167269185E+03  0.00000000000E+00 0. -1.
         23    2    1    2    0    0  0.10999899985E+04 -0.27403730868E+02 -0.13629755397E+03  0.11124070948E+04  0.90241676197E+02 0.  0.
         13    1    3    3    0    0  0.10328154651E+04 -0.37606995917E+02 -0.14604024544E+03  0.10437671313E+04  0.00000000000E+00 0.  1.
        -13    1    3    3    0    0  0.67174533388E+02  0.10203265049E+02  0.97426914693E+01  0.68639963510E+02  0.00000000000E+00 0. -1.
         22    1    1    2    0    0 -0.10999899985E+04  0.27403730868E+02  0.76614563966E+03  0.13407863746E+04  0.00000000000E+00 0. -1.
<mgrwt>
<rscale>  0 0.23709596E+04</rscale>
<asrwt>0</asrwt>
<pdfrwt beam="1">  1        2 0.23715704E+00 0.23709596E+04</pdfrwt>
<pdfrwt beam="2">  1       -2 0.14025734E+00 0.23709596E+04</pdfrwt>
<totfact> 0.38758595E+00</totfact>
</mgrwt>
</event>
<event>
 6    1  0.1878398E-004  0.4120193E+04  0.7818608E-02  0.7980729E-01
          1   -1    0    0  501    0  0.00000000000E+00  0.00000000000E+00  0.20814542006E+04  0.20814542006E+04  0.00000000000E+00 0.  1.
         -1   -1    0    0    0  501 -0.00000000000E+00 -0.00000000000E+00 -0.20389584238E+04  0.20389584238E+04  0.00000000000E+00 0. -1.
         23    2    1    2    0    0 -0.10142778273E+04 -0.17359982991E+04 -0.42304789283E+03  0.20566344112E+04  0.91246787754E+02 0.  0.
         13    1    3    3    0    0 -0.72437962361E+03 -0.13116229551E+04 -0.33177509381E+03  0.15346515332E+04  0.00000000000E+00 0. -1.
        -13    1    3    3    0    0 -0.28989820369E+03 -0.42437534403E+03 -0.91272799016E+02  0.52198287803E+03  0.00000000000E+00 0.  1.
         22    1    1    2    0    0  0.10142778273E+04  0.17359982991E+04  0.46554366963E+03  0.20637782133E+04  0.00000000000E+00 0.  1.
<mgrwt>
<rscale>  0 0.41201935E+04</rscale>
<asrwt>0</asrwt>
<pdfrwt beam="1">  1        1 0.32022372E+00 0.41201935E+04</pdfrwt>
<pdfrwt beam="2">  1       -1 0.31368591E+00 0.41201935E+04</pdfrwt>
<totfact> 0.54709238E-02</totfact>
</mgrwt>
</event>
<event>
 6    1  0.1878398E-004  0.1297034E+04  0.7818608E-02  0.9031921E-01
          2   -1    0    0  501    0  0.00000000000E+00  0.00000000000E+00  0.42038367257E+04  0.42038367257E+04  0.00000000000E+00 0.  1.
         -2   -1    0    0    0  501 -0.00000000000E+00 -0.00000000000E+00 -0.10004528230E+03  0.10004528230E+03  0.00000000000E+00 0. -1.
         23    2    1    2    0    0 -0.30196601033E+03  0.33899879464E+03  0.35838941493E+04  0.36136669324E+04  0.90486301302E+02 0.  0.
         13    1    3    3    0    0 -0.16165634223E+03  0.21838331374E+03  0.24121336474E+04  0.24273880567E+04  0.00000000000E+00 0. -1.
        -13    1    3    3    0    0 -0.14030966809E+03  0.12061548090E+03  0.11717605019E+04  0.11862788757E+04  0.00000000000E+00 0.  1.
         22    1    1    2    0    0  0.30196601033E+03 -0.33899879464E+03  0.51989729406E+03  0.69021507556E+03  0.00000000000E+00 0. -1.
<mgrwt>
<rscale>  0 0.12970336E+04</rscale>
<asrwt>0</asrwt>
<pdfrwt beam="1">  1        2 0.64674397E+00 0.12970336E+04</pdfrwt>
<pdfrwt beam="2">  1       -2 0.15391585E-01 0.12970336E+04</pdfrwt>
<totfact> 0.79116979E+00</totfact>
</mgrwt>
</event>
<event>
 6    1  0.1878398E-004  0.2587188E+04  0.7818608E-02  0.8372566E-01
          2   -1    0    0  501    0  0.00000000000E+00  0.00000000000E+00  0.17384328741E+04  0.17384328741E+04  0.00000000000E+00 0. -1.
         -2   -1    0    0    0  501 -0.00000000000E+00 -0.00000000000E+00 -0.96258306208E+03  0.96258306208E+03  0.00000000000E+00 0.  1.
         23    2    1    2    0    0 -0.16293480282E+03 -0.60402183817E+03  0.15686250603E+04  0.16911235037E+04  0.89016818689E+02 0.  0.
         11    1    3    3    0    0 -0.11022853504E+03 -0.24022024194E+03  0.65133942933E+03  0.70292186391E+03  0.00000000000E+00 0. -1.
        -11    1    3    3    0    0 -0.52706267781E+02 -0.36380159623E+03  0.91728563096E+03  0.98820163977E+03  0.00000000000E+00 0.  1.
         22    1    1    2    0    0  0.16293480282E+03  0.60402183817E+03 -0.79277524826E+03  0.10098924325E+04  0.00000000000E+00 0.  1.
<mgrwt>
<rscale>  0 0.25871885E+04</rscale>
<asrwt>0</asrwt>
<pdfrwt beam="1">  1        2 0.26745121E+00 0.25871885E+04</pdfrwt>
<pdfrwt beam="2">  1       -2 0.14808970E+00 0.25871885E+04</pdfrwt>
<totfact> 0.25628086E+00</totfact>
</mgrwt>
</event>
<event>
 6    1  0.1878398E-004  0.3111092E+04  0.7818608E-02  0.8212700E-01
         -2   -1    0    0    0  501 -0.00000000000E+00  0.00000000000E+00  0.81739752492E+03  0.81739752492E+03  0.00000000000E+00 0. -1.
          2   -1    0    0  501    0  0.00000000000E+00 -0.00000000000E+00 -0.29602774287E+04  0.29602774287E+04  0.00000000000E+00 0.  1.
         23    2    1    2    0    0 -0.13607782476E+04  0.39932704091E+03 -0.30005069484E+03  0.14523364797E+04  0.89840447279E+02 0.  0.
         13    1    3    3    0    0 -0.23956334662E+03  0.10289643343E+03 -0.70623687318E+02  0.27012215435E+03  0.00000000000E+00 0.  1.
        -13    1    3    3    0    0 -0.11212149010E+04  0.29643060748E+03 -0.22942700752E+03  0.11822143254E+04  0.00000000000E+00 0. -1.
         22    1    1    2    0    0  0.13607782476E+04 -0.39932704091E+03 -0.18428292089E+04  0.23253384739E+04  0.00000000000E+00 0.  1.
<mgrwt>
<rscale>  0 0.31110921E+04</rscale>
<asrwt>0</asrwt>
<pdfrwt beam="1">  1        2 0.45542731E+00 0.31110921E+04</pdfrwt>
<pdfrwt beam="2">  1       -2 0.12575346E+00 0.31110921E+04</pdfrwt>
<totfact> 0.73810775E-01</totfact>
</mgrwt>
</event>
<event>
 6    1  0.1878398E-004  0.2216410E+04  0.7818608E-02  0.8511629E-01
         -2   -1    0    0    0  501 -0.00000000000E+00  0.00000000000E+00  0.10700989580E+04  0.10700989580E+04  0.00000000000E+00 0. -1.
          2   -1    0    0  501    0  0.00000000000E+00 -0.00000000000E+00 -0.11476683611E+04  0.11476683611E+04  0.00000000000E+00 0.  1.
         23    2    1    2    0    0  0.10561824748E+02  0.10943892597E+04  0.12302398581E+03  0.11050961585E+04  0.91121976479E+02 0.  0.
         11    1    3    3    0    0  0.49426342093E+02  0.64012920766E+03  0.59794178749E+02  0.64481292605E+03  0.00000000000E+00 0.  1.
        -11    1    3    3    0    0 -0.38864517346E+02  0.45426005207E+03  0.63229807057E+02  0.46028323249E+03  0.00000000000E+00 0. -1.
         22    1    1    2    0    0 -0.10561824748E+02 -0.10943892597E+04 -0.20059338895E+03  0.11126711606E+04  0.00000000000E+00 0. -1.
<mgrwt>
<rscale>  0 0.22164104E+04</rscale>
<asrwt>0</asrwt>
<pdfrwt beam="1">  1        2 0.17656436E+00 0.22164104E+04</pdfrwt>
<pdfrwt beam="2">  1       -2 0.16463061E+00 0.22164104E+04</pdfrwt>
<totfact> 0.43312341E+00</totfact>
</mgrwt>
</event>
<event>
 6    1  0.1878398E-004  0.1623778E+04  0.7818608E-02  0.8806072E-01
         -2   -1    0    0    0  501 -0.00000000000E+00  0.00000000000E+00  0.33583841588E+03  0.33583841588E+03  0.00000000000E+00 0. -1.
          2   -1    0    0  501    0  0.00000000000E+00 -0.00000000000E+00 -0.19627409138E+04  0.19627409138E+04  0.00000000000E+00 0.  1.
         23    2    1    2    0    0 -0.21456094562E+03  0.49786773072E+03  0.34694303167E+02  0.55077710802E+03  0.90791251617E+02 0.  0.
         11    1    3    3    0    0 -0.36807684475E+02  0.13127740532E+03  0.43983931794E+02  0.14325902778E+03  0.00000000000E+00 0. -1.
        -11    1    3    3    0    0 -0.17775326115E+03  0.36659032540E+03 -0.92896286268E+01  0.40751808024E+03  0.00000000000E+00 0.  1.
         22    1    1    2    0    0  0.21456094562E+03 -0.49786773072E+03 -0.16615968011E+04  0.17478022216E+04  0.00000000000E+00 0.  1.
<mgrwt>
<rscale>  0 0.16237781E+04</rscale>
<asrwt>0</asrwt>
<pdfrwt beam="1">  1        2 0.30196014E+00 0.16237781E+04</pdfrwt>
<pdfrwt beam="2">  1       -2 0.51667449E-01 0.16237781E+04</pdfrwt>
<totfact> 0.23736301E+01</totfact>
</mgrwt>
</event>
<event>
 6    1  0.1878398E-004  0.6866060E+04  0.7818608E-02  0.7591409E-01
          2   -1    0    0  501    0  0.00000000000E+00  0.00000000000E+00  0.37412283798E+04  0.37412283798E+04  0.00000000000E+00 0.  1.
         -2   -1    0    0    0  501 -0.00000000000E+00 -0.00000000000E+00 -0.31502207411E+04  0.31502207411E+04  0.00000000000E+00 0. -1.
         23    2    1    2    0    0 -0.27381851644E+03 -0.20741203256E+04  0.30267402135E+04  0.36805699764E+04  0.92126684253E+02 0.  0.
         11    1    3    3    0    0 -0.14458348074E+03 -0.77546643561E+03  0.11130269979E+04  0.13642146729E+04  0.00000000000E+00 0.  1.
        -11    1    3    3    0    0 -0.12923503571E+03 -0.12986538900E+04  0.19137132156E+04  0.23163553035E+04  0.00000000000E+00 0. -1.
         22    1    1    2    0    0  0.27381851644E+03  0.20741203256E+04 -0.24357325748E+04  0.32108791446E+04  0.00000000000E+00 0. -1.
<mgrwt>
<rscale>  0 0.68660601E+04</rscale>
<asrwt>0</asrwt>
<pdfrwt beam="1">  1        2 0.57557360E+00 0.68660601E+04</pdfrwt>
<pdfrwt beam="2">  1       -2 0.48464934E+00 0.68660601E+04</pdfrwt>
<totfact> 0.71188957E-04</totfact>
</mgrwt>
</event>
<event>
 6    1  0.1878398E-004  0.1886756E+04  0.7818608E-02  0.8661477E-01
         -2   -1    0    0    0  501 -0.00000000000E+00  0.00000000000E+00  0.11370403382E+04  0.11370403382E+04  0.00000000000E+00 0. -1.
          2   -1    0    0  501    0  0.00000000000E+00 -0.00000000000E+00 -0.78270041544E+03  0.78270041544E+03  0.00000000000E+00 0.  1.
         23    2    1    2    0    0  0.84941203031E+03 -0.40514210609E+03  0.19108757934E+03  0.96460084189E+03  0.91101030923E+02 0.  0.
         13    1    3    3    0    0  0.74206989172E+03 -0.38433943041E+03  0.17844237026E+03  0.85453273868E+03  0.00000000000E+00 0. -1.
        -13    1    3    3    0    0  0.10734213859E+03 -0.20802675678E+02  0.12645209082E+02  0.11006810321E+03  0.00000000000E+00 0.  1.
         22    1    1    2    0    0 -0.84941203031E+03  0.40514210609E+03  0.16325234341E+03  0.95513991173E+03  0.00000000000E+00 0. -1.
<mgrwt>
<rscale>  0 0.18867559E+04</rscale>
<asrwt>0</asrwt>
<pdfrwt beam="1">  1        2 0.12041545E+00 0.18867559E+04</pdfrwt>
<pdfrwt beam="2">  1       -2 0.17492928E+00 0.18867559E+04</pdfrwt>
<totfact> 0.65360552E+00</totfact>
</mgrwt>
</event>
<event>
 6    1  0.1878398E-004  0.4805742E+04  0.7818608E-02  0.7859192E-01
         -2   -1    0    0    0  501 -0.00000000000E+00  0.00000000000E+00  0.23807140475E+04  0.23807140475E+04  0.00000000000E+00 0. -1.
          2   -1    0    0  501    0  0.00000000000E+00 -0.00000000000E+00 -0.24252346124E+04  0.24252346124E+04  0.00000000000E+00 0.  1.
         23    2    1    2    0    0  0.16929879489E+04  0.14208160519E+04  0.91851767754E+03  0.23950631162E+04  0.87898569755E+02 0.  0.
         11    1    3    3    0    0  0.74981236606E+03  0.67247174012E+03  0.38738406174E+03  0.10791215116E+04  0.00000000000E+00 0. -1.
        -11    1    3    3    0    0  0.94317558281E+03  0.74834431175E+03  0.53113361581E+03  0.13159416046E+04  0.00000000000E+00 0.  1.
         22    1    1    2    0    0 -0.16929879489E+04 -0.14208160519E+04 -0.96303824243E+03  0.24108855437E+04  0.00000000000E+00 0.  1.
<mgrwt>
<rscale>  0 0.48057424E+04</rscale>
<asrwt>0</asrwt>
<pdfrwt beam="1">  1        2 0.37311302E+00 0.48057424E+04</pdfrwt>
<pdfrwt beam="2">  1       -2 0.36626370E+00 0.48057424E+04</pdfrwt>
<totfact> 0.34875866E-02</totfact>
</mgrwt>
</event>
<event>
 6    1  0.1878398E-004  0.2466755E+04  0.7818608E-02  0.8414926E-01
          2   -1    0    0  501    0  0.00000000000E+00  0.00000000000E+00  0.12877377520E+04  0.12877377520E+04  0.00000000000E+00 0.  1.
         -2   -1    0    0    0  501 -0.00000000000E+00 -0.00000000000E+00 -0.11813118218E+04  0.11813118218E+04  0.00000000000E+00 0. -1.
         23    2    1    2    0    0  0.92966904972E+03  0.15296092600E+03  0.84741853337E+03  0.12704038276E+04  0.90145035836E+02 0.  0.
         13    1    3    3    0    0  0.72189162522E+03  0.14711022075E+03  0.62678690696E+03  0.96728008475E+03  0.00000000000E+00 0. -1.
        -13    1    3    3    0    0  0.20777742450E+03  0.58507052531E+01  0.22063162641E+03  0.30312374281E+03  0.00000000000E+00 0.  1.
         22    1    1    2    0    0 -0.92966904972E+03 -0.15296092600E+03 -0.74099260323E+03  0.11986457462E+04  0.00000000000E+00 0. -1.
<mgrwt>
<rscale>  0 0.24667548E+04</rscale>
<asrwt>0</asrwt>
<pdfrwt beam="1">  1        2 0.19811350E+00 0.24667548E+04</pdfrwt>
<pdfrwt beam="2">  1       -2 0.18174028E+00 0.24667548E+04</pdfrwt>
<totfact> 0.26512986E+00</totfact>
</mgrwt>
</event>
<event>
 6    1  0.1878398E-004  0.9381051E+03  0.7818608E-02  0.9379163E-01
          2   -1    0    0  501    0  0.00000000000E+00  0.00000000000E+00  0.46341399491E+03  0.46341399491E+03  0.00000000000E+00 0.  1.
         -2   -1    0    0    0  501 -0.00000000000E+00 -0.00000000000E+00 -0.47475969619E+03  0.47475969619E+03  0.00000000000E+00 0. -1.
         23    2    1    2    0    0  0.44394379638E+03  0.45586058324E+00  0.13702257657E+03  0.47009309118E+03  0.71596269010E+02 0.  0.
         13    1    3    3    0    0  0.33306661984E+03  0.24620780103E+02  0.81586049106E+02  0.34379621794E+03  0.00000000000E+00 0. -1.
        -13    1    3    3    0    0  0.11087717654E+03 -0.24164919520E+02  0.55436527461E+02  0.12629687324E+03  0.00000000000E+00 0.  1.
         22    1    1    2    0    0 -0.44394379638E+03 -0.45586058324E+00 -0.14836827784E+03  0.46808059992E+03  0.00000000000E+00 0. -1.
<mgrwt>
<rscale>  0 0.93810508E+03</rscale>
<asrwt>0</asrwt>
<pdfrwt beam="1">  1        2 0.71294461E-01 0.93810508E+03</pdfrwt>
<pdfrwt beam="2">  1       -2 0.73039953E-01 0.93810508E+03</pdfrwt>
<totfact> 0.11411471E+02</totfact>
</mgrwt>
</event>
<event>
 6    1  0.1878398E-004  0.1306255E+04  0.7818608E-02  0.9024620E-01
         -2   -1    0    0    0  501 -0.00000000000E+00  0.00000000000E+00  0.14349244928E+03  0.14349244928E+03  0.00000000000E+00 0. -1.
          2   -1    0    0  501    0  0.00000000000E+00 -0.00000000000E+00 -0.29728065932E+04  0.29728065932E+04  0.00000000000E+00 0.  1.
         23    2    1    2    0    0  0.11667036017E+03 -0.51055349552E+03 -0.50417678179E+03  0.73291057278E+03  0.93203195603E+02 0.  0.
         13    1    3    3    0    0  0.11972141476E+03 -0.32481508615E+03 -0.32937517781E+03  0.47783476757E+03  0.00000000000E+00 0.  1.
        -13    1    3    3    0    0 -0.30510545972E+01 -0.18573840936E+03 -0.17480160398E+03  0.25507580521E+03  0.00000000000E+00 0. -1.
         22    1    1    2    0    0 -0.11667036017E+03  0.51055349552E+03 -0.23251373621E+04  0.23833884697E+04  0.00000000000E+00 0.  1.
<mgrwt>
<rscale>  0 0.13062546E+04</rscale>
<asrwt>0</asrwt>
<pdfrwt beam="1">  1        2 0.45735480E+00 0.13062546E+04</pdfrwt>
<pdfrwt beam="2">  1       -2 0.22075764E-01 0.13062546E+04</pdfrwt>
<totfact> 0.32182798E+01</totfact>
</mgrwt>
</event>
<event>
 6    1  0.1878398E-004  0.1104778E+04  0.7818608E-02  0.9200547E-01
         -2   -1    0    0    0  501 -0.00000000000E+00  0.00000000000E+00  0.11244462123E+03  0.11244462123E+03  0.00000000000E+00 0. -1.
          2   -1    0    0  501    0  0.00000000000E+00 -0.00000000000E+00 -0.27136348485E+04  0.27136348485E+04  0.00000000000E+00 0.  1.
         23    2    1    2    0    0 -0.12321452282E+02  0.39794616879E+03 -0.22747645128E+04  0.23112331640E+04  0.93446124794E+02 0.  0.
         13    1    3    3    0    0  0.16898291291E+02  0.31411515084E+03 -0.15977008244E+04  0.16283739756E+04  0.00000000000E+00 0. -1.
        -13    1    3    3    0    0 -0.29219743573E+02  0.83831017946E+02 -0.67706368840E+03  0.68285918837E+03  0.00000000000E+00 0.  1.
         22    1    1    2    0    0  0.12321452282E+02 -0.39794616879E+03 -0.32642571442E+03  0.51484630568E+03  0.00000000000E+00 0. -1.
<mgrwt>
<rscale>  0 0.11047781E+04</rscale>
<asrwt>0</asrwt>
<pdfrwt beam="1">  1        2 0.41748225E+00 0.11047781E+04</pdfrwt>
<pdfrwt beam="2">  1       -2 0.17299174E-01 0.11047781E+04</pdfrwt>
<totfact> 0.72083292E+01</totfact>
</mgrwt>
</event>
<event>
 6    1  0.1878398E-004  0.2866675E+04  0.7818608E-02  0.8282862E-01
         -2   -1    0    0    0  501 -0.00000000000E+00  0.00000000000E+00  0.16189037164E+04  0.16189037164E+04  0.00000000000E+00 0. -1.
          2   -1    0    0  501    0  0.00000000000E+00 -0.00000000000E+00 -0.12690414080E+04  0.12690414080E+04  0.00000000000E+00 0.  1.
         23    2    1    2    0    0 -0.10322923711E+03 -0.11946988041E+04 -0.61326125571E+03  0.13499046478E+04  0.90507913316E+02 0.  0.
         13    1    3    3    0    0 -0.42689743299E+02 -0.88291127698E+03 -0.47528486081E+03  0.10036186707E+04  0.00000000000E+00 0.  1.
        -13    1    3    3    0    0 -0.60539493815E+02 -0.31178752714E+03 -0.13797639490E+03  0.34628597711E+03  0.00000000000E+00 0. -1.
         22    1    1    2    0    0  0.10322923711E+03  0.11946988041E+04  0.96312356409E+03  0.15380404766E+04  0.00000000000E+00 0. -1.
<mgrwt>
<rscale>  0 0.28666746E+04</rscale>
<asrwt>0</asrwt>
<pdfrwt beam="1">  1        2 0.19523714E+00 0.28666746E+04</pdfrwt>
<pdfrwt beam="2">  1       -2 0.24906211E+00 0.28666746E+04</pdfrwt>
<totfact> 0.97141301E-01</totfact>
</mgrwt>
</event>
<event>
 6    1  0.1916277E-004  0.2777414E+04  0.7818608E-02  0.8310315E-01
         -2   -1    0    0    0  501 -0.00000000000E+00  0.00000000000E+00  0.18405445461E+04  0.18405445461E+04  0.00000000000E+00 0. -1.
          2   -1    0    0  501    0  0.00000000000E+00 -0.00000000000E+00 -0.10477913863E+04  0.10477913863E+04  0.00000000000E+00 0.  1.
         23    2    1    2    0    0 -0.45174924960E+03 -0.12854523795E+04  0.66889365652E+03  0.15201961804E+04  0.84335631553E+02 0.  0.
         11    1    3    3    0    0 -0.28856714506E+03 -0.78013351497E+03  0.45124165286E+03  0.94630773412E+03  0.00000000000E+00 0. -1.
        -11    1    3    3    0    0 -0.16318210453E+03 -0.50531886454E+03  0.21765200366E+03  0.57388844630E+03  0.00000000000E+00 0.  1.
         22    1    1    2    0    0  0.45174924960E+03  0.12854523795E+04  0.12385950329E+03  0.13681397520E+04  0.00000000000E+00 0. -1.
<mgrwt>
<rscale>  0 0.27774137E+04</rscale>
<asrwt>0</asrwt>
<pdfrwt beam="1">  1        2 0.16119867E+00 0.27774137E+04</pdfrwt>
<pdfrwt beam="2">  1       -2 0.28316070E+00 0.27774137E+04</pdfrwt>
<totfact> 0.82467490E-01</totfact>
</mgrwt>
</event>
<event>
 6    1  0.1878398E-004  0.2716077E+04  0.7818608E-02  0.8329807E-01
         -2   -1    0    0    0  501 -0.00000000000E+00  0.00000000000E+00  0.55656626022E+03  0.55656626022E+03  0.00000000000E+00 0. -1.
          2   -1    0    0  501    0  0.00000000000E+00 -0.00000000000E+00 -0.33136550729E+04  0.33136550729E+04  0.00000000000E+00 0.  1.
         23    2    1    2    0    0  0.50258518849E+03  0.70685450361E+03  0.10735398763E+03  0.87735185431E+03  0.77370773767E+02 0.  0.
         13    1    3    3    0    0  0.23946635662E+03  0.37448309451E+03  0.22783159984E+02  0.44508515636E+03  0.00000000000E+00 0.  1.
        -13    1    3    3    0    0  0.26311883187E+03  0.33237140910E+03  0.84570827648E+02  0.43226669795E+03  0.00000000000E+00 0. -1.
         22    1    1    2    0    0 -0.50258518849E+03 -0.70685450361E+03 -0.28644428003E+04  0.29928694788E+04  0.00000000000E+00 0.  1.
<mgrwt>
<rscale>  0 0.27160770E+04</rscale>
<asrwt>0</asrwt>
<pdfrwt beam="1">  1        2 0.50979308E+00 0.27160770E+04</pdfrwt>
<pdfrwt beam="2">  1       -2 0.85625579E-01 0.27160770E+04</pdfrwt>
<totfact> 0.11321884E+00</totfact>
</mgrwt>
</event>
<event>
 6    1  0.1878398E-004  0.1760900E+04  0.7818608E-02  0.8727373E-01
         -2   -1    0    0    0  501 -0.00000000000E+00  0.00000000000E+00  0.19111581032E+03  0.19111581032E+03  0.00000000000E+00 0. -1.
          2   -1    0    0  501    0  0.00000000000E+00 -0.00000000000E+00 -0.40561365381E+04  0.40561365381E+04  0.00000000000E+00 0.  1.
         23    2    1    2    0    0 -0.80612376045E+03 -0.13785338525E+03 -0.11664115845E+04  0.14274420035E+04  0.90750294783E+02 0.  0.
         13    1    3    3    0    0 -0.40125450944E+03 -0.22823970677E+02 -0.56192749406E+03  0.69086078450E+03  0.00000000000E+00 0. -1.
        -13    1    3    3    0    0 -0.40486925101E+03 -0.11502941457E+03 -0.60448409042E+03  0.73658121901E+03  0.00000000000E+00 0.  1.
         22    1    1    2    0    0  0.80612376045E+03  0.13785338525E+03 -0.26986091433E+04  0.28198103449E+04  0.00000000000E+00 0.  1.
<mgrwt>
<rscale>  0 0.17608996E+04</rscale>
<asrwt>0</asrwt>
<pdfrwt beam="1">  1        2 0.62402098E+00 0.17608996E+04</pdfrwt>
<pdfrwt beam="2">  1       -2 0.29402434E-01 0.17608996E+04</pdfrwt>
<totfact> 0.31550139E+00</totfact>
</mgrwt>
</event>
<event>
 6    1  0.1878398E-004  0.1383007E+04  0.7818608E-02  0.8966212E-01
          1   -1    0    0  501    0  0.00000000000E+00  0.00000000000E+00  0.77815096165E+03  0.77815096165E+03  0.00000000000E+00 0.  1.
         -1   -1    0    0    0  501 -0.00000000000E+00 -0.00000000000E+00 -0.61450416326E+03  0.61450416326E+03  0.00000000000E+00 0. -1.
         23    2    1    2    0    0 -0.68639708161E+03  0.25374497695E+02  0.12985172552E+03  0.70495829801E+03  0.91213554574E+02 0.  0.
         13    1    3    3    0    0 -0.41383488716E+03  0.19652593565E+02  0.12329103453E+03  0.43225711961E+03  0.00000000000E+00 0. -1.
        -13    1    3    3    0    0 -0.27256219446E+03  0.57219041296E+01  0.65606909872E+01  0.27270117840E+03  0.00000000000E+00 0.  1.
         22    1    1    2    0    0  0.68639708161E+03 -0.25374497695E+02  0.33795072864E+02  0.68769682690E+03  0.00000000000E+00 0. -1.
<mgrwt>
<rscale>  0 0.13830069E+04</rscale>
<asrwt>0</asrwt>
<pdfrwt beam="1">  1        1 0.11971553E+00 0.13830069E+04</pdfrwt>
<pdfrwt beam="2">  1       -1 0.94539102E-01 0.13830069E+04</pdfrwt>
<totfact> 0.24436619E+01</totfact>
</mgrwt>
</event>
<event>
 6    1  0.1878398E-004  0.1162685E+04  0.7818608E-02  0.9146160E-01
         -2   -1    0    0    0  501 -0.00000000000E+00  0.00000000000E+00  0.25527645455E+03  0.25527645455E+03  0.00000000000E+00 0. -1.
          2   -1    0    0  501    0  0.00000000000E+00 -0.00000000000E+00 -0.13238941979E+04  0.13238941979E+04  0.00000000000E+00 0.  1.
         23    2    1    2    0    0  0.37261625865E+03  0.24301684982E+03 -0.10390139046E+04  0.11333271230E+04  0.83548837216E+02 0.  0.
         13    1    3    3    0    0  0.15402711153E+03  0.12761984624E+03 -0.55307164425E+03  0.58813214494E+03  0.00000000000E+00 0.  1.
        -13    1    3    3    0    0  0.21858914711E+03  0.11539700359E+03 -0.48594226037E+03  0.54519497804E+03  0.00000000000E+00 0. -1.
         22    1    1    2    0    0 -0.37261625865E+03 -0.24301684982E+03 -0.29603838734E+02  0.44584352947E+03  0.00000000000E+00 0. -1.
<mgrwt>
<rscale>  0 0.11626849E+04</rscale>
<asrwt>0</asrwt>
<pdfrwt beam="1">  1        2 0.20367603E+00 0.11626849E+04</pdfrwt>
<pdfrwt beam="2">  1       -2 0.39273301E-01 0.11626849E+04</pdfrwt>
<totfact> 0.97007876E+01</totfact>
</mgrwt>
</event>
<event>
 6    1  0.1878398E-004  0.2605495E+04  0.7818608E-02  0.8366337E-01
          1   -1    0    0  501    0  0.00000000000E+00  0.00000000000E+00  0.86817643836E+03  0.86817643836E+03  0.00000000000E+00 0.  1.
         -1   -1    0    0    0  501 -0.00000000000E+00 -0.00000000000E+00 -0.19548458090E+04  0.19548458090E+04  0.00000000000E+00 0. -1.
         23    2    1    2    0    0  0.27245965044E+03 -0.35918554307E+03 -0.18664120930E+04  0.19223296092E+04  0.92782057490E+02 0.  0.
         13    1    3    3    0    0  0.18003755818E+02 -0.63324572843E+02 -0.37355516125E+03  0.37931200251E+03  0.00000000000E+00 0.  1.
        -13    1    3    3    0    0  0.25445589462E+03 -0.29586097023E+03 -0.14928569317E+04  0.15430176067E+04  0.00000000000E+00 0. -1.
         22    1    1    2    0    0 -0.27245965044E+03  0.35918554307E+03  0.77974272230E+03  0.90069263817E+03  0.00000000000E+00 0.  1.
<mgrwt>
<rscale>  0 0.26054950E+04</rscale>
<asrwt>0</asrwt>
<pdfrwt beam="1">  1        1 0.13356561E+00 0.26054950E+04</pdfrwt>
<pdfrwt beam="2">  1       -1 0.30074551E+00 0.26054950E+04</pdfrwt>
<totfact> 0.55592653E-01</totfact>
</mgrwt>
</event>
<event>
 6    1  0.1878398E-004  0.5370175E+03  0.7818608E-02  0.1004544E+00
          2   -1    0    0  501    0  0.00000000000E+00  0.00000000000E+00  0.11560618267E+04  0.11560618267E+04  0.00000000000E+00 0. -1.
         -2   -1    0    0    0  501 -0.00000000000E+00 -0.00000000000E+00 -0.62364258603E+02  0.62364258603E+02  0.00000000000E+00 0.  1.
         23    2    1    2    0    0  0.22731576285E+03  0.78421562488E+01  0.27428522979E+03  0.36803174405E+03  0.92092463853E+02 0.  0.
         11    1    3    3    0    0  0.14890518724E+03 -0.30934815942E+02  0.13393470577E+03  0.20265296207E+03  0.00000000000E+00 0.  1.
        -11    1    3    3    0    0  0.78410575602E+02  0.38776972191E+02  0.14035052402E+03  0.16537878199E+03  0.00000000000E+00 0. -1.
         22    1    1    2    0    0 -0.22731576285E+03 -0.78421562488E+01  0.81941233829E+03  0.85039434123E+03  0.00000000000E+00 0. -1.
<mgrwt>
<rscale>  0 0.53701746E+03</rscale>
<asrwt>0</asrwt>
<pdfrwt beam="1">  1        2 0.17785565E+00 0.53701746E+03</pdfrwt>
<pdfrwt beam="2">  1       -2 0.95945022E-02 0.53701746E+03</pdfrwt>
<totfact> 0.14938579E+03</totfact>
</mgrwt>
</event>
<event>
 6    1  0.1878398E-004  0.1017572E+04  0.7818608E-02  0.9289480E-01
          2   -1    0    0  501    0  0.00000000000E+00  0.00000000000E+00  0.14470948361E+04  0.14470948361E+04  0.00000000000E+00 0.  1.
         -2   -1    0    0    0  501 -0.00000000000E+00 -0.00000000000E+00 -0.17888460297E+03  0.17888460297E+03  0.00000000000E+00 0. -1.
         23    2    1    2    0    0 -0.23906807652E+03  0.39173906135E+03  0.97488296814E+03  0.10813199842E+04  0.90791349944E+02 0.  0.
         13    1    3    3    0    0 -0.55018517667E+02  0.17357195758E+03  0.39889795174E+03  0.43849040770E+03  0.00000000000E+00 0. -1.
        -13    1    3    3    0    0 -0.18404955885E+03  0.21816710378E+03  0.57598501640E+03  0.64282957648E+03  0.00000000000E+00 0.  1.
         22    1    1    2    0    0  0.23906807652E+03 -0.39173906135E+03  0.29332726495E+03  0.54465945486E+03  0.00000000000E+00 0. -1.
<mgrwt>
<rscale>  0 0.10175716E+04</rscale>
<asrwt>0</asrwt>
<pdfrwt beam="1">  1        2 0.22262997E+00 0.10175716E+04</pdfrwt>
<pdfrwt beam="2">  1       -2 0.27520709E-01 0.10175716E+04</pdfrwt>
<totfact> 0.16310615E+02</totfact>
</mgrwt>
</event>
<event>
 6    1  0.1878398E-004  0.3288513E+04  0.7818608E-02  0.8165824E-01
          2   -1    0    0  501    0  0.00000000000E+00  0.00000000000E+00  0.26164545938E+04  0.26164545938E+04  0.00000000000E+00 0. -1.
         -2   -1    0    0    0  501 -0.00000000000E+00 -0.00000000000E+00 -0.10332986322E+04  0.10332986322E+04  0.00000000000E+00 0.  1.
         23    2    1    2    0    0 -0.16266195662E+03 -0.13108021435E+04  0.18767783486E+04  0.22966548269E+04  0.87551430859E+02 0.  0.
         13    1    3    3    0    0 -0.11062744398E+03 -0.87824067372E+03  0.11849566877E+04  0.14790765579E+04  0.00000000000E+00 0.  1.
        -13    1    3    3    0    0 -0.52034512647E+02 -0.43256146975E+03  0.69182166082E+03  0.81757826904E+03  0.00000000000E+00 0. -1.
         22    1    1    2    0    0  0.16266195662E+03  0.13108021435E+04 -0.29362238691E+03  0.13530983991E+04  0.00000000000E+00 0.  1.
<mgrwt>
<rscale>  0 0.32885127E+04</rscale>
<asrwt>0</asrwt>
<pdfrwt beam="1">  1        2 0.40253148E+00 0.32885127E+04</pdfrwt>
<pdfrwt beam="2">  1       -2 0.15896902E+00 0.32885127E+04</pdfrwt>
<totfact> 0.63766382E-01</totfact>
</mgrwt>
</event>
<event>
 6    1  0.1878398E-004  0.3512502E+04  0.7818608E-02  0.8110833E-01
          2   -1    0    0  501    0  0.00000000000E+00  0.00000000000E+00  0.95692696481E+03  0.95692696481E+03  0.00000000000E+00 0.  1.
         -2   -1    0    0    0  501 -0.00000000000E+00 -0.00000000000E+00 -0.32232530414E+04  0.32232530414E+04  0.00000000000E+00 0. -1.
         23    2    1    2    0    0 -0.58472747168E+03  0.29934150710E+03 -0.30707439049E+04  0.31416235096E+04  0.93907362231E+02 0.  0.
         11    1    3    3    0    0 -0.22902362364E+03  0.16405733403E+03 -0.12102587343E+04  0.12426153198E+04  0.00000000000E+00 0.  1.
        -11    1    3    3    0    0 -0.35570384805E+03  0.13528417307E+03 -0.18604851706E+04  0.18990081898E+04  0.00000000000E+00 0. -1.
         22    1    1    2    0    0  0.58472747168E+03 -0.29934150710E+03  0.80441782833E+03  0.10385564966E+04  0.00000000000E+00 0.  1.
<mgrwt>
<rscale>  0 0.35125021E+04</rscale>
<asrwt>0</asrwt>
<pdfrwt beam="1">  1        2 0.14721953E+00 0.35125021E+04</pdfrwt>
<pdfrwt beam="2">  1       -2 0.49588508E+00 0.35125021E+04</pdfrwt>
<totfact> 0.38545084E-02</totfact>
</mgrwt>
</event>
<event>
 6    1  0.1878398E-004  0.1508938E+04  0.7818608E-02  0.8878531E-01
          1   -1    0    0  501    0  0.00000000000E+00  0.00000000000E+00  0.22206691718E+04  0.22206691718E+04  0.00000000000E+00 0.  1.
         -1   -1    0    0    0  501 -0.00000000000E+00 -0.00000000000E+00 -0.25632986057E+03  0.25632986057E+03  0.00000000000E+00 0. -1.
         23    2    1    2    0    0 -0.19843074910E+03 -0.28346138192E+03  0.20811847431E+04  0.21117895415E+04  0.92736267477E+02 0.  0.
         13    1    3    3    0    0 -0.29832723191E+02 -0.24695770254E+02  0.44714713993E+03  0.44882116392E+03  0.00000000000E+00 0. -1.
        -13    1    3    3    0    0 -0.16859802591E+03 -0.25876561167E+03  0.16340376032E+04  0.16629683776E+04  0.00000000000E+00 0.  1.
         22    1    1    2    0    0  0.19843074910E+03  0.28346138192E+03 -0.11684543193E+03  0.36520949083E+03  0.00000000000E+00 0. -1.
<mgrwt>
<rscale>  0 0.15089385E+04</rscale>
<asrwt>0</asrwt>
<pdfrwt beam="1">  1        1 0.34164140E+00 0.15089385E+04</pdfrwt>
<pdfrwt beam="2">  1       -1 0.39435365E-01 0.15089385E+04</pdfrwt>
<totfact> 0.12760942E+01</totfact>
</mgrwt>
</event>
<event>
 6    1  0.1878398E-004  0.8698785E+03  0.7818608E-02  0.9464038E-01
         -1   -1    0    0    0  501 -0.00000000000E+00  0.00000000000E+00  0.46854503314E+03  0.46854503314E+03  0.00000000000E+00 0. -1.
          1   -1    0    0  501    0  0.00000000000E+00 -0.00000000000E+00 -0.40374378162E+03  0.40374378162E+03  0.00000000000E+00 0.  1.
         23    2    1    2    0    0 -0.29117423215E+03  0.26007576446E+03 -0.14718750681E+03  0.42803542941E+03  0.95542293999E+02 0.  0.
         13    1    3    3    0    0 -0.16622494814E+03  0.20201829678E+03 -0.11897767145E+03  0.28739835059E+03  0.00000000000E+00 0. -1.
        -13    1    3    3    0    0 -0.12494928402E+03  0.58057467682E+02 -0.28209835359E+02  0.14063707883E+03  0.00000000000E+00 0.  1.
         22    1    1    2    0    0  0.29117423215E+03 -0.26007576446E+03  0.21198875833E+03  0.44425338534E+03  0.00000000000E+00 0. -1.
<mgrwt>
<rscale>  0 0.86987848E+03</rscale>
<asrwt>0</asrwt>
<pdfrwt beam="1">  1        1 0.62114428E-01 0.86987848E+03</pdfrwt>
<pdfrwt beam="2">  1       -1 0.72083851E-01 0.86987848E+03</pdfrwt>
<totfact> 0.11619616E+02</totfact>
</mgrwt>
</event>
<event>
 6    1  0.1878398E-004  0.4281995E+04  0.7818608E-02  0.7949956E-01
          2   -1    0    0  501    0  0.00000000000E+00  0.00000000000E+00  0.23521743876E+04  0.23521743876E+04  0.00000000000E+00 0.  1.
         -2   -1    0    0    0  501 -0.00000000000E+00 -0.00000000000E+00 -0.19487797800E+04  0.19487797800E+04  0.00000000000E+00 0. -1.
         23    2    1    2    0    0 -0.33201118561E+03  0.12699375247E+04 -0.14959131488E+04  0.19922006733E+04  0.90192183163E+02 0.  0.
         11    1    3    3    0    0 -0.10415200379E+03  0.47654505692E+03 -0.49754385834E+03  0.69677307794E+03  0.00000000000E+00 0.  1.
        -11    1    3    3    0    0 -0.22785918182E+03  0.79339246775E+03 -0.99836929045E+03  0.12954275953E+04  0.00000000000E+00 0. -1.
         22    1    1    2    0    0  0.33201118561E+03 -0.12699375247E+04  0.18993077564E+04  0.23087534943E+04  0.00000000000E+00 0.  1.
<mgrwt>
<rscale>  0 0.42819948E+04</rscale>
<asrwt>0</asrwt>
<pdfrwt beam="1">  1        2 0.36187298E+00 0.42819948E+04</pdfrwt>
<pdfrwt beam="2">  1       -2 0.29981227E+00 0.42819948E+04</pdfrwt>
<totfact> 0.10405331E-01</totfact>
</mgrwt>
</event>
<event>
 6    1  0.1878398E-004  0.2364741E+04  0.7818608E-02  0.8452823E-01
         -2   -1    0    0    0  501 -0.00000000000E+00  0.00000000000E+00  0.11433028894E+04  0.11433028894E+04  0.00000000000E+00 0.  1.
          2   -1    0    0  501    0  0.00000000000E+00 -0.00000000000E+00 -0.12227732249E+04  0.12227732249E+04  0.00000000000E+00 0. -1.
         23    2    1    2    0    0  0.10267278539E+04 -0.48109553589E+03 -0.36896513550E+03  0.11958495380E+04  0.91092512185E+02 0.  0.
         11    1    3    3    0    0  0.29829736619E+03 -0.13324132248E+03 -0.14974744938E+03  0.35938679342E+03  0.00000000000E+00 0. -1.
        -11    1    3    3    0    0  0.72843048771E+03 -0.34785421341E+03 -0.21921768611E+03  0.83646274460E+03  0.00000000000E+00 0.  1.
         22    1    1    2    0    0 -0.10267278539E+04  0.48109553589E+03  0.28949480007E+03  0.11702265763E+04  0.00000000000E+00 0.  1.
<mgrwt>
<rscale>  0 0.23647411E+04</rscale>
<asrwt>0</asrwt>
<pdfrwt beam="1">  1        2 0.18811896E+00 0.23647411E+04</pdfrwt>
<pdfrwt beam="2">  1       -2 0.17589275E+00 0.23647411E+04</pdfrwt>
<totfact> 0.32062634E+00</totfact>
</mgrwt>
</event>
<event>
 6    1  0.1878398E-004  0.2807050E+04  0.7818608E-02  0.8301083E-01
         -2   -1    0    0    0  501 -0.00000000000E+00  0.00000000000E+00  0.63111557129E+03  0.63111557129E+03  0.00000000000E+00 0. -1.
          2   -1    0    0  501    0  0.00000000000E+00 -0.00000000000E+00 -0.31212714193E+04  0.31212714193E+04  0.00000000000E+00 0.  1.
         23    2    1    2    0    0 -0.28789924610E+03 -0.84117507547E+03 -0.26955951038E+04  0.28398812255E+04  0.90724460674E+02 0.  0.
         13    1    3    3    0    0 -0.16521328602E+03 -0.59824187593E+03 -0.19316460582E+04  0.20289024782E+04  0.00000000000E+00 0.  1.
        -13    1    3    3    0    0 -0.12268596009E+03 -0.24293319954E+03 -0.76394904556E+03  0.81097874723E+03  0.00000000000E+00 0. -1.
         22    1    1    2    0    0  0.28789924610E+03  0.84117507547E+03  0.20543925580E+03  0.91250576509E+03  0.00000000000E+00 0. -1.
<mgrwt>
<rscale>  0 0.28070504E+04</rscale>
<asrwt>0</asrwt>
<pdfrwt beam="1">  1        2 0.48019560E+00 0.28070504E+04</pdfrwt>
<pdfrwt beam="2">  1       -2 0.97094704E-01 0.28070504E+04</pdfrwt>
<totfact> 0.11226151E+00</totfact>
</mgrwt>
</event>
<event>
 6    1  0.1878398E-004  0.3068623E+04  0.7818608E-02  0.8224402E-01
          2   -1    0    0  501    0  0.00000000000E+00  0.00000000000E+00  0.21826337114E+04  0.21826337114E+04  0.00000000000E+00 0.  1.
         -2   -1    0    0    0  501 -0.00000000000E+00 -0.00000000000E+00 -0.10785644669E+04  0.10785644669E+04  0.00000000000E+00 0. -1.
         23    2    1    2    0    0  0.21958197488E+03  0.84085133967E+03 -0.78938895622E+03  0.11778280295E+04  0.94322446138E+02 0.  0.
         11    1    3    3    0    0  0.11718593760E+03  0.31270756128E+03 -0.26191914378E+03  0.42440570299E+03  0.00000000000E+00 0.  1.
        -11    1    3    3    0    0  0.10239603727E+03  0.52814377839E+03 -0.52746981244E+03  0.75342232654E+03  0.00000000000E+00 0. -1.
         22    1    1    2    0    0 -0.21958197488E+03 -0.84085133967E+03  0.18934582007E+04  0.20833701488E+04  0.00000000000E+00 0.  1.
<mgrwt>
<rscale>  0 0.30686226E+04</rscale>
<asrwt>0</asrwt>
<pdfrwt beam="1">  1        2 0.33578980E+00 0.30686226E+04</pdfrwt>
<pdfrwt beam="2">  1       -2 0.16593299E+00 0.30686226E+04</pdfrwt>
<totfact> 0.10247197E+00</totfact>
</mgrwt>
</event>
<event>
 6    1  0.1878398E-004  0.2606984E+04  0.7818608E-02  0.8365833E-01
          1   -1    0    0  501    0  0.00000000000E+00  0.00000000000E+00  0.39447749159E+04  0.39447749159E+04  0.00000000000E+00 0.  1.
         -1   -1    0    0    0  501 -0.00000000000E+00 -0.00000000000E+00 -0.43071937432E+03  0.43071937432E+03  0.00000000000E+00 0. -1.
         23    2    1    2    0    0  0.89762474852E+03 -0.89198973613E+03  0.22726956841E+04  0.26028267596E+04  0.90474246251E+02 0.  0.
         13    1    3    3    0    0  0.64212081133E+03 -0.57914338300E+03  0.15596767976E+04  0.17833445846E+04  0.00000000000E+00 0. -1.
        -13    1    3    3    0    0  0.25550393719E+03 -0.31284635313E+03  0.71301888651E+03  0.81948217497E+03  0.00000000000E+00 0.  1.
         22    1    1    2    0    0 -0.89762474852E+03  0.89198973613E+03  0.12413598575E+04  0.17726675307E+04  0.00000000000E+00 0. -1.
<mgrwt>
<rscale>  0 0.26069837E+04</rscale>
<asrwt>0</asrwt>
<pdfrwt beam="1">  1        1 0.60688842E+00 0.26069837E+04</pdfrwt>
<pdfrwt beam="2">  1       -1 0.66264522E-01 0.26069837E+04</pdfrwt>
<totfact> 0.21817313E-01</totfact>
</mgrwt>
</event>
<event>
 6    1  0.1878398E-004  0.2395063E+04  0.7818608E-02  0.8441354E-01
          2   -1    0    0  501    0  0.00000000000E+00  0.00000000000E+00  0.18706382051E+04  0.18706382051E+04  0.00000000000E+00 0.  1.
         -2   -1    0    0    0  501 -0.00000000000E+00 -0.00000000000E+00 -0.76662706971E+03  0.76662706971E+03  0.00000000000E+00 0. -1.
         23    2    1    2    0    0 -0.57698058518E+03 -0.10467994388E+04  0.59341467005E+03  0.13374943676E+04  0.89747156934E+02 0.  0.
         13    1    3    3    0    0 -0.67873840595E+02 -0.74156637873E+02  0.41748196261E+02  0.10885300671E+03  0.00000000000E+00 0.  1.
        -13    1    3    3    0    0 -0.50910674459E+03 -0.97264280088E+03  0.55166647379E+03  0.12286413609E+04  0.00000000000E+00 0. -1.
         22    1    1    2    0    0  0.57698058518E+03  0.10467994388E+04  0.51059646531E+03  0.12997709071E+04  0.00000000000E+00 0.  1.
<mgrwt>
<rscale>  0 0.23950632E+04</rscale>
<asrwt>0</asrwt>
<pdfrwt beam="1">  1        2 0.28779049E+00 0.23950632E+04</pdfrwt>
<pdfrwt beam="2">  1       -2 0.11794263E+00 0.23950632E+04</pdfrwt>
<totfact> 0.39311244E+00</totfact>
</mgrwt>
</event>
<event>
 6    1  0.1878398E-004  0.3106346E+04  0.7818608E-02  0.8213998E-01
         -1   -1    0    0    0  501 -0.00000000000E+00  0.00000000000E+00  0.22340218127E+04  0.22340218127E+04  0.00000000000E+00 0. -1.
          1   -1    0    0  501    0  0.00000000000E+00 -0.00000000000E+00 -0.10798225040E+04  0.10798225040E+04  0.00000000000E+00 0.  1.
         23    2    1    2    0    0  0.86749634490E+03 -0.12776612256E+04  0.41514720514E+03  0.16017794442E+04  0.91553646017E+02 0.  0.
         11    1    3    3    0    0  0.20224053699E+03 -0.35964599236E+03  0.89279915362E+02  0.42215800112E+03  0.00000000000E+00 0.  1.
        -11    1    3    3    0    0  0.66525580792E+03 -0.91801523325E+03  0.32586728978E+03  0.11796214431E+04  0.00000000000E+00 0. -1.
         22    1    1    2    0    0 -0.86749634490E+03  0.12776612256E+04  0.73905210362E+03  0.17120648725E+04  0.00000000000E+00 0. -1.
<mgrwt>
<rscale>  0 0.31063464E+04</rscale>
<asrwt>0</asrwt>
<pdfrwt beam="1">  1        1 0.16612654E+00 0.31063464E+04</pdfrwt>
<pdfrwt beam="2">  1       -1 0.34369566E+00 0.31063464E+04</pdfrwt>
<totfact> 0.18938704E-01</totfact>
</mgrwt>
</event>
<event>
 6    1  0.1878398E-004  0.1716135E+04  0.7818608E-02  0.8752215E-01
          1   -1    0    0  501    0  0.00000000000E+00  0.00000000000E+00  0.60098882352E+03  0.60098882352E+03  0.00000000000E+00 0.  1.
         -1   -1    0    0    0  501 -0.00000000000E+00 -0.00000000000E+00 -0.12251135605E+04  0.12251135605E+04  0.00000000000E+00 0. -1.
         23    2    1    2    0    0  0.74335565165E+03  0.42261779028E+03 -0.35201976623E+03  0.92875934114E+03  0.86559669814E+02 0.  0.
         11    1    3    3    0    0  0.59506547885E+03  0.36518570423E+03 -0.31230633105E+03  0.76485212107E+03  0.00000000000E+00 0. -1.
        -11    1    3    3    0    0  0.14829017279E+03  0.57432086051E+02 -0.39713435173E+02  0.16390722006E+03  0.00000000000E+00 0.  1.
         22    1    1    2    0    0 -0.74335565165E+03 -0.42261779028E+03 -0.27210497076E+03  0.89734304288E+03  0.00000000000E+00 0. -1.
<mgrwt>
<rscale>  0 0.17161347E+04</rscale>
<asrwt>0</asrwt>
<pdfrwt beam="1">  1        1 0.92459821E-01 0.17161347E+04</pdfrwt>
<pdfrwt beam="2">  1       -1 0.18847901E+00 0.17161347E+04</pdfrwt>
<totfact> 0.58795846E+00</totfact>
</mgrwt>
</event>
<event>
 6    1  0.1878398E-004  0.9592184E+03  0.7818608E-02  0.9354440E-01
          2   -1    0    0  501    0  0.00000000000E+00  0.00000000000E+00  0.28262139610E+03  0.28262139610E+03  0.00000000000E+00 0.  1.
         -2   -1    0    0    0  501 -0.00000000000E+00 -0.00000000000E+00 -0.81389792771E+03  0.81389792771E+03  0.00000000000E+00 0. -1.
         23    2    1    2    0    0  0.16138899674E+03 -0.13597001210E+03  0.21872914529E+03  0.31738983017E+03  0.91430918388E+02 0.  0.
         13    1    3    3    0    0  0.47071610419E+02 -0.97511991380E+01  0.96377075970E+02  0.10770033967E+03  0.00000000000E+00 0.  1.
        -13    1    3    3    0    0  0.11431738632E+03 -0.12621881296E+03  0.12235206932E+03  0.20968949050E+03  0.00000000000E+00 0. -1.
         22    1    1    2    0    0 -0.16138899674E+03  0.13597001210E+03 -0.75000567691E+03  0.77912949364E+03  0.00000000000E+00 0. -1.
<mgrwt>
<rscale>  0 0.95921837E+03</rscale>
<asrwt>0</asrwt>
<pdfrwt beam="1">  1        2 0.43480215E-01 0.95921837E+03</pdfrwt>
<pdfrwt beam="2">  1       -2 0.12521507E+00 0.95921837E+03</pdfrwt>
<totfact> 0.56019283E+01</totfact>
</mgrwt>
</event>
<event>
 6    1  0.1878398E-004  0.6600246E+04  0.7818608E-02  0.7620129E-01
          1   -1    0    0  501    0  0.00000000000E+00  0.00000000000E+00  0.37130224212E+04  0.37130224212E+04  0.00000000000E+00 0.  1.
         -1   -1    0    0    0  501 -0.00000000000E+00 -0.00000000000E+00 -0.29331393369E+04  0.29331393369E+04  0.00000000000E+00 0. -1.
         23    2    1    2    0    0 -0.58754085550E+03 -0.14822866180E+04  0.32987550845E+04  0.36650388106E+04  0.91359185163E+02 0.  0.
         13    1    3    3    0    0 -0.50660512962E+03 -0.11941165123E+04  0.26388738490E+04  0.29404452372E+04  0.00000000000E+00 0. -1.
        -13    1    3    3    0    0 -0.80935725886E+02 -0.28817010570E+03  0.65988123556E+03  0.72459357338E+03  0.00000000000E+00 0.  1.
         22    1    1    2    0    0  0.58754085550E+03  0.14822866180E+04 -0.25188720002E+04  0.29811229475E+04  0.00000000000E+00 0. -1.
<mgrwt>
<rscale>  0 0.66002461E+04</rscale>
<asrwt>0</asrwt>
<pdfrwt beam="1">  1        1 0.57123422E+00 0.66002461E+04</pdfrwt>
<pdfrwt beam="2">  1       -1 0.45125220E+00 0.66002461E+04</pdfrwt>
<totfact> 0.34192490E-04</totfact>
</mgrwt>
</event>
<event>
 6    1  0.1878398E-004  0.3192782E+04  0.7818608E-02  0.8190726E-01
          1   -1    0    0  501    0  0.00000000000E+00  0.00000000000E+00  0.24867957367E+04  0.24867957367E+04  0.00000000000E+00 0. -1.
         -1   -1    0    0    0  501 -0.00000000000E+00 -0.00000000000E+00 -0.10247986309E+04  0.10247986309E+04  0.00000000000E+00 0.  1.
         23    2    1    2    0    0  0.11090447861E+04  0.91926758267E+03  0.14848500011E+04  0.20709155411E+04  0.94225403098E+02 0.  0.
         11    1    3    3    0    0  0.31232361113E+03  0.26361970611E+03  0.36190159951E+03  0.54590672761E+03  0.00000000000E+00 0.  1.
        -11    1    3    3    0    0  0.79672117501E+03  0.65564787656E+03  0.11229484015E+04  0.15250088135E+04  0.00000000000E+00 0. -1.
         22    1    1    2    0    0 -0.11090447861E+04 -0.91926758267E+03 -0.22852895206E+02  0.14406788265E+04  0.00000000000E+00 0. -1.
<mgrwt>
<rscale>  0 0.31927824E+04</rscale>
<asrwt>0</asrwt>
<pdfrwt beam="1">  1        1 0.38258396E+00 0.31927824E+04</pdfrwt>
<pdfrwt beam="2">  1       -1 0.15766133E+00 0.31927824E+04</pdfrwt>
<totfact> 0.35256479E-01</totfact>
</mgrwt>
</event>
<event>
 6    1  0.1878398E-004  0.1339351E+04  0.7818608E-02  0.8998929E-01
         -2   -1    0    0    0  501 -0.00000000000E+00  0.00000000000E+00  0.23638224948E+03  0.23638224948E+03  0.00000000000E+00 0. -1.
          2   -1    0    0  501    0  0.00000000000E+00 -0.00000000000E+00 -0.18972032557E+04  0.18972032557E+04  0.00000000000E+00 0.  1.
         23    2    1    2    0    0  0.25406866775E+02  0.58332205999E+03 -0.32216464992E+03  0.67313661022E+03  0.91720770863E+02 0.  0.
         13    1    3    3    0    0  0.54176387243E+01  0.55231985366E+03 -0.31398525314E+03  0.63535290253E+03  0.00000000000E+00 0. -1.
        -13    1    3    3    0    0  0.19989228051E+02  0.31002206326E+02 -0.81793967786E+01  0.37783707690E+02  0.00000000000E+00 0.  1.
         22    1    1    2    0    0 -0.25406866775E+02 -0.58332205999E+03 -0.13386563563E+04  0.14604488949E+04  0.00000000000E+00 0. -1.
<mgrwt>
<rscale>  0 0.13393508E+04</rscale>
<asrwt>0</asrwt>
<pdfrwt beam="1">  1        2 0.29187742E+00 0.13393508E+04</pdfrwt>
<pdfrwt beam="2">  1       -2 0.36366501E-01 0.13393508E+04</pdfrwt>
<totfact> 0.53036615E+01</totfact>
</mgrwt>
</event>
<event>
 6    1  0.1878398E-004  0.1407006E+04  0.7818608E-02  0.8948763E-01
          1   -1    0    0  501    0  0.00000000000E+00  0.00000000000E+00  0.28888892883E+03  0.28888892883E+03  0.00000000000E+00 0.  1.
         -1   -1    0    0    0  501 -0.00000000000E+00 -0.00000000000E+00 -0.17131715290E+04  0.17131715290E+04  0.00000000000E+00 0. -1.
         23    2    1    2    0    0 -0.34272767823E+03  0.59393181099E+03 -0.50998406018E+03  0.85918728999E+03  0.88892070027E+02 0.  0.
         13    1    3    3    0    0 -0.10587257381E+03  0.14755578472E+03 -0.93018854543E+02  0.20404464901E+03  0.00000000000E+00 0. -1.
        -13    1    3    3    0    0 -0.23685510442E+03  0.44637602628E+03 -0.41696520563E+03  0.65514264098E+03  0.00000000000E+00 0.  1.
         22    1    1    2    0    0  0.34272767823E+03 -0.59393181099E+03 -0.91429853997E+03  0.11428731678E+04  0.00000000000E+00 0. -1.
<mgrwt>
<rscale>  0 0.14070057E+04</rscale>
<asrwt>0</asrwt>
<pdfrwt beam="1">  1        1 0.44444450E-01 0.14070057E+04</pdfrwt>
<pdfrwt beam="2">  1       -1 0.26356485E+00 0.14070057E+04</pdfrwt>
<totfact> 0.51137878E+00</totfact>
</mgrwt>
</event>
<event>
 6    1  0.1878398E-004  0.2119848E+04  0.7818608E-02  0.8552550E-01
         -2   -1    0    0    0  501 -0.00000000000E+00  0.00000000000E+00  0.33379131952E+03  0.33379131952E+03  0.00000000000E+00 0. -1.
          2   -1    0    0  501    0  0.00000000000E+00 -0.00000000000E+00 -0.33656915536E+04  0.33656915536E+04  0.00000000000E+00 0.  1.
         23    2    1    2    0    0  0.18084425146E+02  0.88302528499E+03 -0.50244257686E+03  0.10202634457E+04  0.91805529854E+02 0.  0.
         13    1    3    3    0    0  0.53146067093E+02  0.50535995311E+03 -0.27017280817E+03  0.57550545865E+03  0.00000000000E+00 0.  1.
        -13    1    3    3    0    0 -0.35061641948E+02  0.37766533188E+03 -0.23226976869E+03  0.44475798710E+03  0.00000000000E+00 0. -1.
         22    1    1    2    0    0 -0.18084425146E+02 -0.88302528499E+03 -0.25294576572E+04  0.26792194273E+04  0.00000000000E+00 0.  1.
<mgrwt>
<rscale>  0 0.21198478E+04</rscale>
<asrwt>0</asrwt>
<pdfrwt beam="1">  1        2 0.51779870E+00 0.21198478E+04</pdfrwt>
<pdfrwt beam="2">  1       -2 0.51352511E-01 0.21198478E+04</pdfrwt>
<totfact> 0.33280760E+00</totfact>
</mgrwt>
</event>
<event>
 6    1  0.1878398E-004  0.3802380E+04  0.7818608E-02  0.8045644E-01
         -1   -1    0    0    0  501 -0.00000000000E+00  0.00000000000E+00  0.16254349216E+04  0.16254349216E+04  0.00000000000E+00 0. -1.
          1   -1    0    0  501    0  0.00000000000E+00 -0.00000000000E+00 -0.22237268550E+04  0.22237268550E+04  0.00000000000E+00 0.  1.
         23    2    1    2    0    0  0.44445952985E+03 -0.55924992414E+03 -0.20817532754E+04  0.22026617600E+04  0.87848607952E+02 0.  0.
         13    1    3    3    0    0  0.24037883517E+03 -0.31374994009E+03 -0.10180536421E+04  0.10920870971E+04  0.00000000000E+00 0.  1.
        -13    1    3    3    0    0  0.20408069469E+03 -0.24549998405E+03 -0.10636996333E+04  0.11105746630E+04  0.00000000000E+00 0. -1.
         22    1    1    2    0    0 -0.44445952985E+03  0.55924992414E+03  0.14834613420E+04  0.16465000166E+04  0.00000000000E+00 0. -1.
<mgrwt>
<rscale>  0 0.38023799E+04</rscale>
<asrwt>0</asrwt>
<pdfrwt beam="1">  1        1 0.34211182E+00 0.38023799E+04</pdfrwt>
<pdfrwt beam="2">  1       -1 0.25006691E+00 0.38023799E+04</pdfrwt>
<totfact> 0.11629496E-01</totfact>
</mgrwt>
</event>
<event>
 6    1  0.1878398E-004  0.2123875E+04  0.7818608E-02  0.8550798E-01
          2   -1    0    0  501    0  0.00000000000E+00  0.00000000000E+00  0.25550951449E+04  0.25550951449E+04  0.00000000000E+00 0.  1.
         -2   -1    0    0    0  501 -0.00000000000E+00 -0.00000000000E+00 -0.44135797931E+03  0.44135797931E+03  0.00000000000E+00 0. -1.
         23    2    1    2    0    0  0.35773292932E+03 -0.99771503113E+03  0.10675056547E+04  0.15071551330E+04  0.92412878780E+02 0.  0.
         13    1    3    3    0    0  0.76102183321E+02 -0.20372823313E+03  0.27420661975E+03  0.34998000742E+03  0.00000000000E+00 0. -1.
        -13    1    3    3    0    0  0.28163074600E+03 -0.79398679801E+03  0.79329903495E+03  0.11571751256E+04  0.00000000000E+00 0.  1.
         22    1    1    2    0    0 -0.35773292932E+03  0.99771503113E+03  0.10462315109E+04  0.14892979911E+04  0.00000000000E+00 0. -1.
<mgrwt>
<rscale>  0 0.21238754E+04</rscale>
<asrwt>0</asrwt>
<pdfrwt beam="1">  1        2 0.39309155E+00 0.21238754E+04</pdfrwt>
<pdfrwt beam="2">  1       -2 0.67901229E-01 0.21238754E+04</pdfrwt>
<totfact> 0.59094383E+00</totfact>
</mgrwt>
</event>
<event>
 6    1  0.1878398E-004  0.2429524E+04  0.7818608E-02  0.8428532E-01
          2   -1    0    0  501    0  0.00000000000E+00  0.00000000000E+00  0.26868525454E+04  0.26868525454E+04  0.00000000000E+00 0.  1.
         -2   -1    0    0    0  501 -0.00000000000E+00 -0.00000000000E+00 -0.54921018676E+03  0.54921018676E+03  0.00000000000E+00 0. -1.
         23    2    1    2    0    0  0.40666649469E+02  0.88230800641E+03 -0.37515323325E+02  0.88841877790E+03  0.88087064294E+02 0.  0.
         13    1    3    3    0    0 -0.19119042594E+02  0.86462410406E+02 -0.16364872346E+02  0.90050514989E+02  0.00000000000E+00 0.  1.
        -13    1    3    3    0    0  0.59785692063E+02  0.79584559600E+03 -0.21150450979E+02  0.79836826291E+03  0.00000000000E+00 0. -1.
         22    1    1    2    0    0 -0.40666649469E+02 -0.88230800641E+03  0.21751576819E+04  0.23476439542E+04  0.00000000000E+00 0.  1.
<mgrwt>
<rscale>  0 0.24295241E+04</rscale>
<asrwt>0</asrwt>
<pdfrwt beam="1">  1        2 0.41336192E+00 0.24295241E+04</pdfrwt>
<pdfrwt beam="2">  1       -2 0.84493877E-01 0.24295241E+04</pdfrwt>
<totfact> 0.29624340E+00</totfact>
</mgrwt>
</event>
<event>
 6    1  0.1878398E-004  0.2884003E+04  0.7818608E-02  0.8277653E-01
         -2   -1    0    0    0  501 -0.00000000000E+00  0.00000000000E+00  0.61989028346E+03  0.61989028346E+03  0.00000000000E+00 0. -1.
          2   -1    0    0  501    0  0.00000000000E+00 -0.00000000000E+00 -0.33544142444E+04  0.33544142444E+04  0.00000000000E+00 0.  1.
         23    2    1    2    0    0  0.10723367016E+04  0.46567711197E+03 -0.20875500186E+03  0.11910923533E+04  0.91439427690E+02 0.  0.
         13    1    3    3    0    0  0.94447058347E+03  0.43784212774E+03 -0.19895791902E+03  0.10598653997E+04  0.00000000000E+00 0.  1.
        -13    1    3    3    0    0  0.12786611815E+03  0.27834984234E+02 -0.97970828390E+01  0.13122695360E+03  0.00000000000E+00 0. -1.
         22    1    1    2    0    0 -0.10723367016E+04 -0.46567711197E+03 -0.25257689591E+04  0.27832121747E+04  0.00000000000E+00 0.  1.
<mgrwt>
<rscale>  0 0.28840033E+04</rscale>
<asrwt>0</asrwt>
<pdfrwt beam="1">  1        2 0.51606373E+00 0.28840033E+04</pdfrwt>
<pdfrwt beam="2">  1       -2 0.95367736E-01 0.28840033E+04</pdfrwt>
<totfact> 0.81686207E-01</totfact>
</mgrwt>
</event>
<event>
 6    1  0.1878398E-004  0.1353928E+04  0.7818608E-02  0.8987860E-01
          2   -1    0    0  501    0  0.00000000000E+00  0.00000000000E+00  0.77224502347E+03  0.77224502347E+03  0.00000000000E+00 0.  1.
         -2   -1    0    0    0  501 -0.00000000000E+00 -0.00000000000E+00 -0.59343873772E+03  0.59343873772E+03  0.00000000000E+00 0. -1.
         23    2    1    2    0    0 -0.39057077129E+02 -0.33002443680E+03  0.68120650165E+03  0.76331546762E+03  0.90369359086E+02 0.  0.
         11    1    3    3    0    0  0.29270167577E+02 -0.79712788845E+02  0.16561769887E+03  0.18611849342E+03  0.00000000000E+00 0.  1.
        -11    1    3    3    0    0 -0.68327244706E+02 -0.25031164795E+03  0.51558880278E+03  0.57719697420E+03  0.00000000000E+00 0. -1.
         22    1    1    2    0    0  0.39057077129E+02  0.33002443680E+03 -0.50240021590E+03  0.60236829357E+03  0.00000000000E+00 0. -1.
<mgrwt>
<rscale>  0 0.13539278E+04</rscale>
<asrwt>0</asrwt>
<pdfrwt beam="1">  1        2 0.11880693E+00 0.13539278E+04</pdfrwt>
<pdfrwt beam="2">  1       -2 0.91298267E-01 0.13539278E+04</pdfrwt>
<totfact> 0.36047094E+01</totfact>
</mgrwt>
</event>
<event>
 6    1  0.1878398E-004  0.1167236E+04  0.7818608E-02  0.9142029E-01
         -2   -1    0    0    0  501 -0.00000000000E+00  0.00000000000E+00  0.21146634540E+03  0.21146634540E+03  0.00000000000E+00 0. -1.
          2   -1    0    0  501    0  0.00000000000E+00 -0.00000000000E+00 -0.16107039601E+04  0.16107039601E+04  0.00000000000E+00 0.  1.
         23    2    1    2    0    0 -0.38599985920E+03  0.29973007568E+03 -0.11915009648E+04  0.12911443878E+04  0.92440637041E+02 0.  0.
         13    1    3    3    0    0 -0.31407569682E+03  0.20674218126E+03 -0.83489727370E+03  0.91566332813E+03  0.00000000000E+00 0. -1.
        -13    1    3    3    0    0 -0.71924162378E+02  0.92987894428E+02 -0.35660369111E+03  0.37548105965E+03  0.00000000000E+00 0.  1.
         22    1    1    2    0    0  0.38599985920E+03 -0.29973007568E+03 -0.20773664986E+03  0.53102591769E+03  0.00000000000E+00 0.  1.
<mgrwt>
<rscale>  0 0.11672355E+04</rscale>
<asrwt>0</asrwt>
<pdfrwt beam="1">  1        2 0.24780060E+00 0.11672355E+04</pdfrwt>
<pdfrwt beam="2">  1       -2 0.32533285E-01 0.11672355E+04</pdfrwt>
<totfact> 0.95719501E+01</totfact>
</mgrwt>
</event>
<event>
 6    1  0.1878398E-004  0.1579193E+04  0.7818608E-02  0.8833433E-01
          1   -1    0    0  501    0  0.00000000000E+00  0.00000000000E+00  0.33855374637E+03  0.33855374637E+03  0.00000000000E+00 0.  1.
         -1   -1    0    0    0  501 -0.00000000000E+00 -0.00000000000E+00 -0.18415480592E+04  0.18415480592E+04  0.00000000000E+00 0. -1.
         23    2    1    2    0    0 -0.19026515784E+02 -0.49970157321E+03 -0.15927487926E+04  0.16720471459E+04  0.93964202523E+02 0.  0.
         13    1    3    3    0    0 -0.10257851391E+02 -0.19211384907E+03 -0.46890317841E+03  0.50683640876E+03  0.00000000000E+00 0. -1.
        -13    1    3    3    0    0 -0.87686643929E+01 -0.30758772414E+03 -0.11238456142E+04  0.11652107372E+04  0.00000000000E+00 0.  1.
         22    1    1    2    0    0  0.19026515784E+02  0.49970157321E+03  0.89754479732E+02  0.50805465966E+03  0.00000000000E+00 0.  1.
<mgrwt>
<rscale>  0 0.15791935E+04</rscale>
<asrwt>0</asrwt>
<pdfrwt beam="1">  1        1 0.52085192E-01 0.15791935E+04</pdfrwt>
<pdfrwt beam="2">  1       -1 0.28331509E+00 0.15791935E+04</pdfrwt>
<totfact> 0.30509875E+00</totfact>
</mgrwt>
</event>
<event>
 6    1  0.1878398E-004  0.2587932E+04  0.7818608E-02  0.8372312E-01
         -2   -1    0    0    0  501 -0.00000000000E+00  0.00000000000E+00  0.11251473316E+04  0.11251473316E+04  0.00000000000E+00 0. -1.
          2   -1    0    0  501    0  0.00000000000E+00 -0.00000000000E+00 -0.14881139479E+04  0.14881139479E+04  0.00000000000E+00 0.  1.
         23    2    1    2    0    0 -0.96538068350E+02 -0.10255501639E+04 -0.97017692779E+03  0.14175284081E+04  0.84087924972E+02 0.  0.
         11    1    3    3    0    0 -0.89074947415E+01 -0.18571069660E+03 -0.13411016034E+03  0.22924515568E+03  0.00000000000E+00 0. -1.
        -11    1    3    3    0    0 -0.87630573609E+02 -0.83983946733E+03 -0.83606676745E+03  0.11882832524E+04  0.00000000000E+00 0.  1.
         22    1    1    2    0    0  0.96538068350E+02  0.10255501639E+04  0.60721031148E+03  0.11957328714E+04  0.00000000000E+00 0. -1.
<mgrwt>
<rscale>  0 0.25879316E+04</rscale>
<asrwt>0</asrwt>
<pdfrwt beam="1">  1        2 0.22894061E+00 0.25879316E+04</pdfrwt>
<pdfrwt beam="2">  1       -2 0.17309959E+00 0.25879316E+04</pdfrwt>
<totfact> 0.23133391E+00</totfact>
</mgrwt>
</event>
<event>
 6    1  0.1878398E-004  0.1206960E+04  0.7818608E-02  0.9106786E-01
          1   -1    0    0  501    0  0.00000000000E+00  0.00000000000E+00  0.19485213105E+04  0.19485213105E+04  0.00000000000E+00 0.  1.
         -1   -1    0    0    0  501 -0.00000000000E+00 -0.00000000000E+00 -0.18690487443E+03  0.18690487443E+03  0.00000000000E+00 0. -1.
         23    2    1    2    0    0  0.47535560188E+03 -0.19437636639E+03  0.34127075580E+03  0.62508616642E+03  0.10257615041E+03 0.  0.
         11    1    3    3    0    0  0.34001478064E+03 -0.13298223139E+03  0.29515945662E+03  0.46948208671E+03  0.00000000000E+00 0.  1.
        -11    1    3    3    0    0  0.13534082125E+03 -0.61394135004E+02  0.46111299182E+02  0.15560407971E+03  0.00000000000E+00 0. -1.
         22    1    1    2    0    0 -0.47535560188E+03  0.19437636639E+03  0.14203456803E+04  0.15103400186E+04  0.00000000000E+00 0.  1.
<mgrwt>
<rscale>  0 0.12069600E+04</rscale>
<asrwt>0</asrwt>
<pdfrwt beam="1">  1        1 0.29977250E+00 0.12069600E+04</pdfrwt>
<pdfrwt beam="2">  1       -1 0.28754597E-01 0.12069600E+04</pdfrwt>
<totfact> 0.35169427E+01</totfact>
</mgrwt>
</event>
<event>
 6    1  0.1878398E-004  0.2939228E+04  0.7818608E-02  0.8261301E-01
          2   -1    0    0  501    0  0.00000000000E+00  0.00000000000E+00  0.27342869730E+04  0.27342869730E+04  0.00000000000E+00 0.  1.
         -2   -1    0    0    0  501 -0.00000000000E+00 -0.00000000000E+00 -0.78988265742E+03  0.78988265742E+03  0.00000000000E+00 0. -1.
         23    2    1    2    0    0 -0.16064647051E+03  0.98382385713E+03 -0.31935424567E+03  0.10506459305E+04  0.90294334028E+02 0.  0.
         11    1    3    3    0    0 -0.10608205561E+03  0.39931828087E+03 -0.11235742440E+03  0.42817365961E+03  0.00000000000E+00 0. -1.
        -11    1    3    3    0    0 -0.54564414899E+02  0.58450557625E+03 -0.20699682126E+03  0.62247227092E+03  0.00000000000E+00 0.  1.
         22    1    1    2    0    0  0.16064647051E+03 -0.98382385713E+03  0.22637585612E+04  0.24735236999E+04  0.00000000000E+00 0.  1.
<mgrwt>
<rscale>  0 0.29392284E+04</rscale>
<asrwt>0</asrwt>
<pdfrwt beam="1">  1        2 0.42065953E+00 0.29392284E+04</pdfrwt>
<pdfrwt beam="2">  1       -2 0.12152041E+00 0.29392284E+04</pdfrwt>
<totfact> 0.11209972E+00</totfact>
</mgrwt>
</event>
<event>
 6    1  0.1878398E-004  0.2500176E+04  0.7818608E-02  0.8402923E-01
          1   -1    0    0  501    0  0.00000000000E+00  0.00000000000E+00  0.11361488064E+04  0.11361488064E+04  0.00000000000E+00 0.  1.
         -1   -1    0    0    0  501 -0.00000000000E+00 -0.00000000000E+00 -0.13754538512E+04  0.13754538512E+04  0.00000000000E+00 0. -1.
         23    2    1    2    0    0  0.11191962425E+04  0.99425460778E+02 -0.66631466460E+03  0.13095948095E+04  0.92615772426E+02 0.  0.
         13    1    3    3    0    0  0.27316998821E+03  0.64425289469E+02 -0.16553735158E+03  0.32584517052E+03  0.00000000000E+00 0.  1.
        -13    1    3    3    0    0  0.84602625431E+03  0.35000171310E+02 -0.50077731303E+03  0.98374963899E+03  0.00000000000E+00 0. -1.
         22    1    1    2    0    0 -0.11191962425E+04 -0.99425460778E+02  0.42700961981E+03  0.12020078481E+04  0.00000000000E+00 0.  1.
<mgrwt>
<rscale>  0 0.25001762E+04</rscale>
<asrwt>0</asrwt>
<pdfrwt beam="1">  1        1 0.17479212E+00 0.25001762E+04</pdfrwt>
<pdfrwt beam="2">  1       -1 0.21160828E+00 0.25001762E+04</pdfrwt>
<totfact> 0.13266591E+00</totfact>
</mgrwt>
</event>
<event>
 6    1  0.1878398E-004  0.2704781E+04  0.7818608E-02  0.8333455E-01
          2   -1    0    0  501    0  0.00000000000E+00  0.00000000000E+00  0.82915196959E+03  0.82915196959E+03  0.00000000000E+00 0.  1.
         -2   -1    0    0    0  501 -0.00000000000E+00 -0.00000000000E+00 -0.22058199612E+04  0.22058199612E+04  0.00000000000E+00 0. -1.
         23    2    1    2    0    0  0.72477842295E+03  0.42845601529E+03 -0.18744419648E+04  0.20568833624E+04  0.91423014694E+02 0.  0.
         13    1    3    3    0    0  0.16586147170E+03  0.14041524619E+03 -0.44304729271E+03  0.49347479443E+03  0.00000000000E+00 0.  1.
        -13    1    3    3    0    0  0.55891695125E+03  0.28804076910E+03 -0.14313946721E+04  0.15634085679E+04  0.00000000000E+00 0. -1.
         22    1    1    2    0    0 -0.72477842295E+03 -0.42845601529E+03  0.49777397315E+03  0.97808856846E+03  0.00000000000E+00 0.  1.
<mgrwt>
<rscale>  0 0.27047809E+04</rscale>
<asrwt>0</asrwt>
<pdfrwt beam="1">  1        2 0.12756184E+00 0.27047809E+04</pdfrwt>
<pdfrwt beam="2">  1       -2 0.33935692E+00 0.27047809E+04</pdfrwt>
<totfact> 0.52253670E-01</totfact>
</mgrwt>
</event>
<event>
 6    1  0.1878398E-004  0.1623211E+04  0.7818608E-02  0.8806414E-01
          1   -1    0    0  501    0  0.00000000000E+00  0.00000000000E+00  0.13126738104E+04  0.13126738104E+04  0.00000000000E+00 0.  1.
         -1   -1    0    0    0  501 -0.00000000000E+00 -0.00000000000E+00 -0.50180279356E+03  0.50180279356E+03  0.00000000000E+00 0. -1.
         23    2    1    2    0    0 -0.50815321024E+03 -0.49786930089E+03 -0.23544451962E+02  0.71796271878E+03  0.93928688316E+02 0.  0.
         11    1    3    3    0    0 -0.30634043805E+03 -0.24545713506E+03  0.12778697763E+02  0.39275560372E+03  0.00000000000E+00 0.  1.
        -11    1    3    3    0    0 -0.20181277219E+03 -0.25241216583E+03 -0.36323149725E+02  0.32520711506E+03  0.00000000000E+00 0. -1.
         22    1    1    2    0    0  0.50815321024E+03  0.49786930089E+03  0.83441546882E+03  0.10965138852E+04  0.00000000000E+00 0. -1.
<mgrwt>
<rscale>  0 0.16232109E+04</rscale>
<asrwt>0</asrwt>
<pdfrwt beam="1">  1        1 0.20194982E+00 0.16232109E+04</pdfrwt>
<pdfrwt beam="2">  1       -1 0.77200430E-01 0.16232109E+04</pdfrwt>
<totfact> 0.14274150E+01</totfact>
</mgrwt>
</event>
<event>
 6    1  0.1878398E-004  0.3390277E+04  0.7818608E-02  0.8140297E-01
         -2   -1    0    0    0  501 -0.00000000000E+00  0.00000000000E+00  0.17861957982E+04  0.17861957982E+04  0.00000000000E+00 0. -1.
          2   -1    0    0  501    0  0.00000000000E+00 -0.00000000000E+00 -0.16087232662E+04  0.16087232662E+04  0.00000000000E+00 0.  1.
         23    2    1    2    0    0  0.12550049229E+04 -0.36417071770E+03 -0.99007988044E+03  0.16425388819E+04  0.10009066398E+03 0.  0.
         13    1    3    3    0    0  0.62229063836E+03 -0.21037986103E+03 -0.44576325877E+03  0.79385780048E+03  0.00000000000E+00 0. -1.
        -13    1    3    3    0    0  0.63271428450E+03 -0.15379085666E+03 -0.54431662167E+03  0.84868108146E+03  0.00000000000E+00 0.  1.
         22    1    1    2    0    0 -0.12550049229E+04  0.36417071770E+03  0.11675524124E+04  0.17523801824E+04  0.00000000000E+00 0. -1.
<mgrwt>
<rscale>  0 0.33902771E+04</rscale>
<asrwt>0</asrwt>
<pdfrwt beam="1">  1        2 0.24749589E+00 0.33902771E+04</pdfrwt>
<pdfrwt beam="2">  1       -2 0.27479935E+00 0.33902771E+04</pdfrwt>
<totfact> 0.41419513E-01</totfact>
</mgrwt>
</event>
<event>
 6    1  0.1878398E-004  0.3493531E+04  0.7818608E-02  0.8115325E-01
         -2   -1    0    0    0  501 -0.00000000000E+00  0.00000000000E+00  0.13642029864E+04  0.13642029864E+04  0.00000000000E+00 0. -1.
          2   -1    0    0  501    0  0.00000000000E+00 -0.00000000000E+00 -0.22366092370E+04  0.22366092370E+04  0.00000000000E+00 0.  1.
         23    2    1    2    0    0 -0.13672693213E+04 -0.35613970372E+03  0.61983103558E+03  0.15458102761E+04  0.95278599079E+02 0.  0.
         13    1    3    3    0    0 -0.51396426868E+03 -0.13326195563E+03  0.18290246351E+03  0.56157931716E+03  0.00000000000E+00 0.  1.
        -13    1    3    3    0    0 -0.85330505260E+03 -0.22287774809E+03  0.43692857207E+03  0.98423095891E+03  0.00000000000E+00 0. -1.
         22    1    1    2    0    0  0.13672693213E+04  0.35613970372E+03 -0.14922372861E+04  0.20550019473E+04  0.00000000000E+00 0.  1.
<mgrwt>
<rscale>  0 0.34935306E+04</rscale>
<asrwt>0</asrwt>
<pdfrwt beam="1">  1        2 0.34409373E+00 0.34935306E+04</pdfrwt>
<pdfrwt beam="2">  1       -2 0.20987738E+00 0.34935306E+04</pdfrwt>
<totfact> 0.46443001E-01</totfact>
</mgrwt>
</event>
<event>
 6    1  0.1878398E-004  0.5565452E+03  0.7818608E-02  0.9999902E-01
          1   -1    0    0  501    0  0.00000000000E+00  0.00000000000E+00  0.81643706814E+02  0.81643706814E+02  0.00000000000E+00 0.  1.
         -1   -1    0    0    0  501 -0.00000000000E+00 -0.00000000000E+00 -0.94845813834E+03  0.94845813834E+03  0.00000000000E+00 0. -1.
         23    2    1    2    0    0  0.25797297935E+03  0.34780206168E+02 -0.58285084751E+03  0.64488108005E+03  0.91633924725E+02 0.  0.
         13    1    3    3    0    0  0.17798789546E+03 -0.12839680065E+02 -0.43482594618E+03  0.47001931002E+03  0.00000000000E+00 0. -1.
        -13    1    3    3    0    0  0.79985083890E+02  0.47619886233E+02 -0.14802490132E+03  0.17486177004E+03  0.00000000000E+00 0.  1.
         22    1    1    2    0    0 -0.25797297935E+03 -0.34780206168E+02 -0.28396358402E+03  0.38522076510E+03  0.00000000000E+00 0.  1.
<mgrwt>
<rscale>  0 0.55654519E+03</rscale>
<asrwt>0</asrwt>
<pdfrwt beam="1">  1        1 0.12560570E-01 0.55654519E+03</pdfrwt>
<pdfrwt beam="2">  1       -1 0.14591664E+00 0.55654519E+03</pdfrwt>
<totfact> 0.18886554E+02</totfact>
</mgrwt>
</event>
<event>
 6    1  0.1878398E-004  0.1076046E+04  0.7818608E-02  0.9228858E-01
         -2   -1    0    0    0  501 -0.00000000000E+00  0.00000000000E+00  0.11940164694E+04  0.11940164694E+04  0.00000000000E+00 0. -1.
          2   -1    0    0  501    0  0.00000000000E+00 -0.00000000000E+00 -0.24243290351E+03  0.24243290351E+03  0.00000000000E+00 0.  1.
         23    2    1    2    0    0  0.22403018635E+02  0.52998025688E+03  0.39117088164E+03  0.66479961777E+03  0.86964965472E+02 0.  0.
         11    1    3    3    0    0 -0.17111163723E+02  0.12894548503E+03  0.60210917144E+02  0.14333556634E+03  0.00000000000E+00 0.  1.
        -11    1    3    3    0    0  0.39514182358E+02  0.40103477185E+03  0.33095996449E+03  0.52146405143E+03  0.00000000000E+00 0. -1.
         22    1    1    2    0    0 -0.22403018635E+02 -0.52998025688E+03  0.56041268426E+03  0.77164975514E+03  0.00000000000E+00 0. -1.
<mgrwt>
<rscale>  0 0.10760462E+04</rscale>
<asrwt>0</asrwt>
<pdfrwt beam="1">  1        2 0.37297371E-01 0.10760462E+04</pdfrwt>
<pdfrwt beam="2">  1       -2 0.18369484E+00 0.10760462E+04</pdfrwt>
<totfact> 0.23673709E+01</totfact>
</mgrwt>
</event>
<event>
 6    1  0.1878398E-004  0.1876984E+04  0.7818608E-02  0.8666399E-01
         -1   -1    0    0    0  501 -0.00000000000E+00  0.00000000000E+00  0.82923662058E+03  0.82923662058E+03  0.00000000000E+00 0. -1.
          1   -1    0    0  501    0  0.00000000000E+00 -0.00000000000E+00 -0.10621417297E+04  0.10621417297E+04  0.00000000000E+00 0.  1.
         23    2    1    2    0    0  0.91323223683E+03  0.52871612940E+02  0.84210896231E+02  0.92320941530E+03  0.91845651133E+02 0.  0.
         13    1    3    3    0    0  0.29847607592E+03  0.22485820183E+02 -0.15289984487E+02  0.29971213461E+03  0.00000000000E+00 0. -1.
        -13    1    3    3    0    0  0.61475616091E+03  0.30385792757E+02  0.99500880718E+02  0.62349728070E+03  0.00000000000E+00 0.  1.
         22    1    1    2    0    0 -0.91323223683E+03 -0.52871612940E+02 -0.31711600539E+03  0.96816893500E+03  0.00000000000E+00 0.  1.
<mgrwt>
<rscale>  0 0.18769836E+04</rscale>
<asrwt>0</asrwt>
<pdfrwt beam="1">  1        1 0.16340642E+00 0.18769836E+04</pdfrwt>
<pdfrwt beam="2">  1       -1 0.12757487E+00 0.18769836E+04</pdfrwt>
<totfact> 0.67540453E+00</totfact>
</mgrwt>
</event>
<event>
 6    1  0.1878398E-004  0.3605138E+04  0.7818608E-02  0.8089316E-01
         -2   -1    0    0    0  501 -0.00000000000E+00  0.00000000000E+00  0.22529727931E+04  0.22529727931E+04  0.00000000000E+00 0. -1.
          2   -1    0    0  501    0  0.00000000000E+00 -0.00000000000E+00 -0.14422081486E+04  0.14422081486E+04  0.00000000000E+00 0.  1.
         23    2    1    2    0    0 -0.16992240743E+04 -0.19866492456E+03 -0.17257509720E+03  0.17219127759E+04  0.91494462312E+02 0.  0.
         11    1    3    3    0    0 -0.58530685048E+03 -0.36479402325E+02 -0.88929289490E+02  0.59314692492E+03  0.00000000000E+00 0.  1.
        -11    1    3    3    0    0 -0.11139172238E+04 -0.16218552224E+03 -0.83645807706E+02  0.11287658509E+04  0.00000000000E+00 0. -1.
         22    1    1    2    0    0  0.16992240743E+04  0.19866492456E+03  0.98333974171E+03  0.19732681659E+04  0.00000000000E+00 0. -1.
<mgrwt>
<rscale>  0 0.36051384E+04</rscale>
<asrwt>0</asrwt>
<pdfrwt beam="1">  1        2 0.22187818E+00 0.36051384E+04</pdfrwt>
<pdfrwt beam="2">  1       -2 0.34661120E+00 0.36051384E+04</pdfrwt>
<totfact> 0.18218438E-01</totfact>
</mgrwt>
</event>
<event>
 6    1  0.1878398E-004  0.2015238E+04  0.7818608E-02  0.8599529E-01
         -2   -1    0    0    0  501 -0.00000000000E+00  0.00000000000E+00  0.81475684412E+03  0.81475684412E+03  0.00000000000E+00 0. -1.
          2   -1    0    0  501    0  0.00000000000E+00 -0.00000000000E+00 -0.12461336427E+04  0.12461336427E+04  0.00000000000E+00 0.  1.
         23    2    1    2    0    0  0.53119007779E+02 -0.75899227797E+03 -0.88856396590E+03  0.11732469700E+04  0.89842218286E+02 0.  0.
         11    1    3    3    0    0  0.71759744219E+02 -0.41435959544E+03 -0.50843936020E+03  0.65981354808E+03  0.00000000000E+00 0. -1.
        -11    1    3    3    0    0 -0.18640736440E+02 -0.34463268252E+03 -0.38012460570E+03  0.51343342195E+03  0.00000000000E+00 0.  1.
         22    1    1    2    0    0 -0.53119007779E+02  0.75899227797E+03  0.45718716730E+03  0.88764351682E+03  0.00000000000E+00 0. -1.
<mgrwt>
<rscale>  0 0.20152379E+04</rscale>
<asrwt>0</asrwt>
<pdfrwt beam="1">  1        2 0.19171287E+00 0.20152379E+04</pdfrwt>
<pdfrwt beam="2">  1       -2 0.12534721E+00 0.20152379E+04</pdfrwt>
<totfact> 0.78574327E+00</totfact>
</mgrwt>
</event>
<event>
 6    1  0.1878398E-004  0.3276491E+04  0.7818608E-02  0.8168903E-01
          2   -1    0    0  501    0  0.00000000000E+00  0.00000000000E+00  0.32917457343E+04  0.32917457343E+04  0.00000000000E+00 0.  1.
         -2   -1    0    0    0  501 -0.00000000000E+00 -0.00000000000E+00 -0.81532691426E+03  0.81532691426E+03  0.00000000000E+00 0. -1.
         23    2    1    2    0    0  0.11602398282E+04 -0.70683547572E+03  0.23839384925E+04  0.27453364555E+04  0.89087983230E+02 0.  0.
         11    1    3    3    0    0  0.23925510466E+03 -0.13473343800E+03  0.41490752713E+03  0.49753830053E+03  0.00000000000E+00 0. -1.
        -11    1    3    3    0    0  0.92098472355E+03 -0.57210203772E+03  0.19690309654E+04  0.22477981549E+04  0.00000000000E+00 0.  1.
         22    1    1    2    0    0 -0.11602398282E+04  0.70683547572E+03  0.92480327537E+02  0.13617361931E+04  0.00000000000E+00 0. -1.
<mgrwt>
<rscale>  0 0.32764914E+04</rscale>
<asrwt>0</asrwt>
<pdfrwt beam="1">  1        2 0.50642241E+00 0.32764914E+04</pdfrwt>
<pdfrwt beam="2">  1       -2 0.12543491E+00 0.32764914E+04</pdfrwt>
<totfact> 0.44818262E-01</totfact>
</mgrwt>
</event>
<event>
 6    1  0.1878398E-004  0.2792873E+04  0.7818608E-02  0.8305484E-01
          2   -1    0    0  501    0  0.00000000000E+00  0.00000000000E+00  0.24987755782E+04  0.24987755782E+04  0.00000000000E+00 0.  1.
         -2   -1    0    0    0  501 -0.00000000000E+00 -0.00000000000E+00 -0.78039630923E+03  0.78039630923E+03  0.00000000000E+00 0. -1.
         23    2    1    2    0    0 -0.10144615489E+04 -0.95566629817E+03  0.79087505059E+03  0.16050469271E+04  0.90895461632E+02 0.  0.
         13    1    3    3    0    0 -0.75959306801E+03 -0.68887462276E+03  0.54068010829E+03  0.11592518511E+04  0.00000000000E+00 0.  1.
        -13    1    3    3    0    0 -0.25486848088E+03 -0.26679167541E+03  0.25019494230E+03  0.44579507599E+03  0.00000000000E+00 0. -1.
         22    1    1    2    0    0  0.10144615489E+04  0.95566629817E+03  0.92750421836E+03  0.16741249603E+04  0.00000000000E+00 0. -1.
<mgrwt>
<rscale>  0 0.27928732E+04</rscale>
<asrwt>0</asrwt>
<pdfrwt beam="1">  1        2 0.38442701E+00 0.27928732E+04</pdfrwt>
<pdfrwt beam="2">  1       -2 0.12006097E+00 0.27928732E+04</pdfrwt>
<totfact> 0.16096393E+00</totfact>
</mgrwt>
</event>
<event>
 6    1  0.1878398E-004  0.2223693E+04  0.7818608E-02  0.8508631E-01
         -2   -1    0    0    0  501 -0.00000000000E+00  0.00000000000E+00  0.42763414593E+03  0.42763414593E+03  0.00000000000E+00 0. -1.
          2   -1    0    0  501    0  0.00000000000E+00 -0.00000000000E+00 -0.28907949558E+04  0.28907949558E+04  0.00000000000E+00 0.  1.
         23    2    1    2    0    0 -0.76171535111E+03  0.31382114285E+03 -0.12340869026E+03  0.83787795993E+03  0.90087652236E+02 0.  0.
         13    1    3    3    0    0 -0.88654079909E+02  0.42986294369E+02 -0.44438422915E+02  0.10808395264E+03  0.00000000000E+00 0. -1.
        -13    1    3    3    0    0 -0.67306127120E+03  0.27083484848E+03 -0.78970267343E+02  0.72979400729E+03  0.00000000000E+00 0.  1.
         22    1    1    2    0    0  0.76171535111E+03 -0.31382114285E+03 -0.23397521196E+04  0.24805511418E+04  0.00000000000E+00 0.  1.
<mgrwt>
<rscale>  0 0.22236930E+04</rscale>
<asrwt>0</asrwt>
<pdfrwt beam="1">  1        2 0.44473769E+00 0.22236930E+04</pdfrwt>
<pdfrwt beam="2">  1       -2 0.65789868E-01 0.22236930E+04</pdfrwt>
<totfact> 0.39527779E+00</totfact>
</mgrwt>
</event>
<event>
 6    1  0.1878398E-004  0.4079667E+04  0.7818608E-02  0.7988665E-01
         -2   -1    0    0    0  501 -0.00000000000E+00  0.00000000000E+00  0.12648199053E+04  0.12648199053E+04  0.00000000000E+00 0. -1.
          2   -1    0    0  501    0  0.00000000000E+00 -0.00000000000E+00 -0.32897339032E+04  0.32897339032E+04  0.00000000000E+00 0.  1.
         23    2    1    2    0    0  0.15986226743E+04  0.98227400820E+03 -0.19034046232E+04  0.26743354143E+04  0.93080967182E+02 0.  0.
         13    1    3    3    0    0  0.16029516077E+03  0.69800241702E+02 -0.16119695370E+03  0.23780468917E+03  0.00000000000E+00 0.  1.
        -13    1    3    3    0    0  0.14383275135E+04  0.91247376649E+03 -0.17422076695E+04  0.24365307251E+04  0.00000000000E+00 0. -1.
         22    1    1    2    0    0 -0.15986226743E+04 -0.98227400820E+03 -0.12150937475E+03  0.18802183943E+04  0.00000000000E+00 0. -1.
<mgrwt>
<rscale>  0 0.40796671E+04</rscale>
<asrwt>0</asrwt>
<pdfrwt beam="1">  1        2 0.50611290E+00 0.40796671E+04</pdfrwt>
<pdfrwt beam="2">  1       -2 0.19458768E+00 0.40796671E+04</pdfrwt>
<totfact> 0.12794289E-01</totfact>
</mgrwt>
</event>
<event>
 6    1  0.1878398E-004  0.3043037E+04  0.7818608E-02  0.8231547E-01
         -2   -1    0    0    0  501 -0.00000000000E+00  0.00000000000E+00  0.17359426809E+04  0.17359426809E+04  0.00000000000E+00 0.  1.
          2   -1    0    0  501    0  0.00000000000E+00 -0.00000000000E+00 -0.13335796917E+04  0.13335796917E+04  0.00000000000E+00 0. -1.
         23    2    1    2    0    0 -0.12494268763E+04 -0.51590401600E+03 -0.50006190092E+03  0.14442238907E+04  0.92175207535E+02 0.  0.
         11    1    3    3    0    0 -0.55988707742E+03 -0.21222411171E+03 -0.17645241293E+03  0.62421796440E+03  0.00000000000E+00 0. -1.
        -11    1    3    3    0    0 -0.68953979884E+03 -0.30367990428E+03 -0.32360948799E+03  0.82000592630E+03  0.00000000000E+00 0.  1.
         22    1    1    2    0    0  0.12494268763E+04  0.51590401600E+03  0.90242489014E+03  0.16252984819E+04  0.00000000000E+00 0.  1.
<mgrwt>
<rscale>  0 0.30430366E+04</rscale>
<asrwt>0</asrwt>
<pdfrwt beam="1">  1        2 0.20516611E+00 0.30430366E+04</pdfrwt>
<pdfrwt beam="2">  1       -2 0.26706810E+00 0.30430366E+04</pdfrwt>
<totfact> 0.68088586E-01</totfact>
</mgrwt>
</event>
<event>
 6    1  0.1878398E-004  0.1638504E+04  0.7818608E-02  0.8797237E-01
          2   -1    0    0  501    0  0.00000000000E+00  0.00000000000E+00  0.21376230611E+04  0.21376230611E+04  0.00000000000E+00 0.  1.
         -2   -1    0    0    0  501 -0.00000000000E+00 -0.00000000000E+00 -0.31398135350E+03  0.31398135350E+03  0.00000000000E+00 0. -1.
         23    2    1    2    0    0 -0.56607949515E+03  0.44344849046E+01  0.17954613886E+04  0.18848065760E+04  0.91370518243E+02 0.  0.
         13    1    3    3    0    0 -0.24030425741E+03  0.29274810674E+02  0.64819075794E+03  0.69192081147E+03  0.00000000000E+00 0. -1.
        -13    1    3    3    0    0 -0.32577523774E+03 -0.24840325770E+02  0.11472706306E+04  0.11928857645E+04  0.00000000000E+00 0.  1.
         22    1    1    2    0    0  0.56607949515E+03 -0.44344849046E+01  0.28180319049E+02  0.56679783862E+03  0.00000000000E+00 0. -1.
<mgrwt>
<rscale>  0 0.16385039E+04</rscale>
<asrwt>0</asrwt>
<pdfrwt beam="1">  1        2 0.32886508E+00 0.16385039E+04</pdfrwt>
<pdfrwt beam="2">  1       -2 0.48304825E-01 0.16385039E+04</pdfrwt>
<totfact> 0.21737520E+01</totfact>
</mgrwt>
</event>
<event>
 6    1  0.1878398E-004  0.1245267E+04  0.7818608E-02  0.9074132E-01
          1   -1    0    0  501    0  0.00000000000E+00  0.00000000000E+00  0.12547301295E+04  0.12547301295E+04  0.00000000000E+00 0. -1.
         -1   -1    0    0    0  501 -0.00000000000E+00 -0.00000000000E+00 -0.30896885670E+03  0.30896885670E+03  0.00000000000E+00 0.  1.
         23    2    1    2    0    0  0.15002377994E+03 -0.57347004140E+03  0.25076502440E+03  0.65024684831E+03  0.92535632826E+02 0.  0.
         13    1    3    3    0    0  0.14972231217E+03 -0.46031203146E+03  0.22693778653E+03  0.53460704824E+03  0.00000000000E+00 0.  1.
        -13    1    3    3    0    0  0.30146777531E+00 -0.11315800994E+03  0.23827237862E+02  0.11563980007E+03  0.00000000000E+00 0. -1.
         22    1    1    2    0    0 -0.15002377994E+03  0.57347004140E+03  0.69499624840E+03  0.91345213789E+03  0.00000000000E+00 0. -1.
<mgrwt>
<rscale>  0 0.12452671E+04</rscale>
<asrwt>0</asrwt>
<pdfrwt beam="1">  1        1 0.19303540E+00 0.12452671E+04</pdfrwt>
<pdfrwt beam="2">  1       -1 0.47533671E-01 0.12452671E+04</pdfrwt>
<totfact> 0.42483051E+01</totfact>
</mgrwt>
</event>
<event>
 6    1  0.1878398E-004  0.4800255E+04  0.7818608E-02  0.7860081E-01
          2   -1    0    0  501    0  0.00000000000E+00  0.00000000000E+00  0.21369931782E+04  0.21369931782E+04  0.00000000000E+00 0.  1.
         -2   -1    0    0    0  501 -0.00000000000E+00 -0.00000000000E+00 -0.26956627825E+04  0.26956627825E+04  0.00000000000E+00 0. -1.
         23    2    1    2    0    0 -0.14929489861E+04  0.14797261743E+04  0.88424286488E+03  0.22830515562E+04  0.10932857896E+03 0.  0.
         11    1    3    3    0    0 -0.96970917893E+03  0.89069792307E+03  0.53447981332E+03  0.14210374213E+04  0.00000000000E+00 0. -1.
        -11    1    3    3    0    0 -0.52323980720E+03  0.58902825118E+03  0.34976305156E+03  0.86201413490E+03  0.00000000000E+00 0.  1.
         22    1    1    2    0    0  0.14929489861E+04 -0.14797261743E+04 -0.14429124691E+04  0.25496044045E+04  0.00000000000E+00 0.  1.
<mgrwt>
<rscale>  0 0.48002554E+04</rscale>
<asrwt>0</asrwt>
<pdfrwt beam="1">  1        2 0.32876818E+00 0.48002554E+04</pdfrwt>
<pdfrwt beam="2">  1       -2 0.41471735E+00 0.48002554E+04</pdfrwt>
<totfact> 0.24638997E-02</totfact>
</mgrwt>
</event>
<event>
 6    1  0.1878398E-004  0.2065207E+04  0.7818608E-02  0.8576727E-01
         -2   -1    0    0    0  501 -0.00000000000E+00  0.00000000000E+00  0.89435157768E+03  0.89435157768E+03  0.00000000000E+00 0. -1.
          2   -1    0    0  501    0  0.00000000000E+00 -0.00000000000E+00 -0.11922265105E+04  0.11922265105E+04  0.00000000000E+00 0.  1.
         23    2    1    2    0    0  0.93358962331E+03  0.43749978741E+03 -0.13776995661E+03  0.10432041129E+04  0.79363792517E+02 0.  0.
         13    1    3    3    0    0  0.22579189314E+03  0.76953262630E+02 -0.10854815374E+02  0.23879198198E+03  0.00000000000E+00 0.  1.
        -13    1    3    3    0    0  0.70779773017E+03  0.36054652477E+03 -0.12691514124E+03  0.80441213096E+03  0.00000000000E+00 0. -1.
         22    1    1    2    0    0 -0.93358962331E+03 -0.43749978741E+03 -0.16010497616E+03  0.10433739752E+04  0.00000000000E+00 0. -1.
<mgrwt>
<rscale>  0 0.20652067E+04</rscale>
<asrwt>0</asrwt>
<pdfrwt beam="1">  1        2 0.18341946E+00 0.20652067E+04</pdfrwt>
<pdfrwt beam="2">  1       -2 0.13759255E+00 0.20652067E+04</pdfrwt>
<totfact> 0.66479521E+00</totfact>
</mgrwt>
</event>
<event>
 6    1  0.1878398E-004  0.5854290E+04  0.7818608E-02  0.7708735E-01
          1   -1    0    0  501    0  0.00000000000E+00  0.00000000000E+00  0.26289319589E+04  0.26289319589E+04  0.00000000000E+00 0.  1.
         -1   -1    0    0    0  501 -0.00000000000E+00 -0.00000000000E+00 -0.32591858410E+04  0.32591858410E+04  0.00000000000E+00 0. -1.
         23    2    1    2    0    0  0.21545936237E+04  0.97789881705E+03 -0.20476255165E+04  0.31299477308E+04  0.72406917144E+02 0.  0.
         11    1    3    3    0    0  0.16304627138E+04  0.77067799060E+03 -0.15426828796E+04  0.23732306448E+04  0.00000000000E+00 0. -1.
        -11    1    3    3    0    0  0.52413090987E+03  0.20722082645E+03 -0.50494263696E+03  0.75671708598E+03  0.00000000000E+00 0.  1.
         22    1    1    2    0    0 -0.21545936237E+04 -0.97789881705E+03  0.14173716345E+04  0.27581700691E+04  0.00000000000E+00 0.  1.
<mgrwt>
<rscale>  0 0.58542900E+04</rscale>
<asrwt>0</asrwt>
<pdfrwt beam="1">  1        1 0.40445107E+00 0.58542900E+04</pdfrwt>
<pdfrwt beam="2">  1       -1 0.50141320E+00 0.58542900E+04</pdfrwt>
<totfact> 0.10961465E-03</totfact>
</mgrwt>
</event>
<event>
 6    1  0.1878398E-004  0.1681519E+04  0.7818608E-02  0.8771975E-01
          2   -1    0    0  501    0  0.00000000000E+00  0.00000000000E+00  0.26001502985E+04  0.26001502985E+04  0.00000000000E+00 0.  1.
         -2   -1    0    0    0  501 -0.00000000000E+00 -0.00000000000E+00 -0.27186001124E+03  0.27186001124E+03  0.00000000000E+00 0. -1.
         23    2    1    2    0    0 -0.42534159437E+03  0.50659892960E+03  0.28820045317E+03  0.72736011016E+03  0.91843787349E+02 0.  0.
         13    1    3    3    0    0 -0.33115699343E+03  0.42975721826E+03  0.26421788994E+03  0.60346276961E+03  0.00000000000E+00 0. -1.
        -13    1    3    3    0    0 -0.94184600945E+02  0.76841711343E+02  0.23982563228E+02  0.12389734055E+03  0.00000000000E+00 0.  1.
         22    1    1    2    0    0  0.42534159437E+03 -0.50659892960E+03  0.20400898341E+04  0.21446501996E+04  0.00000000000E+00 0.  1.
<mgrwt>
<rscale>  0 0.16815194E+04</rscale>
<asrwt>0</asrwt>
<pdfrwt beam="1">  1        2 0.40002311E+00 0.16815194E+04</pdfrwt>
<pdfrwt beam="2">  1       -2 0.41824619E-01 0.16815194E+04</pdfrwt>
<totfact> 0.15741629E+01</totfact>
</mgrwt>
</event>
<event>
 6    1  0.1878398E-004  0.2298422E+04  0.7818608E-02  0.8478544E-01
          1   -1    0    0  501    0  0.00000000000E+00  0.00000000000E+00  0.10596773953E+04  0.10596773953E+04  0.00000000000E+00 0. -1.
         -1   -1    0    0    0  501 -0.00000000000E+00 -0.00000000000E+00 -0.12463092103E+04  0.12463092103E+04  0.00000000000E+00 0.  1.
         23    2    1    2    0    0 -0.78700594137E+03  0.69184966384E+03  0.37545358824E+03  0.11168800883E+04  0.91768325451E+02 0.  0.
         11    1    3    3    0    0 -0.18307453878E+03  0.21457920996E+03  0.10614892405E+03  0.30137703657E+03  0.00000000000E+00 0.  1.
        -11    1    3    3    0    0 -0.60393140259E+03  0.47727045388E+03  0.26930466419E+03  0.81550305171E+03  0.00000000000E+00 0. -1.
         22    1    1    2    0    0  0.78700594137E+03 -0.69184966384E+03 -0.56208540316E+03  0.11891065173E+04  0.00000000000E+00 0.  1.
<mgrwt>
<rscale>  0 0.22984218E+04</rscale>
<asrwt>0</asrwt>
<pdfrwt beam="1">  1        1 0.16302729E+00 0.22984218E+04</pdfrwt>
<pdfrwt beam="2">  1       -1 0.19173988E+00 0.22984218E+04</pdfrwt>
<totfact> 0.21130203E+00</totfact>
</mgrwt>
</event>
<event>
 6    1  0.1878398E-004  0.2767392E+04  0.7818608E-02  0.8313464E-01
          2   -1    0    0  501    0  0.00000000000E+00  0.00000000000E+00  0.28001589924E+04  0.28001589924E+04  0.00000000000E+00 0.  1.
         -2   -1    0    0    0  501 -0.00000000000E+00 -0.00000000000E+00 -0.68375193283E+03  0.68375193283E+03  0.00000000000E+00 0. -1.
         23    2    1    2    0    0 -0.49015509897E+03 -0.96965123523E+03 -0.16069132034E+02  0.10906014495E+04  0.93154525017E+02 0.  0.
         11    1    3    3    0    0 -0.42511033632E+03 -0.75884787821E+03 -0.81030438960E+01  0.86984743469E+03  0.00000000000E+00 0. -1.
        -11    1    3    3    0    0 -0.65044762656E+02 -0.21080335702E+03 -0.79660881382E+01  0.22075401478E+03  0.00000000000E+00 0.  1.
         22    1    1    2    0    0  0.49015509897E+03  0.96965123523E+03  0.21324761916E+04  0.23933094757E+04  0.00000000000E+00 0.  1.
<mgrwt>
<rscale>  0 0.27673916E+04</rscale>
<asrwt>0</asrwt>
<pdfrwt beam="1">  1        2 0.43079368E+00 0.27673916E+04</pdfrwt>
<pdfrwt beam="2">  1       -2 0.10519261E+00 0.27673916E+04</pdfrwt>
<totfact> 0.14756771E+00</totfact>
</mgrwt>
</event>
<event>
 6    1  0.1878398E-004  0.9916690E+03  0.7818608E-02  0.9317730E-01
         -2   -1    0    0    0  501 -0.00000000000E+00  0.00000000000E+00  0.22336587524E+03  0.22336587524E+03  0.00000000000E+00 0. -1.
          2   -1    0    0  501    0  0.00000000000E+00 -0.00000000000E+00 -0.11006688811E+04  0.11006688811E+04  0.00000000000E+00 0.  1.
         23    2    1    2    0    0  0.89344825812E+02  0.24994387714E+03  0.11005192427E+03  0.30162378335E+03  0.91711727842E+02 0.  0.
         13    1    3    3    0    0  0.33369142523E+02  0.10894388845E+03 -0.45003251583E+00  0.11394065574E+03  0.00000000000E+00 0. -1.
        -13    1    3    3    0    0  0.55975683289E+02  0.14099998870E+03  0.11050195679E+03  0.18768312760E+03  0.00000000000E+00 0.  1.
         22    1    1    2    0    0 -0.89344825812E+02 -0.24994387714E+03 -0.98735493015E+03  0.10224109730E+04  0.00000000000E+00 0.  1.
<mgrwt>
<rscale>  0 0.99166903E+03</rscale>
<asrwt>0</asrwt>
<pdfrwt beam="1">  1        2 0.16933367E+00 0.99166903E+03</pdfrwt>
<pdfrwt beam="2">  1       -2 0.34363981E-01 0.99166903E+03</pdfrwt>
<totfact> 0.17225753E+02</totfact>
</mgrwt>
</event>
<event>
 6    1  0.1878398E-004  0.1323265E+04  0.7818608E-02  0.9011317E-01
          1   -1    0    0  501    0  0.00000000000E+00  0.00000000000E+00  0.97852988969E+03  0.97852988969E+03  0.00000000000E+00 0. -1.
         -1   -1    0    0    0  501 -0.00000000000E+00 -0.00000000000E+00 -0.44736254944E+03  0.44736254944E+03  0.00000000000E+00 0.  1.
         23    2    1    2    0    0  0.56070108659E+03 -0.16646169261E+03 -0.58856711056E+02  0.59509548155E+03  0.92624597806E+02 0.  0.
         11    1    3    3    0    0  0.19912725837E+03 -0.71806455907E+02  0.21592789766E+02  0.21277706809E+03  0.00000000000E+00 0. -1.
        -11    1    3    3    0    0  0.36157382821E+03 -0.94655236698E+02 -0.80449500822E+02  0.38231841345E+03  0.00000000000E+00 0.  1.
         22    1    1    2    0    0 -0.56070108659E+03  0.16646169261E+03  0.59002405131E+03  0.83079695758E+03  0.00000000000E+00 0. -1.
<mgrwt>
<rscale>  0 0.13232651E+04</rscale>
<asrwt>0</asrwt>
<pdfrwt beam="1">  1        1 0.15054306E+00 0.13232651E+04</pdfrwt>
<pdfrwt beam="2">  1       -1 0.68825008E-01 0.13232651E+04</pdfrwt>
<totfact> 0.32965203E+01</totfact>
</mgrwt>
</event>
<event>
 6    1  0.1878398E-004  0.2499462E+04  0.7818608E-02  0.8403177E-01
         -1   -1    0    0    0  501 -0.00000000000E+00  0.00000000000E+00  0.17982443496E+04  0.17982443496E+04  0.00000000000E+00 0. -1.
          1   -1    0    0  501    0  0.00000000000E+00 -0.00000000000E+00 -0.86852919675E+03  0.86852919675E+03  0.00000000000E+00 0.  1.
         23    2    1    2    0    0 -0.28949701499E+01  0.92860563310E+03  0.13551802613E+04  0.16453346783E+04  0.91081613117E+02 0.  0.
         11    1    3    3    0    0  0.91864021393E+01  0.10838015446E+03  0.21219275795E+03  0.23844583115E+03  0.00000000000E+00 0. -1.
        -11    1    3    3    0    0 -0.12081372289E+02  0.82022547864E+03  0.11429875034E+04  0.14068888472E+04  0.00000000000E+00 0.  1.
         22    1    1    2    0    0  0.28949701499E+01 -0.92860563310E+03 -0.42546510846E+03  0.10214388681E+04  0.00000000000E+00 0.  1.
<mgrwt>
<rscale>  0 0.24994621E+04</rscale>
<asrwt>0</asrwt>
<pdfrwt beam="1">  1        1 0.13361988E+00 0.24994621E+04</pdfrwt>
<pdfrwt beam="2">  1       -1 0.27665298E+00 0.24994621E+04</pdfrwt>
<totfact> 0.80314802E-01</totfact>
</mgrwt>
</event>
<event>
 6    1  0.1878398E-004  0.2509067E+04  0.7818608E-02  0.8399763E-01
         -2   -1    0    0    0  501 -0.00000000000E+00  0.00000000000E+00  0.89683001383E+03  0.89683001383E+03  0.00000000000E+00 0. -1.
          2   -1    0    0  501    0  0.00000000000E+00 -0.00000000000E+00 -0.17549075533E+04  0.17549075533E+04  0.00000000000E+00 0.  1.
         23    2    1    2    0    0 -0.20157667604E+03 -0.32299347360E+03  0.83187083974E+03  0.91943174404E+03  0.91584374417E+02 0.  0.
         13    1    3    3    0    0 -0.51342095569E+02 -0.11771915555E+03  0.37685834672E+03  0.39814070861E+03  0.00000000000E+00 0. -1.
        -13    1    3    3    0    0 -0.15023458047E+03 -0.20527431804E+03  0.45501249302E+03  0.52129103543E+03  0.00000000000E+00 0.  1.
         22    1    1    2    0    0  0.20157667604E+03  0.32299347360E+03 -0.16899483792E+04  0.17323058230E+04  0.00000000000E+00 0.  1.
<mgrwt>
<rscale>  0 0.25090666E+04</rscale>
<asrwt>0</asrwt>
<pdfrwt beam="1">  1        2 0.26998577E+00 0.25090666E+04</pdfrwt>
<pdfrwt beam="2">  1       -2 0.13797385E+00 0.25090666E+04</pdfrwt>
<totfact> 0.30391943E+00</totfact>
</mgrwt>
</event>
<event>
 6    1  0.1878398E-004  0.2024017E+04  0.7818608E-02  0.8595473E-01
          2   -1    0    0  501    0  0.00000000000E+00  0.00000000000E+00  0.25567380883E+04  0.25567380883E+04  0.00000000000E+00 0.  1.
         -2   -1    0    0    0  501 -0.00000000000E+00 -0.00000000000E+00 -0.40057344146E+03  0.40057344146E+03  0.00000000000E+00 0. -1.
         23    2    1    2    0    0 -0.43350138115E+03 -0.83723360981E+03  0.55117670437E+03  0.10958954397E+04  0.91145435821E+02 0.  0.
         13    1    3    3    0    0 -0.16882401612E+03 -0.23879576774E+03  0.15563819888E+03  0.33128268301E+03  0.00000000000E+00 0.  1.
        -13    1    3    3    0    0 -0.26467736503E+03 -0.59843784207E+03  0.39553850549E+03  0.76461275670E+03  0.00000000000E+00 0. -1.
         22    1    1    2    0    0  0.43350138115E+03  0.83723360981E+03  0.16049879424E+04  0.18614160900E+04  0.00000000000E+00 0.  1.
<mgrwt>
<rscale>  0 0.20240172E+04</rscale>
<asrwt>0</asrwt>
<pdfrwt beam="1">  1        2 0.39334431E+00 0.20240172E+04</pdfrwt>
<pdfrwt beam="2">  1       -2 0.61626685E-01 0.20240172E+04</pdfrwt>
<totfact> 0.73246127E+00</totfact>
</mgrwt>
</event>
<event>
 6    1  0.1878398E-004  0.1156052E+04  0.7818608E-02  0.9152219E-01
         -2   -1    0    0    0  501 -0.00000000000E+00  0.00000000000E+00  0.26870320056E+03  0.26870320056E+03  0.00000000000E+00 0. -1.
          2   -1    0    0  501    0  0.00000000000E+00 -0.00000000000E+00 -0.12434312394E+04  0.12434312394E+04  0.00000000000E+00 0.  1.
         23    2    1    2    0    0 -0.25498614141E+02 -0.45136319867E+02 -0.12385059025E+04  0.12433106537E+04  0.96109543674E+02 0.  0.
         13    1    3    3    0    0 -0.60333723821E+02 -0.15520873265E+02 -0.80227023671E+03  0.80468539718E+03  0.00000000000E+00 0. -1.
        -13    1    3    3    0    0  0.34835109680E+02 -0.29615446603E+02 -0.43623566578E+03  0.43862525650E+03  0.00000000000E+00 0.  1.
         22    1    1    2    0    0  0.25498614141E+02  0.45136319867E+02  0.26377786367E+03  0.26882378625E+03  0.00000000000E+00 0. -1.
<mgrwt>
<rscale>  0 0.11560518E+04</rscale>
<asrwt>0</asrwt>
<pdfrwt beam="1">  1        2 0.19129711E+00 0.11560518E+04</pdfrwt>
<pdfrwt beam="2">  1       -2 0.41338954E-01 0.11560518E+04</pdfrwt>
<totfact> 0.97828987E+01</totfact>
</mgrwt>
</event>
<event>
 6    1  0.1878398E-004  0.3364509E+04  0.7818608E-02  0.8146672E-01
          1   -1    0    0  501    0  0.00000000000E+00  0.00000000000E+00  0.13516304692E+04  0.13516304692E+04  0.00000000000E+00 0.  1.
         -1   -1    0    0    0  501 -0.00000000000E+00 -0.00000000000E+00 -0.20937527383E+04  0.20937527383E+04  0.00000000000E+00 0. -1.
         23    2    1    2    0    0  0.59620674359E+03 -0.14175732953E+04  0.32388609277E+03  0.15741936510E+04  0.90592058304E+02 0.  0.
         13    1    3    3    0    0  0.96126182220E+02 -0.25461961384E+03  0.91465374556E+02  0.28711897430E+03  0.00000000000E+00 0.  1.
        -13    1    3    3    0    0  0.50008056137E+03 -0.11629536815E+04  0.23242071821E+03  0.12870746767E+04  0.00000000000E+00 0. -1.
         22    1    1    2    0    0 -0.59620674359E+03  0.14175732953E+04 -0.10660083618E+04  0.18711895565E+04  0.00000000000E+00 0. -1.
<mgrwt>
<rscale>  0 0.33645089E+04</rscale>
<asrwt>0</asrwt>
<pdfrwt beam="1">  1        1 0.20794315E+00 0.33645089E+04</pdfrwt>
<pdfrwt beam="2">  1       -1 0.32211581E+00 0.33645089E+04</pdfrwt>
<totfact> 0.16255251E-01</totfact>
</mgrwt>
</event>
<event>
 6    1  0.1878398E-004  0.1841672E+04  0.7818608E-02  0.8684448E-01
         -1   -1    0    0    0  501 -0.00000000000E+00  0.00000000000E+00  0.18890507482E+03  0.18890507482E+03  0.00000000000E+00 0. -1.
          1   -1    0    0  501    0  0.00000000000E+00 -0.00000000000E+00 -0.44887023547E+04  0.44887023547E+04  0.00000000000E+00 0.  1.
         23    2    1    2    0    0  0.37140499010E+03 -0.82466843324E+03 -0.17560678709E+04  0.19778705910E+04  0.10088615307E+03 0.  0.
         13    1    3    3    0    0  0.20598089546E+03 -0.47877830536E+03 -0.11168535412E+04  0.12324847372E+04  0.00000000000E+00 0. -1.
        -13    1    3    3    0    0  0.16542409463E+03 -0.34589012788E+03 -0.63921432969E+03  0.74538585372E+03  0.00000000000E+00 0.  1.
         22    1    1    2    0    0 -0.37140499010E+03  0.82466843324E+03 -0.25437294090E+04  0.26997368386E+04  0.00000000000E+00 0.  1.
<mgrwt>
<rscale>  0 0.18416717E+04</rscale>
<asrwt>0</asrwt>
<pdfrwt beam="1">  1        1 0.69056961E+00 0.18416717E+04</pdfrwt>
<pdfrwt beam="2">  1       -1 0.29062319E-01 0.18416717E+04</pdfrwt>
<totfact> 0.34146916E-01</totfact>
</mgrwt>
</event>
<event>
 6    1  0.1878398E-004  0.1167746E+04  0.7818608E-02  0.9141566E-01
         -2   -1    0    0    0  501 -0.00000000000E+00  0.00000000000E+00  0.19161304517E+03  0.19161304517E+03  0.00000000000E+00 0. -1.
          2   -1    0    0  501    0  0.00000000000E+00 -0.00000000000E+00 -0.17791475375E+04  0.17791475375E+04  0.00000000000E+00 0.  1.
         23    2    1    2    0    0 -0.20129081733E+03 -0.54024351205E+03 -0.69393177479E+03  0.90731953483E+03  0.96469605370E+02 0.  0.
         11    1    3    3    0    0 -0.99705513941E+02 -0.36238053802E+03 -0.39800357515E+03  0.54741911701E+03  0.00000000000E+00 0. -1.
        -11    1    3    3    0    0 -0.10158530339E+03 -0.17786297403E+03 -0.29592819965E+03  0.35990041782E+03  0.00000000000E+00 0.  1.
         22    1    1    2    0    0  0.20129081733E+03  0.54024351205E+03 -0.89360271758E+03  0.10634410479E+04  0.00000000000E+00 0. -1.
<mgrwt>
<rscale>  0 0.11677463E+04</rscale>
<asrwt>0</asrwt>
<pdfrwt beam="1">  1        2 0.27371499E+00 0.11677463E+04</pdfrwt>
<pdfrwt beam="2">  1       -2 0.29478932E-01 0.11677463E+04</pdfrwt>
<totfact> 0.92859679E+01</totfact>
</mgrwt>
</event>
<event>
 6    1  0.1878398E-004  0.3627466E+04  0.7818608E-02  0.8084229E-01
          2   -1    0    0  501    0  0.00000000000E+00  0.00000000000E+00  0.32499644846E+04  0.32499644846E+04  0.00000000000E+00 0.  1.
         -2   -1    0    0    0  501 -0.00000000000E+00 -0.00000000000E+00 -0.10122043183E+04  0.10122043183E+04  0.00000000000E+00 0. -1.
         23    2    1    2    0    0  0.14194815503E+04  0.31772048629E+03 -0.15108977610E+03  0.14652994413E+04  0.91652348849E+02 0.  0.
         11    1    3    3    0    0  0.10170629270E+04  0.26902119455E+03 -0.10161134262E+03  0.10569362637E+04  0.00000000000E+00 0. -1.
        -11    1    3    3    0    0  0.40241862334E+03  0.48699291740E+02 -0.49478433480E+02  0.40836317759E+03  0.00000000000E+00 0.  1.
         22    1    1    2    0    0 -0.14194815503E+04 -0.31772048629E+03  0.23888499423E+04  0.27968693616E+04  0.00000000000E+00 0.  1.
<mgrwt>
<rscale>  0 0.36274664E+04</rscale>
<asrwt>0</asrwt>
<pdfrwt beam="1">  1        2 0.49999453E+00 0.36274664E+04</pdfrwt>
<pdfrwt beam="2">  1       -2 0.15572374E+00 0.36274664E+04</pdfrwt>
<totfact> 0.26477767E-01</totfact>
</mgrwt>
</event>
<event>
 6    1  0.1878398E-004  0.2106786E+04  0.7818608E-02  0.8558260E-01
          1   -1    0    0  501    0  0.00000000000E+00  0.00000000000E+00  0.18582907875E+04  0.18582907875E+04  0.00000000000E+00 0.  1.
         -1   -1    0    0    0  501 -0.00000000000E+00 -0.00000000000E+00 -0.59712750318E+03  0.59712750318E+03  0.00000000000E+00 0. -1.
         23    2    1    2    0    0 -0.83246372855E+03  0.45886269235E+03  0.11557134971E+04  0.14990342217E+04  0.88764186002E+02 0.  0.
         13    1    3    3    0    0 -0.39371366937E+03  0.26382034760E+03  0.54736849649E+03  0.72403307949E+03  0.00000000000E+00 0. -1.
        -13    1    3    3    0    0 -0.43875005918E+03  0.19504234476E+03  0.60834500057E+03  0.77500114219E+03  0.00000000000E+00 0.  1.
         22    1    1    2    0    0  0.83246372855E+03 -0.45886269235E+03  0.10544978724E+03  0.95638406899E+03  0.00000000000E+00 0. -1.
<mgrwt>
<rscale>  0 0.21067857E+04</rscale>
<asrwt>0</asrwt>
<pdfrwt beam="1">  1        1 0.28589089E+00 0.21067857E+04</pdfrwt>
<pdfrwt beam="2">  1       -1 0.91865770E-01 0.21067857E+04</pdfrwt>
<totfact> 0.39447308E+00</totfact>
</mgrwt>
</event>
<event>
 6    1  0.1878398E-004  0.3609316E+04  0.7818608E-02  0.8088361E-01
          2   -1    0    0  501    0  0.00000000000E+00  0.00000000000E+00  0.98924251882E+03  0.98924251882E+03  0.00000000000E+00 0.  1.
         -2   -1    0    0    0  501 -0.00000000000E+00 -0.00000000000E+00 -0.32922061350E+04  0.32922061350E+04  0.00000000000E+00 0. -1.
         23    2    1    2    0    0  0.16539727925E+04 -0.26792255768E+02 -0.20046549084E+04  0.26005762886E+04  0.89509260222E+02 0.  0.
         11    1    3    3    0    0  0.89643419269E+03  0.27834631020E+02 -0.11073820563E+04  0.14250137007E+04  0.00000000000E+00 0.  1.
        -11    1    3    3    0    0  0.75753859980E+03 -0.54626886788E+02 -0.89727285207E+03  0.11755625879E+04  0.00000000000E+00 0. -1.
         22    1    1    2    0    0 -0.16539727925E+04  0.26792255768E+02 -0.29830870785E+03  0.16808723653E+04  0.00000000000E+00 0.  1.
<mgrwt>
<rscale>  0 0.36093159E+04</rscale>
<asrwt>0</asrwt>
<pdfrwt beam="1">  1        2 0.15219116E+00 0.36093159E+04</pdfrwt>
<pdfrwt beam="2">  1       -2 0.50649325E+00 0.36093159E+04</pdfrwt>
<totfact> 0.31334195E-02</totfact>
</mgrwt>
</event>
<event>
 6    1  0.1878398E-004  0.2081745E+04  0.7818608E-02  0.8569328E-01
         -2   -1    0    0    0  501 -0.00000000000E+00  0.00000000000E+00  0.33069506896E+04  0.33069506896E+04  0.00000000000E+00 0. -1.
          2   -1    0    0  501    0  0.00000000000E+00 -0.00000000000E+00 -0.32761781146E+03  0.32761781146E+03  0.00000000000E+00 0.  1.
         23    2    1    2    0    0 -0.31944556101E+03 -0.45657299670E+03 -0.38902451705E+02  0.56532610689E+03  0.87039293574E+02 0.  0.
         13    1    3    3    0    0 -0.18569406957E+03 -0.26126079787E+03  0.20765626109E+02  0.32120196638E+03  0.00000000000E+00 0. -1.
        -13    1    3    3    0    0 -0.13375149144E+03 -0.19531219882E+03 -0.59668077814E+02  0.24412414051E+03  0.00000000000E+00 0.  1.
         22    1    1    2    0    0  0.31944556101E+03  0.45657299670E+03  0.30182353298E+04  0.30692423941E+04  0.00000000000E+00 0. -1.
<mgrwt>
<rscale>  0 0.20817454E+04</rscale>
<asrwt>0</asrwt>
<pdfrwt beam="1">  1        2 0.50402742E-01 0.20817454E+04</pdfrwt>
<pdfrwt beam="2">  1       -2 0.50876162E+00 0.20817454E+04</pdfrwt>
<totfact> 0.13319982E-01</totfact>
</mgrwt>
</event>
<event>
 6    1  0.1878398E-004  0.1592217E+04  0.7818608E-02  0.8825344E-01
          2   -1    0    0  501    0  0.00000000000E+00  0.00000000000E+00  0.96861889938E+03  0.96861889938E+03  0.00000000000E+00 0.  1.
         -2   -1    0    0    0  501 -0.00000000000E+00 -0.00000000000E+00 -0.65432214014E+03  0.65432214014E+03  0.00000000000E+00 0. -1.
         23    2    1    2    0    0  0.67825554587E+03 -0.40746071320E+03  0.94450414633E+02  0.80173020572E+03  0.88292828852E+02 0.  0.
         11    1    3    3    0    0  0.46718466206E+03 -0.27781868152E+03  0.10586555410E+03  0.55376190173E+03  0.00000000000E+00 0.  1.
        -11    1    3    3    0    0  0.21107088381E+03 -0.12964203168E+03 -0.11415139471E+02  0.24796830398E+03  0.00000000000E+00 0. -1.
         22    1    1    2    0    0 -0.67825554587E+03  0.40746071320E+03  0.21984634461E+03  0.82121083380E+03  0.00000000000E+00 0.  1.
<mgrwt>
<rscale>  0 0.15922171E+04</rscale>
<asrwt>0</asrwt>
<pdfrwt beam="1">  1        2 0.14901829E+00 0.15922171E+04</pdfrwt>
<pdfrwt beam="2">  1       -2 0.10066494E+00 0.15922171E+04</pdfrwt>
<totfact> 0.20597645E+01</totfact>
</mgrwt>
</event>
<event>
 6    1  0.1878398E-004  0.1404277E+04  0.7818608E-02  0.8950728E-01
          1   -1    0    0  501    0  0.00000000000E+00  0.00000000000E+00  0.13964834971E+04  0.13964834971E+04  0.00000000000E+00 0.  1.
         -1   -1    0    0    0  501 -0.00000000000E+00 -0.00000000000E+00 -0.35302853362E+03  0.35302853362E+03  0.00000000000E+00 0. -1.
         23    2    1    2    0    0  0.65956370170E+03 -0.22378166325E+03  0.44777453234E+03  0.83303088775E+03  0.91301252575E+02 0.  0.
         13    1    3    3    0    0  0.33072769214E+03 -0.72047046184E+02  0.24624374340E+03  0.41857802663E+03  0.00000000000E+00 0.  1.
        -13    1    3    3    0    0  0.32883600956E+03 -0.15173461706E+03  0.20153078894E+03  0.41445286112E+03  0.00000000000E+00 0. -1.
         22    1    1    2    0    0 -0.65956370170E+03  0.22378166325E+03  0.59568043117E+03  0.91648114300E+03  0.00000000000E+00 0. -1.
<mgrwt>
<rscale>  0 0.14042771E+04</rscale>
<asrwt>0</asrwt>
<pdfrwt beam="1">  1        1 0.21484361E+00 0.14042771E+04</pdfrwt>
<pdfrwt beam="2">  1       -1 0.54312083E-01 0.14042771E+04</pdfrwt>
<totfact> 0.25783196E+01</totfact>
</mgrwt>
</event>
<event>
 6    1  0.1878398E-004  0.4059392E+04  0.7818608E-02  0.7992671E-01
          1   -1    0    0  501    0  0.00000000000E+00  0.00000000000E+00  0.25753827294E+04  0.25753827294E+04  0.00000000000E+00 0.  1.
         -1   -1    0    0    0  501 -0.00000000000E+00 -0.00000000000E+00 -0.15996322905E+04  0.15996322905E+04  0.00000000000E+00 0. -1.
         23    2    1    2    0    0 -0.35082762514E+03 -0.15045282051E+04 -0.86409880072E+03  0.17725724365E+04  0.93065367500E+02 0.  0.
         11    1    3    3    0    0 -0.30224584333E+02 -0.26313967944E+03 -0.16830355334E+03  0.31381858209E+03  0.00000000000E+00 0.  1.
        -11    1    3    3    0    0 -0.32060304080E+03 -0.12413885257E+04 -0.69579524738E+03  0.14587538544E+04  0.00000000000E+00 0. -1.
         22    1    1    2    0    0  0.35082762514E+03  0.15045282051E+04  0.18398492396E+04  0.24024425835E+04  0.00000000000E+00 0.  1.
<mgrwt>
<rscale>  0 0.40593918E+04</rscale>
<asrwt>0</asrwt>
<pdfrwt beam="1">  1        1 0.39621273E+00 0.40593918E+04</pdfrwt>
<pdfrwt beam="2">  1       -1 0.24609728E+00 0.40593918E+04</pdfrwt>
<totfact> 0.69135690E-02</totfact>
</mgrwt>
</event>
<event>
 6    1  0.1878398E-004  0.4141734E+04  0.7818608E-02  0.7976549E-01
         -2   -1    0    0    0  501 -0.00000000000E+00  0.00000000000E+00  0.96536622861E+03  0.96536622861E+03  0.00000000000E+00 0. -1.
          2   -1    0    0  501    0  0.00000000000E+00 -0.00000000000E+00 -0.44423444081E+04  0.44423444081E+04  0.00000000000E+00 0.  1.
         23    2    1    2    0    0  0.34103989202E+03 -0.18494813187E+04 -0.61062980825E+03  0.19794687635E+04  0.92403823233E+02 0.  0.
         11    1    3    3    0    0  0.11125900710E+03 -0.84189801773E+03 -0.29183608260E+03  0.89796388458E+03  0.00000000000E+00 0. -1.
        -11    1    3    3    0    0  0.22978088492E+03 -0.10075833010E+04 -0.31879372565E+03  0.10815048789E+04  0.00000000000E+00 0.  1.
         22    1    1    2    0    0 -0.34103989202E+03  0.18494813187E+04 -0.28663483713E+04  0.34282418733E+04  0.00000000000E+00 0.  1.
<mgrwt>
<rscale>  0 0.41417336E+04</rscale>
<asrwt>0</asrwt>
<pdfrwt beam="1">  1        2 0.68343759E+00 0.41417336E+04</pdfrwt>
<pdfrwt beam="2">  1       -2 0.14851788E+00 0.41417336E+04</pdfrwt>
<totfact> 0.33336347E-02</totfact>
</mgrwt>
</event>
<event>
 6    1  0.1878398E-004  0.1612785E+04  0.7818608E-02  0.8812732E-01
         -2   -1    0    0    0  501 -0.00000000000E+00  0.00000000000E+00  0.27116965060E+03  0.27116965060E+03  0.00000000000E+00 0. -1.
          2   -1    0    0  501    0  0.00000000000E+00 -0.00000000000E+00 -0.23980157723E+04  0.23980157723E+04  0.00000000000E+00 0.  1.
         23    2    1    2    0    0 -0.73212618368E+02  0.19612861709E+03 -0.23512000696E+04  0.23623284272E+04  0.92883306905E+02 0.  0.
         13    1    3    3    0    0  0.14001206320E+02  0.90994746034E+02 -0.88215977246E+03  0.88695092408E+03  0.00000000000E+00 0. -1.
        -13    1    3    3    0    0 -0.87213824688E+02  0.10513387106E+03 -0.14690402971E+04  0.14753775031E+04  0.00000000000E+00 0.  1.
         22    1    1    2    0    0  0.73212618368E+02 -0.19612861709E+03  0.22435394784E+03  0.30685699576E+03  0.00000000000E+00 0. -1.
<mgrwt>
<rscale>  0 0.16127853E+04</rscale>
<asrwt>0</asrwt>
<pdfrwt beam="1">  1        2 0.36892550E+00 0.16127853E+04</pdfrwt>
<pdfrwt beam="2">  1       -2 0.41718408E-01 0.16127853E+04</pdfrwt>
<totfact> 0.20821672E+01</totfact>
</mgrwt>
</event>
<event>
 6    1  0.1878398E-004  0.2417407E+04  0.7818608E-02  0.8433015E-01
          1   -1    0    0  501    0  0.00000000000E+00  0.00000000000E+00  0.34386731235E+04  0.34386731235E+04  0.00000000000E+00 0.  1.
         -1   -1    0    0    0  501 -0.00000000000E+00 -0.00000000000E+00 -0.42486288283E+03  0.42486288283E+03  0.00000000000E+00 0. -1.
         23    2    1    2    0    0 -0.52006076574E+03 -0.15791381297E+03 -0.21316297018E+03  0.59111242802E+03  0.92603878547E+02 0.  0.
         13    1    3    3    0    0 -0.46507080295E+03 -0.13159259786E+03 -0.15691422931E+03  0.50816290590E+03  0.00000000000E+00 0. -1.
        -13    1    3    3    0    0 -0.54989962787E+02 -0.26321215110E+02 -0.56248740862E+02  0.82949522125E+02  0.00000000000E+00 0.  1.
         22    1    1    2    0    0  0.52006076574E+03  0.15791381297E+03  0.32269732109E+04  0.32724235783E+04  0.00000000000E+00 0.  1.
<mgrwt>
<rscale>  0 0.24174074E+04</rscale>
<asrwt>0</asrwt>
<pdfrwt beam="1">  1        1 0.52902661E+00 0.24174074E+04</pdfrwt>
<pdfrwt beam="2">  1       -1 0.65363523E-01 0.24174074E+04</pdfrwt>
<totfact> 0.59342110E-01</totfact>
</mgrwt>
</event>
<event>
 6    1  0.1878398E-004  0.3957088E+04  0.7818608E-02  0.8013260E-01
         -2   -1    0    0    0  501 -0.00000000000E+00  0.00000000000E+00  0.10364743937E+04  0.10364743937E+04  0.00000000000E+00 0. -1.
          2   -1    0    0  501    0  0.00000000000E+00 -0.00000000000E+00 -0.37768764768E+04  0.37768764768E+04  0.00000000000E+00 0.  1.
         23    2    1    2    0    0  0.19113259510E+04 -0.44512468285E+03 -0.16667999834E+04  0.25764055553E+04  0.91326484121E+02 0.  0.
         13    1    3    3    0    0  0.17615475529E+04 -0.39575507682E+03 -0.15050613008E+04  0.23505066223E+04  0.00000000000E+00 0.  1.
        -13    1    3    3    0    0  0.14977839809E+03 -0.49369606023E+02 -0.16173868255E+03  0.22589893307E+03  0.00000000000E+00 0. -1.
         22    1    1    2    0    0 -0.19113259510E+04  0.44512468285E+03 -0.10736020997E+04  0.22369453151E+04  0.00000000000E+00 0. -1.
<mgrwt>
<rscale>  0 0.39570877E+04</rscale>
<asrwt>0</asrwt>
<pdfrwt beam="1">  1        2 0.58105792E+00 0.39570877E+04</pdfrwt>
<pdfrwt beam="2">  1       -2 0.15945760E+00 0.39570877E+04</pdfrwt>
<totfact> 0.10263299E-01</totfact>
</mgrwt>
</event>
<event>
 6    1  0.1878398E-004  0.3160797E+04  0.7818608E-02  0.8199248E-01
          1   -1    0    0  501    0  0.00000000000E+00  0.00000000000E+00  0.13908881404E+04  0.13908881404E+04  0.00000000000E+00 0.  1.
         -1   -1    0    0    0  501 -0.00000000000E+00 -0.00000000000E+00 -0.17957294390E+04  0.17957294390E+04  0.00000000000E+00 0. -1.
         23    2    1    2    0    0 -0.38142741976E+03 -0.91739535633E+03 -0.14400383757E+04  0.17517886332E+04  0.89172728980E+02 0.  0.
         11    1    3    3    0    0 -0.21846709761E+03 -0.53477219152E+03 -0.91334643772E+03  0.10806992574E+04  0.00000000000E+00 0. -1.
        -11    1    3    3    0    0 -0.16296032215E+03 -0.38262316481E+03 -0.52669193795E+03  0.67108937583E+03  0.00000000000E+00 0.  1.
         22    1    1    2    0    0  0.38142741976E+03  0.91739535633E+03  0.10351970771E+04  0.14348289462E+04  0.00000000000E+00 0.  1.
<mgrwt>
<rscale>  0 0.31607966E+04</rscale>
<asrwt>0</asrwt>
<pdfrwt beam="1">  1        1 0.21398279E+00 0.31607966E+04</pdfrwt>
<pdfrwt beam="2">  1       -1 0.27626607E+00 0.31607966E+04</pdfrwt>
<totfact> 0.30797187E-01</totfact>
</mgrwt>
</event>
<event>
 6    1  0.1878398E-004  0.1552723E+04  0.7818608E-02  0.8850130E-01
          3   -1    0    0  501    0  0.00000000000E+00  0.00000000000E+00  0.77900057615E+03  0.77900057615E+03  0.00000000000E+00 0.  1.
         -3   -1    0    0    0  501 -0.00000000000E+00 -0.00000000000E+00 -0.77373157646E+03  0.77373157646E+03  0.00000000000E+00 0. -1.
         23    2    1    2    0    0  0.44048373184E+03 -0.41716207452E+03 -0.47720479795E+03  0.77759920928E+03  0.94265564498E+02 0.  0.
         11    1    3    3    0    0  0.36636548397E+03 -0.37909277159E+03 -0.43850566671E+03  0.68572750933E+03  0.00000000000E+00 0.  1.
        -11    1    3    3    0    0  0.74118247863E+02 -0.38069302935E+02 -0.38699131239E+02  0.91871699946E+02  0.00000000000E+00 0. -1.
         22    1    1    2    0    0 -0.44048373184E+03  0.41716207452E+03  0.48247379764E+03  0.77513294334E+03  0.00000000000E+00 0.  1.
<mgrwt>
<rscale>  0 0.15527232E+04</rscale>
<asrwt>0</asrwt>
<pdfrwt beam="1">  1        3 0.11984624E+00 0.15527232E+04</pdfrwt>
<pdfrwt beam="2">  1       -3 0.11903563E+00 0.15527232E+04</pdfrwt>
<totfact> 0.82596140E-01</totfact>
</mgrwt>
</event>
<event>
 6    1  0.1878398E-004  0.2035689E+04  0.7818608E-02  0.8590114E-01
          1   -1    0    0  501    0  0.00000000000E+00  0.00000000000E+00  0.25972755450E+04  0.25972755450E+04  0.00000000000E+00 0.  1.
         -1   -1    0    0    0  501 -0.00000000000E+00 -0.00000000000E+00 -0.39888251717E+03  0.39888251717E+03  0.00000000000E+00 0. -1.
         23    2    1    2    0    0 -0.25403848597E+03  0.94512726795E+03  0.15021199366E+04  0.17950763320E+04  0.90186633021E+02 0.  0.
         13    1    3    3    0    0 -0.97656421224E+02  0.23610858040E+03  0.35215737771E+03  0.43508488484E+03  0.00000000000E+00 0. -1.
        -13    1    3    3    0    0 -0.15638206475E+03  0.70901868755E+03  0.11499625589E+04  0.13599914472E+04  0.00000000000E+00 0.  1.
         22    1    1    2    0    0  0.25403848597E+03 -0.94512726795E+03  0.69627309124E+03  0.12010817302E+04  0.00000000000E+00 0. -1.
<mgrwt>
<rscale>  0 0.20356894E+04</rscale>
<asrwt>0</asrwt>
<pdfrwt beam="1">  1        1 0.39958084E+00 0.20356894E+04</pdfrwt>
<pdfrwt beam="2">  1       -1 0.61366543E-01 0.20356894E+04</pdfrwt>
<totfact> 0.28882097E+00</totfact>
</mgrwt>
</event>
<event>
 6    1  0.1878398E-004  0.2733525E+04  0.7818608E-02  0.8324209E-01
         -1   -1    0    0    0  501 -0.00000000000E+00  0.00000000000E+00  0.13188443561E+04  0.13188443561E+04  0.00000000000E+00 0. -1.
          1   -1    0    0  501    0  0.00000000000E+00 -0.00000000000E+00 -0.14164216693E+04  0.14164216693E+04  0.00000000000E+00 0.  1.
         23    2    1    2    0    0  0.10543360764E+04  0.35761396961E+03 -0.83861995023E+03  0.13978593919E+04  0.10590158357E+03 0.  0.
         13    1    3    3    0    0  0.45835750636E+03  0.10476547582E+03 -0.32707158613E+03  0.57275058360E+03  0.00000000000E+00 0. -1.
        -13    1    3    3    0    0  0.59597857002E+03  0.25284849379E+03 -0.51154836410E+03  0.82510880831E+03  0.00000000000E+00 0.  1.
         22    1    1    2    0    0 -0.10543360764E+04 -0.35761396961E+03  0.74104263707E+03  0.13374066334E+04  0.00000000000E+00 0. -1.
<mgrwt>
<rscale>  0 0.27335250E+04</rscale>
<asrwt>0</asrwt>
<pdfrwt beam="1">  1        1 0.21791103E+00 0.27335250E+04</pdfrwt>
<pdfrwt beam="2">  1       -1 0.20289913E+00 0.27335250E+04</pdfrwt>
<totfact> 0.93635173E-01</totfact>
</mgrwt>
</event>
<event>
 6    1  0.1878398E-004  0.2414262E+04  0.7818608E-02  0.8434183E-01
          1   -1    0    0  501    0  0.00000000000E+00  0.00000000000E+00  0.11206202728E+04  0.11206202728E+04  0.00000000000E+00 0.  1.
         -1   -1    0    0    0  501 -0.00000000000E+00 -0.00000000000E+00 -0.13003207115E+04  0.13003207115E+04  0.00000000000E+00 0. -1.
         23    2    1    2    0    0 -0.18644477373E+03 -0.42943231457E+03 -0.12037928067E+04  0.12949130341E+04  0.92243580260E+02 0.  0.
         11    1    3    3    0    0 -0.87869530499E+02 -0.10744019996E+03 -0.40157623172E+03  0.42488577387E+03  0.00000000000E+00 0. -1.
        -11    1    3    3    0    0 -0.98575243234E+02 -0.32199211462E+03 -0.80221657493E+03  0.87002726023E+03  0.00000000000E+00 0.  1.
         22    1    1    2    0    0  0.18644477373E+03  0.42943231457E+03  0.10240923680E+04  0.11260279502E+04  0.00000000000E+00 0.  1.
<mgrwt>
<rscale>  0 0.24142624E+04</rscale>
<asrwt>0</asrwt>
<pdfrwt beam="1">  1        1 0.17240312E+00 0.24142624E+04</pdfrwt>
<pdfrwt beam="2">  1       -1 0.20004934E+00 0.24142624E+04</pdfrwt>
<totfact> 0.16467191E+00</totfact>
</mgrwt>
</event>
<event>
 6    1  0.1878398E-004  0.2048193E+04  0.7818608E-02  0.8584415E-01
          1   -1    0    0  501    0  0.00000000000E+00  0.00000000000E+00  0.11063612692E+04  0.11063612692E+04  0.00000000000E+00 0.  1.
         -1   -1    0    0    0  501 -0.00000000000E+00 -0.00000000000E+00 -0.94794867483E+03  0.94794867483E+03  0.00000000000E+00 0. -1.
         23    2    1    2    0    0 -0.47616317245E+03  0.25480604042E+03 -0.79090561459E+03  0.96212747443E+03  0.92195991337E+02 0.  0.
         13    1    3    3    0    0 -0.32387148742E+03  0.15933357755E+03 -0.59778691462E+03  0.69830446410E+03  0.00000000000E+00 0. -1.
        -13    1    3    3    0    0 -0.15229168503E+03  0.95472462872E+02 -0.19311869998E+03  0.26382301032E+03  0.00000000000E+00 0.  1.
         22    1    1    2    0    0  0.47616317245E+03 -0.25480604042E+03  0.94931820895E+03  0.10921824696E+04  0.00000000000E+00 0.  1.
<mgrwt>
<rscale>  0 0.20481931E+04</rscale>
<asrwt>0</asrwt>
<pdfrwt beam="1">  1        1 0.17020943E+00 0.20481931E+04</pdfrwt>
<pdfrwt beam="2">  1       -1 0.14583826E+00 0.20481931E+04</pdfrwt>
<totfact> 0.43590506E+00</totfact>
</mgrwt>
</event>
<event>
 6    1  0.1878398E-004  0.4372038E+04  0.7818608E-02  0.7933430E-01
          2   -1    0    0  501    0  0.00000000000E+00  0.00000000000E+00  0.32902713272E+04  0.32902713272E+04  0.00000000000E+00 0.  1.
         -2   -1    0    0    0  501 -0.00000000000E+00 -0.00000000000E+00 -0.14523661028E+04  0.14523661028E+04  0.00000000000E+00 0. -1.
         23    2    1    2    0    0 -0.99915837353E+03  0.65305544796E+03 -0.10660922188E+04  0.16028922136E+04  0.88949176465E+02 0.  0.
         13    1    3    3    0    0 -0.36936422013E+03  0.20563175635E+03 -0.33706053593E+03  0.54067009462E+03  0.00000000000E+00 0. -1.
        -13    1    3    3    0    0 -0.62979415340E+03  0.44742369161E+03 -0.72903168289E+03  0.10622221190E+04  0.00000000000E+00 0.  1.
         22    1    1    2    0    0  0.99915837353E+03 -0.65305544796E+03  0.29039974432E+04  0.31397452163E+04  0.00000000000E+00 0.  1.
<mgrwt>
<rscale>  0 0.43720378E+04</rscale>
<asrwt>0</asrwt>
<pdfrwt beam="1">  1        2 0.50619559E+00 0.43720378E+04</pdfrwt>
<pdfrwt beam="2">  1       -2 0.22344094E+00 0.43720378E+04</pdfrwt>
<totfact> 0.81269101E-02</totfact>
</mgrwt>
</event>
<event>
 6    1  0.1878398E-004  0.4885811E+04  0.7818608E-02  0.7846367E-01
          2   -1    0    0  501    0  0.00000000000E+00  0.00000000000E+00  0.32450380586E+04  0.32450380586E+04  0.00000000000E+00 0.  1.
         -2   -1    0    0    0  501 -0.00000000000E+00 -0.00000000000E+00 -0.18390500582E+04  0.18390500582E+04  0.00000000000E+00 0. -1.
         23    2    1    2    0    0  0.30858612259E+03 -0.15655109922E+04  0.26267369861E+04  0.30750390512E+04  0.10033897670E+03 0.  0.
         13    1    3    3    0    0  0.14667179617E+03 -0.99470256388E+03  0.16523462924E+04  0.19342166570E+04  0.00000000000E+00 0. -1.
        -13    1    3    3    0    0  0.16191432642E+03 -0.57080842837E+03  0.97439069377E+03  0.11408223942E+04  0.00000000000E+00 0.  1.
         22    1    1    2    0    0 -0.30858612259E+03  0.15655109922E+04 -0.12207489857E+04  0.20090490656E+04  0.00000000000E+00 0. -1.
<mgrwt>
<rscale>  0 0.48858111E+04</rscale>
<asrwt>0</asrwt>
<pdfrwt beam="1">  1        2 0.49923662E+00 0.48858111E+04</pdfrwt>
<pdfrwt beam="2">  1       -2 0.28293078E+00 0.48858111E+04</pdfrwt>
<totfact> 0.35928451E-02</totfact>
</mgrwt>
</event>
<event>
 6    1  0.1878398E-004  0.1011240E+04  0.7818608E-02  0.9296302E-01
         -2   -1    0    0    0  501 -0.00000000000E+00  0.00000000000E+00  0.25106664201E+03  0.25106664201E+03  0.00000000000E+00 0. -1.
          2   -1    0    0  501    0  0.00000000000E+00 -0.00000000000E+00 -0.10182626595E+04  0.10182626595E+04  0.00000000000E+00 0.  1.
         23    2    1    2    0    0 -0.16758241097E+03  0.70755519456E+02 -0.97316300469E+03  0.99453372696E+03  0.94661990105E+02 0.  0.
         13    1    3    3    0    0 -0.12825635954E+03  0.57235939833E+02 -0.89541653921E+03  0.90636439982E+03  0.00000000000E+00 0. -1.
        -13    1    3    3    0    0 -0.39326051429E+02  0.13519579623E+02 -0.77746465478E+02  0.88169327141E+02  0.00000000000E+00 0.  1.
         22    1    1    2    0    0  0.16758241097E+03 -0.70755519456E+02  0.20596698717E+03  0.27479557457E+03  0.00000000000E+00 0. -1.
<mgrwt>
<rscale>  0 0.10112404E+04</rscale>
<asrwt>0</asrwt>
<pdfrwt beam="1">  1        2 0.15665579E+00 0.10112404E+04</pdfrwt>
<pdfrwt beam="2">  1       -2 0.38625638E-01 0.10112404E+04</pdfrwt>
<totfact> 0.15477163E+02</totfact>
</mgrwt>
</event>
<event>
 6    1  0.1878398E-004  0.3301970E+04  0.7818608E-02  0.8162394E-01
         -2   -1    0    0    0  501 -0.00000000000E+00  0.00000000000E+00  0.26375153673E+04  0.26375153673E+04  0.00000000000E+00 0. -1.
          2   -1    0    0  501    0  0.00000000000E+00 -0.00000000000E+00 -0.10334543432E+04  0.10334543432E+04  0.00000000000E+00 0.  1.
         23    2    1    2    0    0 -0.42000499717E+03 -0.95025710171E+03  0.22272023503E+04  0.24594838998E+04  0.96114447570E+02 0.  0.
         13    1    3    3    0    0 -0.28180918328E+03 -0.52892276462E+03  0.12372140508E+04  0.13747269963E+04  0.00000000000E+00 0. -1.
        -13    1    3    3    0    0 -0.13819581390E+03 -0.42133433709E+03  0.98998829946E+03  0.10847569035E+04  0.00000000000E+00 0.  1.
         22    1    1    2    0    0  0.42000499717E+03  0.95025710171E+03 -0.62314132620E+03  0.12114858107E+04  0.00000000000E+00 0.  1.
<mgrwt>
<rscale>  0 0.33019701E+04</rscale>
<asrwt>0</asrwt>
<pdfrwt beam="1">  1        2 0.15899298E+00 0.33019701E+04</pdfrwt>
<pdfrwt beam="2">  1       -2 0.40577159E+00 0.33019701E+04</pdfrwt>
<totfact> 0.13609945E-01</totfact>
</mgrwt>
</event>
<event>
 6    1  0.1878398E-004  0.1959203E+04  0.7818608E-02  0.8625936E-01
         -2   -1    0    0    0  501 -0.00000000000E+00  0.00000000000E+00  0.10881218787E+04  0.10881218787E+04  0.00000000000E+00 0. -1.
          2   -1    0    0  501    0  0.00000000000E+00 -0.00000000000E+00 -0.88190362434E+03  0.88190362434E+03  0.00000000000E+00 0.  1.
         23    2    1    2    0    0 -0.78568886402E+03 -0.45082084685E+03  0.47272356697E+03  0.10257948593E+04  0.90780480618E+02 0.  0.
         13    1    3    3    0    0 -0.67841525044E+03 -0.41433509557E+03  0.38964900597E+03  0.88529496288E+03  0.00000000000E+00 0. -1.
        -13    1    3    3    0    0 -0.10727361358E+03 -0.36485751277E+02  0.83074560993E+02  0.14049989644E+03  0.00000000000E+00 0.  1.
         22    1    1    2    0    0  0.78568886402E+03  0.45082084685E+03 -0.26650531257E+03  0.94423064376E+03  0.00000000000E+00 0.  1.
<mgrwt>
<rscale>  0 0.19592025E+04</rscale>
<asrwt>0</asrwt>
<pdfrwt beam="1">  1        2 0.13567748E+00 0.19592025E+04</pdfrwt>
<pdfrwt beam="2">  1       -2 0.16740337E+00 0.19592025E+04</pdfrwt>
<totfact> 0.62527049E+00</totfact>
</mgrwt>
</event>
<event>
 6    1  0.1878398E-004  0.6092369E+03  0.7818608E-02  0.9886426E-01
         -2   -1    0    0    0  501 -0.00000000000E+00  0.00000000000E+00  0.53606383296E+03  0.53606383296E+03  0.00000000000E+00 0. -1.
          2   -1    0    0  501    0  0.00000000000E+00 -0.00000000000E+00 -0.17309952354E+03  0.17309952354E+03  0.00000000000E+00 0.  1.
         23    2    1    2    0    0  0.44892559605E+01  0.13437349046E+03 -0.12351861671E+03  0.20444360676E+03  0.91999735394E+02 0.  0.
         13    1    3    3    0    0  0.13616210020E+02  0.11071308092E+03 -0.42200707572E+02  0.11926310067E+03  0.00000000000E+00 0. -1.
        -13    1    3    3    0    0 -0.91269540599E+01  0.23660409535E+02 -0.81317909140E+02  0.85180506084E+02  0.00000000000E+00 0.  1.
         22    1    1    2    0    0 -0.44892559605E+01 -0.13437349046E+03  0.48648292614E+03  0.50471974974E+03  0.00000000000E+00 0. -1.
<mgrwt>
<rscale>  0 0.60923688E+03</rscale>
<asrwt>0</asrwt>
<pdfrwt beam="1">  1        2 0.26630696E-01 0.60923688E+03</pdfrwt>
<pdfrwt beam="2">  1       -2 0.82471358E-01 0.60923688E+03</pdfrwt>
<totfact> 0.26594224E+02</totfact>
</mgrwt>
</event>
<event>
 6    1  0.1878398E-004  0.7339595E+03  0.7818608E-02  0.9660857E-01
          2   -1    0    0  501    0  0.00000000000E+00  0.00000000000E+00  0.27964539778E+04  0.27964539778E+04  0.00000000000E+00 0.  1.
         -2   -1    0    0    0  501 -0.00000000000E+00 -0.00000000000E+00 -0.48158896876E+02  0.48158896876E+02  0.00000000000E+00 0. -1.
         23    2    1    2    0    0 -0.90381576878E+02  0.24192771718E+03  0.23740067793E+04  0.23898716488E+04  0.94236191443E+02 0.  0.
         11    1    3    3    0    0 -0.24606971490E+02  0.77071373807E+02  0.11769593676E+04  0.11797367726E+04  0.00000000000E+00 0.  1.
        -11    1    3    3    0    0 -0.65774605388E+02  0.16485634337E+03  0.11970474117E+04  0.12101348762E+04  0.00000000000E+00 0. -1.
         22    1    1    2    0    0  0.90381576878E+02 -0.24192771718E+03  0.37428830159E+03  0.45474122585E+03  0.00000000000E+00 0. -1.
<mgrwt>
<rscale>  0 0.73395950E+03</rscale>
<asrwt>0</asrwt>
<pdfrwt beam="1">  1        2 0.43022356E+00 0.73395950E+03</pdfrwt>
<pdfrwt beam="2">  1       -2 0.74090633E-02 0.73395950E+03</pdfrwt>
<totfact> 0.27127058E+02</totfact>
</mgrwt>
</event>
<event>
 6    1  0.1878398E-004  0.1984740E+04  0.7818608E-02  0.8613789E-01
          1   -1    0    0  501    0  0.00000000000E+00  0.00000000000E+00  0.39600526601E+03  0.39600526601E+03  0.00000000000E+00 0.  1.
         -1   -1    0    0    0  501 -0.00000000000E+00 -0.00000000000E+00 -0.24868302743E+04  0.24868302743E+04  0.00000000000E+00 0. -1.
         23    2    1    2    0    0  0.73269653149E+03 -0.31883381261E+03 -0.18973530879E+04  0.20606855593E+04  0.89314202714E+02 0.  0.
         13    1    3    3    0    0  0.31314274287E+03 -0.10071843612E+03 -0.70384668516E+03  0.77691874543E+03  0.00000000000E+00 0. -1.
        -13    1    3    3    0    0  0.41955378861E+03 -0.21811537649E+03 -0.11935064028E+04  0.12837668139E+04  0.00000000000E+00 0.  1.
         22    1    1    2    0    0 -0.73269653149E+03  0.31883381261E+03 -0.19347192039E+03  0.82214998102E+03  0.00000000000E+00 0.  1.
<mgrwt>
<rscale>  0 0.19847397E+04</rscale>
<asrwt>0</asrwt>
<pdfrwt beam="1">  1        1 0.60923889E-01 0.19847397E+04</pdfrwt>
<pdfrwt beam="2">  1       -1 0.38258926E+00 0.19847397E+04</pdfrwt>
<totfact> 0.53178896E-01</totfact>
</mgrwt>
</event>
<event>
 6    1  0.1878398E-004  0.3062773E+04  0.7818608E-02  0.8226029E-01
         -2   -1    0    0    0  501 -0.00000000000E+00  0.00000000000E+00  0.27432300153E+04  0.27432300153E+04  0.00000000000E+00 0. -1.
          2   -1    0    0  501    0  0.00000000000E+00 -0.00000000000E+00 -0.85488470053E+03  0.85488470053E+03  0.00000000000E+00 0.  1.
         23    2    1    2    0    0 -0.14116556967E+04  0.54039329214E+03  0.66650954239E+03  0.16544893993E+04  0.91123466456E+02 0.  0.
         11    1    3    3    0    0 -0.35048176937E+03  0.13712816654E+03  0.20952341735E+03  0.43074547838E+03  0.00000000000E+00 0. -1.
        -11    1    3    3    0    0 -0.10611739273E+04  0.40326512560E+03  0.45698612503E+03  0.12237439210E+04  0.00000000000E+00 0.  1.
         22    1    1    2    0    0  0.14116556967E+04 -0.54039329214E+03  0.12218357723E+04  0.19436253165E+04  0.00000000000E+00 0. -1.
<mgrwt>
<rscale>  0 0.30627735E+04</rscale>
<asrwt>0</asrwt>
<pdfrwt beam="1">  1        2 0.13152072E+00 0.30627735E+04</pdfrwt>
<pdfrwt beam="2">  1       -2 0.42203538E+00 0.30627735E+04</pdfrwt>
<totfact> 0.14240844E-01</totfact>
</mgrwt>
</event>
<event>
 6    1  0.1878398E-004  0.3250994E+04  0.7818608E-02  0.8175478E-01
          2   -1    0    0  501    0  0.00000000000E+00  0.00000000000E+00  0.18245933362E+04  0.18245933362E+04  0.00000000000E+00 0. -1.
         -2   -1    0    0    0  501 -0.00000000000E+00 -0.00000000000E+00 -0.14481253512E+04  0.14481253512E+04  0.00000000000E+00 0.  1.
         23    2    1    2    0    0  0.74757141271E+03  0.31476961644E+03  0.16049550350E+04  0.18006034200E+04  0.91373318844E+02 0.  0.
         13    1    3    3    0    0  0.50714119478E+03  0.16910643897E+03  0.10197606122E+04  0.11513908482E+04  0.00000000000E+00 0. -1.
        -13    1    3    3    0    0  0.24043021793E+03  0.14566317747E+03  0.58519442273E+03  0.64921257178E+03  0.00000000000E+00 0.  1.
         22    1    1    2    0    0 -0.74757141271E+03 -0.31476961644E+03 -0.12284870499E+04  0.14721152674E+04  0.00000000000E+00 0.  1.
<mgrwt>
<rscale>  0 0.32509936E+04</rscale>
<asrwt>0</asrwt>
<pdfrwt beam="1">  1        2 0.28070667E+00 0.32509936E+04</pdfrwt>
<pdfrwt beam="2">  1       -2 0.22278851E+00 0.32509936E+04</pdfrwt>
<totfact> 0.66547167E-01</totfact>
</mgrwt>
</event>
<event>
 6    1  0.1878398E-004  0.1764140E+04  0.7818608E-02  0.8725605E-01
         -2   -1    0    0    0  501 -0.00000000000E+00  0.00000000000E+00  0.17066853465E+04  0.17066853465E+04  0.00000000000E+00 0. -1.
          2   -1    0    0  501    0  0.00000000000E+00 -0.00000000000E+00 -0.45588244970E+03  0.45588244970E+03  0.00000000000E+00 0.  1.
         23    2    1    2    0    0 -0.33162375223E+02  0.51033139854E+03  0.15046022347E+04  0.15916457495E+04  0.89277253499E+02 0.  0.
         11    1    3    3    0    0 -0.43028641570E+02  0.10709211388E+03  0.36028326527E+03  0.37831761270E+03  0.00000000000E+00 0. -1.
        -11    1    3    3    0    0  0.98662663469E+01  0.40323928466E+03  0.11443189694E+04  0.12133281368E+04  0.00000000000E+00 0.  1.
         22    1    1    2    0    0  0.33162375223E+02 -0.51033139854E+03 -0.25379933787E+03  0.57092204666E+03  0.00000000000E+00 0.  1.
<mgrwt>
<rscale>  0 0.17641405E+04</rscale>
<asrwt>0</asrwt>
<pdfrwt beam="1">  1        2 0.70135763E-01 0.17641405E+04</pdfrwt>
<pdfrwt beam="2">  1       -2 0.26256697E+00 0.17641405E+04</pdfrwt>
<totfact> 0.34921830E+00</totfact>
</mgrwt>
</event>
<event>
 6    1  0.1878398E-004  0.1694309E+04  0.7818608E-02  0.8764617E-01
         -2   -1    0    0    0  501 -0.00000000000E+00  0.00000000000E+00  0.45704264285E+03  0.45704264285E+03  0.00000000000E+00 0. -1.
          2   -1    0    0  501    0  0.00000000000E+00 -0.00000000000E+00 -0.15702491205E+04  0.15702491205E+04  0.00000000000E+00 0.  1.
         23    2    1    2    0    0  0.66348913364E+03  0.47137467326E+03 -0.28853791702E+03  0.86863299222E+03  0.94112871386E+02 0.  0.
         13    1    3    3    0    0  0.19020247070E+03  0.18480648846E+03 -0.11187585906E+03  0.28783089806E+03  0.00000000000E+00 0.  1.
        -13    1    3    3    0    0  0.47328666293E+03  0.28656818480E+03 -0.17666205796E+03  0.58080209416E+03  0.00000000000E+00 0. -1.
         22    1    1    2    0    0 -0.66348913364E+03 -0.47137467326E+03 -0.82466856065E+03  0.11586587712E+04  0.00000000000E+00 0. -1.
<mgrwt>
<rscale>  0 0.16943091E+04</rscale>
<asrwt>0</asrwt>
<pdfrwt beam="1">  1        2 0.24157678E+00 0.16943091E+04</pdfrwt>
<pdfrwt beam="2">  1       -2 0.70314254E-01 0.16943091E+04</pdfrwt>
<totfact> 0.20305888E+01</totfact>
</mgrwt>
</event>
<event>
 6    1  0.1878398E-004  0.2599783E+04  0.7818608E-02  0.8368275E-01
         -1   -1    0    0    0  501 -0.00000000000E+00  0.00000000000E+00  0.12953347926E+04  0.12953347926E+04  0.00000000000E+00 0. -1.
          1   -1    0    0  501    0  0.00000000000E+00 -0.00000000000E+00 -0.13044639657E+04  0.13044639657E+04  0.00000000000E+00 0.  1.
         23    2    1    2    0    0 -0.10766777952E+04  0.67243412670E+03 -0.27741277339E+03  0.13023478654E+04  0.88030598857E+02 0.  0.
         13    1    3    3    0    0 -0.46033980983E+03  0.26561849304E+03 -0.15636819695E+03  0.55400084600E+03  0.00000000000E+00 0. -1.
        -13    1    3    3    0    0 -0.61633798535E+03  0.40681563367E+03 -0.12104457644E+03  0.74834701942E+03  0.00000000000E+00 0.  1.
         22    1    1    2    0    0  0.10766777952E+04 -0.67243412670E+03  0.26828360030E+03  0.12974508929E+04  0.00000000000E+00 0.  1.
<mgrwt>
<rscale>  0 0.25997827E+04</rscale>
<asrwt>0</asrwt>
<pdfrwt beam="1">  1        1 0.20068677E+00 0.25997827E+04</pdfrwt>
<pdfrwt beam="2">  1       -1 0.19928227E+00 0.25997827E+04</pdfrwt>
<totfact> 0.12039985E+00</totfact>
</mgrwt>
</event>
<event>
 6    1  0.1878398E-004  0.3384893E+04  0.7818608E-02  0.8141624E-01
         -1   -1    0    0    0  501 -0.00000000000E+00  0.00000000000E+00  0.78087142171E+03  0.78087142171E+03  0.00000000000E+00 0. -1.
          1   -1    0    0  501    0  0.00000000000E+00 -0.00000000000E+00 -0.36681770213E+04  0.36681770213E+04  0.00000000000E+00 0.  1.
         23    2    1    2    0    0 -0.43092071304E+03  0.87275208588E+03  0.37318805277E+03  0.10463718904E+04  0.90752113064E+02 0.  0.
         13    1    3    3    0    0 -0.32228762836E+03  0.70918842573E+03  0.26923404693E+03  0.82419931485E+03  0.00000000000E+00 0. -1.
        -13    1    3    3    0    0 -0.10863308468E+03  0.16356366015E+03  0.10395400584E+03  0.22217257558E+03  0.00000000000E+00 0.  1.
         22    1    1    2    0    0  0.43092071304E+03 -0.87275208588E+03 -0.32604936523E+04  0.34026765526E+04  0.00000000000E+00 0.  1.
<mgrwt>
<rscale>  0 0.33848927E+04</rscale>
<asrwt>0</asrwt>
<pdfrwt beam="1">  1        1 0.56433491E+00 0.33848927E+04</pdfrwt>
<pdfrwt beam="2">  1       -1 0.12013407E+00 0.33848927E+04</pdfrwt>
<totfact> 0.93006166E-02</totfact>
</mgrwt>
</event>
<event>
 6    1  0.1878398E-004  0.1397220E+04  0.7818608E-02  0.8955833E-01
          2   -1    0    0  501    0  0.00000000000E+00  0.00000000000E+00  0.88490815162E+03  0.88490815162E+03  0.00000000000E+00 0. -1.
         -2   -1    0    0    0  501 -0.00000000000E+00 -0.00000000000E+00 -0.55153291528E+03  0.55153291528E+03  0.00000000000E+00 0.  1.
         23    2    1    2    0    0  0.61201445786E+03 -0.16069824596E+03 -0.13011891511E+03  0.65208626752E+03  0.88881636650E+02 0.  0.
         11    1    3    3    0    0  0.17387807310E+03 -0.87809877859E+02 -0.37190066753E+02  0.19831101841E+03  0.00000000000E+00 0. -1.
        -11    1    3    3    0    0  0.43813638475E+03 -0.72888368104E+02 -0.92928848356E+02  0.45377524911E+03  0.00000000000E+00 0.  1.
         22    1    1    2    0    0 -0.61201445786E+03  0.16069824596E+03  0.46349415145E+03  0.78435479938E+03  0.00000000000E+00 0. -1.
<mgrwt>
<rscale>  0 0.13972201E+04</rscale>
<asrwt>0</asrwt>
<pdfrwt beam="1">  1        2 0.13613972E+00 0.13972201E+04</pdfrwt>
<pdfrwt beam="2">  1       -2 0.84851218E-01 0.13972201E+04</pdfrwt>
<totfact> 0.35369277E+01</totfact>
</mgrwt>
</event>
<event>
 6    1  0.1878398E-004  0.3803587E+04  0.7818608E-02  0.8045386E-01
         -2   -1    0    0    0  501 -0.00000000000E+00  0.00000000000E+00  0.10173697478E+04  0.10173697478E+04  0.00000000000E+00 0. -1.
          2   -1    0    0  501    0  0.00000000000E+00 -0.00000000000E+00 -0.35550670125E+04  0.35550670125E+04  0.00000000000E+00 0.  1.
         23    2    1    2    0    0  0.64753882781E+03  0.88522427731E+02  0.87665441563E+03  0.10960967093E+04  0.75909669523E+02 0.  0.
         11    1    3    3    0    0  0.73663199028E+02  0.33956196661E+02  0.12074767827E+03  0.14546233873E+03  0.00000000000E+00 0. -1.
        -11    1    3    3    0    0  0.57387562879E+03  0.54566231070E+02  0.75590673737E+03  0.95063437056E+03  0.00000000000E+00 0.  1.
         22    1    1    2    0    0 -0.64753882781E+03 -0.88522427731E+02 -0.34143516803E+04  0.34763400510E+04  0.00000000000E+00 0.  1.
<mgrwt>
<rscale>  0 0.38035865E+04</rscale>
<asrwt>0</asrwt>
<pdfrwt beam="1">  1        2 0.54693339E+00 0.38035865E+04</pdfrwt>
<pdfrwt beam="2">  1       -2 0.15651842E+00 0.38035865E+04</pdfrwt>
<totfact> 0.15903238E-01</totfact>
</mgrwt>
</event>
<event>
 6    1  0.1878398E-004  0.6291821E+04  0.7818608E-02  0.7655236E-01
          2   -1    0    0  501    0  0.00000000000E+00  0.00000000000E+00  0.19411233800E+04  0.19411233800E+04  0.00000000000E+00 0.  1.
         -2   -1    0    0    0  501 -0.00000000000E+00 -0.00000000000E+00 -0.50984660085E+04  0.50984660085E+04  0.00000000000E+00 0. -1.
         23    2    1    2    0    0 -0.20366170454E+04 -0.15348823332E+03  0.10971423709E+04  0.23202663187E+04  0.92448799490E+02 0.  0.
         13    1    3    3    0    0 -0.14846081899E+03 -0.25263000764E+02  0.10384542533E+03  0.18292814531E+03  0.00000000000E+00 0. -1.
        -13    1    3    3    0    0 -0.18881562264E+04 -0.12822523256E+03  0.99329694560E+03  0.21373381734E+04  0.00000000000E+00 0.  1.
         22    1    1    2    0    0  0.20366170454E+04  0.15348823332E+03 -0.42544849994E+04  0.47193230698E+04  0.00000000000E+00 0. -1.
<mgrwt>
<rscale>  0 0.62918206E+04</rscale>
<asrwt>0</asrwt>
<pdfrwt beam="1">  1        2 0.29863437E+00 0.62918206E+04</pdfrwt>
<pdfrwt beam="2">  1       -2 0.78437938E+00 0.62918206E+04</pdfrwt>
<totfact> 0.46188330E-04</totfact>
</mgrwt>
</event>
<event>
 6    1  0.1878398E-004  0.1846734E+04  0.7818608E-02  0.8681834E-01
          2   -1    0    0  501    0  0.00000000000E+00  0.00000000000E+00  0.93464889222E+03  0.93464889222E+03  0.00000000000E+00 0.  1.
         -2   -1    0    0    0  501 -0.00000000000E+00 -0.00000000000E+00 -0.91222107818E+03  0.91222107818E+03  0.00000000000E+00 0. -1.
         23    2    1    2    0    0 -0.44142993153E+03 -0.56411135577E+03 -0.56783670178E+03  0.91870284925E+03  0.92165064809E+02 0.  0.
         11    1    3    3    0    0 -0.23887309802E+03 -0.37274858954E+03 -0.32695665069E+03  0.55036580507E+03  0.00000000000E+00 0. -1.
        -11    1    3    3    0    0 -0.20255683351E+03 -0.19136276623E+03 -0.24088005108E+03  0.36833704417E+03  0.00000000000E+00 0.  1.
         22    1    1    2    0    0  0.44142993153E+03  0.56411135577E+03  0.59026451581E+03  0.92816712115E+03  0.00000000000E+00 0.  1.
<mgrwt>
<rscale>  0 0.18467338E+04</rscale>
<asrwt>0</asrwt>
<pdfrwt beam="1">  1        2 0.14379214E+00 0.18467338E+04</pdfrwt>
<pdfrwt beam="2">  1       -2 0.14034170E+00 0.18467338E+04</pdfrwt>
<totfact> 0.93281059E+00</totfact>
</mgrwt>
</event>
<event>
 6    1  0.1878398E-004  0.5915310E+04  0.7818608E-02  0.7700992E-01
          1   -1    0    0  501    0  0.00000000000E+00  0.00000000000E+00  0.39175689789E+04  0.39175689789E+04  0.00000000000E+00 0.  1.
         -1   -1    0    0    0  501 -0.00000000000E+00 -0.00000000000E+00 -0.22329467724E+04  0.22329467724E+04  0.00000000000E+00 0. -1.
         23    2    1    2    0    0 -0.30923288834E+03  0.22487424146E+04  0.28128842533E+04  0.36156700611E+04  0.91020557220E+02 0.  0.
         13    1    3    3    0    0 -0.22638350918E+03  0.13825116523E+04  0.16938327710E+04  0.21981031410E+04  0.00000000000E+00 0. -1.
        -13    1    3    3    0    0 -0.82849379163E+02  0.86623076231E+03  0.11190514823E+04  0.14175669202E+04  0.00000000000E+00 0.  1.
         22    1    1    2    0    0  0.30923288834E+03 -0.22487424146E+04 -0.11282620468E+04  0.25348456902E+04  0.00000000000E+00 0. -1.
<mgrwt>
<rscale>  0 0.59153100E+04</rscale>
<asrwt>0</asrwt>
<pdfrwt beam="1">  1        1 0.60270292E+00 0.59153100E+04</pdfrwt>
<pdfrwt beam="2">  1       -1 0.34353027E+00 0.59153100E+04</pdfrwt>
<totfact> 0.13012066E-03</totfact>
</mgrwt>
</event>
<event>
 6    1  0.1878398E-004  0.9334083E+03  0.7818608E-02  0.9384757E-01
          2   -1    0    0  501    0  0.00000000000E+00  0.00000000000E+00  0.11479339940E+04  0.11479339940E+04  0.00000000000E+00 0.  1.
         -2   -1    0    0    0  501 -0.00000000000E+00 -0.00000000000E+00 -0.18974326890E+03  0.18974326890E+03  0.00000000000E+00 0. -1.
         23    2    1    2    0    0  0.13517720392E+03  0.35084086246E+03  0.10017146988E+03  0.40089594926E+03  0.96545593006E+02 0.  0.
         11    1    3    3    0    0  0.52510511944E+02  0.40207242782E+02  0.25573453753E+02  0.70908234879E+02  0.00000000000E+00 0. -1.
        -11    1    3    3    0    0  0.82666691976E+02  0.31063361968E+03  0.74598016122E+02  0.32998771439E+03  0.00000000000E+00 0.  1.
         22    1    1    2    0    0 -0.13517720392E+03 -0.35084086246E+03  0.85801925524E+03  0.93678131364E+03  0.00000000000E+00 0.  1.
<mgrwt>
<rscale>  0 0.93340827E+03</rscale>
<asrwt>0</asrwt>
<pdfrwt beam="1">  1        2 0.17660523E+00 0.93340827E+03</pdfrwt>
<pdfrwt beam="2">  1       -2 0.29191273E-01 0.93340827E+03</pdfrwt>
<totfact> 0.21966122E+02</totfact>
</mgrwt>
</event>
<event>
 6    1  0.1878398E-004  0.2859130E+04  0.7818608E-02  0.8285142E-01
          2   -1    0    0  501    0  0.00000000000E+00  0.00000000000E+00  0.18371391145E+04  0.18371391145E+04  0.00000000000E+00 0.  1.
         -2   -1    0    0    0  501 -0.00000000000E+00 -0.00000000000E+00 -0.11124123517E+04  0.11124123517E+04  0.00000000000E+00 0. -1.
         23    2    1    2    0    0 -0.13777536464E+04 -0.31409165538E+03  0.57593993505E+03  0.15286376060E+04  0.90373909461E+02 0.  0.
         13    1    3    3    0    0 -0.27366811934E+03 -0.95455661853E+02  0.13644394679E+03  0.32034820670E+03  0.00000000000E+00 0. -1.
        -13    1    3    3    0    0 -0.11040855270E+04 -0.21863599353E+03  0.43949598826E+03  0.12082893993E+04  0.00000000000E+00 0.  1.
         22    1    1    2    0    0  0.13777536464E+04  0.31409165538E+03  0.14878682765E+03  0.14209138602E+04  0.00000000000E+00 0. -1.
<mgrwt>
<rscale>  0 0.28591301E+04</rscale>
<asrwt>0</asrwt>
<pdfrwt beam="1">  1        2 0.28263679E+00 0.28591301E+04</pdfrwt>
<pdfrwt beam="2">  1       -2 0.17114036E+00 0.28591301E+04</pdfrwt>
<totfact> 0.14908514E+00</totfact>
</mgrwt>
</event>
<event>
 6    1  0.1878398E-004  0.2849847E+04  0.7818608E-02  0.8287958E-01
         -2   -1    0    0    0  501 -0.00000000000E+00  0.00000000000E+00  0.23397531216E+04  0.23397531216E+04  0.00000000000E+00 0. -1.
          2   -1    0    0  501    0  0.00000000000E+00 -0.00000000000E+00 -0.86778665832E+03  0.86778665832E+03  0.00000000000E+00 0.  1.
         23    2    1    2    0    0 -0.12787220911E+04  0.19309421150E+03  0.14062719840E+04  0.19126531728E+04  0.90695674952E+02 0.  0.
         11    1    3    3    0    0 -0.52464961580E+03  0.12442903990E+03  0.58433167105E+03  0.79509955799E+03  0.00000000000E+00 0. -1.
        -11    1    3    3    0    0 -0.75407247531E+03  0.68665171597E+02  0.82194031297E+03  0.11175536148E+04  0.00000000000E+00 0.  1.
         22    1    1    2    0    0  0.12787220911E+04 -0.19309421150E+03  0.65694479288E+02  0.12948866072E+04  0.00000000000E+00 0.  1.
<mgrwt>
<rscale>  0 0.28498467E+04</rscale>
<asrwt>0</asrwt>
<pdfrwt beam="1">  1        2 0.13350564E+00 0.28498467E+04</pdfrwt>
<pdfrwt beam="2">  1       -2 0.35996202E+00 0.28498467E+04</pdfrwt>
<totfact> 0.35964446E-01</totfact>
</mgrwt>
</event>
<event>
 6    1  0.1878398E-004  0.9789795E+03  0.7818608E-02  0.9331905E-01
          2   -1    0    0  501    0  0.00000000000E+00  0.00000000000E+00  0.36590948346E+03  0.36590948346E+03  0.00000000000E+00 0.  1.
         -2   -1    0    0    0  501 -0.00000000000E+00 -0.00000000000E+00 -0.65480731476E+03  0.65480731476E+03  0.00000000000E+00 0. -1.
         23    2    1    2    0    0  0.20670151513E+03 -0.20633046940E+03 -0.54959130623E+03  0.62923389077E+03  0.92665562331E+02 0.  0.
         11    1    3    3    0    0  0.19593511495E+03 -0.14572475436E+03 -0.42157430796E+03  0.48718699740E+03  0.00000000000E+00 0. -1.
        -11    1    3    3    0    0  0.10766400180E+02 -0.60605715033E+02 -0.12801699828E+03  0.14204689337E+03  0.00000000000E+00 0.  1.
         22    1    1    2    0    0 -0.20670151513E+03  0.20633046940E+03  0.26069347494E+03  0.39148290746E+03  0.00000000000E+00 0.  1.
<mgrwt>
<rscale>  0 0.97897948E+03</rscale>
<asrwt>0</asrwt>
<pdfrwt beam="1">  1        2 0.56293766E-01 0.97897948E+03</pdfrwt>
<pdfrwt beam="2">  1       -2 0.10073959E+00 0.97897948E+03</pdfrwt>
<totfact> 0.71332089E+01</totfact>
</mgrwt>
</event>
<event>
 6    1  0.1878398E-004  0.2472910E+04  0.7818608E-02  0.8412701E-01
         -1   -1    0    0    0  501 -0.00000000000E+00  0.00000000000E+00  0.15616125373E+04  0.15616125373E+04  0.00000000000E+00 0.  1.
          1   -1    0    0  501    0  0.00000000000E+00 -0.00000000000E+00 -0.97900124863E+03  0.97900124863E+03  0.00000000000E+00 0. -1.
         23    2    1    2    0    0 -0.26631926744E+03 -0.10933233150E+04  0.81392615511E+03  0.13917933515E+04  0.91274991337E+02 0.  0.
         11    1    3    3    0    0 -0.70591266503E+02 -0.48035646735E+03  0.35348843618E+03  0.60056601398E+03  0.00000000000E+00 0. -1.
        -11    1    3    3    0    0 -0.19572800093E+03 -0.61296684762E+03  0.46043771893E+03  0.79122733752E+03  0.00000000000E+00 0.  1.
         22    1    1    2    0    0  0.26631926744E+03  0.10933233150E+04 -0.23131486639E+03  0.11488204345E+04  0.00000000000E+00 0. -1.
<mgrwt>
<rscale>  0 0.24729097E+04</rscale>
<asrwt>0</asrwt>
<pdfrwt beam="1">  1        1 0.15061558E+00 0.24729097E+04</pdfrwt>
<pdfrwt beam="2">  1       -1 0.24024808E+00 0.24729097E+04</pdfrwt>
<totfact> 0.11304161E+00</totfact>
</mgrwt>
</event>
<event>
 6    1  0.1878398E-004  0.2535734E+04  0.7818608E-02  0.8390365E-01
          1   -1    0    0  501    0  0.00000000000E+00  0.00000000000E+00  0.75733653270E+03  0.75733653270E+03  0.00000000000E+00 0.  1.
         -1   -1    0    0    0  501 -0.00000000000E+00 -0.00000000000E+00 -0.21225519108E+04  0.21225519108E+04  0.00000000000E+00 0. -1.
         23    2    1    2    0    0  0.33636662890E+03 -0.31900583213E+03 -0.20217042886E+04  0.20762187853E+04  0.92135683483E+02 0.  0.
         11    1    3    3    0    0  0.75832171539E+02 -0.80953621188E+02 -0.33156733436E+03  0.34962966727E+03  0.00000000000E+00 0.  1.
        -11    1    3    3    0    0  0.26053445736E+03 -0.23805221094E+03 -0.16901369542E+04  0.17265891181E+04  0.00000000000E+00 0. -1.
         22    1    1    2    0    0 -0.33636662890E+03  0.31900583213E+03  0.65648891044E+03  0.80366965820E+03  0.00000000000E+00 0.  1.
<mgrwt>
<rscale>  0 0.25357335E+04</rscale>
<asrwt>0</asrwt>
<pdfrwt beam="1">  1        1 0.11651331E+00 0.25357335E+04</pdfrwt>
<pdfrwt beam="2">  1       -1 0.32654645E+00 0.25357335E+04</pdfrwt>
<totfact> 0.47387857E-01</totfact>
</mgrwt>
</event>
<event>
 6    1  0.1878398E-004  0.4861704E+04  0.7818608E-02  0.7850202E-01
          1   -1    0    0  501    0  0.00000000000E+00  0.00000000000E+00  0.13236820732E+04  0.13236820732E+04  0.00000000000E+00 0.  1.
         -1   -1    0    0    0  501 -0.00000000000E+00 -0.00000000000E+00 -0.44640935541E+04  0.44640935541E+04  0.00000000000E+00 0. -1.
         23    2    1    2    0    0  0.22913134590E+04 -0.25314757398E+03 -0.24855573068E+04  0.33913125980E+04  0.93834694850E+02 0.  0.
         13    1    3    3    0    0  0.16576976607E+04 -0.21433071384E+03 -0.18424547296E+04  0.24876773545E+04  0.00000000000E+00 0.  1.
        -13    1    3    3    0    0  0.63361579832E+03 -0.38816860144E+02 -0.64310257718E+03  0.90363524350E+03  0.00000000000E+00 0. -1.
         22    1    1    2    0    0 -0.22913134590E+04  0.25314757398E+03 -0.65485417405E+03  0.23964630293E+04  0.00000000000E+00 0.  1.
<mgrwt>
<rscale>  0 0.48617037E+04</rscale>
<asrwt>0</asrwt>
<pdfrwt beam="1">  1        1 0.20364339E+00 0.48617037E+04</pdfrwt>
<pdfrwt beam="2">  1       -1 0.68678364E+00 0.48617037E+04</pdfrwt>
<totfact> 0.14218519E-03</totfact>
</mgrwt>
</event>
<event>
 6    1  0.1878398E-004  0.1058740E+04  0.7818608E-02  0.9246366E-01
         -1   -1    0    0    0  501 -0.00000000000E+00  0.00000000000E+00  0.34202555380E+03  0.34202555380E+03  0.00000000000E+00 0. -1.
          1   -1    0    0  501    0  0.00000000000E+00 -0.00000000000E+00 -0.81933301017E+03  0.81933301017E+03  0.00000000000E+00 0.  1.
         23    2    1    2    0    0  0.49293633748E+03 -0.17844090280E+03 -0.28549824145E+03  0.60313086533E+03  0.86198644064E+02 0.  0.
         11    1    3    3    0    0  0.17318877834E+03 -0.10663116251E+03 -0.10162979520E+03  0.22736132704E+03  0.00000000000E+00 0. -1.
        -11    1    3    3    0    0  0.31974755915E+03 -0.71809740283E+02 -0.18386844624E+03  0.37576953829E+03  0.00000000000E+00 0.  1.
         22    1    1    2    0    0 -0.49293633748E+03  0.17844090280E+03 -0.19180921493E+03  0.55822769864E+03  0.00000000000E+00 0. -1.
<mgrwt>
<rscale>  0 0.10587404E+04</rscale>
<asrwt>0</asrwt>
<pdfrwt beam="1">  1        1 0.12605123E+00 0.10587404E+04</pdfrwt>
<pdfrwt beam="2">  1       -1 0.52619316E-01 0.10587404E+04</pdfrwt>
<totfact> 0.77336718E+01</totfact>
</mgrwt>
</event>
<event>
 6    1  0.1878398E-004  0.5655583E+03  0.7818608E-02  0.9979556E-01
          2   -1    0    0  501    0  0.00000000000E+00  0.00000000000E+00  0.11696726733E+04  0.11696726733E+04  0.00000000000E+00 0.  1.
         -2   -1    0    0    0  501 -0.00000000000E+00 -0.00000000000E+00 -0.68364461381E+02  0.68364461381E+02  0.00000000000E+00 0. -1.
         23    2    1    2    0    0  0.24866101114E+03  0.53277780293E+02  0.79663414175E+03  0.84117807990E+03  0.91015306224E+02 0.  0.
         11    1    3    3    0    0  0.66577918978E+02  0.41321269289E+02  0.35083022139E+03  0.35947449260E+03  0.00000000000E+00 0. -1.
        -11    1    3    3    0    0  0.18208309216E+03  0.11956511004E+02  0.44580392036E+03  0.48170358730E+03  0.00000000000E+00 0.  1.
         22    1    1    2    0    0 -0.24866101114E+03 -0.53277780293E+02  0.30467407019E+03  0.39685905480E+03  0.00000000000E+00 0. -1.
<mgrwt>
<rscale>  0 0.56555828E+03</rscale>
<asrwt>0</asrwt>
<pdfrwt beam="1">  1        2 0.17994963E+00 0.56555828E+03</pdfrwt>
<pdfrwt beam="2">  1       -2 0.10517610E-01 0.56555828E+03</pdfrwt>
<totfact> 0.12627627E+03</totfact>
</mgrwt>
</event>
<event>
 6    1  0.1878398E-004  0.3117243E+04  0.7818608E-02  0.8211021E-01
         -2   -1    0    0    0  501 -0.00000000000E+00  0.00000000000E+00  0.90840195192E+03  0.90840195192E+03  0.00000000000E+00 0. -1.
          2   -1    0    0  501    0  0.00000000000E+00 -0.00000000000E+00 -0.26742584684E+04  0.26742584684E+04  0.00000000000E+00 0.  1.
         23    2    1    2    0    0  0.47227023143E+03  0.64045316988E+03 -0.24226020235E+04  0.25508978045E+04  0.69710908660E+02 0.  0.
         11    1    3    3    0    0  0.25264239361E+03  0.38071197381E+03 -0.13048519152E+04  0.13825369097E+04  0.00000000000E+00 0. -1.
        -11    1    3    3    0    0  0.21962783782E+03  0.25974119607E+03 -0.11177501083E+04  0.11683608948E+04  0.00000000000E+00 0.  1.
         22    1    1    2    0    0 -0.47227023143E+03 -0.64045316988E+03  0.65674550701E+03  0.10317626158E+04  0.00000000000E+00 0. -1.
<mgrwt>
<rscale>  0 0.31172434E+04</rscale>
<asrwt>0</asrwt>
<pdfrwt beam="1">  1        2 0.41142437E+00 0.31172434E+04</pdfrwt>
<pdfrwt beam="2">  1       -2 0.13975415E+00 0.31172434E+04</pdfrwt>
<totfact> 0.84117626E-01</totfact>
</mgrwt>
</event>
<event>
 6    1  0.1878398E-004  0.3070716E+04  0.7818608E-02  0.8223821E-01
          2   -1    0    0  501    0  0.00000000000E+00  0.00000000000E+00  0.32938848859E+04  0.32938848859E+04  0.00000000000E+00 0.  1.
         -2   -1    0    0    0  501 -0.00000000000E+00 -0.00000000000E+00 -0.71566685852E+03  0.71566685852E+03  0.00000000000E+00 0. -1.
         23    2    1    2    0    0 -0.70530844022E+03 -0.90844658916E+03 -0.35380804607E+02  0.11540948535E+04  0.89151154756E+02 0.  0.
         11    1    3    3    0    0 -0.17667028577E+03 -0.25507592091E+03  0.26241229669E+02  0.31139158215E+03  0.00000000000E+00 0.  1.
        -11    1    3    3    0    0 -0.52863815444E+03 -0.65337066825E+03 -0.61622034275E+02  0.84270327137E+03  0.00000000000E+00 0. -1.
         22    1    1    2    0    0  0.70530844022E+03  0.90844658916E+03  0.26135988320E+04  0.28554568909E+04  0.00000000000E+00 0.  1.
<mgrwt>
<rscale>  0 0.30707160E+04</rscale>
<asrwt>0</asrwt>
<pdfrwt beam="1">  1        2 0.50675151E+00 0.30707160E+04</pdfrwt>
<pdfrwt beam="2">  1       -2 0.11010260E+00 0.30707160E+04</pdfrwt>
<totfact> 0.62673414E-01</totfact>
</mgrwt>
</event>
<event>
 6    1  0.1878398E-004  0.4699090E+04  0.7818608E-02  0.7876680E-01
         -2   -1    0    0    0  501 -0.00000000000E+00  0.00000000000E+00  0.18154013198E+04  0.18154013198E+04  0.00000000000E+00 0. -1.
          2   -1    0    0  501    0  0.00000000000E+00 -0.00000000000E+00 -0.30408492280E+04  0.30408492280E+04  0.00000000000E+00 0.  1.
         23    2    1    2    0    0  0.94828364264E+03 -0.28967250971E+03 -0.28133298765E+04  0.29842139096E+04  0.86923154974E+02 0.  0.
         11    1    3    3    0    0  0.69930742622E+03 -0.25085795009E+03 -0.20625628091E+04  0.21922878299E+04  0.00000000000E+00 0. -1.
        -11    1    3    3    0    0  0.24897621642E+03 -0.38814559621E+02 -0.75076706738E+03  0.79192607979E+03  0.00000000000E+00 0.  1.
         22    1    1    2    0    0 -0.94828364264E+03  0.28967250971E+03  0.15878819682E+04  0.18720366382E+04  0.00000000000E+00 0. -1.
<mgrwt>
<rscale>  0 0.46990900E+04</rscale>
<asrwt>0</asrwt>
<pdfrwt beam="1">  1        2 0.46782295E+00 0.46990900E+04</pdfrwt>
<pdfrwt beam="2">  1       -2 0.27929251E+00 0.46990900E+04</pdfrwt>
<totfact> 0.52011566E-02</totfact>
</mgrwt>
</event>
<event>
 6    1  0.1878398E-004  0.3241808E+04  0.7818608E-02  0.8177862E-01
          2   -1    0    0  501    0  0.00000000000E+00  0.00000000000E+00  0.20606586555E+04  0.20606586555E+04  0.00000000000E+00 0.  1.
         -2   -1    0    0    0  501 -0.00000000000E+00 -0.00000000000E+00 -0.12749953266E+04  0.12749953266E+04  0.00000000000E+00 0. -1.
         23    2    1    2    0    0 -0.53761623846E+03 -0.94000054171E+03 -0.84605436735E+03  0.13773039422E+04  0.92335900182E+02 0.  0.
         11    1    3    3    0    0 -0.18581946074E+03 -0.37049592826E+03 -0.27496452980E+03  0.49739481048E+03  0.00000000000E+00 0. -1.
        -11    1    3    3    0    0 -0.35179677772E+03 -0.56950461345E+03 -0.57108983756E+03  0.87990913174E+03  0.00000000000E+00 0.  1.
         22    1    1    2    0    0  0.53761623846E+03  0.94000054171E+03  0.16317176962E+04  0.19583500398E+04  0.00000000000E+00 0.  1.
<mgrwt>
<rscale>  0 0.32418082E+04</rscale>
<asrwt>0</asrwt>
<pdfrwt beam="1">  1        2 0.31702441E+00 0.32418082E+04</pdfrwt>
<pdfrwt beam="2">  1       -2 0.19615313E+00 0.32418082E+04</pdfrwt>
<totfact> 0.73143294E-01</totfact>
</mgrwt>
</event>
<event>
 6    1  0.1878398E-004  0.2668044E+04  0.7818608E-02  0.8345449E-01
         -2   -1    0    0    0  501 -0.00000000000E+00  0.00000000000E+00  0.12795113579E+04  0.12795113579E+04  0.00000000000E+00 0. -1.
          2   -1    0    0  501    0  0.00000000000E+00 -0.00000000000E+00 -0.13908549012E+04  0.13908549012E+04  0.00000000000E+00 0.  1.
         23    2    1    2    0    0  0.40314699035E+03 -0.10247092551E+04 -0.80662573002E+03  0.13680706427E+04  0.91736916264E+02 0.  0.
         11    1    3    3    0    0  0.22127202210E+03 -0.45783857091E+03 -0.34070738944E+03  0.61209393887E+03  0.00000000000E+00 0. -1.
        -11    1    3    3    0    0  0.18187496825E+03 -0.56687068421E+03 -0.46591834058E+03  0.75597670386E+03  0.00000000000E+00 0.  1.
         22    1    1    2    0    0 -0.40314699035E+03  0.10247092551E+04  0.69528218667E+03  0.13022956164E+04  0.00000000000E+00 0. -1.
<mgrwt>
<rscale>  0 0.26680440E+04</rscale>
<asrwt>0</asrwt>
<pdfrwt beam="1">  1        2 0.21397768E+00 0.26680440E+04</pdfrwt>
<pdfrwt beam="2">  1       -2 0.19684790E+00 0.26680440E+04</pdfrwt>
<totfact> 0.17976320E+00</totfact>
</mgrwt>
</event>
<event>
 6    1  0.1878398E-004  0.3539736E+04  0.7818608E-02  0.8104437E-01
          2   -1    0    0  501    0  0.00000000000E+00  0.00000000000E+00  0.20938488503E+04  0.20938488503E+04  0.00000000000E+00 0.  1.
         -2   -1    0    0    0  501 -0.00000000000E+00 -0.00000000000E+00 -0.14960162646E+04  0.14960162646E+04  0.00000000000E+00 0. -1.
         23    2    1    2    0    0 -0.14793997351E+04 -0.38073926872E+03  0.12033244248E+04  0.19466346580E+04  0.88379033411E+02 0.  0.
         11    1    3    3    0    0 -0.75526732359E+03 -0.18500863935E+03  0.55743921044E+03  0.95676298008E+03  0.00000000000E+00 0.  1.
        -11    1    3    3    0    0 -0.72413241154E+03 -0.19573062938E+03  0.64588521432E+03  0.98987167795E+03  0.00000000000E+00 0. -1.
         22    1    1    2    0    0  0.14793997351E+04  0.38073926872E+03 -0.60549183905E+03  0.16432304568E+04  0.00000000000E+00 0. -1.
<mgrwt>
<rscale>  0 0.35397355E+04</rscale>
<asrwt>0</asrwt>
<pdfrwt beam="1">  1        2 0.32213059E+00 0.35397355E+04</pdfrwt>
<pdfrwt beam="2">  1       -2 0.23015635E+00 0.35397355E+04</pdfrwt>
<totfact> 0.41383750E-01</totfact>
</mgrwt>
</event>
<event>
 6    1  0.1878398E-004  0.1614275E+04  0.7818608E-02  0.8811826E-01
         -2   -1    0    0    0  501 -0.00000000000E+00  0.00000000000E+00  0.21639082889E+03  0.21639082889E+03  0.00000000000E+00 0.  1.
          2   -1    0    0  501    0  0.00000000000E+00 -0.00000000000E+00 -0.30106206341E+04  0.30106206341E+04  0.00000000000E+00 0. -1.
         23    2    1    2    0    0 -0.53064291597E+03 -0.20318596559E+03 -0.26262272877E+03  0.63242077651E+03  0.90104938885E+02 0.  0.
         13    1    3    3    0    0 -0.22520636856E+03 -0.12133782502E+03 -0.84040640365E+02  0.26926493543E+03  0.00000000000E+00 0.  1.
        -13    1    3    3    0    0 -0.30543654741E+03 -0.81848140566E+02 -0.17858208840E+03  0.36315584108E+03  0.00000000000E+00 0. -1.
         22    1    1    2    0    0  0.53064291597E+03  0.20318596559E+03 -0.25316070764E+04  0.25945906864E+04  0.00000000000E+00 0. -1.
<mgrwt>
<rscale>  0 0.16142747E+04</rscale>
<asrwt>0</asrwt>
<pdfrwt beam="1">  1        2 0.46317239E+00 0.16142747E+04</pdfrwt>
<pdfrwt beam="2">  1       -2 0.33290898E-01 0.16142747E+04</pdfrwt>
<totfact> 0.13925108E+01</totfact>
</mgrwt>
</event>
<event>
 6    1  0.1878398E-004  0.1596840E+04  0.7818608E-02  0.8822491E-01
         -2   -1    0    0    0  501 -0.00000000000E+00  0.00000000000E+00  0.45442263914E+03  0.45442263914E+03  0.00000000000E+00 0. -1.
          2   -1    0    0  501    0  0.00000000000E+00 -0.00000000000E+00 -0.14028236054E+04  0.14028236054E+04  0.00000000000E+00 0.  1.
         23    2    1    2    0    0 -0.29513437681E+03 -0.19573396186E+03  0.35310191133E+03  0.50842237740E+03  0.91631162039E+02 0.  0.
         13    1    3    3    0    0 -0.22122345626E+03 -0.10172928085E+03  0.26507431928E+03  0.35993479815E+03  0.00000000000E+00 0. -1.
        -13    1    3    3    0    0 -0.73910920550E+02 -0.94004681007E+02  0.88027592055E+02  0.14848757925E+03  0.00000000000E+00 0.  1.
         22    1    1    2    0    0  0.29513437681E+03  0.19573396186E+03 -0.13015028775E+04  0.13488238671E+04  0.00000000000E+00 0.  1.
<mgrwt>
<rscale>  0 0.15968404E+04</rscale>
<asrwt>0</asrwt>
<pdfrwt beam="1">  1        2 0.21581901E+00 0.15968404E+04</pdfrwt>
<pdfrwt beam="2">  1       -2 0.69911177E-01 0.15968404E+04</pdfrwt>
<totfact> 0.25775999E+01</totfact>
</mgrwt>
</event>
<event>
 6    1  0.1878398E-004  0.1325668E+04  0.7818608E-02  0.9009454E-01
          2   -1    0    0  501    0  0.00000000000E+00  0.00000000000E+00  0.35217651437E+04  0.35217651437E+04  0.00000000000E+00 0. -1.
         -2   -1    0    0    0  501 -0.00000000000E+00 -0.00000000000E+00 -0.12475255564E+03  0.12475255564E+03  0.00000000000E+00 0.  1.
         23    2    1    2    0    0 -0.50185085367E+03  0.28684363491E+03  0.83204636712E+03  0.10172240176E+04  0.91159172656E+02 0.  0.
         13    1    3    3    0    0 -0.22765218972E+03  0.15365022865E+03  0.32406548846E+03  0.42479683739E+03  0.00000000000E+00 0. -1.
        -13    1    3    3    0    0 -0.27419866395E+03  0.13319340626E+03  0.50798087866E+03  0.59242718022E+03  0.00000000000E+00 0.  1.
         22    1    1    2    0    0  0.50185085367E+03 -0.28684363491E+03  0.25649662210E+04  0.26292936818E+04  0.00000000000E+00 0.  1.
<mgrwt>
<rscale>  0 0.13256684E+04</rscale>
<asrwt>0</asrwt>
<pdfrwt beam="1">  1        2 0.54180995E+00 0.13256684E+04</pdfrwt>
<pdfrwt beam="2">  1       -2 0.19192704E-01 0.13256684E+04</pdfrwt>
<totfact> 0.18007595E+01</totfact>
</mgrwt>
</event>
<event>
 6    1  0.1878398E-004  0.2295406E+04  0.7818608E-02  0.8479735E-01
          2   -1    0    0  501    0  0.00000000000E+00  0.00000000000E+00  0.26869017597E+04  0.26869017597E+04  0.00000000000E+00 0.  1.
         -2   -1    0    0    0  501 -0.00000000000E+00 -0.00000000000E+00 -0.49023831472E+03  0.49023831472E+03  0.00000000000E+00 0. -1.
         23    2    1    2    0    0  0.19236003710E+02 -0.48478303249E+03  0.25370423692E+04  0.25844829860E+04  0.87084493753E+02 0.  0.
         13    1    3    3    0    0 -0.27983072976E+01 -0.36585360398E+03  0.20668869872E+04  0.20990184630E+04  0.00000000000E+00 0.  1.
        -13    1    3    3    0    0  0.22034311008E+02 -0.11892942851E+03  0.47015538200E+03  0.48546452296E+03  0.00000000000E+00 0. -1.
         22    1    1    2    0    0 -0.19236003710E+02  0.48478303249E+03 -0.34037892425E+03  0.59265708846E+03  0.00000000000E+00 0. -1.
<mgrwt>
<rscale>  0 0.22954060E+04</rscale>
<asrwt>0</asrwt>
<pdfrwt beam="1">  1        2 0.41336949E+00 0.22954060E+04</pdfrwt>
<pdfrwt beam="2">  1       -2 0.75421281E-01 0.22954060E+04</pdfrwt>
<totfact> 0.38678227E+00</totfact>
</mgrwt>
</event>
<event>
 6    1  0.1878398E-004  0.2039826E+04  0.7818608E-02  0.8588224E-01
          2   -1    0    0  501    0  0.00000000000E+00  0.00000000000E+00  0.21980140973E+04  0.21980140973E+04  0.00000000000E+00 0.  1.
         -2   -1    0    0    0  501 -0.00000000000E+00 -0.00000000000E+00 -0.47325543984E+03  0.47325543984E+03  0.00000000000E+00 0. -1.
         23    2    1    2    0    0  0.75123631852E+03 -0.50900903920E+03  0.14678183894E+04  0.17281552759E+04  0.92647856260E+02 0.  0.
         11    1    3    3    0    0  0.35957387950E+03 -0.29949892382E+03  0.74861959384E+03  0.88285008720E+03  0.00000000000E+00 0. -1.
        -11    1    3    3    0    0  0.39166243903E+03 -0.20951011538E+03  0.71919879554E+03  0.84530518873E+03  0.00000000000E+00 0.  1.
         22    1    1    2    0    0 -0.75123631852E+03  0.50900903920E+03  0.25694026803E+03  0.94311426116E+03  0.00000000000E+00 0. -1.
<mgrwt>
<rscale>  0 0.20398256E+04</rscale>
<asrwt>0</asrwt>
<pdfrwt beam="1">  1        2 0.33815601E+00 0.20398256E+04</pdfrwt>
<pdfrwt beam="2">  1       -2 0.72808530E-01 0.20398256E+04</pdfrwt>
<totfact> 0.81747228E+00</totfact>
</mgrwt>
</event>
<event>
 6    1  0.1878398E-004  0.3280451E+04  0.7818608E-02  0.8167887E-01
          2   -1    0    0  501    0  0.00000000000E+00  0.00000000000E+00  0.14742525909E+04  0.14742525909E+04  0.00000000000E+00 0.  1.
         -2   -1    0    0    0  501 -0.00000000000E+00 -0.00000000000E+00 -0.18248841098E+04  0.18248841098E+04  0.00000000000E+00 0. -1.
         23    2    1    2    0    0  0.12046158770E+04 -0.74543416736E+03  0.65338927482E+03  0.15628103307E+04  0.93204486126E+02 0.  0.
         11    1    3    3    0    0  0.75206756216E+03 -0.51572670410E+03  0.40569752932E+03  0.99808323134E+03  0.00000000000E+00 0. -1.
        -11    1    3    3    0    0  0.45254831486E+03 -0.22970746325E+03  0.24769174550E+03  0.56472709935E+03  0.00000000000E+00 0.  1.
         22    1    1    2    0    0 -0.12046158770E+04  0.74543416736E+03 -0.10040207937E+04  0.17363263700E+04  0.00000000000E+00 0. -1.
<mgrwt>
<rscale>  0 0.32804513E+04</rscale>
<asrwt>0</asrwt>
<pdfrwt beam="1">  1        2 0.22680809E+00 0.32804513E+04</pdfrwt>
<pdfrwt beam="2">  1       -2 0.28075140E+00 0.32804513E+04</pdfrwt>
<totfact> 0.45757490E-01</totfact>
</mgrwt>
</event>
<event>
 6    1  0.1878398E-004  0.4355201E+04  0.7818608E-02  0.7936489E-01
         -1   -1    0    0    0  501 -0.00000000000E+00  0.00000000000E+00  0.16693431432E+04  0.16693431432E+04  0.00000000000E+00 0. -1.
          1   -1    0    0  501    0  0.00000000000E+00 -0.00000000000E+00 -0.28406046003E+04  0.28406046003E+04  0.00000000000E+00 0.  1.
         23    2    1    2    0    0  0.41096017629E+03 -0.71868051799E+03 -0.26704648945E+04  0.27973471187E+04  0.91532486474E+02 0.  0.
         13    1    3    3    0    0  0.12167800304E+03 -0.22821149533E+03 -0.69965842320E+03  0.74592756497E+03  0.00000000000E+00 0. -1.
        -13    1    3    3    0    0  0.28928217325E+03 -0.49046902266E+03 -0.19708064713E+04  0.20514195537E+04  0.00000000000E+00 0.  1.
         22    1    1    2    0    0 -0.41096017629E+03  0.71868051799E+03  0.14992034374E+04  0.17126006248E+04  0.00000000000E+00 0. -1.
<mgrwt>
<rscale>  0 0.43552009E+04</rscale>
<asrwt>0</asrwt>
<pdfrwt beam="1">  1        1 0.43701609E+00 0.43552009E+04</pdfrwt>
<pdfrwt beam="2">  1       -1 0.25682202E+00 0.43552009E+04</pdfrwt>
<totfact> 0.37290266E-02</totfact>
</mgrwt>
</event>
<event>
 6    1  0.1878398E-004  0.1251959E+04  0.7818608E-02  0.9068555E-01
         -1   -1    0    0    0  501 -0.00000000000E+00  0.00000000000E+00  0.51067694523E+03  0.51067694523E+03  0.00000000000E+00 0. -1.
          1   -1    0    0  501    0  0.00000000000E+00 -0.00000000000E+00 -0.76731495499E+03  0.76731495499E+03  0.00000000000E+00 0.  1.
         23    2    1    2    0    0  0.44184082187E+03 -0.43771632910E+03 -0.16098243391E+03  0.64873131365E+03  0.90100369837E+02 0.  0.
         13    1    3    3    0    0  0.13640342224E+03 -0.15589990185E+03 -0.95172653934E+02  0.22796602171E+03  0.00000000000E+00 0.  1.
        -13    1    3    3    0    0  0.30543739962E+03 -0.28181642726E+03 -0.65809779975E+02  0.42076529194E+03  0.00000000000E+00 0. -1.
         22    1    1    2    0    0 -0.44184082187E+03  0.43771632910E+03 -0.95655575847E+02  0.62926058658E+03  0.00000000000E+00 0. -1.
<mgrwt>
<rscale>  0 0.12519586E+04</rscale>
<asrwt>0</asrwt>
<pdfrwt beam="1">  1        1 0.11804845E+00 0.12519586E+04</pdfrwt>
<pdfrwt beam="2">  1       -1 0.78565684E-01 0.12519586E+04</pdfrwt>
<totfact> 0.37787015E+01</totfact>
</mgrwt>
</event>
<event>
 6    1  0.1878398E-004  0.1647880E+04  0.7818608E-02  0.8791662E-01
          2   -1    0    0  501    0  0.00000000000E+00  0.00000000000E+00  0.24137996147E+04  0.24137996147E+04  0.00000000000E+00 0.  1.
         -2   -1    0    0    0  501 -0.00000000000E+00 -0.00000000000E+00 -0.28124831308E+03  0.28124831308E+03  0.00000000000E+00 0. -1.
         23    2    1    2    0    0 -0.55262319380E+03  0.39647769237E+03  0.18229203488E+04  0.19477472642E+04  0.89965838118E+02 0.  0.
         13    1    3    3    0    0 -0.33502299842E+03  0.27195603204E+03  0.12496012404E+04  0.13220074708E+04  0.00000000000E+00 0.  1.
        -13    1    3    3    0    0 -0.21760019538E+03  0.12452166033E+03  0.57331910848E+03  0.62573979342E+03  0.00000000000E+00 0. -1.
         22    1    1    2    0    0  0.55262319380E+03 -0.39647769237E+03  0.30963095274E+03  0.74730066357E+03  0.00000000000E+00 0. -1.
<mgrwt>
<rscale>  0 0.16478799E+04</rscale>
<asrwt>0</asrwt>
<pdfrwt beam="1">  1        2 0.37135377E+00 0.16478799E+04</pdfrwt>
<pdfrwt beam="2">  1       -2 0.43268973E-01 0.16478799E+04</pdfrwt>
<totfact> 0.18916464E+01</totfact>
</mgrwt>
</event>
<event>
 6    1  0.1878398E-004  0.1577769E+04  0.7818608E-02  0.8834323E-01
         -2   -1    0    0    0  501 -0.00000000000E+00  0.00000000000E+00  0.43851745954E+03  0.43851745954E+03  0.00000000000E+00 0. -1.
          2   -1    0    0  501    0  0.00000000000E+00 -0.00000000000E+00 -0.14191879255E+04  0.14191879255E+04  0.00000000000E+00 0.  1.
         23    2    1    2    0    0 -0.30810997555E+03 -0.27036788526E+03  0.29800558656E+03  0.51493101915E+03  0.91192513099E+02 0.  0.
         13    1    3    3    0    0 -0.19886579706E+03 -0.22341940801E+03  0.19039994133E+03  0.35456448606E+03  0.00000000000E+00 0.  1.
        -13    1    3    3    0    0 -0.10924417849E+03 -0.46948477257E+02  0.10760564523E+03  0.16036653309E+03  0.00000000000E+00 0. -1.
         22    1    1    2    0    0  0.30810997555E+03  0.27036788526E+03 -0.12786760525E+04  0.13427743658E+04  0.00000000000E+00 0.  1.
<mgrwt>
<rscale>  0 0.15777689E+04</rscale>
<asrwt>0</asrwt>
<pdfrwt beam="1">  1        2 0.21833660E+00 0.15777689E+04</pdfrwt>
<pdfrwt beam="2">  1       -2 0.67464225E-01 0.15777689E+04</pdfrwt>
<totfact> 0.27300438E+01</totfact>
</mgrwt>
</event>
<event>
 6    1  0.1878398E-004  0.1149515E+04  0.7818608E-02  0.9158231E-01
         -1   -1    0    0    0  501 -0.00000000000E+00  0.00000000000E+00  0.60525230597E+03  0.60525230597E+03  0.00000000000E+00 0. -1.
          1   -1    0    0  501    0  0.00000000000E+00 -0.00000000000E+00 -0.54579885140E+03  0.54579885140E+03  0.00000000000E+00 0.  1.
         23    2    1    2    0    0 -0.46916319290E+03 -0.18005889375E+03 -0.24148806884E+03  0.56530282634E+03  0.93356795601E+02 0.  0.
         11    1    3    3    0    0 -0.30623928112E+03 -0.10693240819E+03 -0.10638104958E+03  0.34137071481E+03  0.00000000000E+00 0. -1.
        -11    1    3    3    0    0 -0.16292391178E+03 -0.73126485554E+02 -0.13510701926E+03  0.22393211153E+03  0.00000000000E+00 0.  1.
         22    1    1    2    0    0  0.46916319290E+03  0.18005889375E+03  0.30094152341E+03  0.58574833103E+03  0.00000000000E+00 0. -1.
<mgrwt>
<rscale>  0 0.11495147E+04</rscale>
<asrwt>0</asrwt>
<pdfrwt beam="1">  1        1 0.83969054E-01 0.11495147E+04</pdfrwt>
<pdfrwt beam="2">  1       -1 0.93115740E-01 0.11495147E+04</pdfrwt>
<totfact> 0.43644230E+01</totfact>
</mgrwt>
</event>
<event>
 6    1  0.1878398E-004  0.1216346E+04  0.7818608E-02  0.9098668E-01
         -2   -1    0    0    0  501 -0.00000000000E+00  0.00000000000E+00  0.36763072832E+03  0.36763072832E+03  0.00000000000E+00 0. -1.
          2   -1    0    0  501    0  0.00000000000E+00 -0.00000000000E+00 -0.10061032989E+04  0.10061032989E+04  0.00000000000E+00 0.  1.
         23    2    1    2    0    0 -0.33956537676E+03  0.50005206085E+03 -0.34040861890E+03  0.69979127894E+03  0.92049430228E+02 0.  0.
         11    1    3    3    0    0 -0.30367817020E+02  0.79037784854E+02 -0.20016495033E+02  0.87004803423E+02  0.00000000000E+00 0. -1.
        -11    1    3    3    0    0 -0.30919755974E+03  0.42101427599E+03 -0.32039212387E+03  0.61278647552E+03  0.00000000000E+00 0.  1.
         22    1    1    2    0    0  0.33956537676E+03 -0.50005206085E+03 -0.29806395164E+03  0.67394274825E+03  0.00000000000E+00 0. -1.
<mgrwt>
<rscale>  0 0.12163461E+04</rscale>
<asrwt>0</asrwt>
<pdfrwt beam="1">  1        2 0.15478512E+00 0.12163461E+04</pdfrwt>
<pdfrwt beam="2">  1       -2 0.56558574E-01 0.12163461E+04</pdfrwt>
<totfact> 0.72164055E+01</totfact>
</mgrwt>
</event>
<event>
 6    1  0.1878398E-004  0.1024324E+04  0.7818608E-02  0.9282261E-01
         -1   -1    0    0    0  501 -0.00000000000E+00  0.00000000000E+00  0.92639583164E+02  0.92639583164E+02  0.00000000000E+00 0. -1.
          1   -1    0    0  501    0  0.00000000000E+00 -0.00000000000E+00 -0.28315121752E+04  0.28315121752E+04  0.00000000000E+00 0.  1.
         23    2    1    2    0    0 -0.26223184558E+03  0.27841666144E+03 -0.23371472449E+04  0.23694765086E+04  0.76683128049E+02 0.  0.
         13    1    3    3    0    0 -0.10711495255E+03  0.11017684399E+03 -0.71969807090E+03  0.73591973969E+03  0.00000000000E+00 0.  1.
        -13    1    3    3    0    0 -0.15511689303E+03  0.16823981744E+03 -0.16174491740E+04  0.16335567689E+04  0.00000000000E+00 0. -1.
         22    1    1    2    0    0  0.26223184558E+03 -0.27841666144E+03 -0.40172534714E+03  0.55467524979E+03  0.00000000000E+00 0. -1.
<mgrwt>
<rscale>  0 0.10243244E+04</rscale>
<asrwt>0</asrwt>
<pdfrwt beam="1">  1        1 0.43561728E+00 0.10243244E+04</pdfrwt>
<pdfrwt beam="2">  1       -1 0.14252243E-01 0.10243244E+04</pdfrwt>
<totfact> 0.28838151E+01</totfact>
</mgrwt>
</event>
<event>
 6    1  0.1878398E-004  0.1885478E+04  0.7818608E-02  0.8662119E-01
          2   -1    0    0  501    0  0.00000000000E+00  0.00000000000E+00  0.13732382404E+04  0.13732382404E+04  0.00000000000E+00 0.  1.
         -2   -1    0    0    0  501 -0.00000000000E+00 -0.00000000000E+00 -0.64719762947E+03  0.64719762947E+03  0.00000000000E+00 0. -1.
         23    2    1    2    0    0 -0.80200857662E+03 -0.37392496278E+03  0.70536074085E+03  0.11353001222E+04  0.91295990569E+02 0.  0.
         13    1    3    3    0    0 -0.10555004831E+03 -0.49188731612E+02  0.55927103505E+02  0.12918275783E+03  0.00000000000E+00 0. -1.
        -13    1    3    3    0    0 -0.69645852831E+03 -0.32473623116E+03  0.64943363734E+03  0.10061173643E+04  0.00000000000E+00 0.  1.
         22    1    1    2    0    0  0.80200857662E+03  0.37392496278E+03  0.20679870038E+02  0.88513574766E+03  0.00000000000E+00 0. -1.
<mgrwt>
<rscale>  0 0.18854777E+04</rscale>
<asrwt>0</asrwt>
<pdfrwt beam="1">  1        2 0.21126742E+00 0.18854777E+04</pdfrwt>
<pdfrwt beam="2">  1       -2 0.99568866E-01 0.18854777E+04</pdfrwt>
<totfact> 0.11732522E+01</totfact>
</mgrwt>
</event>
<event>
 6    1  0.1878398E-004  0.1874602E+04  0.7818608E-02  0.8667603E-01
          2   -1    0    0  501    0  0.00000000000E+00  0.00000000000E+00  0.23061120976E+04  0.23061120976E+04  0.00000000000E+00 0.  1.
         -2   -1    0    0    0  501 -0.00000000000E+00 -0.00000000000E+00 -0.38095861825E+03  0.38095861825E+03  0.00000000000E+00 0. -1.
         23    2    1    2    0    0 -0.24947558181E+03 -0.64364597462E+03  0.60212211129E+02  0.69847217908E+03  0.87861641285E+02 0.  0.
         13    1    3    3    0    0 -0.35105316520E+02 -0.19894584057E+03  0.10282614413E+02  0.20228090095E+03  0.00000000000E+00 0. -1.
        -13    1    3    3    0    0 -0.21437026529E+03 -0.44470013405E+03  0.49929596716E+02  0.49619127813E+03  0.00000000000E+00 0.  1.
         22    1    1    2    0    0  0.24947558181E+03  0.64364597462E+03  0.18649412682E+04  0.19885985368E+04  0.00000000000E+00 0.  1.
<mgrwt>
<rscale>  0 0.18746021E+04</rscale>
<asrwt>0</asrwt>
<pdfrwt beam="1">  1        2 0.35478647E+00 0.18746021E+04</pdfrwt>
<pdfrwt beam="2">  1       -2 0.58609020E-01 0.18746021E+04</pdfrwt>
<totfact> 0.11491021E+01</totfact>
</mgrwt>
</event>
<event>
 6    1  0.1878398E-004  0.2436302E+04  0.7818608E-02  0.8426036E-01
         -2   -1    0    0    0  501 -0.00000000000E+00  0.00000000000E+00  0.75021721747E+03  0.75021721747E+03  0.00000000000E+00 0. -1.
          2   -1    0    0  501    0  0.00000000000E+00 -0.00000000000E+00 -0.19779497607E+04  0.19779497607E+04  0.00000000000E+00 0.  1.
         23    2    1    2    0    0  0.11129866710E+04  0.26335614449E+02 -0.65796610259E+02  0.11189659321E+04  0.91228663248E+02 0.  0.
         13    1    3    3    0    0  0.64561704731E+03  0.59313670397E+02 -0.28783287484E+02  0.64897454566E+03  0.00000000000E+00 0. -1.
        -13    1    3    3    0    0  0.46736962365E+03 -0.32978055948E+02 -0.37013322775E+02  0.46999138646E+03  0.00000000000E+00 0.  1.
         22    1    1    2    0    0 -0.11129866710E+04 -0.26335614449E+02 -0.11619359330E+04  0.16092010461E+04  0.00000000000E+00 0.  1.
<mgrwt>
<rscale>  0 0.24363021E+04</rscale>
<asrwt>0</asrwt>
<pdfrwt beam="1">  1        2 0.30429997E+00 0.24363021E+04</pdfrwt>
<pdfrwt beam="2">  1       -2 0.11541803E+00 0.24363021E+04</pdfrwt>
<totfact> 0.36011567E+00</totfact>
</mgrwt>
</event>
<event>
 6    1  0.1878398E-004  0.1741769E+04  0.7818608E-02  0.8737894E-01
         -2   -1    0    0    0  501 -0.00000000000E+00  0.00000000000E+00  0.57865963783E+03  0.57865963783E+03  0.00000000000E+00 0. -1.
          2   -1    0    0  501    0  0.00000000000E+00 -0.00000000000E+00 -0.13106842086E+04  0.13106842086E+04  0.00000000000E+00 0.  1.
         23    2    1    2    0    0  0.54283754864E+03 -0.66330358340E+03 -0.51954685517E+03  0.10062860750E+04  0.89657582635E+02 0.  0.
         13    1    3    3    0    0  0.37897799768E+03 -0.39540535100E+03 -0.33583083796E+03  0.64245783212E+03  0.00000000000E+00 0.  1.
        -13    1    3    3    0    0  0.16385955096E+03 -0.26789823239E+03 -0.18371601721E+03  0.36382824291E+03  0.00000000000E+00 0. -1.
         22    1    1    2    0    0 -0.54283754864E+03  0.66330358340E+03 -0.21247771556E+03  0.88305777136E+03  0.00000000000E+00 0. -1.
<mgrwt>
<rscale>  0 0.17417693E+04</rscale>
<asrwt>0</asrwt>
<pdfrwt beam="1">  1        2 0.20164372E+00 0.17417693E+04</pdfrwt>
<pdfrwt beam="2">  1       -2 0.89024560E-01 0.17417693E+04</pdfrwt>
<totfact> 0.16751349E+01</totfact>
</mgrwt>
</event>
<event>
 6    1  0.1878398E-004  0.2835236E+04  0.7818608E-02  0.8292412E-01
         -2   -1    0    0    0  501 -0.00000000000E+00  0.00000000000E+00  0.70766113604E+03  0.70766113604E+03  0.00000000000E+00 0. -1.
          2   -1    0    0  501    0  0.00000000000E+00 -0.00000000000E+00 -0.28398352048E+04  0.28398352048E+04  0.00000000000E+00 0.  1.
         23    2    1    2    0    0 -0.65979684242E+03 -0.11806671891E+04 -0.54209801687E+03  0.14599981407E+04  0.91746532629E+02 0.  0.
         11    1    3    3    0    0 -0.34018009336E+03 -0.51507481075E+03 -0.24705246124E+03  0.66487553360E+03  0.00000000000E+00 0.  1.
        -11    1    3    3    0    0 -0.31961674906E+03 -0.66559237839E+03 -0.29504555563E+03  0.79512260712E+03  0.00000000000E+00 0. -1.
         22    1    1    2    0    0  0.65979684242E+03  0.11806671891E+04 -0.15900760519E+04  0.20874982002E+04  0.00000000000E+00 0.  1.
<mgrwt>
<rscale>  0 0.28352362E+04</rscale>
<asrwt>0</asrwt>
<pdfrwt beam="1">  1        2 0.43689773E+00 0.28352362E+04</pdfrwt>
<pdfrwt beam="2">  1       -2 0.10887094E+00 0.28352362E+04</pdfrwt>
<totfact> 0.12777771E+00</totfact>
</mgrwt>
</event>
<event>
 6    1  0.1878398E-004  0.1214639E+04  0.7818608E-02  0.9100139E-01
         -2   -1    0    0    0  501 -0.00000000000E+00  0.00000000000E+00  0.13219373311E+03  0.13219373311E+03  0.00000000000E+00 0. -1.
          2   -1    0    0  501    0  0.00000000000E+00 -0.00000000000E+00 -0.27901243085E+04  0.27901243085E+04  0.00000000000E+00 0.  1.
         23    2    1    2    0    0  0.49277762669E+02  0.80071463866E+01 -0.27844321128E+04  0.27863215297E+04  0.89627361024E+02 0.  0.
         11    1    3    3    0    0  0.21500690263E+02  0.48229118687E+02 -0.12601880811E+04  0.12612939100E+04  0.00000000000E+00 0.  1.
        -11    1    3    3    0    0  0.27777072406E+02 -0.40221972301E+02 -0.15242440317E+04  0.15250276197E+04  0.00000000000E+00 0. -1.
         22    1    1    2    0    0 -0.49277762669E+02 -0.80071463866E+01  0.12650153740E+03  0.13599651191E+03  0.00000000000E+00 0. -1.
<mgrwt>
<rscale>  0 0.12146390E+04</rscale>
<asrwt>0</asrwt>
<pdfrwt beam="1">  1        2 0.42924990E+00 0.12146390E+04</pdfrwt>
<pdfrwt beam="2">  1       -2 0.20337497E-01 0.12146390E+04</pdfrwt>
<totfact> 0.48465366E+01</totfact>
</mgrwt>
</event>
<event>
 6    1  0.1878398E-004  0.3086253E+04  0.7818608E-02  0.8219521E-01
         -1   -1    0    0    0  501 -0.00000000000E+00  0.00000000000E+00  0.26734244286E+04  0.26734244286E+04  0.00000000000E+00 0. -1.
          1   -1    0    0  501    0  0.00000000000E+00 -0.00000000000E+00 -0.89070767654E+03  0.89070767654E+03  0.00000000000E+00 0.  1.
         23    2    1    2    0    0  0.77198617342E+03 -0.92411764682E+03 -0.21977611162E+03  0.12274819931E+04  0.91947957959E+02 0.  0.
         13    1    3    3    0    0  0.35135854157E+03 -0.48511652080E+03 -0.88675164072E+02  0.60551973396E+03  0.00000000000E+00 0.  1.
        -13    1    3    3    0    0  0.42062763185E+03 -0.43900112602E+03 -0.13110094754E+03  0.62196225912E+03  0.00000000000E+00 0. -1.
         22    1    1    2    0    0 -0.77198617342E+03  0.92411764682E+03  0.20024928636E+04  0.23366501120E+04  0.00000000000E+00 0. -1.
<mgrwt>
<rscale>  0 0.30862532E+04</rscale>
<asrwt>0</asrwt>
<pdfrwt beam="1">  1        1 0.13703195E+00 0.30862532E+04</pdfrwt>
<pdfrwt beam="2">  1       -1 0.41129606E+00 0.30862532E+04</pdfrwt>
<totfact> 0.93568021E-02</totfact>
</mgrwt>
</event>
<event>
 6    1  0.1878398E-004  0.1122533E+04  0.7818608E-02  0.9183504E-01
          1   -1    0    0  501    0  0.00000000000E+00  0.00000000000E+00  0.62157896056E+03  0.62157896056E+03  0.00000000000E+00 0.  1.
         -1   -1    0    0    0  501 -0.00000000000E+00 -0.00000000000E+00 -0.50680641616E+03  0.50680641616E+03  0.00000000000E+00 0. -1.
         23    2    1    2    0    0  0.39575680407E+03 -0.14099411570E+03 -0.31035270863E+03  0.53069459596E+03  0.93889093090E+02 0.  0.
         13    1    3    3    0    0  0.14428759590E+03 -0.48435288215E+01 -0.97415163086E+02  0.17416108664E+03  0.00000000000E+00 0. -1.
        -13    1    3    3    0    0  0.25146920817E+03 -0.13615058688E+03 -0.21293754554E+03  0.35653350932E+03  0.00000000000E+00 0.  1.
         22    1    1    2    0    0 -0.39575680407E+03  0.14099411570E+03  0.42512525303E+03  0.59769078075E+03  0.00000000000E+00 0.  1.
<mgrwt>
<rscale>  0 0.11225332E+04</rscale>
<asrwt>0</asrwt>
<pdfrwt beam="1">  1        1 0.95627532E-01 0.11225332E+04</pdfrwt>
<pdfrwt beam="2">  1       -1 0.77970218E-01 0.11225332E+04</pdfrwt>
<totfact> 0.53354056E+01</totfact>
</mgrwt>
</event>
<event>
 6    1  0.1878398E-004  0.9716671E+03  0.7818608E-02  0.9340178E-01
          1   -1    0    0  501    0  0.00000000000E+00  0.00000000000E+00  0.58735043683E+03  0.58735043683E+03  0.00000000000E+00 0.  1.
         -1   -1    0    0    0  501 -0.00000000000E+00 -0.00000000000E+00 -0.40186272625E+03  0.40186272625E+03  0.00000000000E+00 0. -1.
         23    2    1    2    0    0 -0.10286107499E+03 -0.45869755990E+03 -0.12648506413E+02  0.47907414998E+03  0.91477889405E+02 0.  0.
         11    1    3    3    0    0 -0.24067002054E+02 -0.30691853752E+03 -0.54101144504E+01  0.30790823081E+03  0.00000000000E+00 0. -1.
        -11    1    3    3    0    0 -0.78794072939E+02 -0.15177902238E+03 -0.72383919628E+01  0.17116591917E+03  0.00000000000E+00 0.  1.
         22    1    1    2    0    0  0.10286107499E+03  0.45869755990E+03  0.19813621699E+03  0.51013901311E+03  0.00000000000E+00 0.  1.
<mgrwt>
<rscale>  0 0.97166712E+03</rscale>
<asrwt>0</asrwt>
<pdfrwt beam="1">  1        1 0.90361606E-01 0.97166712E+03</pdfrwt>
<pdfrwt beam="2">  1       -1 0.61825035E-01 0.97166712E+03</pdfrwt>
<totfact> 0.94136468E+01</totfact>
</mgrwt>
</event>
<event>
 6    1  0.1878398E-004  0.3938460E+04  0.7818608E-02  0.8017077E-01
         -2   -1    0    0    0  501 -0.00000000000E+00  0.00000000000E+00  0.15042622675E+04  0.15042622675E+04  0.00000000000E+00 0.  1.
          2   -1    0    0  501    0  0.00000000000E+00 -0.00000000000E+00 -0.25779192750E+04  0.25779192750E+04  0.00000000000E+00 0. -1.
         23    2    1    2    0    0 -0.46826085342E+03 -0.11103983673E+04 -0.21500432707E+04  0.24663659130E+04  0.89565563343E+02 0.  0.
         13    1    3    3    0    0 -0.19991157775E+03 -0.58760459459E+03 -0.11198550338E+04  0.12803589712E+04  0.00000000000E+00 0. -1.
        -13    1    3    3    0    0 -0.26834927567E+03 -0.52279377267E+03 -0.10301882369E+04  0.11860069418E+04  0.00000000000E+00 0.  1.
         22    1    1    2    0    0  0.46826085342E+03  0.11103983673E+04  0.10763862633E+04  0.16158156295E+04  0.00000000000E+00 0.  1.
<mgrwt>
<rscale>  0 0.39384599E+04</rscale>
<asrwt>0</asrwt>
<pdfrwt beam="1">  1        2 0.39660297E+00 0.39384599E+04</pdfrwt>
<pdfrwt beam="2">  1       -2 0.23142496E+00 0.39384599E+04</pdfrwt>
<totfact> 0.20819756E-01</totfact>
</mgrwt>
</event>
<event>
 6    1  0.1878398E-004  0.3071398E+04  0.7818608E-02  0.8223632E-01
          1   -1    0    0  501    0  0.00000000000E+00  0.00000000000E+00  0.15954340352E+04  0.15954340352E+04  0.00000000000E+00 0.  1.
         -1   -1    0    0    0  501 -0.00000000000E+00 -0.00000000000E+00 -0.14782002316E+04  0.14782002316E+04  0.00000000000E+00 0. -1.
         23    2    1    2    0    0 -0.55405546172E+03  0.84841963321E+03  0.12116284875E+04  0.15821608164E+04  0.91629299571E+02 0.  0.
         11    1    3    3    0    0 -0.23684051237E+03  0.42400792481E+03  0.62799024857E+03  0.79388154085E+03  0.00000000000E+00 0. -1.
        -11    1    3    3    0    0 -0.31721494935E+03  0.42441170840E+03  0.58363823897E+03  0.78827927558E+03  0.00000000000E+00 0.  1.
         22    1    1    2    0    0  0.55405546172E+03 -0.84841963321E+03 -0.10943946839E+04  0.14914734503E+04  0.00000000000E+00 0. -1.
<mgrwt>
<rscale>  0 0.30713977E+04</rscale>
<asrwt>0</asrwt>
<pdfrwt beam="1">  1        1 0.24545139E+00 0.30713977E+04</pdfrwt>
<pdfrwt beam="2">  1       -1 0.22741542E+00 0.30713977E+04</pdfrwt>
<totfact> 0.46689038E-01</totfact>
</mgrwt>
</event>
<event>
 6    1  0.1878398E-004  0.1581219E+04  0.7818608E-02  0.8832170E-01
          2   -1    0    0  501    0  0.00000000000E+00  0.00000000000E+00  0.10105819776E+04  0.10105819776E+04  0.00000000000E+00 0.  1.
         -2   -1    0    0    0  501 -0.00000000000E+00 -0.00000000000E+00 -0.61851812319E+03  0.61851812319E+03  0.00000000000E+00 0. -1.
         23    2    1    2    0    0  0.42356229229E+03 -0.66061727725E+03  0.12268270929E+03  0.79940955381E+03  0.90467591448E+02 0.  0.
         11    1    3    3    0    0  0.12184668133E+03 -0.18345403153E+03 -0.62623330707E+01  0.22032070318E+03  0.00000000000E+00 0.  1.
        -11    1    3    3    0    0  0.30171561097E+03 -0.47716324572E+03  0.12894504236E+03  0.57908885063E+03  0.00000000000E+00 0. -1.
         22    1    1    2    0    0 -0.42356229229E+03  0.66061727725E+03  0.26938114515E+03  0.82969054703E+03  0.00000000000E+00 0.  1.
<mgrwt>
<rscale>  0 0.15812189E+04</rscale>
<asrwt>0</asrwt>
<pdfrwt beam="1">  1        2 0.15547415E+00 0.15812189E+04</pdfrwt>
<pdfrwt beam="2">  1       -2 0.95156634E-01 0.15812189E+04</pdfrwt>
<totfact> 0.22113308E+01</totfact>
</mgrwt>
</event>
<event>
 6    1  0.1878398E-004  0.1177432E+04  0.7818608E-02  0.9132843E-01
          2   -1    0    0  501    0  0.00000000000E+00  0.00000000000E+00  0.15255736356E+04  0.15255736356E+04  0.00000000000E+00 0.  1.
         -2   -1    0    0    0  501 -0.00000000000E+00 -0.00000000000E+00 -0.22718449692E+03  0.22718449692E+03  0.00000000000E+00 0. -1.
         23    2    1    2    0    0 -0.48102348037E+03  0.27026168572E+03  0.36287710873E+03  0.66666065732E+03  0.91277974018E+02 0.  0.
         13    1    3    3    0    0 -0.22573837070E+03  0.14732150589E+03  0.12697033345E+03  0.29796460139E+03  0.00000000000E+00 0.  1.
        -13    1    3    3    0    0 -0.25528510967E+03  0.12294017983E+03  0.23590677528E+03  0.36869605593E+03  0.00000000000E+00 0. -1.
         22    1    1    2    0    0  0.48102348037E+03 -0.27026168572E+03  0.93551202990E+03  0.10860974751E+04  0.00000000000E+00 0.  1.
<mgrwt>
<rscale>  0 0.11774323E+04</rscale>
<asrwt>0</asrwt>
<pdfrwt beam="1">  1        2 0.23470363E+00 0.11774323E+04</pdfrwt>
<pdfrwt beam="2">  1       -2 0.34951462E-01 0.11774323E+04</pdfrwt>
<totfact> 0.93146425E+01</totfact>
</mgrwt>
</event>
<event>
 6    1  0.1878398E-004  0.5054166E+04  0.7818608E-02  0.7820205E-01
         -2   -1    0    0    0  501 -0.00000000000E+00  0.00000000000E+00  0.21809666347E+04  0.21809666347E+04  0.00000000000E+00 0. -1.
          2   -1    0    0  501    0  0.00000000000E+00 -0.00000000000E+00 -0.29281278530E+04  0.29281278530E+04  0.00000000000E+00 0.  1.
         23    2    1    2    0    0 -0.15331018144E+04  0.82297374011E+03 -0.22251123620E+04  0.28261081686E+04  0.89863268139E+02 0.  0.
         11    1    3    3    0    0 -0.32112014174E+03  0.16171030731E+03 -0.51839963225E+03  0.63087760115E+03  0.00000000000E+00 0.  1.
        -11    1    3    3    0    0 -0.12119816727E+04  0.66126343281E+03 -0.17067127297E+04  0.21952305675E+04  0.00000000000E+00 0. -1.
         22    1    1    2    0    0  0.15331018144E+04 -0.82297374011E+03  0.14779511437E+04  0.22829863191E+04  0.00000000000E+00 0. -1.
<mgrwt>
<rscale>  0 0.50541663E+04</rscale>
<asrwt>0</asrwt>
<pdfrwt beam="1">  1        2 0.45048121E+00 0.50541663E+04</pdfrwt>
<pdfrwt beam="2">  1       -2 0.33553333E+00 0.50541663E+04</pdfrwt>
<totfact> 0.26822311E-02</totfact>
</mgrwt>
</event>
<event>
 6    1  0.1878398E-004  0.1533128E+04  0.7818608E-02  0.8862717E-01
          1   -1    0    0  501    0  0.00000000000E+00  0.00000000000E+00  0.32169613780E+04  0.32169613780E+04  0.00000000000E+00 0.  1.
         -1   -1    0    0    0  501 -0.00000000000E+00 -0.00000000000E+00 -0.18266318987E+03  0.18266318987E+03  0.00000000000E+00 0. -1.
         23    2    1    2    0    0  0.34540961959E+03 -0.59127200814E+03  0.22730171172E+04  0.23756815705E+04  0.91354892233E+02 0.  0.
         13    1    3    3    0    0  0.26226752848E+03 -0.36482367482E+03  0.15118898488E+04  0.15772417333E+04  0.00000000000E+00 0.  1.
        -13    1    3    3    0    0  0.83142091108E+02 -0.22644833332E+03  0.76112726842E+03  0.79843983725E+03  0.00000000000E+00 0. -1.
         22    1    1    2    0    0 -0.34540961959E+03  0.59127200814E+03  0.76128107086E+03  0.10239429973E+04  0.00000000000E+00 0. -1.
<mgrwt>
<rscale>  0 0.15331281E+04</rscale>
<asrwt>0</asrwt>
<pdfrwt beam="1">  1        1 0.49491709E+00 0.15331281E+04</pdfrwt>
<pdfrwt beam="2">  1       -1 0.28102032E-01 0.15331281E+04</pdfrwt>
<totfact> 0.45916250E+00</totfact>
</mgrwt>
</event>
<event>
 6    1  0.1878398E-004  0.3099016E+04  0.7818608E-02  0.8216008E-01
          1   -1    0    0  501    0  0.00000000000E+00  0.00000000000E+00  0.28929113093E+04  0.28929113093E+04  0.00000000000E+00 0.  1.
         -1   -1    0    0    0  501 -0.00000000000E+00 -0.00000000000E+00 -0.82995135548E+03  0.82995135548E+03  0.00000000000E+00 0. -1.
         23    2    1    2    0    0  0.11154235974E+04 -0.56466301417E+03 -0.64550890953E+02  0.12552086137E+04  0.91475271756E+02 0.  0.
         13    1    3    3    0    0  0.44588541342E+03 -0.23735228045E+03 -0.69840505505E+02  0.50992901775E+03  0.00000000000E+00 0. -1.
        -13    1    3    3    0    0  0.66953818394E+03 -0.32731073373E+03  0.52896145519E+01  0.74527959598E+03  0.00000000000E+00 0.  1.
         22    1    1    2    0    0 -0.11154235974E+04  0.56466301417E+03  0.21275108448E+04  0.24676540511E+04  0.00000000000E+00 0.  1.
<mgrwt>
<rscale>  0 0.30990164E+04</rscale>
<asrwt>0</asrwt>
<pdfrwt beam="1">  1        1 0.44506327E+00 0.30990164E+04</pdfrwt>
<pdfrwt beam="2">  1       -1 0.12768483E+00 0.30990164E+04</pdfrwt>
<totfact> 0.31988624E-01</totfact>
</mgrwt>
</event>
<event>
 6    1  0.1878398E-004  0.2604144E+04  0.7818608E-02  0.8366795E-01
         -2   -1    0    0    0  501 -0.00000000000E+00  0.00000000000E+00  0.84927492806E+03  0.84927492806E+03  0.00000000000E+00 0. -1.
          2   -1    0    0  501    0  0.00000000000E+00 -0.00000000000E+00 -0.19962806928E+04  0.19962806928E+04  0.00000000000E+00 0.  1.
         23    2    1    2    0    0 -0.96001672082E+02 -0.45574297431E+03  0.75253751036E+03  0.88974820865E+03  0.91767045376E+02 0.  0.
         13    1    3    3    0    0 -0.17146019426E+02 -0.27862444367E+03  0.48027952792E+03  0.55551236848E+03  0.00000000000E+00 0. -1.
        -13    1    3    3    0    0 -0.78855652657E+02 -0.17711853063E+03  0.27225798244E+03  0.33423584017E+03  0.00000000000E+00 0.  1.
         22    1    1    2    0    0  0.96001672082E+02  0.45574297431E+03 -0.18995432752E+04  0.19558074123E+04  0.00000000000E+00 0.  1.
<mgrwt>
<rscale>  0 0.26041437E+04</rscale>
<asrwt>0</asrwt>
<pdfrwt beam="1">  1        2 0.30712010E+00 0.26041437E+04</pdfrwt>
<pdfrwt beam="2">  1       -2 0.13065768E+00 0.26041437E+04</pdfrwt>
<totfact> 0.25453811E+00</totfact>
</mgrwt>
</event>
<event>
 6    1  0.1878398E-004  0.3979665E+04  0.7818608E-02  0.8008661E-01
         -2   -1    0    0    0  501 -0.00000000000E+00  0.00000000000E+00  0.15180832525E+04  0.15180832525E+04  0.00000000000E+00 0. -1.
          2   -1    0    0  501    0  0.00000000000E+00 -0.00000000000E+00 -0.26081790627E+04  0.26081790627E+04  0.00000000000E+00 0.  1.
         23    2    1    2    0    0  0.28436639298E+03  0.14584735496E+04  0.82522613683E+03  0.17021196831E+04  0.90575372567E+02 0.  0.
         11    1    3    3    0    0  0.25729113169E+03  0.11944630895E+04  0.70613627742E+03  0.14112296910E+04  0.00000000000E+00 0.  1.
        -11    1    3    3    0    0  0.27075261289E+02  0.26401046016E+03  0.11908985941E+03  0.29088999203E+03  0.00000000000E+00 0. -1.
         22    1    1    2    0    0 -0.28436639298E+03 -0.14584735496E+04 -0.19153219470E+04  0.24241426322E+04  0.00000000000E+00 0.  1.
<mgrwt>
<rscale>  0 0.39796648E+04</rscale>
<asrwt>0</asrwt>
<pdfrwt beam="1">  1        2 0.40125832E+00 0.39796648E+04</pdfrwt>
<pdfrwt beam="2">  1       -2 0.23355127E+00 0.39796648E+04</pdfrwt>
<totfact> 0.19318724E-01</totfact>
</mgrwt>
</event>
<event>
 6    1  0.1897660E-004  0.3107700E+04  0.7818608E-02  0.8213628E-01
          1   -1    0    0  501    0  0.00000000000E+00  0.00000000000E+00  0.24837927611E+04  0.24837927611E+04  0.00000000000E+00 0.  1.
         -1   -1    0    0    0  501 -0.00000000000E+00 -0.00000000000E+00 -0.97208196070E+03  0.97208196070E+03  0.00000000000E+00 0. -1.
         23    2    1    2    0    0 -0.78597928507E+03 -0.10905308508E+03  0.22407793752E+04  0.23782862110E+04  0.74142301166E+02 0.  0.
         13    1    3    3    0    0 -0.21888069279E+03 -0.69824884735E+01  0.54867136271E+03  0.59076033810E+03  0.00000000000E+00 0. -1.
        -13    1    3    3    0    0 -0.56709859229E+03 -0.10207059661E+03  0.16921080125E+04  0.17875258729E+04  0.00000000000E+00 0.  1.
         22    1    1    2    0    0  0.78597928507E+03  0.10905308508E+03 -0.72906857482E+03  0.10775885109E+04  0.00000000000E+00 0. -1.
<mgrwt>
<rscale>  0 0.31077002E+04</rscale>
<asrwt>0</asrwt>
<pdfrwt beam="1">  1        1 0.38212196E+00 0.31077002E+04</pdfrwt>
<pdfrwt beam="2">  1       -1 0.14955107E+00 0.31077002E+04</pdfrwt>
<totfact> 0.41222246E-01</totfact>
</mgrwt>
</event>
<event>
 6    1  0.1878398E-004  0.1806808E+04  0.7818608E-02  0.8702687E-01
         -2   -1    0    0    0  501 -0.00000000000E+00  0.00000000000E+00  0.31280025057E+03  0.31280025057E+03  0.00000000000E+00 0. -1.
          2   -1    0    0  501    0  0.00000000000E+00 -0.00000000000E+00 -0.26091368873E+04  0.26091368873E+04  0.00000000000E+00 0.  1.
         23    2    1    2    0    0  0.52203970014E+03  0.39299674349E+03 -0.21547937227E+04  0.22533518513E+04  0.86525657601E+02 0.  0.
         11    1    3    3    0    0  0.43157795384E+03  0.36227313067E+03 -0.18575991892E+04  0.19411790487E+04  0.00000000000E+00 0.  1.
        -11    1    3    3    0    0  0.90461746302E+02  0.30723612822E+02 -0.29719453348E+03  0.31217280256E+03  0.00000000000E+00 0. -1.
         22    1    1    2    0    0 -0.52203970014E+03 -0.39299674349E+03 -0.14154291403E+03  0.66858528658E+03  0.00000000000E+00 0. -1.
<mgrwt>
<rscale>  0 0.18068079E+04</rscale>
<asrwt>0</asrwt>
<pdfrwt beam="1">  1        2 0.40140567E+00 0.18068079E+04</pdfrwt>
<pdfrwt beam="2">  1       -2 0.48123116E-01 0.18068079E+04</pdfrwt>
<totfact> 0.11620654E+01</totfact>
</mgrwt>
</event>
<event>
 6    1  0.1878398E-004  0.2103429E+04  0.7818608E-02  0.8559734E-01
          1   -1    0    0  501    0  0.00000000000E+00  0.00000000000E+00  0.16242164999E+04  0.16242164999E+04  0.00000000000E+00 0.  1.
         -1   -1    0    0    0  501 -0.00000000000E+00 -0.00000000000E+00 -0.68100749683E+03  0.68100749683E+03  0.00000000000E+00 0. -1.
         23    2    1    2    0    0  0.83769293469E+03 -0.40693441847E+03 -0.58047044888E+02  0.93780352471E+03  0.93706551354E+02 0.  0.
         13    1    3    3    0    0  0.56073773311E+03 -0.30373269494E+03 -0.72924095270E+02  0.64187092081E+03  0.00000000000E+00 0.  1.
        -13    1    3    3    0    0  0.27695520158E+03 -0.10320172353E+03  0.14877050382E+02  0.29593260390E+03  0.00000000000E+00 0. -1.
         22    1    1    2    0    0 -0.83769293469E+03  0.40693441847E+03  0.10012560480E+04  0.13674204720E+04  0.00000000000E+00 0.  1.
<mgrwt>
<rscale>  0 0.21034292E+04</rscale>
<asrwt>0</asrwt>
<pdfrwt beam="1">  1        1 0.24987946E+00 0.21034292E+04</pdfrwt>
<pdfrwt beam="2">  1       -1 0.10477038E+00 0.21034292E+04</pdfrwt>
<totfact> 0.42249366E+00</totfact>
</mgrwt>
</event>
<event>
 6    1  0.1878398E-004  0.1525275E+04  0.7818608E-02  0.8867817E-01
         -1   -1    0    0    0  501 -0.00000000000E+00  0.00000000000E+00  0.51647483423E+03  0.51647483423E+03  0.00000000000E+00 0. -1.
          1   -1    0    0  501    0  0.00000000000E+00 -0.00000000000E+00 -0.11261263831E+04  0.11261263831E+04  0.00000000000E+00 0.  1.
         23    2    1    2    0    0 -0.28200235766E+03 -0.86173215438E+02 -0.10601287918E+04  0.11041953302E+04  0.91777552532E+02 0.  0.
         11    1    3    3    0    0 -0.91248036687E+02 -0.55730306172E+02 -0.51143431954E+03  0.52249127689E+03  0.00000000000E+00 0. -1.
        -11    1    3    3    0    0 -0.19075432098E+03 -0.30442909266E+02 -0.54869447230E+03  0.58170405330E+03  0.00000000000E+00 0.  1.
         22    1    1    2    0    0  0.28200235766E+03  0.86173215438E+02  0.45047724302E+03  0.53840588710E+03  0.00000000000E+00 0. -1.
<mgrwt>
<rscale>  0 0.15252750E+04</rscale>
<asrwt>0</asrwt>
<pdfrwt beam="1">  1        1 0.17325021E+00 0.15252750E+04</pdfrwt>
<pdfrwt beam="2">  1       -1 0.79457667E-01 0.15252750E+04</pdfrwt>
<totfact> 0.18518309E+01</totfact>
</mgrwt>
</event>
<event>
 6    1  0.1878398E-004  0.9432913E+03  0.7818608E-02  0.9373027E-01
         -1   -1    0    0    0  501 -0.00000000000E+00  0.00000000000E+00  0.42984022002E+03  0.42984022002E+03  0.00000000000E+00 0. -1.
          1   -1    0    0  501    0  0.00000000000E+00 -0.00000000000E+00 -0.51751703999E+03  0.51751703999E+03  0.00000000000E+00 0.  1.
         23    2    1    2    0    0  0.17424253282E+03  0.42805321030E+03  0.83560659632E+01  0.47532725433E+03  0.11079785096E+03 0.  0.
         11    1    3    3    0    0  0.13690365707E+03  0.20350192431E+03  0.27935484436E+02  0.24685225502E+03  0.00000000000E+00 0. -1.
        -11    1    3    3    0    0  0.37338875747E+02  0.22455128599E+03 -0.19579418473E+02  0.22847499931E+03  0.00000000000E+00 0.  1.
         22    1    1    2    0    0 -0.17424253282E+03 -0.42805321030E+03 -0.96032885931E+02  0.47203000569E+03  0.00000000000E+00 0.  1.
<mgrwt>
<rscale>  0 0.94329134E+03</rscale>
<asrwt>0</asrwt>
<pdfrwt beam="1">  1        1 0.79618006E-01 0.94329134E+03</pdfrwt>
<pdfrwt beam="2">  1       -1 0.66129265E-01 0.94329134E+03</pdfrwt>
<totfact> 0.98518204E+01</totfact>
</mgrwt>
</event>
<event>
 6    1  0.1878398E-004  0.2016741E+04  0.7818608E-02  0.8598833E-01
          2   -1    0    0  501    0  0.00000000000E+00  0.00000000000E+00  0.24019185036E+04  0.24019185036E+04  0.00000000000E+00 0.  1.
         -2   -1    0    0    0  501 -0.00000000000E+00 -0.00000000000E+00 -0.42333299877E+03  0.42333299877E+03  0.00000000000E+00 0. -1.
         23    2    1    2    0    0  0.33850711174E+03 -0.25112768519E+02  0.23185612583E+04  0.23448337375E+04  0.85447247155E+02 0.  0.
         11    1    3    3    0    0  0.31424802545E+03 -0.94769108096E+01  0.19538650633E+04  0.19789973014E+04  0.00000000000E+00 0.  1.
        -11    1    3    3    0    0  0.24259086295E+02 -0.15635857710E+02  0.36469619502E+03  0.36583643609E+03  0.00000000000E+00 0. -1.
         22    1    1    2    0    0 -0.33850711174E+03  0.25112768519E+02 -0.33997575349E+03  0.48041776487E+03  0.00000000000E+00 0. -1.
<mgrwt>
<rscale>  0 0.20167413E+04</rscale>
<asrwt>0</asrwt>
<pdfrwt beam="1">  1        2 0.36952591E+00 0.20167413E+04</pdfrwt>
<pdfrwt beam="2">  1       -2 0.65128155E-01 0.20167413E+04</pdfrwt>
<totfact> 0.80005205E+00</totfact>
</mgrwt>
</event>
<event>
 6    1  0.6063855E-004  0.4583230E+04  0.7818608E-02  0.7896226E-01
         -2   -1    0    0    0  501 -0.00000000000E+00  0.00000000000E+00  0.26748418416E+04  0.26748418416E+04  0.00000000000E+00 0. -1.
          2   -1    0    0  501    0  0.00000000000E+00 -0.00000000000E+00 -0.19632929895E+04  0.19632929895E+04  0.00000000000E+00 0.  1.
         23    2    1    2    0    0  0.37007441229E+03  0.64018582780E+03  0.25499510652E+04  0.26565910738E+04  0.91829917822E+02 0.  0.
         13    1    3    3    0    0  0.22162354134E+03  0.29248860269E+03  0.12780848049E+04  0.13297245374E+04  0.00000000000E+00 0. -1.
        -13    1    3    3    0    0  0.14845087096E+03  0.34769722511E+03  0.12718662603E+04  0.13268665365E+04  0.00000000000E+00 0.  1.
         22    1    1    2    0    0 -0.37007441229E+03 -0.64018582780E+03 -0.18384022132E+04  0.19815437573E+04  0.00000000000E+00 0.  1.
<mgrwt>
<rscale>  0 0.45832295E+04</rscale>
<asrwt>0</asrwt>
<pdfrwt beam="1">  1        2 0.30204508E+00 0.45832295E+04</pdfrwt>
<pdfrwt beam="2">  1       -2 0.41151413E+00 0.45832295E+04</pdfrwt>
<totfact> 0.32886593E-02</totfact>
</mgrwt>
</event>
<event>
 6    1  0.1878398E-004  0.2046460E+04  0.7818608E-02  0.8585202E-01
          2   -1    0    0  501    0  0.00000000000E+00  0.00000000000E+00  0.32701788013E+04  0.32701788013E+04  0.00000000000E+00 0.  1.
         -2   -1    0    0    0  501 -0.00000000000E+00 -0.00000000000E+00 -0.32016581984E+03  0.32016581984E+03  0.00000000000E+00 0. -1.
         23    2    1    2    0    0  0.36755403742E+03  0.65059497328E+03  0.26990996992E+04  0.28021014703E+04  0.90904752222E+02 0.  0.
         13    1    3    3    0    0  0.88404232837E+02  0.17100749635E+03  0.55853891425E+03  0.59078303202E+03  0.00000000000E+00 0.  1.
        -13    1    3    3    0    0  0.27914980458E+03  0.47958747693E+03  0.21405607849E+04  0.22113184383E+04  0.00000000000E+00 0. -1.
         22    1    1    2    0    0 -0.36755403742E+03 -0.65059497328E+03  0.25091328231E+03  0.78824315089E+03  0.00000000000E+00 0. -1.
<mgrwt>
<rscale>  0 0.20464598E+04</rscale>
<asrwt>0</asrwt>
<pdfrwt beam="1">  1        2 0.50310441E+00 0.20464598E+04</pdfrwt>
<pdfrwt beam="2">  1       -2 0.49256282E-01 0.20464598E+04</pdfrwt>
<totfact> 0.42255692E+00</totfact>
</mgrwt>
</event>
<event>
 6    1  0.1878398E-004  0.5404974E+03  0.7818608E-02  0.1003718E+00
          1   -1    0    0  501    0  0.00000000000E+00  0.00000000000E+00  0.66007058696E+03  0.66007058696E+03  0.00000000000E+00 0. -1.
         -1   -1    0    0    0  501 -0.00000000000E+00 -0.00000000000E+00 -0.11064629712E+03  0.11064629712E+03  0.00000000000E+00 0.  1.
         23    2    1    2    0    0 -0.10804389481E+03  0.20276121629E+03  0.99395560501E+02  0.26543334856E+03  0.88259792898E+02 0.  0.
         11    1    3    3    0    0 -0.48512681671E+02  0.11948132321E+03  0.96851214063E+01  0.12931770356E+03  0.00000000000E+00 0.  1.
        -11    1    3    3    0    0 -0.59531213137E+02  0.83279893083E+02  0.89710439095E+02  0.13611564499E+03  0.00000000000E+00 0. -1.
         22    1    1    2    0    0  0.10804389481E+03 -0.20276121629E+03  0.45002872934E+03  0.50528353552E+03  0.00000000000E+00 0. -1.
<mgrwt>
<rscale>  0 0.54049742E+03</rscale>
<asrwt>0</asrwt>
<pdfrwt beam="1">  1        1 0.10154932E+00 0.54049742E+03</pdfrwt>
<pdfrwt beam="2">  1       -1 0.17022508E-01 0.54049742E+03</pdfrwt>
<totfact> 0.80223616E+02</totfact>
</mgrwt>
</event>
<event>
 6    1  0.1878398E-004  0.4936146E+04  0.7818608E-02  0.7838433E-01
          2   -1    0    0  501    0  0.00000000000E+00  0.00000000000E+00  0.47874282321E+04  0.47874282321E+04  0.00000000000E+00 0.  1.
         -2   -1    0    0    0  501 -0.00000000000E+00 -0.00000000000E+00 -0.12723708524E+04  0.12723708524E+04  0.00000000000E+00 0. -1.
         23    2    1    2    0    0  0.11302342782E+03 -0.18284195051E+04 -0.27085049087E+03  0.18539709157E+04  0.89196332972E+02 0.  0.
         11    1    3    3    0    0  0.10461335983E+03 -0.13631909397E+04 -0.16850869578E+03  0.13775444362E+04  0.00000000000E+00 0.  1.
        -11    1    3    3    0    0  0.84100679894E+01 -0.46522856544E+03 -0.10234179509E+03  0.47642647950E+03  0.00000000000E+00 0. -1.
         22    1    1    2    0    0 -0.11302342782E+03  0.18284195051E+04  0.37859078706E+04  0.42058281689E+04  0.00000000000E+00 0.  1.
<mgrwt>
<rscale>  0 0.49361459E+04</rscale>
<asrwt>0</asrwt>
<pdfrwt beam="1">  1        2 0.73652741E+00 0.49361459E+04</pdfrwt>
<pdfrwt beam="2">  1       -2 0.19574936E+00 0.49361459E+04</pdfrwt>
<totfact> 0.62988139E-03</totfact>
</mgrwt>
</event>
<event>
 6    1  0.1878398E-004  0.1402614E+04  0.7818608E-02  0.8951928E-01
         -2   -1    0    0    0  501 -0.00000000000E+00  0.00000000000E+00  0.26372422430E+03  0.26372422430E+03  0.00000000000E+00 0. -1.
          2   -1    0    0  501    0  0.00000000000E+00 -0.00000000000E+00 -0.18649468058E+04  0.18649468058E+04  0.00000000000E+00 0.  1.
         23    2    1    2    0    0 -0.66299355041E+03 -0.13683227761E+03 -0.10646069609E+04  0.12648192811E+04  0.89979511005E+02 0.  0.
         13    1    3    3    0    0 -0.39027680656E+03 -0.12238703002E+03 -0.60804721388E+03  0.73281374520E+03  0.00000000000E+00 0.  1.
        -13    1    3    3    0    0 -0.27271674385E+03 -0.14445247595E+02 -0.45655974705E+03  0.53200553585E+03  0.00000000000E+00 0. -1.
         22    1    1    2    0    0  0.66299355041E+03  0.13683227761E+03 -0.53661562058E+03  0.86385174905E+03  0.00000000000E+00 0.  1.
<mgrwt>
<rscale>  0 0.14026142E+04</rscale>
<asrwt>0</asrwt>
<pdfrwt beam="1">  1        2 0.28691489E+00 0.14026142E+04</pdfrwt>
<pdfrwt beam="2">  1       -2 0.40572958E-01 0.14026142E+04</pdfrwt>
<totfact> 0.44455036E+01</totfact>
</mgrwt>
</event>
<event>
 6    1  0.1878398E-004  0.8067648E+03  0.7818608E-02  0.9550277E-01
          1   -1    0    0  501    0  0.00000000000E+00  0.00000000000E+00  0.79723687694E+03  0.79723687694E+03  0.00000000000E+00 0. -1.
         -1   -1    0    0    0  501 -0.00000000000E+00 -0.00000000000E+00 -0.20410163788E+03  0.20410163788E+03  0.00000000000E+00 0.  1.
         23    2    1    2    0    0 -0.12631242776E+03 -0.15366744216E+03 -0.12786180113E+03  0.25340453101E+03  0.91086244620E+02 0.  0.
         11    1    3    3    0    0 -0.42524850002E+02 -0.43162048100E+02  0.57106675237E+01  0.60859978536E+02  0.00000000000E+00 0. -1.
        -11    1    3    3    0    0 -0.83787577757E+02 -0.11050539406E+03 -0.13357246866E+03  0.19254455247E+03  0.00000000000E+00 0.  1.
         22    1    1    2    0    0  0.12631242776E+03  0.15366744216E+03  0.72099704018E+03  0.74793398381E+03  0.00000000000E+00 0. -1.
<mgrwt>
<rscale>  0 0.80676478E+03</rscale>
<asrwt>0</asrwt>
<pdfrwt beam="1">  1        1 0.12265183E+00 0.80676478E+03</pdfrwt>
<pdfrwt beam="2">  1       -1 0.31400253E-01 0.80676478E+03</pdfrwt>
<totfact> 0.21133062E+02</totfact>
</mgrwt>
</event>
<event>
 6    1  0.1878398E-004  0.2639171E+04  0.7818608E-02  0.8355016E-01
         -1   -1    0    0    0  501 -0.00000000000E+00  0.00000000000E+00  0.92126767612E+03  0.92126767612E+03  0.00000000000E+00 0. -1.
          1   -1    0    0  501    0  0.00000000000E+00 -0.00000000000E+00 -0.18901196731E+04  0.18901196731E+04  0.00000000000E+00 0.  1.
         23    2    1    2    0    0  0.86349825029E+03 -0.97329807808E+02  0.57095901713E+03  0.10433035619E+04  0.85940696633E+02 0.  0.
         11    1    3    3    0    0  0.64741094780E+03 -0.66309578811E+02  0.38232023361E+03  0.75478914711E+03  0.00000000000E+00 0.  1.
        -11    1    3    3    0    0  0.21608730249E+03 -0.31020228997E+02  0.18863878353E+03  0.28851441481E+03  0.00000000000E+00 0. -1.
         22    1    1    2    0    0 -0.86349825029E+03  0.97329807808E+02 -0.15398110141E+04  0.17680837873E+04  0.00000000000E+00 0.  1.
<mgrwt>
<rscale>  0 0.26391712E+04</rscale>
<asrwt>0</asrwt>
<pdfrwt beam="1">  1        1 0.29078764E+00 0.26391712E+04</pdfrwt>
<pdfrwt beam="2">  1       -1 0.14173349E+00 0.26391712E+04</pdfrwt>
<totfact> 0.12603130E+00</totfact>
</mgrwt>
</event>
<event>
 6    1  0.1878398E-004  0.1977598E+04  0.7818608E-02  0.8617166E-01
          1   -1    0    0  501    0  0.00000000000E+00  0.00000000000E+00  0.30550902078E+04  0.30550902078E+04  0.00000000000E+00 0.  1.
         -1   -1    0    0    0  501 -0.00000000000E+00 -0.00000000000E+00 -0.32003098434E+03  0.32003098434E+03  0.00000000000E+00 0. -1.
         23    2    1    2    0    0  0.91894255861E+03 -0.33273715611E+03  0.16034383719E+04  0.18798836883E+04  0.88196531026E+02 0.  0.
         11    1    3    3    0    0  0.71456096332E+03 -0.28148509269E+03  0.11997135945E+04  0.14244802339E+04  0.00000000000E+00 0. -1.
        -11    1    3    3    0    0  0.20438159529E+03 -0.51252063418E+02  0.40372477732E+03  0.45540345444E+03  0.00000000000E+00 0.  1.
         22    1    1    2    0    0 -0.91894255861E+03  0.33273715611E+03  0.11316208516E+04  0.14952375038E+04  0.00000000000E+00 0.  1.
<mgrwt>
<rscale>  0 0.19775981E+04</rscale>
<asrwt>0</asrwt>
<pdfrwt beam="1">  1        1 0.47001386E+00 0.19775981E+04</pdfrwt>
<pdfrwt beam="2">  1       -1 0.49235538E-01 0.19775981E+04</pdfrwt>
<totfact> 0.20971842E+00</totfact>
</mgrwt>
</event>
<event>
 6    1  0.1878398E-004  0.1400279E+04  0.7818608E-02  0.8953617E-01
          1   -1    0    0  501    0  0.00000000000E+00  0.00000000000E+00  0.37277733786E+04  0.37277733786E+04  0.00000000000E+00 0.  1.
         -1   -1    0    0    0  501 -0.00000000000E+00 -0.00000000000E+00 -0.13149812821E+03  0.13149812821E+03  0.00000000000E+00 0. -1.
         23    2    1    2    0    0  0.44757002880E+03  0.18624620569E+03  0.31865595916E+04  0.32245483381E+04  0.92430375120E+02 0.  0.
         11    1    3    3    0    0  0.36958920106E+03  0.18961061725E+03  0.27013212632E+04  0.27330724342E+04  0.00000000000E+00 0. -1.
        -11    1    3    3    0    0  0.77980827740E+02 -0.33644115551E+01  0.48523832835E+03  0.49147590385E+03  0.00000000000E+00 0.  1.
         22    1    1    2    0    0 -0.44757002880E+03 -0.18624620569E+03  0.40971565882E+03  0.63472316871E+03  0.00000000000E+00 0. -1.
<mgrwt>
<rscale>  0 0.14002789E+04</rscale>
<asrwt>0</asrwt>
<pdfrwt beam="1">  1        1 0.57350351E+00 0.14002789E+04</pdfrwt>
<pdfrwt beam="2">  1       -1 0.20230484E-01 0.14002789E+04</pdfrwt>
<totfact> 0.32613218E+00</totfact>
</mgrwt>
</event>
<event>
 6    1  0.1878398E-004  0.2230437E+04  0.7818608E-02  0.8505865E-01
          2   -1    0    0  501    0  0.00000000000E+00  0.00000000000E+00  0.20063857766E+04  0.20063857766E+04  0.00000000000E+00 0.  1.
         -2   -1    0    0    0  501 -0.00000000000E+00 -0.00000000000E+00 -0.61987722680E+03  0.61987722680E+03  0.00000000000E+00 0. -1.
         23    2    1    2    0    0  0.79820007705E+03 -0.99598864708E+02  0.16007529791E+04  0.17938304401E+04  0.91510933943E+02 0.  0.
         11    1    3    3    0    0  0.73653317875E+03 -0.10003452771E+03  0.14188171765E+04  0.16017272584E+04  0.00000000000E+00 0.  1.
        -11    1    3    3    0    0  0.61666898300E+02  0.43566299791E+00  0.18193580261E+03  0.19210318170E+03  0.00000000000E+00 0. -1.
         22    1    1    2    0    0 -0.79820007705E+03  0.99598864708E+02 -0.21424442931E+03  0.83243256324E+03  0.00000000000E+00 0. -1.
<mgrwt>
<rscale>  0 0.22304375E+04</rscale>
<asrwt>0</asrwt>
<pdfrwt beam="1">  1        2 0.30867473E+00 0.22304375E+04</pdfrwt>
<pdfrwt beam="2">  1       -2 0.95365728E-01 0.22304375E+04</pdfrwt>
<totfact> 0.55803474E+00</totfact>
</mgrwt>
</event>
<event>
 6    1  0.1878398E-004  0.2188064E+04  0.7818608E-02  0.8523413E-01
         -2   -1    0    0    0  501 -0.00000000000E+00  0.00000000000E+00  0.11299243220E+04  0.11299243220E+04  0.00000000000E+00 0. -1.
          2   -1    0    0  501    0  0.00000000000E+00 -0.00000000000E+00 -0.10592795361E+04  0.10592795361E+04  0.00000000000E+00 0.  1.
         23    2    1    2    0    0  0.67491386356E+03  0.68966304023E+03  0.54720855030E+03  0.11129804361E+04  0.90246448167E+02 0.  0.
         13    1    3    3    0    0  0.14819669188E+03  0.10360385328E+03  0.90143770103E+02  0.20204434461E+03  0.00000000000E+00 0. -1.
        -13    1    3    3    0    0  0.52671717168E+03  0.58605918695E+03  0.45706478020E+03  0.91093609153E+03  0.00000000000E+00 0.  1.
         22    1    1    2    0    0 -0.67491386356E+03 -0.68966304023E+03 -0.47656376442E+03  0.10762234219E+04  0.00000000000E+00 0.  1.
<mgrwt>
<rscale>  0 0.21880637E+04</rscale>
<asrwt>0</asrwt>
<pdfrwt beam="1">  1        2 0.16296608E+00 0.21880637E+04</pdfrwt>
<pdfrwt beam="2">  1       -2 0.17383451E+00 0.21880637E+04</pdfrwt>
<totfact> 0.42305419E+00</totfact>
</mgrwt>
</event>
<event>
 6    1  0.1878398E-004  0.1689857E+04  0.7818608E-02  0.8767170E-01
          2   -1    0    0  501    0  0.00000000000E+00  0.00000000000E+00  0.21633128776E+04  0.21633128776E+04  0.00000000000E+00 0.  1.
         -2   -1    0    0    0  501 -0.00000000000E+00 -0.00000000000E+00 -0.33000512992E+03  0.33000512992E+03  0.00000000000E+00 0. -1.
         23    2    1    2    0    0  0.89358359586E+02 -0.24201595074E+03  0.21023964591E+04  0.21205374133E+04  0.10025673572E+03 0.  0.
         13    1    3    3    0    0  0.25481528465E+02 -0.66434193124E+02  0.99048133609E+03  0.99303377961E+03  0.00000000000E+00 0.  1.
        -13    1    3    3    0    0  0.63876831121E+02 -0.17558175762E+03  0.11119151230E+04  0.11275036337E+04  0.00000000000E+00 0. -1.
         22    1    1    2    0    0 -0.89358359586E+02  0.24201595074E+03 -0.26908871140E+03  0.37278059425E+03  0.00000000000E+00 0. -1.
<mgrwt>
<rscale>  0 0.16898572E+04</rscale>
<asrwt>0</asrwt>
<pdfrwt beam="1">  1        2 0.33281736E+00 0.16898572E+04</pdfrwt>
<pdfrwt beam="2">  1       -2 0.50770021E-01 0.16898572E+04</pdfrwt>
<totfact> 0.18921867E+01</totfact>
</mgrwt>
</event>
<event>
 6    1  0.1878398E-004  0.1398232E+04  0.7818608E-02  0.8955100E-01
         -1   -1    0    0    0  501 -0.00000000000E+00  0.00000000000E+00  0.25378901400E+03  0.25378901400E+03  0.00000000000E+00 0.  1.
          1   -1    0    0  501    0  0.00000000000E+00 -0.00000000000E+00 -0.19258630262E+04  0.19258630262E+04  0.00000000000E+00 0. -1.
         23    2    1    2    0    0  0.49646240401E+03  0.24133018974E+03 -0.15005612430E+04  0.16016106844E+04  0.93581842385E+02 0.  0.
         11    1    3    3    0    0  0.22302686523E+03  0.60015472938E+02 -0.57720423460E+03  0.62169732832E+03  0.00000000000E+00 0.  1.
        -11    1    3    3    0    0  0.27343553878E+03  0.18131471681E+03 -0.92335700839E+03  0.97991335604E+03  0.00000000000E+00 0. -1.
         22    1    1    2    0    0 -0.49646240401E+03 -0.24133018974E+03 -0.17151276924E+03  0.57804135586E+03  0.00000000000E+00 0.  1.
<mgrwt>
<rscale>  0 0.13982316E+04</rscale>
<asrwt>0</asrwt>
<pdfrwt beam="1">  1        1 0.29628662E+00 0.13982316E+04</pdfrwt>
<pdfrwt beam="2">  1       -1 0.39044463E-01 0.13982316E+04</pdfrwt>
<totfact> 0.20788122E+01</totfact>
</mgrwt>
</event>
<event>
 6    1  0.1878398E-004  0.2919311E+04  0.7818608E-02  0.8267155E-01
         -1   -1    0    0    0  501 -0.00000000000E+00  0.00000000000E+00  0.13924937122E+04  0.13924937122E+04  0.00000000000E+00 0.  1.
          1   -1    0    0  501    0  0.00000000000E+00 -0.00000000000E+00 -0.15300563559E+04  0.15300563559E+04  0.00000000000E+00 0. -1.
         23    2    1    2    0    0 -0.57961928183E+03 -0.59575069904E+03  0.11307170868E+04  0.14061692181E+04  0.88956911365E+02 0.  0.
         11    1    3    3    0    0 -0.51335839771E+03 -0.48511251492E+03  0.93521440154E+03  0.11719628721E+04  0.00000000000E+00 0.  1.
        -11    1    3    3    0    0 -0.66260884115E+02 -0.11063818412E+03  0.19550268530E+03  0.23420634601E+03  0.00000000000E+00 0. -1.
         22    1    1    2    0    0  0.57961928183E+03  0.59575069904E+03 -0.12682797306E+04  0.15163808500E+04  0.00000000000E+00 0. -1.
<mgrwt>
<rscale>  0 0.29193108E+04</rscale>
<asrwt>0</asrwt>
<pdfrwt beam="1">  1        1 0.23539329E+00 0.29193108E+04</pdfrwt>
<pdfrwt beam="2">  1       -1 0.21422980E+00 0.29193108E+04</pdfrwt>
<totfact> 0.64308810E-01</totfact>
</mgrwt>
</event>
<event>
 6    1  0.1878398E-004  0.5669650E+04  0.7818608E-02  0.7732767E-01
         -2   -1    0    0    0  501 -0.00000000000E+00  0.00000000000E+00  0.34069413871E+04  0.34069413871E+04  0.00000000000E+00 0.  1.
          2   -1    0    0  501    0  0.00000000000E+00 -0.00000000000E+00 -0.23587821200E+04  0.23587821200E+04  0.00000000000E+00 0. -1.
         23    2    1    2    0    0 -0.72252657974E+03  0.26438239930E+04 -0.20910933390E+03  0.27503339304E+04  0.93595144326E+02 0.  0.
         13    1    3    3    0    0 -0.28729189549E+03  0.12230306726E+04 -0.84646360983E+02  0.12591686407E+04  0.00000000000E+00 0.  1.
        -13    1    3    3    0    0 -0.43523468425E+03  0.14207933204E+04 -0.12446297292E+03  0.14911652897E+04  0.00000000000E+00 0. -1.
         22    1    1    2    0    0  0.72252657974E+03 -0.26438239930E+04  0.12572686010E+04  0.30153895767E+04  0.00000000000E+00 0. -1.
<mgrwt>
<rscale>  0 0.56696499E+04</rscale>
<asrwt>0</asrwt>
<pdfrwt beam="1">  1        2 0.36288956E+00 0.56696499E+04</pdfrwt>
<pdfrwt beam="2">  1       -2 0.52414483E+00 0.56696499E+04</pdfrwt>
<totfact> 0.34711299E-03</totfact>
</mgrwt>
</event>
<event>
 6    1  0.1878398E-004  0.1369893E+04  0.7818608E-02  0.8975905E-01
          2   -1    0    0  501    0  0.00000000000E+00  0.00000000000E+00  0.38081018821E+03  0.38081018821E+03  0.00000000000E+00 0.  1.
         -2   -1    0    0    0  501 -0.00000000000E+00 -0.00000000000E+00 -0.12319829875E+04  0.12319829875E+04  0.00000000000E+00 0. -1.
         23    2    1    2    0    0 -0.21212024340E+03 -0.10097978996E+03  0.32611394890E+03  0.41229494451E+03  0.91896125914E+02 0.  0.
         13    1    3    3    0    0 -0.18902333057E+02 -0.27072626561E+02  0.10240508645E+03  0.10759659397E+03  0.00000000000E+00 0.  1.
        -13    1    3    3    0    0 -0.19321791034E+03 -0.73907163396E+02  0.22370886245E+03  0.30469835054E+03  0.00000000000E+00 0. -1.
         22    1    1    2    0    0  0.21212024340E+03  0.10097978996E+03 -0.11772867482E+04  0.12004982312E+04  0.00000000000E+00 0. -1.
<mgrwt>
<rscale>  0 0.13698929E+04</rscale>
<asrwt>0</asrwt>
<pdfrwt beam="1">  1        2 0.58586183E-01 0.13698929E+04</pdfrwt>
<pdfrwt beam="2">  1       -2 0.18953584E+00 0.13698929E+04</pdfrwt>
<totfact> 0.12785195E+01</totfact>
</mgrwt>
</event>
<event>
 6    1  0.1878398E-004  0.1388327E+04  0.7818608E-02  0.8962312E-01
          2   -1    0    0  501    0  0.00000000000E+00  0.00000000000E+00  0.18962849512E+04  0.18962849512E+04  0.00000000000E+00 0. -1.
         -2   -1    0    0    0  501 -0.00000000000E+00 -0.00000000000E+00 -0.25410883502E+03  0.25410883502E+03  0.00000000000E+00 0.  1.
         23    2    1    2    0    0  0.52473719917E+03  0.12781626085E+03  0.15652164492E+03  0.56961697316E+03  0.90985416694E+02 0.  0.
         11    1    3    3    0    0  0.23740792747E+03  0.68658091738E+02  0.11760044226E+03  0.27369019274E+03  0.00000000000E+00 0.  1.
        -11    1    3    3    0    0  0.28732927170E+03  0.59158169117E+02  0.38921202666E+02  0.29592678041E+03  0.00000000000E+00 0. -1.
         22    1    1    2    0    0 -0.52473719917E+03 -0.12781626085E+03  0.14856544712E+04  0.15807768130E+04  0.00000000000E+00 0. -1.
<mgrwt>
<rscale>  0 0.13883267E+04</rscale>
<asrwt>0</asrwt>
<pdfrwt beam="1">  1        2 0.29173614E+00 0.13883267E+04</pdfrwt>
<pdfrwt beam="2">  1       -2 0.39093668E-01 0.13883267E+04</pdfrwt>
<totfact> 0.45984855E+01</totfact>
</mgrwt>
</event>
<event>
 6    1  0.1878398E-004  0.1498663E+04  0.7818608E-02  0.8885342E-01
         -2   -1    0    0    0  501 -0.00000000000E+00  0.00000000000E+00  0.20939015547E+03  0.20939015547E+03  0.00000000000E+00 0. -1.
          2   -1    0    0  501    0  0.00000000000E+00 -0.00000000000E+00 -0.26815870931E+04  0.26815870931E+04  0.00000000000E+00 0.  1.
         23    2    1    2    0    0 -0.39900044468E+03  0.30106582322E+03 -0.17068666883E+03  0.53581451488E+03  0.90118092901E+02 0.  0.
         13    1    3    3    0    0 -0.53457361019E+02  0.78449202879E+02 -0.50663250510E+02  0.10760451585E+03  0.00000000000E+00 0. -1.
        -13    1    3    3    0    0 -0.34554308366E+03  0.22261662034E+03 -0.12002341832E+03  0.42820999902E+03  0.00000000000E+00 0.  1.
         22    1    1    2    0    0  0.39900044468E+03 -0.30106582322E+03 -0.23015102688E+04  0.23551627337E+04  0.00000000000E+00 0.  1.
<mgrwt>
<rscale>  0 0.14986633E+04</rscale>
<asrwt>0</asrwt>
<pdfrwt beam="1">  1        2 0.41255185E+00 0.14986633E+04</pdfrwt>
<pdfrwt beam="2">  1       -2 0.32213871E-01 0.14986633E+04</pdfrwt>
<totfact> 0.23706201E+01</totfact>
</mgrwt>
</event>
<event>
 6    1  0.1878398E-004  0.5901849E+03  0.7818608E-02  0.9925981E-01
         -1   -1    0    0    0  501 -0.00000000000E+00  0.00000000000E+00  0.22050022917E+03  0.22050022917E+03  0.00000000000E+00 0. -1.
          1   -1    0    0  501    0  0.00000000000E+00 -0.00000000000E+00 -0.39491814416E+03  0.39491814416E+03  0.00000000000E+00 0.  1.
         23    2    1    2    0    0  0.17686396960E+03 -0.18538616645E+03 -0.22643898805E+03  0.35397031635E+03  0.91495765420E+02 0.  0.
         11    1    3    3    0    0  0.86266331051E+02 -0.15282159147E+03 -0.13812506576E+03  0.22332678407E+03  0.00000000000E+00 0.  1.
        -11    1    3    3    0    0  0.90597638550E+02 -0.32564574980E+02 -0.88313922293E+02  0.13064353227E+03  0.00000000000E+00 0. -1.
         22    1    1    2    0    0 -0.17686396960E+03  0.18538616645E+03  0.52021073071E+02  0.26144805698E+03  0.00000000000E+00 0. -1.
<mgrwt>
<rscale>  0 0.59018486E+03</rscale>
<asrwt>0</asrwt>
<pdfrwt beam="1">  1        1 0.60756637E-01 0.59018486E+03</pdfrwt>
<pdfrwt beam="2">  1       -1 0.33923113E-01 0.59018486E+03</pdfrwt>
<totfact> 0.50621900E+02</totfact>
</mgrwt>
</event>
<event>
 6    1  0.1878398E-004  0.3871012E+04  0.7818608E-02  0.8031085E-01
          1   -1    0    0  501    0  0.00000000000E+00  0.00000000000E+00  0.25064358523E+04  0.25064358523E+04  0.00000000000E+00 0.  1.
         -1   -1    0    0    0  501 -0.00000000000E+00 -0.00000000000E+00 -0.14946253507E+04  0.14946253507E+04  0.00000000000E+00 0. -1.
         23    2    1    2    0    0  0.88432846290E+03  0.80864248272E+03 -0.10633498428E+04  0.16047661564E+04  0.92854905779E+02 0.  0.
         11    1    3    3    0    0  0.64428119768E+03  0.59428721390E+03 -0.83107967321E+03  0.12078778819E+04  0.00000000000E+00 0.  1.
        -11    1    3    3    0    0  0.24004726522E+03  0.21435526882E+03 -0.23227016957E+03  0.39688827455E+03  0.00000000000E+00 0. -1.
         22    1    1    2    0    0 -0.88432846290E+03 -0.80864248272E+03  0.20751603444E+04  0.23962950465E+04  0.00000000000E+00 0.  1.
<mgrwt>
<rscale>  0 0.38710115E+04</rscale>
<asrwt>0</asrwt>
<pdfrwt beam="1">  1        1 0.38560552E+00 0.38710115E+04</pdfrwt>
<pdfrwt beam="2">  1       -1 0.22994236E+00 0.38710115E+04</pdfrwt>
<totfact> 0.10019867E-01</totfact>
</mgrwt>
</event>
<event>
 6    1  0.1878398E-004  0.5597226E+04  0.7818608E-02  0.7742451E-01
          2   -1    0    0  501    0  0.00000000000E+00  0.00000000000E+00  0.36602854598E+04  0.36602854598E+04  0.00000000000E+00 0.  1.
         -2   -1    0    0    0  501 -0.00000000000E+00 -0.00000000000E+00 -0.21397881429E+04  0.21397881429E+04  0.00000000000E+00 0. -1.
         23    2    1    2    0    0 -0.22020926491E+04 -0.11945296214E+04 -0.53037969559E+03  0.25624495400E+04  0.93445021301E+02 0.  0.
         13    1    3    3    0    0 -0.26445562567E+03 -0.11879411102E+03 -0.82518539854E+02  0.30142682060E+03  0.00000000000E+00 0. -1.
        -13    1    3    3    0    0 -0.19376370234E+04 -0.10757355104E+04 -0.44786115573E+03  0.22610227194E+04  0.00000000000E+00 0.  1.
         22    1    1    2    0    0  0.22020926491E+04  0.11945296214E+04  0.20508770125E+04  0.32376240628E+04  0.00000000000E+00 0.  1.
<mgrwt>
<rscale>  0 0.55972263E+04</rscale>
<asrwt>0</asrwt>
<pdfrwt beam="1">  1        2 0.56312084E+00 0.55972263E+04</pdfrwt>
<pdfrwt beam="2">  1       -2 0.32919818E+00 0.55972263E+04</pdfrwt>
<totfact> 0.90776056E-03</totfact>
</mgrwt>
</event>
<event>
 6    1  0.1878398E-004  0.7160755E+03  0.7818608E-02  0.9690129E-01
         -1   -1    0    0    0  501 -0.00000000000E+00  0.00000000000E+00  0.35278115399E+03  0.35278115399E+03  0.00000000000E+00 0. -1.
          1   -1    0    0  501    0  0.00000000000E+00 -0.00000000000E+00 -0.36337271829E+03  0.36337271829E+03  0.00000000000E+00 0.  1.
         23    2    1    2    0    0  0.17202698917E+02  0.15989428656E+03 -0.31883065834E+03  0.36848527316E+03  0.90919151537E+02 0.  0.
         13    1    3    3    0    0  0.12423117500E+02  0.43935299138E+02 -0.18858761674E+03  0.19403590788E+03  0.00000000000E+00 0.  1.
        -13    1    3    3    0    0  0.47795814170E+01  0.11595898742E+03 -0.13024304159E+03  0.17444936528E+03  0.00000000000E+00 0. -1.
         22    1    1    2    0    0 -0.17202698917E+02 -0.15989428656E+03  0.30823909404E+03  0.34766859913E+03  0.00000000000E+00 0. -1.
<mgrwt>
<rscale>  0 0.71607555E+03</rscale>
<asrwt>0</asrwt>
<pdfrwt beam="1">  1        1 0.55903495E-01 0.71607555E+03</pdfrwt>
<pdfrwt beam="2">  1       -1 0.54274024E-01 0.71607555E+03</pdfrwt>
<totfact> 0.23689258E+02</totfact>
</mgrwt>
</event>
<event>
 6    1  0.1878398E-004  0.7461807E+03  0.7818608E-02  0.9641361E-01
          2   -1    0    0  501    0  0.00000000000E+00  0.00000000000E+00  0.23664262495E+04  0.23664262495E+04  0.00000000000E+00 0.  1.
         -2   -1    0    0    0  501 -0.00000000000E+00 -0.00000000000E+00 -0.58821356985E+02  0.58821356985E+02  0.00000000000E+00 0. -1.
         23    2    1    2    0    0 -0.27672697828E+03  0.17509372391E+03  0.17113500864E+04  0.17449863137E+04  0.94986757278E+02 0.  0.
         11    1    3    3    0    0 -0.10640224405E+03  0.10697145733E+03  0.94618051362E+03  0.95813459106E+03  0.00000000000E+00 0. -1.
        -11    1    3    3    0    0 -0.17032473423E+03  0.68122266586E+02  0.76516957281E+03  0.78685172265E+03  0.00000000000E+00 0.  1.
         22    1    1    2    0    0  0.27672697828E+03 -0.17509372391E+03  0.59625480604E+03  0.68026129273E+03  0.00000000000E+00 0. -1.
<mgrwt>
<rscale>  0 0.74618068E+03</rscale>
<asrwt>0</asrwt>
<pdfrwt beam="1">  1        2 0.36406550E+00 0.74618068E+03</pdfrwt>
<pdfrwt beam="2">  1       -2 0.90494414E-02 0.74618068E+03</pdfrwt>
<totfact> 0.34682297E+02</totfact>
</mgrwt>
</event>
<event>
 6    1  0.1878398E-004  0.1638107E+04  0.7818608E-02  0.8797474E-01
         -1   -1    0    0    0  501 -0.00000000000E+00  0.00000000000E+00  0.55920415172E+03  0.55920415172E+03  0.00000000000E+00 0.  1.
          1   -1    0    0  501    0  0.00000000000E+00 -0.00000000000E+00 -0.11996483087E+04  0.11996483087E+04  0.00000000000E+00 0. -1.
         23    2    1    2    0    0  0.61232004615E+03 -0.25970677933E+02 -0.90070807867E+03  0.10930089173E+04  0.88222079064E+02 0.  0.
         13    1    3    3    0    0  0.31359466729E+03  0.21116610125E+02 -0.41021997541E+03  0.51678617900E+03  0.00000000000E+00 0. -1.
        -13    1    3    3    0    0  0.29872537886E+03 -0.47087288058E+02 -0.49048810326E+03  0.57622273828E+03  0.00000000000E+00 0.  1.
         22    1    1    2    0    0 -0.61232004615E+03  0.25970677933E+02  0.26026392168E+03  0.66584354315E+03  0.00000000000E+00 0.  1.
<mgrwt>
<rscale>  0 0.16381066E+04</rscale>
<asrwt>0</asrwt>
<pdfrwt beam="1">  1        1 0.18456128E+00 0.16381066E+04</pdfrwt>
<pdfrwt beam="2">  1       -1 0.86031409E-01 0.16381066E+04</pdfrwt>
<totfact> 0.13640675E+01</totfact>
</mgrwt>
</event>
<event>
 6    1  0.1878398E-004  0.3390526E+04  0.7818608E-02  0.8140235E-01
         -1   -1    0    0    0  501 -0.00000000000E+00  0.00000000000E+00  0.64808656664E+03  0.64808656664E+03  0.00000000000E+00 0. -1.
          1   -1    0    0  501    0  0.00000000000E+00 -0.00000000000E+00 -0.44344653559E+04  0.44344653559E+04  0.00000000000E+00 0.  1.
         23    2    1    2    0    0 -0.18308902540E+03  0.13577829741E+04 -0.33878985114E+04  0.36557082983E+04  0.96180262201E+02 0.  0.
         13    1    3    3    0    0 -0.30212577773E+02  0.37655870000E+03 -0.83576774546E+03  0.91717881504E+03  0.00000000000E+00 0. -1.
        -13    1    3    3    0    0 -0.15287644763E+03  0.98122427413E+03 -0.25521307659E+04  0.27385294833E+04  0.00000000000E+00 0.  1.
         22    1    1    2    0    0  0.18308902540E+03 -0.13577829741E+04 -0.39848027783E+03  0.14268436242E+04  0.00000000000E+00 0. -1.
<mgrwt>
<rscale>  0 0.33905265E+04</rscale>
<asrwt>0</asrwt>
<pdfrwt beam="1">  1        1 0.68222542E+00 0.33905265E+04</pdfrwt>
<pdfrwt beam="2">  1       -1 0.99705628E-01 0.33905265E+04</pdfrwt>
<totfact> 0.29573792E-02</totfact>
</mgrwt>
</event>
<event>
 6    1  0.1878398E-004  0.1576477E+04  0.7818608E-02  0.8835131E-01
          1   -1    0    0  501    0  0.00000000000E+00  0.00000000000E+00  0.22724124883E+04  0.22724124883E+04  0.00000000000E+00 0.  1.
         -1   -1    0    0    0  501 -0.00000000000E+00 -0.00000000000E+00 -0.27341880951E+03  0.27341880951E+03  0.00000000000E+00 0. -1.
         23    2    1    2    0    0  0.73697776435E+03 -0.33911096582E+02  0.56609378891E+03  0.93415878703E+03  0.88905983608E+02 0.  0.
         13    1    3    3    0    0  0.44761851856E+03  0.13257875128E+02  0.30744504679E+03  0.54319477741E+03  0.00000000000E+00 0. -1.
        -13    1    3    3    0    0  0.28935924579E+03 -0.47168971709E+02  0.25864874211E+03  0.39096400962E+03  0.00000000000E+00 0.  1.
         22    1    1    2    0    0 -0.73697776435E+03  0.33911096582E+02  0.14328998899E+04  0.16116725108E+04  0.00000000000E+00 0. -1.
<mgrwt>
<rscale>  0 0.15764775E+04</rscale>
<asrwt>0</asrwt>
<pdfrwt beam="1">  1        1 0.34960191E+00 0.15764775E+04</pdfrwt>
<pdfrwt beam="2">  1       -1 0.42064434E-01 0.15764775E+04</pdfrwt>
<totfact> 0.10388520E+01</totfact>
</mgrwt>
</event>
<event>
 6    1  0.1878398E-004  0.2081003E+04  0.7818608E-02  0.8569658E-01
         -2   -1    0    0    0  501 -0.00000000000E+00  0.00000000000E+00  0.72781195747E+03  0.72781195747E+03  0.00000000000E+00 0. -1.
          2   -1    0    0  501    0  0.00000000000E+00 -0.00000000000E+00 -0.14875316490E+04  0.14875316490E+04  0.00000000000E+00 0.  1.
         23    2    1    2    0    0  0.97969477474E+03 -0.30392189869E+03 -0.20797331656E+03  0.10506142669E+04  0.91471663490E+02 0.  0.
         11    1    3    3    0    0  0.26103194972E+03 -0.11045050549E+03 -0.87798503398E+02  0.29672473800E+03  0.00000000000E+00 0. -1.
        -11    1    3    3    0    0  0.71866282502E+03 -0.19347139320E+03 -0.12017481316E+03  0.75388952889E+03  0.00000000000E+00 0.  1.
         22    1    1    2    0    0 -0.97969477474E+03  0.30392189869E+03 -0.55174637493E+03  0.11647293396E+04  0.00000000000E+00 0.  1.
<mgrwt>
<rscale>  0 0.20810030E+04</rscale>
<asrwt>0</asrwt>
<pdfrwt beam="1">  1        2 0.22885102E+00 0.20810030E+04</pdfrwt>
<pdfrwt beam="2">  1       -2 0.11197107E+00 0.20810030E+04</pdfrwt>
<totfact> 0.74946813E+00</totfact>
</mgrwt>
</event>
<event>
 6    1  0.1878398E-004  0.3621999E+04  0.7818608E-02  0.8085471E-01
          1   -1    0    0  501    0  0.00000000000E+00  0.00000000000E+00  0.13482245768E+04  0.13482245768E+04  0.00000000000E+00 0.  1.
         -1   -1    0    0    0  501 -0.00000000000E+00 -0.00000000000E+00 -0.24326205363E+04  0.24326205363E+04  0.00000000000E+00 0. -1.
         23    2    1    2    0    0  0.66056841185E+03  0.13162742607E+04 -0.16417273669E+04  0.22061874189E+04  0.55368078807E+02 0.  0.
         11    1    3    3    0    0  0.45134339164E+03  0.95497503187E+03 -0.11770276348E+04  0.15814810216E+04  0.00000000000E+00 0.  1.
        -11    1    3    3    0    0  0.20922502021E+03  0.36129922879E+03 -0.46469973208E+03  0.62470639728E+03  0.00000000000E+00 0. -1.
         22    1    1    2    0    0 -0.66056841185E+03 -0.13162742607E+04  0.55733140742E+03  0.15746576941E+04  0.00000000000E+00 0.  1.
<mgrwt>
<rscale>  0 0.36219988E+04</rscale>
<asrwt>0</asrwt>
<pdfrwt beam="1">  1        1 0.20741917E+00 0.36219988E+04</pdfrwt>
<pdfrwt beam="2">  1       -1 0.37424931E+00 0.36219988E+04</pdfrwt>
<totfact> 0.72161166E-02</totfact>
</mgrwt>
</event>
<event>
 6    1  0.1878398E-004  0.7100607E+03  0.7818608E-02  0.9700180E-01
         -2   -1    0    0    0  501 -0.00000000000E+00  0.00000000000E+00  0.61310053802E+03  0.61310053802E+03  0.00000000000E+00 0. -1.
          2   -1    0    0  501    0  0.00000000000E+00 -0.00000000000E+00 -0.20558870393E+03  0.20558870393E+03  0.00000000000E+00 0.  1.
         23    2    1    2    0    0  0.23403459883E+03 -0.18166534133E+03 -0.58645965930E+01  0.31010831119E+03  0.91423637457E+02 0.  0.
         11    1    3    3    0    0  0.99606383620E+02 -0.32508494907E+02  0.22936244691E+02  0.10725812426E+03  0.00000000000E+00 0. -1.
        -11    1    3    3    0    0  0.13442821521E+03 -0.14915684642E+03 -0.28800841284E+02  0.20285018693E+03  0.00000000000E+00 0.  1.
         22    1    1    2    0    0 -0.23403459883E+03  0.18166534133E+03  0.41337643068E+03  0.50858093076E+03  0.00000000000E+00 0. -1.
<mgrwt>
<rscale>  0 0.71006069E+03</rscale>
<asrwt>0</asrwt>
<pdfrwt beam="1">  1        2 0.31629032E-01 0.71006069E+03</pdfrwt>
<pdfrwt beam="2">  1       -2 0.94323159E-01 0.71006069E+03</pdfrwt>
<totfact> 0.16045773E+02</totfact>
</mgrwt>
</event>
<event>
 6    1  0.1878398E-004  0.3398524E+04  0.7818608E-02  0.8138269E-01
         -2   -1    0    0    0  501 -0.00000000000E+00  0.00000000000E+00  0.17887331741E+04  0.17887331741E+04  0.00000000000E+00 0. -1.
          2   -1    0    0  501    0  0.00000000000E+00 -0.00000000000E+00 -0.16142657405E+04  0.16142657405E+04  0.00000000000E+00 0.  1.
         23    2    1    2    0    0  0.14646093870E+04  0.55741576974E+03 -0.56745789601E+03  0.16691459245E+04  0.90811105608E+02 0.  0.
         11    1    3    3    0    0  0.11655356023E+03  0.49184555918E+02 -0.20613742323E+02  0.12817479984E+03  0.00000000000E+00 0.  1.
        -11    1    3    3    0    0  0.13480558267E+04  0.50823121382E+03 -0.54684415369E+03  0.15409711247E+04  0.00000000000E+00 0. -1.
         22    1    1    2    0    0 -0.14646093870E+04 -0.55741576974E+03  0.74192532961E+03  0.17338529901E+04  0.00000000000E+00 0.  1.
<mgrwt>
<rscale>  0 0.33985236E+04</rscale>
<asrwt>0</asrwt>
<pdfrwt beam="1">  1        2 0.24834858E+00 0.33985236E+04</pdfrwt>
<pdfrwt beam="2">  1       -2 0.27518972E+00 0.33985236E+04</pdfrwt>
<totfact> 0.40872388E-01</totfact>
</mgrwt>
</event>
<event>
 6    1  0.1878398E-004  0.2560225E+04  0.7818608E-02  0.8381839E-01
         -2   -1    0    0    0  501 -0.00000000000E+00  0.00000000000E+00  0.70510338157E+03  0.70510338157E+03  0.00000000000E+00 0. -1.
          2   -1    0    0  501    0  0.00000000000E+00 -0.00000000000E+00 -0.23240388942E+04  0.23240388942E+04  0.00000000000E+00 0.  1.
         23    2    1    2    0    0 -0.11276728371E+04 -0.14855897040E+03 -0.12087293129E+03  0.11482097164E+04  0.10029702012E+03 0.  0.
         13    1    3    3    0    0 -0.37247859774E+03 -0.96739107293E+02 -0.44240147615E+02  0.38737056072E+03  0.00000000000E+00 0. -1.
        -13    1    3    3    0    0 -0.75519423933E+03 -0.51819863111E+02 -0.76632783674E+02  0.76083915571E+03  0.00000000000E+00 0.  1.
         22    1    1    2    0    0  0.11276728371E+04  0.14855897040E+03 -0.14980625813E+04  0.18809325593E+04  0.00000000000E+00 0. -1.
<mgrwt>
<rscale>  0 0.25602247E+04</rscale>
<asrwt>0</asrwt>
<pdfrwt beam="1">  1        2 0.35754445E+00 0.25602247E+04</pdfrwt>
<pdfrwt beam="2">  1       -2 0.10847744E+00 0.25602247E+04</pdfrwt>
<totfact> 0.26490576E+00</totfact>
</mgrwt>
</event>
<event>
 6    1  0.1878398E-004  0.1437637E+04  0.7818608E-02  0.8927016E-01
         -1   -1    0    0    0  501 -0.00000000000E+00  0.00000000000E+00  0.35445695915E+03  0.35445695915E+03  0.00000000000E+00 0. -1.
          1   -1    0    0  501    0  0.00000000000E+00 -0.00000000000E+00 -0.14577237117E+04  0.14577237117E+04  0.00000000000E+00 0.  1.
         23    2    1    2    0    0  0.56289684745E+03 -0.87472317813E+02 -0.72747491350E+01  0.57698726948E+03  0.91417284543E+02 0.  0.
         13    1    3    3    0    0  0.38500701025E+03 -0.43886040157E+02  0.34816490478E+02  0.38906113976E+03  0.00000000000E+00 0. -1.
        -13    1    3    3    0    0  0.17788983720E+03 -0.43586277656E+02 -0.42091239613E+02  0.18792612972E+03  0.00000000000E+00 0.  1.
         22    1    1    2    0    0 -0.56289684745E+03  0.87472317813E+02 -0.10959920034E+04  0.12351934014E+04  0.00000000000E+00 0.  1.
<mgrwt>
<rscale>  0 0.14376374E+04</rscale>
<asrwt>0</asrwt>
<pdfrwt beam="1">  1        1 0.22426519E+00 0.14376374E+04</pdfrwt>
<pdfrwt beam="2">  1       -1 0.54531840E-01 0.14376374E+04</pdfrwt>
<totfact> 0.23115886E+01</totfact>
</mgrwt>
</event>
<event>
 6    1  0.1878398E-004  0.3293588E+04  0.7818608E-02  0.8164529E-01
          2   -1    0    0  501    0  0.00000000000E+00  0.00000000000E+00  0.31204866240E+04  0.31204866240E+04  0.00000000000E+00 0. -1.
         -2   -1    0    0    0  501 -0.00000000000E+00 -0.00000000000E+00 -0.86907276214E+03  0.86907276214E+03  0.00000000000E+00 0.  1.
         23    2    1    2    0    0 -0.10365962873E+04  0.66866076175E+02 -0.41934898209E+03  0.11239046436E+04  0.91132562529E+02 0.  0.
         13    1    3    3    0    0 -0.73116189241E+03  0.23380831651E+02 -0.33139065508E+03  0.80309659599E+03  0.00000000000E+00 0. -1.
        -13    1    3    3    0    0 -0.30543439492E+03  0.43485244523E+02 -0.87958327007E+02  0.32080804757E+03  0.00000000000E+00 0.  1.
         22    1    1    2    0    0  0.10365962873E+04 -0.66866076175E+02  0.26707628439E+04  0.28656547425E+04  0.00000000000E+00 0. -1.
<mgrwt>
<rscale>  0 0.32935877E+04</rscale>
<asrwt>0</asrwt>
<pdfrwt beam="1">  1        2 0.48007486E+00 0.32935877E+04</pdfrwt>
<pdfrwt beam="2">  1       -2 0.13370350E+00 0.32935877E+04</pdfrwt>
<totfact> 0.49290731E-01</totfact>
</mgrwt>
</event>
<event>
 6    1  0.1878398E-004  0.2106634E+04  0.7818608E-02  0.8558326E-01
          2   -1    0    0  501    0  0.00000000000E+00  0.00000000000E+00  0.23218607675E+04  0.23218607675E+04  0.00000000000E+00 0.  1.
         -2   -1    0    0    0  501 -0.00000000000E+00 -0.00000000000E+00 -0.47783966407E+03  0.47783966407E+03  0.00000000000E+00 0. -1.
         23    2    1    2    0    0  0.58748863588E+03  0.44036147866E+03  0.19237414471E+04  0.20611772685E+04  0.92787109663E+02 0.  0.
         11    1    3    3    0    0  0.12109513202E+03  0.14057342594E+03  0.49519889316E+03  0.52881647371E+03  0.00000000000E+00 0.  1.
        -11    1    3    3    0    0  0.46639350387E+03  0.29978805272E+03  0.14285425540E+04  0.15323607948E+04  0.00000000000E+00 0. -1.
         22    1    1    2    0    0 -0.58748863588E+03 -0.44036147866E+03 -0.79720343683E+02  0.73852316306E+03  0.00000000000E+00 0. -1.
<mgrwt>
<rscale>  0 0.21066344E+04</rscale>
<asrwt>0</asrwt>
<pdfrwt beam="1">  1        2 0.35720934E+00 0.21066344E+04</pdfrwt>
<pdfrwt beam="2">  1       -2 0.73513796E-01 0.21066344E+04</pdfrwt>
<totfact> 0.67736334E+00</totfact>
</mgrwt>
</event>
<event>
 6    1  0.1878398E-004  0.2296998E+04  0.7818608E-02  0.8479106E-01
          1   -1    0    0  501    0  0.00000000000E+00  0.00000000000E+00  0.31541469975E+04  0.31541469975E+04  0.00000000000E+00 0.  1.
         -1   -1    0    0    0  501 -0.00000000000E+00 -0.00000000000E+00 -0.41819546391E+03  0.41819546391E+03  0.00000000000E+00 0. -1.
         23    2    1    2    0    0 -0.32873032371E+02  0.79859255897E+03  0.26486934390E+04  0.27683246217E+04  0.95987320002E+02 0.  0.
         11    1    3    3    0    0 -0.16496401620E+02  0.53214253634E+03  0.16032683165E+04  0.16893540496E+04  0.00000000000E+00 0.  1.
        -11    1    3    3    0    0 -0.16376630751E+02  0.26645002263E+03  0.10454251226E+04  0.10789705721E+04  0.00000000000E+00 0. -1.
         22    1    1    2    0    0  0.32873032371E+02 -0.79859255897E+03  0.87258094548E+02  0.80401783970E+03  0.00000000000E+00 0. -1.
<mgrwt>
<rscale>  0 0.22969980E+04</rscale>
<asrwt>0</asrwt>
<pdfrwt beam="1">  1        1 0.48525337E+00 0.22969980E+04</pdfrwt>
<pdfrwt beam="2">  1       -1 0.64337766E-01 0.22969980E+04</pdfrwt>
<totfact> 0.10198466E+00</totfact>
</mgrwt>
</event>
<event>
 6    1  0.1878398E-004  0.2170952E+04  0.7818608E-02  0.8530617E-01
         -1   -1    0    0    0  501 -0.00000000000E+00  0.00000000000E+00  0.41584965525E+03  0.41584965525E+03  0.00000000000E+00 0.  1.
          1   -1    0    0  501    0  0.00000000000E+00 -0.00000000000E+00 -0.28333763578E+04  0.28333763578E+04  0.00000000000E+00 0. -1.
         23    2    1    2    0    0 -0.80869737728E+02  0.21650151503E+03 -0.27953146117E+04  0.28063529783E+04  0.91762954390E+02 0.  0.
         13    1    3    3    0    0  0.45068111412E+01  0.49007783859E+02 -0.10027570603E+04  0.10039640413E+04  0.00000000000E+00 0. -1.
        -13    1    3    3    0    0 -0.85376548869E+02  0.16749373117E+03 -0.17925575515E+04  0.18023889371E+04  0.00000000000E+00 0.  1.
         22    1    1    2    0    0  0.80869737728E+02 -0.21650151503E+03  0.37778790924E+03  0.44287303469E+03  0.00000000000E+00 0.  1.
<mgrwt>
<rscale>  0 0.21709524E+04</rscale>
<asrwt>0</asrwt>
<pdfrwt beam="1">  1        1 0.43590405E+00 0.21709524E+04</pdfrwt>
<pdfrwt beam="2">  1       -1 0.63976870E-01 0.21709524E+04</pdfrwt>
<totfact> 0.17876172E+00</totfact>
</mgrwt>
</event>
<event>
 6    1  0.1878398E-004  0.3421802E+04  0.7818608E-02  0.8132576E-01
         -2   -1    0    0    0  501 -0.00000000000E+00  0.00000000000E+00  0.97930265894E+03  0.97930265894E+03  0.00000000000E+00 0. -1.
          2   -1    0    0  501    0  0.00000000000E+00 -0.00000000000E+00 -0.29890477080E+04  0.29890477080E+04  0.00000000000E+00 0.  1.
         23    2    1    2    0    0 -0.10290718819E+04 -0.13629012924E+04 -0.91021375777E+03  0.19372280340E+04  0.88738379182E+02 0.  0.
         11    1    3    3    0    0 -0.73593987110E+03 -0.96868353941E+03 -0.60253460399E+03  0.13575725551E+04  0.00000000000E+00 0. -1.
        -11    1    3    3    0    0 -0.29313201077E+03 -0.39421775297E+03 -0.30767915378E+03  0.57965547886E+03  0.00000000000E+00 0.  1.
         22    1    1    2    0    0  0.10290718819E+04  0.13629012924E+04 -0.10995312912E+04  0.20311223329E+04  0.00000000000E+00 0.  1.
<mgrwt>
<rscale>  0 0.34218021E+04</rscale>
<asrwt>0</asrwt>
<pdfrwt beam="1">  1        2 0.45985349E+00 0.34218021E+04</pdfrwt>
<pdfrwt beam="2">  1       -2 0.15066195E+00 0.34218021E+04</pdfrwt>
<totfact> 0.43288360E-01</totfact>
</mgrwt>
</event>
<event>
 6    1  0.1878398E-004  0.6109517E+04  0.7818608E-02  0.7676969E-01
          2   -1    0    0  501    0  0.00000000000E+00  0.00000000000E+00  0.24231298848E+04  0.24231298848E+04  0.00000000000E+00 0.  1.
         -2   -1    0    0    0  501 -0.00000000000E+00 -0.00000000000E+00 -0.38510319120E+04  0.38510319120E+04  0.00000000000E+00 0. -1.
         23    2    1    2    0    0  0.14734849788E+03  0.30219225394E+04 -0.28612016915E+03  0.30403724986E+04  0.90954744327E+02 0.  0.
         11    1    3    3    0    0  0.13313775033E+03  0.27037333865E+04 -0.28392682592E+03  0.27218586165E+04  0.00000000000E+00 0. -1.
        -11    1    3    3    0    0  0.14210747551E+02  0.31818915288E+03 -0.21933432293E+01  0.31851388213E+03  0.00000000000E+00 0.  1.
         22    1    1    2    0    0 -0.14734849788E+03 -0.30219225394E+04 -0.11417818581E+04  0.32337892982E+04  0.00000000000E+00 0. -1.
<mgrwt>
<rscale>  0 0.61095173E+04</rscale>
<asrwt>0</asrwt>
<pdfrwt beam="1">  1        2 0.37278922E+00 0.61095173E+04</pdfrwt>
<pdfrwt beam="2">  1       -2 0.59246644E+00 0.61095173E+04</pdfrwt>
<totfact> 0.14315582E-03</totfact>
</mgrwt>
</event>
<event>
 6    1  0.1878398E-004  0.1590589E+04  0.7818608E-02  0.8826351E-01
          2   -1    0    0  501    0  0.00000000000E+00  0.00000000000E+00  0.11106211464E+04  0.11106211464E+04  0.00000000000E+00 0. -1.
         -2   -1    0    0    0  501 -0.00000000000E+00 -0.00000000000E+00 -0.56949501808E+03  0.56949501808E+03  0.00000000000E+00 0.  1.
         23    2    1    2    0    0  0.53487609187E+03 -0.56357538781E+03  0.10539719235E+03  0.78929106546E+03  0.90344709116E+02 0.  0.
         13    1    3    3    0    0  0.42217221357E+03 -0.39469377807E+03  0.58347840117E+02  0.58087608558E+03  0.00000000000E+00 0.  1.
        -13    1    3    3    0    0  0.11270387830E+03 -0.16888160974E+03  0.47049352235E+02  0.20841497988E+03  0.00000000000E+00 0. -1.
         22    1    1    2    0    0 -0.53487609187E+03  0.56357538781E+03  0.43572893597E+03  0.89082509902E+03  0.00000000000E+00 0. -1.
<mgrwt>
<rscale>  0 0.15905888E+04</rscale>
<asrwt>0</asrwt>
<pdfrwt beam="1">  1        2 0.17086479E+00 0.15905888E+04</pdfrwt>
<pdfrwt beam="2">  1       -2 0.87614618E-01 0.15905888E+04</pdfrwt>
<totfact> 0.23156297E+01</totfact>
</mgrwt>
</event>
<event>
 6    1  0.1878398E-004  0.1289279E+04  0.7818608E-02  0.9038110E-01
         -1   -1    0    0    0  501 -0.00000000000E+00  0.00000000000E+00  0.13302168539E+04  0.13302168539E+04  0.00000000000E+00 0.  1.
          1   -1    0    0  501    0  0.00000000000E+00 -0.00000000000E+00 -0.31240027907E+03  0.31240027907E+03  0.00000000000E+00 0. -1.
         23    2    1    2    0    0 -0.60519081471E+03 -0.20152612919E+03  0.42636763683E+03  0.77274326325E+03  0.92054800025E+02 0.  0.
         11    1    3    3    0    0 -0.15003307083E+03 -0.38027552806E+02  0.15089037722E+03  0.21615717211E+03  0.00000000000E+00 0.  1.
        -11    1    3    3    0    0 -0.45515774388E+03 -0.16349857638E+03  0.27547725960E+03  0.55658609114E+03  0.00000000000E+00 0. -1.
         22    1    1    2    0    0  0.60519081471E+03  0.20152612919E+03  0.59144893802E+03  0.86987386973E+03  0.00000000000E+00 0. -1.
<mgrwt>
<rscale>  0 0.12892790E+04</rscale>
<asrwt>0</asrwt>
<pdfrwt beam="1">  1        1 0.48061582E-01 0.12892790E+04</pdfrwt>
<pdfrwt beam="2">  1       -1 0.20464874E+00 0.12892790E+04</pdfrwt>
<totfact> 0.11434112E+01</totfact>
</mgrwt>
</event>
<event>
 6    1  0.1878398E-004  0.1096603E+04  0.7818608E-02  0.9208509E-01
         -2   -1    0    0    0  501 -0.00000000000E+00  0.00000000000E+00  0.12352583176E+04  0.12352583176E+04  0.00000000000E+00 0. -1.
          2   -1    0    0  501    0  0.00000000000E+00 -0.00000000000E+00 -0.24337773634E+03  0.24337773634E+03  0.00000000000E+00 0.  1.
         23    2    1    2    0    0 -0.23999287487E+02 -0.20880820374E+03  0.11765897724E+04  0.11988248371E+04  0.92955181187E+02 0.  0.
         13    1    3    3    0    0 -0.39933704978E+02 -0.15201293385E+03  0.64061079263E+03  0.65960959703E+03  0.00000000000E+00 0. -1.
        -13    1    3    3    0    0  0.15934417491E+02 -0.56795269887E+02  0.53597897978E+03  0.53921524005E+03  0.00000000000E+00 0.  1.
         22    1    1    2    0    0  0.23999287487E+02  0.20880820374E+03 -0.18470919120E+03  0.27981121682E+03  0.00000000000E+00 0.  1.
<mgrwt>
<rscale>  0 0.10966027E+04</rscale>
<asrwt>0</asrwt>
<pdfrwt beam="1">  1        2 0.37442729E-01 0.10966027E+04</pdfrwt>
<pdfrwt beam="2">  1       -2 0.19003974E+00 0.10966027E+04</pdfrwt>
<totfact> 0.21326573E+01</totfact>
</mgrwt>
</event>
<event>
 6    1  0.1878398E-004  0.2743959E+04  0.7818608E-02  0.8320881E-01
         -1   -1    0    0    0  501 -0.00000000000E+00  0.00000000000E+00  0.17564990709E+04  0.17564990709E+04  0.00000000000E+00 0.  1.
          1   -1    0    0  501    0  0.00000000000E+00 -0.00000000000E+00 -0.10716363108E+04  0.10716363108E+04  0.00000000000E+00 0. -1.
         23    2    1    2    0    0 -0.35916079500E+02 -0.10335846142E+04 -0.58403515272E+03  0.11911598069E+04  0.90429567001E+02 0.  0.
         11    1    3    3    0    0 -0.19563697301E+02 -0.12178772618E+03 -0.42067203986E+02  0.13032512479E+03  0.00000000000E+00 0. -1.
        -11    1    3    3    0    0 -0.16352382199E+02 -0.91179688801E+03 -0.54196794874E+03  0.10608346821E+04  0.00000000000E+00 0.  1.
         22    1    1    2    0    0  0.35916079500E+02  0.10335846142E+04  0.12688979127E+04  0.16369755748E+04  0.00000000000E+00 0.  1.
<mgrwt>
<rscale>  0 0.27439593E+04</rscale>
<asrwt>0</asrwt>
<pdfrwt beam="1">  1        1 0.16486712E+00 0.27439593E+04</pdfrwt>
<pdfrwt beam="2">  1       -1 0.27023063E+00 0.27439593E+04</pdfrwt>
<totfact> 0.59667354E-01</totfact>
</mgrwt>
</event>
<event>
 6    1  0.1878398E-004  0.7749970E+03  0.7818608E-02  0.9596930E-01
         -1   -1    0    0    0  501 -0.00000000000E+00  0.00000000000E+00  0.92876396136E+02  0.92876396136E+02  0.00000000000E+00 0.  1.
          1   -1    0    0  501    0  0.00000000000E+00 -0.00000000000E+00 -0.16167195049E+04  0.16167195049E+04  0.00000000000E+00 0. -1.
         23    2    1    2    0    0 -0.33793643026E+03  0.25661694570E+02 -0.38381208738E+03  0.52025562879E+03  0.92166411501E+02 0.  0.
         13    1    3    3    0    0 -0.18332932892E+03  0.32700411381E+02 -0.27066206347E+03  0.32853753568E+03  0.00000000000E+00 0. -1.
        -13    1    3    3    0    0 -0.15460710133E+03 -0.70387168109E+01 -0.11315002392E+03  0.19171809312E+03  0.00000000000E+00 0.  1.
         22    1    1    2    0    0  0.33793643026E+03 -0.25661694570E+02 -0.11400310214E+04  0.11893402722E+04  0.00000000000E+00 0. -1.
<mgrwt>
<rscale>  0 0.77499698E+03</rscale>
<asrwt>0</asrwt>
<pdfrwt beam="1">  1        1 0.24872607E+00 0.77499698E+03</pdfrwt>
<pdfrwt beam="2">  1       -1 0.14288677E-01 0.77499698E+03</pdfrwt>
<totfact> 0.19715625E+02</totfact>
</mgrwt>
</event>
<event>
 6    1  0.1878398E-004  0.4906115E+04  0.7818608E-02  0.7843155E-01
         -1   -1    0    0    0  501 -0.00000000000E+00  0.00000000000E+00  0.17638064985E+04  0.17638064985E+04  0.00000000000E+00 0. -1.
          1   -1    0    0  501    0  0.00000000000E+00 -0.00000000000E+00 -0.34116499259E+04  0.34116499259E+04  0.00000000000E+00 0.  1.
         23    2    1    2    0    0 -0.20515069373E+04  0.10223696480E+04  0.94225885849E+02  0.22964416792E+04  0.10414152715E+03 0.  0.
         13    1    3    3    0    0 -0.17615345482E+04  0.83700465252E+03  0.86652757224E+02  0.19522011815E+04  0.00000000000E+00 0. -1.
        -13    1    3    3    0    0 -0.28997238905E+03  0.18536499545E+03  0.75731286243E+01  0.34424049765E+03  0.00000000000E+00 0.  1.
         22    1    1    2    0    0  0.20515069373E+04 -0.10223696480E+04 -0.17420693133E+04  0.28790147452E+04  0.00000000000E+00 0.  1.
<mgrwt>
<rscale>  0 0.49061147E+04</rscale>
<asrwt>0</asrwt>
<pdfrwt beam="1">  1        1 0.52486921E+00 0.49061147E+04</pdfrwt>
<pdfrwt beam="2">  1       -1 0.27135485E+00 0.49061147E+04</pdfrwt>
<totfact> 0.10781946E-02</totfact>
</mgrwt>
</event>
<event>
 6    1  0.1878398E-004  0.1288544E+04  0.7818608E-02  0.9038700E-01
          2   -1    0    0  501    0  0.00000000000E+00  0.00000000000E+00  0.16027200628E+04  0.16027200628E+04  0.00000000000E+00 0.  1.
         -2   -1    0    0    0  501 -0.00000000000E+00 -0.00000000000E+00 -0.25898869843E+03  0.25898869843E+03  0.00000000000E+00 0. -1.
         23    2    1    2    0    0 -0.28811998873E+03  0.56594671986E+03  0.55100383685E+03  0.84596974429E+03  0.93545509839E+02 0.  0.
         13    1    3    3    0    0 -0.13339484585E+03  0.34183124721E+03  0.27800036709E+03  0.46035528732E+03  0.00000000000E+00 0. -1.
        -13    1    3    3    0    0 -0.15472514288E+03  0.22411547265E+03  0.27300346976E+03  0.38561445697E+03  0.00000000000E+00 0.  1.
         22    1    1    2    0    0  0.28811998873E+03 -0.56594671986E+03  0.79272752749E+03  0.10157390169E+04  0.00000000000E+00 0.  1.
<mgrwt>
<rscale>  0 0.12885440E+04</rscale>
<asrwt>0</asrwt>
<pdfrwt beam="1">  1        2 0.24657231E+00 0.12885440E+04</pdfrwt>
<pdfrwt beam="2">  1       -2 0.39844416E-01 0.12885440E+04</pdfrwt>
<totfact> 0.64945295E+01</totfact>
</mgrwt>
</event>
<event>
 6    1  0.1878398E-004  0.2710267E+04  0.7818608E-02  0.8331681E-01
         -2   -1    0    0    0  501 -0.00000000000E+00  0.00000000000E+00  0.91304543994E+03  0.91304543994E+03  0.00000000000E+00 0. -1.
          2   -1    0    0  501    0  0.00000000000E+00 -0.00000000000E+00 -0.20112771196E+04  0.20112771196E+04  0.00000000000E+00 0.  1.
         23    2    1    2    0    0 -0.84898485706E+03  0.10540145101E+04 -0.58364270628E+03  0.14763848238E+04  0.85740681633E+02 0.  0.
         13    1    3    3    0    0 -0.64499203091E+03  0.78628452496E+03 -0.39881629696E+03  0.10923884441E+04  0.00000000000E+00 0. -1.
        -13    1    3    3    0    0 -0.20399282615E+03  0.26772998511E+03 -0.18482640932E+03  0.38399637971E+03  0.00000000000E+00 0.  1.
         22    1    1    2    0    0  0.84898485706E+03 -0.10540145101E+04 -0.51458897338E+03  0.14479377357E+04  0.00000000000E+00 0.  1.
<mgrwt>
<rscale>  0 0.27102674E+04</rscale>
<asrwt>0</asrwt>
<pdfrwt beam="1">  1        2 0.30942725E+00 0.27102674E+04</pdfrwt>
<pdfrwt beam="2">  1       -2 0.14046853E+00 0.27102674E+04</pdfrwt>
<totfact> 0.20553934E+00</totfact>
</mgrwt>
</event>
<event>
 6    1  0.1878398E-004  0.7523766E+03  0.7818608E-02  0.9631629E-01
         -3   -1    0    0    0  501 -0.00000000000E+00  0.00000000000E+00  0.24561718058E+03  0.24561718058E+03  0.00000000000E+00 0. -1.
          3   -1    0    0  501    0  0.00000000000E+00 -0.00000000000E+00 -0.57617159494E+03  0.57617159494E+03  0.00000000000E+00 0.  1.
         23    2    1    2    0    0 -0.90166324527E+02  0.20558384943E+03 -0.49000489107E+03  0.54643602040E+03  0.89960246179E+02 0.  0.
         13    1    3    3    0    0 -0.72613848652E+02  0.12641199944E+03 -0.21531339972E+03  0.26002427717E+03  0.00000000000E+00 0. -1.
        -13    1    3    3    0    0 -0.17552475874E+02  0.79171849992E+02 -0.27469149135E+03  0.28641174323E+03  0.00000000000E+00 0.  1.
         22    1    1    2    0    0  0.90166324527E+02 -0.20558384943E+03  0.15945047671E+03  0.27535275511E+03  0.00000000000E+00 0. -1.
<mgrwt>
<rscale>  0 0.75237661E+03</rscale>
<asrwt>0</asrwt>
<pdfrwt beam="1">  1        3 0.88641783E-01 0.75237661E+03</pdfrwt>
<pdfrwt beam="2">  1       -3 0.37787259E-01 0.75237661E+03</pdfrwt>
<totfact> 0.21167982E+01</totfact>
</mgrwt>
</event>
<event>
 6    1  0.1878398E-004  0.3611221E+04  0.7818608E-02  0.8087926E-01
          2   -1    0    0  501    0  0.00000000000E+00  0.00000000000E+00  0.25100387143E+04  0.25100387143E+04  0.00000000000E+00 0.  1.
         -2   -1    0    0    0  501 -0.00000000000E+00 -0.00000000000E+00 -0.12988758477E+04  0.12988758477E+04  0.00000000000E+00 0. -1.
         23    2    1    2    0    0 -0.50065920678E+02  0.15655907884E+04  0.15507213773E+04  0.22061416226E+04  0.93503773851E+02 0.  0.
         13    1    3    3    0    0 -0.40897320732E+02  0.52695063786E+03  0.47143564158E+03  0.70823804595E+03  0.00000000000E+00 0. -1.
        -13    1    3    3    0    0 -0.91685999452E+01  0.10386401506E+04  0.10792857357E+04  0.14979035767E+04  0.00000000000E+00 0.  1.
         22    1    1    2    0    0  0.50065920678E+02 -0.15655907884E+04 -0.33955851076E+03  0.16027729394E+04  0.00000000000E+00 0. -1.
<mgrwt>
<rscale>  0 0.36112207E+04</rscale>
<asrwt>0</asrwt>
<pdfrwt beam="1">  1        2 0.38615980E+00 0.36112207E+04</pdfrwt>
<pdfrwt beam="2">  1       -2 0.19982705E+00 0.36112207E+04</pdfrwt>
<totfact> 0.37292019E-01</totfact>
</mgrwt>
</event>
<event>
 6    1  0.1878398E-004  0.9147035E+03  0.7818608E-02  0.9407386E-01
          2   -1    0    0  501    0  0.00000000000E+00  0.00000000000E+00  0.20323247612E+04  0.20323247612E+04  0.00000000000E+00 0.  1.
         -2   -1    0    0    0  501 -0.00000000000E+00 -0.00000000000E+00 -0.10292184022E+03  0.10292184022E+03  0.00000000000E+00 0. -1.
         23    2    1    2    0    0 -0.18952834784E+03 -0.34850898044E+03  0.14843164337E+04  0.15390239205E+04  0.89553606488E+02 0.  0.
         13    1    3    3    0    0 -0.25095041694E+02 -0.90509051810E+02  0.48153651930E+03  0.49061091406E+03  0.00000000000E+00 0. -1.
        -13    1    3    3    0    0 -0.16443330615E+03 -0.25799992863E+03  0.10027799144E+04  0.10484130064E+04  0.00000000000E+00 0.  1.
         22    1    1    2    0    0  0.18952834784E+03  0.34850898044E+03  0.44508648726E+03  0.59622268090E+03  0.00000000000E+00 0. -1.
<mgrwt>
<rscale>  0 0.91470346E+03</rscale>
<asrwt>0</asrwt>
<pdfrwt beam="1">  1        2 0.31266532E+00 0.91470346E+03</pdfrwt>
<pdfrwt beam="2">  1       -2 0.15834131E-01 0.91470346E+03</pdfrwt>
<totfact> 0.20713975E+02</totfact>
</mgrwt>
</event>
<event>
 6    1  0.1878398E-004  0.3084418E+04  0.7818608E-02  0.8220027E-01
         -2   -1    0    0    0  501 -0.00000000000E+00  0.00000000000E+00  0.88700381158E+03  0.88700381158E+03  0.00000000000E+00 0. -1.
          2   -1    0    0  501    0  0.00000000000E+00 -0.00000000000E+00 -0.26813967945E+04  0.26813967945E+04  0.00000000000E+00 0.  1.
         23    2    1    2    0    0 -0.57600903482E+03  0.10271348998E+04  0.25166367896E+03  0.12076506460E+04  0.91065717191E+02 0.  0.
         13    1    3    3    0    0 -0.45745645471E+03  0.88325551969E+03  0.20947222165E+03  0.10165064351E+04  0.00000000000E+00 0. -1.
        -13    1    3    3    0    0 -0.11855258010E+03  0.14387938010E+03  0.42191457316E+02  0.19114421084E+03  0.00000000000E+00 0.  1.
         22    1    1    2    0    0  0.57600903482E+03 -0.10271348998E+04 -0.20460566619E+04  0.23607499601E+04  0.00000000000E+00 0.  1.
<mgrwt>
<rscale>  0 0.30844184E+04</rscale>
<asrwt>0</asrwt>
<pdfrwt beam="1">  1        2 0.41252259E+00 0.30844184E+04</pdfrwt>
<pdfrwt beam="2">  1       -2 0.13646212E+00 0.30844184E+04</pdfrwt>
<totfact> 0.88842517E-01</totfact>
</mgrwt>
</event>
<event>
 6    1  0.1878398E-004  0.1947109E+04  0.7818608E-02  0.8631756E-01
          2   -1    0    0  501    0  0.00000000000E+00  0.00000000000E+00  0.39897834046E+04  0.39897834046E+04  0.00000000000E+00 0.  1.
         -2   -1    0    0    0  501 -0.00000000000E+00 -0.00000000000E+00 -0.23755895871E+03  0.23755895871E+03  0.00000000000E+00 0. -1.
         23    2    1    2    0    0 -0.72911702810E+03  0.55572066501E+03  0.25790457698E+04  0.27384550928E+04  0.84983024998E+02 0.  0.
         13    1    3    3    0    0 -0.39975137240E+03  0.33892802917E+03  0.15662019570E+04  0.16515634832E+04  0.00000000000E+00 0.  1.
        -13    1    3    3    0    0 -0.32936565570E+03  0.21679263583E+03  0.10128438127E+04  0.10868916096E+04  0.00000000000E+00 0. -1.
         22    1    1    2    0    0  0.72911702810E+03 -0.55572066501E+03  0.11731786761E+04  0.14888872705E+04  0.00000000000E+00 0. -1.
<mgrwt>
<rscale>  0 0.19471094E+04</rscale>
<asrwt>0</asrwt>
<pdfrwt beam="1">  1        2 0.61381278E+00 0.19471094E+04</pdfrwt>
<pdfrwt beam="2">  1       -2 0.36547535E-01 0.19471094E+04</pdfrwt>
<totfact> 0.23197806E+00</totfact>
</mgrwt>
</event>
<event>
 6    1  0.1878398E-004  0.2722660E+04  0.7818608E-02  0.8327690E-01
          2   -1    0    0  501    0  0.00000000000E+00  0.00000000000E+00  0.21031110015E+04  0.21031110015E+04  0.00000000000E+00 0.  1.
         -2   -1    0    0    0  501 -0.00000000000E+00 -0.00000000000E+00 -0.88118019974E+03  0.88118019974E+03  0.00000000000E+00 0. -1.
         23    2    1    2    0    0  0.96743286886E+03 -0.78369246314E+03  0.12109529407E+04  0.17392125909E+04  0.91395728898E+02 0.  0.
         11    1    3    3    0    0  0.80316568306E+03 -0.68825143840E+03  0.10054356551E+04  0.14593375255E+04  0.00000000000E+00 0.  1.
        -11    1    3    3    0    0  0.16426718580E+03 -0.95441024737E+02  0.20551728566E+03  0.27987506541E+03  0.00000000000E+00 0. -1.
         22    1    1    2    0    0 -0.96743286886E+03  0.78369246314E+03  0.10977861084E+02  0.12450786104E+04  0.00000000000E+00 0. -1.
<mgrwt>
<rscale>  0 0.27226603E+04</rscale>
<asrwt>0</asrwt>
<pdfrwt beam="1">  1        2 0.32355554E+00 0.27226603E+04</pdfrwt>
<pdfrwt beam="2">  1       -2 0.13556619E+00 0.27226603E+04</pdfrwt>
<totfact> 0.20002529E+00</totfact>
</mgrwt>
</event>
<event>
 6    1  0.1878398E-004  0.3581721E+04  0.7818608E-02  0.8094692E-01
         -1   -1    0    0    0  501 -0.00000000000E+00  0.00000000000E+00  0.19486084567E+04  0.19486084567E+04  0.00000000000E+00 0. -1.
          1   -1    0    0  501    0  0.00000000000E+00 -0.00000000000E+00 -0.16458829077E+04  0.16458829077E+04  0.00000000000E+00 0.  1.
         23    2    1    2    0    0  0.72913659681E+03  0.14281784408E+04 -0.64615180465E+03  0.17312409605E+04  0.91374357307E+02 0.  0.
         13    1    3    3    0    0  0.30109183150E+03  0.66276578837E+03 -0.32664596251E+03  0.79787991956E+03  0.00000000000E+00 0. -1.
        -13    1    3    3    0    0  0.42804476532E+03  0.76541265240E+03 -0.31950584214E+03  0.93336104094E+03  0.00000000000E+00 0.  1.
         22    1    1    2    0    0 -0.72913659681E+03 -0.14281784408E+04  0.94887735361E+03  0.18632504039E+04  0.00000000000E+00 0. -1.
<mgrwt>
<rscale>  0 0.35817210E+04</rscale>
<asrwt>0</asrwt>
<pdfrwt beam="1">  1        1 0.25321275E+00 0.35817210E+04</pdfrwt>
<pdfrwt beam="2">  1       -1 0.29978592E+00 0.35817210E+04</pdfrwt>
<totfact> 0.13931060E-01</totfact>
</mgrwt>
</event>
<event>
 6    1  0.1878398E-004  0.2190605E+04  0.7818608E-02  0.8522349E-01
         -2   -1    0    0    0  501 -0.00000000000E+00  0.00000000000E+00  0.37056151273E+04  0.37056151273E+04  0.00000000000E+00 0. -1.
          2   -1    0    0  501    0  0.00000000000E+00 -0.00000000000E+00 -0.32374849818E+03  0.32374849818E+03  0.00000000000E+00 0.  1.
         23    2    1    2    0    0  0.21290602629E+03  0.10679690232E+04  0.18751193594E+04  0.21702847823E+04  0.90424630185E+02 0.  0.
         11    1    3    3    0    0  0.93634595729E+02  0.36149925559E+03  0.56981796080E+03  0.68127942708E+03  0.00000000000E+00 0. -1.
        -11    1    3    3    0    0  0.11927143057E+03  0.70646976757E+03  0.13053013986E+04  0.14890053552E+04  0.00000000000E+00 0.  1.
         22    1    1    2    0    0 -0.21290602629E+03 -0.10679690232E+04  0.15067472698E+04  0.18590788433E+04  0.00000000000E+00 0. -1.
<mgrwt>
<rscale>  0 0.21906048E+04</rscale>
<asrwt>0</asrwt>
<pdfrwt beam="1">  1        2 0.49807464E-01 0.21906048E+04</pdfrwt>
<pdfrwt beam="2">  1       -2 0.57009460E+00 0.21906048E+04</pdfrwt>
<totfact> 0.61798900E-02</totfact>
</mgrwt>
</event>
<event>
 6    1  0.1878398E-004  0.2243956E+04  0.7818608E-02  0.8500352E-01
         -1   -1    0    0    0  501 -0.00000000000E+00  0.00000000000E+00  0.72568313742E+03  0.72568313742E+03  0.00000000000E+00 0. -1.
          1   -1    0    0  501    0  0.00000000000E+00 -0.00000000000E+00 -0.17346892014E+04  0.17346892014E+04  0.00000000000E+00 0.  1.
         23    2    1    2    0    0 -0.78340690562E+03 -0.47182011445E+02 -0.13814471297E+04  0.15916578463E+04  0.95005292158E+02 0.  0.
         13    1    3    3    0    0 -0.13086069549E+03 -0.40734623416E+02 -0.26998366448E+03  0.30277881408E+03  0.00000000000E+00 0. -1.
        -13    1    3    3    0    0 -0.65254621013E+03 -0.64473880290E+01 -0.11114634652E+04  0.12888790322E+04  0.00000000000E+00 0.  1.
         22    1    1    2    0    0  0.78340690562E+03  0.47182011445E+02  0.37244106576E+03  0.86871449248E+03  0.00000000000E+00 0.  1.
<mgrwt>
<rscale>  0 0.22439561E+04</rscale>
<asrwt>0</asrwt>
<pdfrwt beam="1">  1        1 0.26687526E+00 0.22439561E+04</pdfrwt>
<pdfrwt beam="2">  1       -1 0.11164356E+00 0.22439561E+04</pdfrwt>
<totfact> 0.30198819E+00</totfact>
</mgrwt>
</event>
<event>
 6    1  0.1878398E-004  0.2496572E+04  0.7818608E-02  0.8404208E-01
         -1   -1    0    0    0  501 -0.00000000000E+00  0.00000000000E+00  0.41950184678E+03  0.41950184678E+03  0.00000000000E+00 0. -1.
          1   -1    0    0  501    0  0.00000000000E+00 -0.00000000000E+00 -0.37144491869E+04  0.37144491869E+04  0.00000000000E+00 0.  1.
         23    2    1    2    0    0 -0.14255809982E+03 -0.35097850810E+03 -0.36162665568E+04  0.36372068702E+04  0.91549340048E+02 0.  0.
         13    1    3    3    0    0 -0.84593013959E+02 -0.14490363611E+03 -0.12366874609E+04  0.12480179958E+04  0.00000000000E+00 0. -1.
        -13    1    3    3    0    0 -0.57965085864E+02 -0.20607487199E+03 -0.23795790959E+04  0.23891888744E+04  0.00000000000E+00 0.  1.
         22    1    1    2    0    0  0.14255809982E+03  0.35097850810E+03  0.32131921667E+03  0.49674416351E+03  0.00000000000E+00 0. -1.
<mgrwt>
<rscale>  0 0.24965723E+04</rscale>
<asrwt>0</asrwt>
<pdfrwt beam="1">  1        1 0.57145373E+00 0.24965723E+04</pdfrwt>
<pdfrwt beam="2">  1       -1 0.64538745E-01 0.24965723E+04</pdfrwt>
<totfact> 0.36375305E-01</totfact>
</mgrwt>
</event>
<event>
 6    1  0.1878398E-004  0.1573066E+04  0.7818608E-02  0.8837268E-01
          2   -1    0    0  501    0  0.00000000000E+00  0.00000000000E+00  0.29186879847E+04  0.29186879847E+04  0.00000000000E+00 0.  1.
         -2   -1    0    0    0  501 -0.00000000000E+00 -0.00000000000E+00 -0.21195615562E+03  0.21195615562E+03  0.00000000000E+00 0. -1.
         23    2    1    2    0    0 -0.26427729031E+03  0.46460064142E+03  0.24987956063E+04  0.25571167086E+04  0.95760832994E+02 0.  0.
         13    1    3    3    0    0 -0.22012670664E+03  0.30845822112E+03  0.16508510480E+04  0.16937861211E+04  0.00000000000E+00 0. -1.
        -13    1    3    3    0    0 -0.44150583667E+02  0.15614242030E+03  0.84794455828E+03  0.86333058754E+03  0.00000000000E+00 0.  1.
         22    1    1    2    0    0  0.26427729031E+03 -0.46460064142E+03  0.20793622278E+03  0.57352743171E+03  0.00000000000E+00 0. -1.
<mgrwt>
<rscale>  0 0.15730656E+04</rscale>
<asrwt>0</asrwt>
<pdfrwt beam="1">  1        2 0.44902889E+00 0.15730656E+04</pdfrwt>
<pdfrwt beam="2">  1       -2 0.32608641E-01 0.15730656E+04</pdfrwt>
<totfact> 0.16570922E+01</totfact>
</mgrwt>
</event>
<event>
 6    1  0.1878398E-004  0.1800184E+04  0.7818608E-02  0.8706202E-01
          1   -1    0    0  501    0  0.00000000000E+00  0.00000000000E+00  0.55350875329E+03  0.55350875329E+03  0.00000000000E+00 0.  1.
         -1   -1    0    0    0  501 -0.00000000000E+00 -0.00000000000E+00 -0.14636900524E+04  0.14636900524E+04  0.00000000000E+00 0. -1.
         23    2    1    2    0    0 -0.74409493345E+03  0.41081251097E+03 -0.13232563654E+03  0.86502537215E+03  0.91184599710E+02 0.  0.
         13    1    3    3    0    0 -0.35702186452E+03  0.24269258323E+03 -0.89220908949E+02  0.44082272207E+03  0.00000000000E+00 0. -1.
        -13    1    3    3    0    0 -0.38707306893E+03  0.16811992774E+03 -0.43104727587E+02  0.42420265008E+03  0.00000000000E+00 0.  1.
         22    1    1    2    0    0  0.74409493345E+03 -0.41081251097E+03 -0.77785566253E+03  0.11521734335E+04  0.00000000000E+00 0. -1.
<mgrwt>
<rscale>  0 0.18001836E+04</rscale>
<asrwt>0</asrwt>
<pdfrwt beam="1">  1        1 0.85155194E-01 0.18001836E+04</pdfrwt>
<pdfrwt beam="2">  1       -1 0.22518308E+00 0.18001836E+04</pdfrwt>
<totfact> 0.36855523E+00</totfact>
</mgrwt>
</event>
<event>
 6    1  0.1878398E-004  0.2937123E+04  0.7818608E-02  0.8261917E-01
         -1   -1    0    0    0  501 -0.00000000000E+00  0.00000000000E+00  0.62296068754E+03  0.62296068754E+03  0.00000000000E+00 0. -1.
          1   -1    0    0  501    0  0.00000000000E+00 -0.00000000000E+00 -0.34619721844E+04  0.34619721844E+04  0.00000000000E+00 0.  1.
         23    2    1    2    0    0  0.10804375715E+03 -0.94025373745E+02 -0.34516379541E+04  0.34557863068E+04  0.90223100008E+02 0.  0.
         13    1    3    3    0    0  0.90389537049E+02 -0.46922347268E+02 -0.29195797848E+04  0.29213555235E+04  0.00000000000E+00 0. -1.
        -13    1    3    3    0    0  0.17654220099E+02 -0.47103026476E+02 -0.53205816932E+03  0.53443078329E+03  0.00000000000E+00 0.  1.
         22    1    1    2    0    0 -0.10804375715E+03  0.94025373745E+02  0.61262645722E+03  0.62914656516E+03  0.00000000000E+00 0. -1.
<mgrwt>
<rscale>  0 0.29371228E+04</rscale>
<asrwt>0</asrwt>
<pdfrwt beam="1">  1        1 0.53261111E+00 0.29371228E+04</pdfrwt>
<pdfrwt beam="2">  1       -1 0.95840105E-01 0.29371228E+04</pdfrwt>
<totfact> 0.24027863E-01</totfact>
</mgrwt>
</event>
<event>
 6    1  0.1878398E-004  0.2872673E+04  0.7818608E-02  0.8281055E-01
          1   -1    0    0  501    0  0.00000000000E+00  0.00000000000E+00  0.18192368023E+04  0.18192368023E+04  0.00000000000E+00 0.  1.
         -1   -1    0    0    0  501 -0.00000000000E+00 -0.00000000000E+00 -0.11340262783E+04  0.11340262783E+04  0.00000000000E+00 0. -1.
         23    2    1    2    0    0  0.12237564106E+04  0.64142886803E+03 -0.54749680700E+02  0.13859239821E+04  0.93685706073E+02 0.  0.
         13    1    3    3    0    0  0.46261548612E+03  0.29390724234E+03 -0.26534537502E+02  0.54872455456E+03  0.00000000000E+00 0.  1.
        -13    1    3    3    0    0  0.76114092449E+03  0.34752162569E+03 -0.28215143198E+02  0.83719942759E+03  0.00000000000E+00 0. -1.
         22    1    1    2    0    0 -0.12237564106E+04 -0.64142886803E+03  0.73996020468E+03  0.15673390985E+04  0.00000000000E+00 0. -1.
<mgrwt>
<rscale>  0 0.28726729E+04</rscale>
<asrwt>0</asrwt>
<pdfrwt beam="1">  1        1 0.27988258E+00 0.28726729E+04</pdfrwt>
<pdfrwt beam="2">  1       -1 0.17446558E+00 0.28726729E+04</pdfrwt>
<totfact> 0.77624624E-01</totfact>
</mgrwt>
</event>
<event>
 6    1  0.1878398E-004  0.2823739E+04  0.7818608E-02  0.8295936E-01
         -1   -1    0    0    0  501 -0.00000000000E+00  0.00000000000E+00  0.13764428943E+04  0.13764428943E+04  0.00000000000E+00 0. -1.
          1   -1    0    0  501    0  0.00000000000E+00 -0.00000000000E+00 -0.14482078312E+04  0.14482078312E+04  0.00000000000E+00 0.  1.
         23    2    1    2    0    0 -0.36243258582E+03 -0.12588081569E+04 -0.55855394158E+03  0.14271819815E+04  0.94395696585E+02 0.  0.
         13    1    3    3    0    0 -0.25468060127E+03 -0.97722132820E+03 -0.46265844099E+03  0.11107999667E+04  0.00000000000E+00 0. -1.
        -13    1    3    3    0    0 -0.10775198455E+03 -0.28158682872E+03 -0.95895500587E+02  0.31638201484E+03  0.00000000000E+00 0.  1.
         22    1    1    2    0    0  0.36243258582E+03  0.12588081569E+04  0.48678900471E+03  0.13974687439E+04  0.00000000000E+00 0. -1.
<mgrwt>
<rscale>  0 0.28237389E+04</rscale>
<asrwt>0</asrwt>
<pdfrwt beam="1">  1        1 0.22280120E+00 0.28237389E+04</pdfrwt>
<pdfrwt beam="2">  1       -1 0.21176045E+00 0.28237389E+04</pdfrwt>
<totfact> 0.76808669E-01</totfact>
</mgrwt>
</event>
<event>
 6    1  0.1878398E-004  0.2780904E+04  0.7818608E-02  0.8309221E-01
         -2   -1    0    0    0  501 -0.00000000000E+00  0.00000000000E+00  0.13031067133E+04  0.13031067133E+04  0.00000000000E+00 0. -1.
          2   -1    0    0  501    0  0.00000000000E+00 -0.00000000000E+00 -0.14836522815E+04  0.14836522815E+04  0.00000000000E+00 0.  1.
         23    2    1    2    0    0 -0.56020120502E+03  0.33775121336E+03 -0.13182985126E+04  0.14743630809E+04  0.89074427556E+02 0.  0.
         13    1    3    3    0    0 -0.44834624478E+03  0.24188247858E+03 -0.10815618599E+04  0.11955323273E+04  0.00000000000E+00 0.  1.
        -13    1    3    3    0    0 -0.11185496024E+03  0.95868734778E+02 -0.23673665266E+03  0.27883075360E+03  0.00000000000E+00 0. -1.
         22    1    1    2    0    0  0.56020120502E+03 -0.33775121336E+03  0.11377529444E+04  0.13123959139E+04  0.00000000000E+00 0. -1.
<mgrwt>
<rscale>  0 0.27809043E+04</rscale>
<asrwt>0</asrwt>
<pdfrwt beam="1">  1        2 0.22825420E+00 0.27809043E+04</pdfrwt>
<pdfrwt beam="2">  1       -2 0.20047796E+00 0.27809043E+04</pdfrwt>
<totfact> 0.14923595E+00</totfact>
</mgrwt>
</event>
<event>
 6    1  0.1878398E-004  0.4456856E+04  0.7818608E-02  0.7918234E-01
         -1   -1    0    0    0  501 -0.00000000000E+00  0.00000000000E+00  0.14148101205E+04  0.14148101205E+04  0.00000000000E+00 0. -1.
          1   -1    0    0  501    0  0.00000000000E+00 -0.00000000000E+00 -0.35099351817E+04  0.35099351817E+04  0.00000000000E+00 0.  1.
         23    2    1    2    0    0 -0.10091381417E+04  0.19796358636E+04 -0.87427234263E+03  0.23894348080E+04  0.87912633684E+02 0.  0.
         11    1    3    3    0    0 -0.46838610925E+02  0.10833725861E+03 -0.66611231172E+02  0.13552812695E+03  0.00000000000E+00 0. -1.
        -11    1    3    3    0    0 -0.96229953076E+03  0.18712986050E+04 -0.80766111146E+03  0.22539066810E+04  0.00000000000E+00 0.  1.
         22    1    1    2    0    0  0.10091381417E+04 -0.19796358636E+04 -0.12208527186E+04  0.25353104942E+04  0.00000000000E+00 0.  1.
<mgrwt>
<rscale>  0 0.44568562E+04</rscale>
<asrwt>0</asrwt>
<pdfrwt beam="1">  1        1 0.53999002E+00 0.44568562E+04</pdfrwt>
<pdfrwt beam="2">  1       -1 0.21766310E+00 0.44568562E+04</pdfrwt>
<totfact> 0.21086123E-02</totfact>
</mgrwt>
</event>
<event>
 6    1  0.1878398E-004  0.5236582E+04  0.7818608E-02  0.7793014E-01
         -3   -1    0    0    0  501 -0.00000000000E+00  0.00000000000E+00  0.30710857269E+04  0.30710857269E+04  0.00000000000E+00 0. -1.
          3   -1    0    0  501    0  0.00000000000E+00 -0.00000000000E+00 -0.22322554861E+04  0.22322554861E+04  0.00000000000E+00 0.  1.
         23    2    1    2    0    0  0.75212925335E+03  0.11737043434E+04  0.26631953195E+04  0.30073472583E+04  0.90818075540E+02 0.  0.
         11    1    3    3    0    0  0.60737234618E+03  0.87958090448E+03  0.20138854925E+04  0.22799777436E+04  0.00000000000E+00 0. -1.
        -11    1    3    3    0    0  0.14475690718E+03  0.29412343893E+03  0.64930982702E+03  0.72736951473E+03  0.00000000000E+00 0.  1.
         22    1    1    2    0    0 -0.75212925335E+03 -0.11737043434E+04 -0.18243650787E+04  0.22959939547E+04  0.00000000000E+00 0.  1.
<mgrwt>
<rscale>  0 0.52365821E+04</rscale>
<asrwt>0</asrwt>
<pdfrwt beam="1">  1        3 0.34342392E+00 0.52365821E+04</pdfrwt>
<pdfrwt beam="2">  1       -3 0.47247473E+00 0.52365821E+04</pdfrwt>
<totfact> 0.17441702E-04</totfact>
</mgrwt>
</event>
<event>
 6    1  0.1878398E-004  0.1550696E+04  0.7818608E-02  0.8851424E-01
         -2   -1    0    0    0  501 -0.00000000000E+00  0.00000000000E+00  0.32264151632E+03  0.32264151632E+03  0.00000000000E+00 0. -1.
          2   -1    0    0  501    0  0.00000000000E+00 -0.00000000000E+00 -0.18632572704E+04  0.18632572704E+04  0.00000000000E+00 0.  1.
         23    2    1    2    0    0  0.25795962228E+03  0.55459746848E+03 -0.10243033170E+03  0.62304920090E+03  0.59806480532E+02 0.  0.
         13    1    3    3    0    0  0.88124453979E+02  0.12806499988E+03 -0.24053629400E+02  0.15730588250E+03  0.00000000000E+00 0. -1.
        -13    1    3    3    0    0  0.16983516830E+03  0.42653246861E+03 -0.78376702305E+02  0.46574331840E+03  0.00000000000E+00 0.  1.
         22    1    1    2    0    0 -0.25795962228E+03 -0.55459746848E+03 -0.14381854224E+04  0.15628495858E+04  0.00000000000E+00 0.  1.
<mgrwt>
<rscale>  0 0.15506955E+04</rscale>
<asrwt>0</asrwt>
<pdfrwt beam="1">  1        2 0.28665496E+00 0.15506955E+04</pdfrwt>
<pdfrwt beam="2">  1       -2 0.49637157E-01 0.15506955E+04</pdfrwt>
<totfact> 0.29423846E+01</totfact>
</mgrwt>
</event>
<event>
 6    1  0.1878398E-004  0.7436096E+03  0.7818608E-02  0.9645430E-01
          1   -1    0    0  501    0  0.00000000000E+00  0.00000000000E+00  0.10271077037E+04  0.10271077037E+04  0.00000000000E+00 0.  1.
         -1   -1    0    0    0  501 -0.00000000000E+00 -0.00000000000E+00 -0.13459038160E+03  0.13459038160E+03  0.00000000000E+00 0. -1.
         23    2    1    2    0    0 -0.10389710637E+03  0.21601657185E+03  0.18973463615E+02  0.25586330968E+03  0.87454404643E+02 0.  0.
         11    1    3    3    0    0  0.47724633924E+01  0.76067918452E+02  0.19518235621E+02  0.78676973418E+02  0.00000000000E+00 0. -1.
        -11    1    3    3    0    0 -0.10866956976E+03  0.13994865340E+03 -0.54477200566E+00  0.17718633626E+03  0.00000000000E+00 0.  1.
         22    1    1    2    0    0  0.10389710637E+03 -0.21601657185E+03  0.87354385854E+03  0.90583477567E+03  0.00000000000E+00 0.  1.
<mgrwt>
<rscale>  0 0.74360962E+03</rscale>
<asrwt>0</asrwt>
<pdfrwt beam="1">  1        1 0.15801656E+00 0.74360962E+03</pdfrwt>
<pdfrwt beam="2">  1       -1 0.20706213E-01 0.74360962E+03</pdfrwt>
<totfact> 0.28134454E+02</totfact>
</mgrwt>
</event>
<event>
 6    1  0.1878398E-004  0.4641447E+04  0.7818608E-02  0.7886331E-01
          1   -1    0    0  501    0  0.00000000000E+00  0.00000000000E+00  0.25119732977E+04  0.25119732977E+04  0.00000000000E+00 0. -1.
         -1   -1    0    0    0  501 -0.00000000000E+00 -0.00000000000E+00 -0.21440350171E+04  0.21440350171E+04  0.00000000000E+00 0.  1.
         23    2    1    2    0    0 -0.13600878216E+04  0.34258712697E+03  0.20368800722E+04  0.24759689743E+04  0.11973767592E+03 0.  0.
         11    1    3    3    0    0 -0.51734284109E+03  0.12383753611E+03  0.67264906815E+03  0.85757572229E+03  0.00000000000E+00 0.  1.
        -11    1    3    3    0    0 -0.84274498055E+03  0.21874959086E+03  0.13642310041E+04  0.16183932520E+04  0.00000000000E+00 0. -1.
         22    1    1    2    0    0  0.13600878216E+04 -0.34258712697E+03 -0.16689417916E+04  0.21800393404E+04  0.00000000000E+00 0.  1.
<mgrwt>
<rscale>  0 0.46414475E+04</rscale>
<asrwt>0</asrwt>
<pdfrwt beam="1">  1        1 0.38645743E+00 0.46414475E+04</pdfrwt>
<pdfrwt beam="2">  1       -1 0.32985154E+00 0.46414475E+04</pdfrwt>
<totfact> 0.20831777E-02</totfact>
</mgrwt>
</event>
<event>
 6    1  0.1878398E-004  0.2475524E+04  0.7818608E-02  0.8411758E-01
          2   -1    0    0  501    0  0.00000000000E+00  0.00000000000E+00  0.12728885519E+04  0.12728885519E+04  0.00000000000E+00 0.  1.
         -2   -1    0    0    0  501 -0.00000000000E+00 -0.00000000000E+00 -0.12036044655E+04  0.12036044655E+04  0.00000000000E+00 0. -1.
         23    2    1    2    0    0 -0.79659317230E+02  0.11937791042E+04  0.34535010298E+03  0.12486222579E+04  0.91305492238E+02 0.  0.
         13    1    3    3    0    0 -0.22271669862E+02  0.14168413382E+03  0.14073726922E+02  0.14411277128E+03  0.00000000000E+00 0. -1.
        -13    1    3    3    0    0 -0.57387647368E+02  0.10520949704E+04  0.33127637606E+03  0.11045094867E+04  0.00000000000E+00 0.  1.
         22    1    1    2    0    0  0.79659317230E+02 -0.11937791042E+04 -0.27606601650E+03  0.12278707595E+04  0.00000000000E+00 0.  1.
<mgrwt>
<rscale>  0 0.24755237E+04</rscale>
<asrwt>0</asrwt>
<pdfrwt beam="1">  1        2 0.19582901E+00 0.24755237E+04</pdfrwt>
<pdfrwt beam="2">  1       -2 0.18516992E+00 0.24755237E+04</pdfrwt>
<totfact> 0.25608190E+00</totfact>
</mgrwt>
</event>
<event>
 6    1  0.1878398E-004  0.1961277E+04  0.7818608E-02  0.8624942E-01
          2   -1    0    0  501    0  0.00000000000E+00  0.00000000000E+00  0.12252495862E+04  0.12252495862E+04  0.00000000000E+00 0.  1.
         -2   -1    0    0    0  501 -0.00000000000E+00 -0.00000000000E+00 -0.78486224982E+03  0.78486224982E+03  0.00000000000E+00 0. -1.
         23    2    1    2    0    0 -0.82689204798E+03  0.12848123106E+03  0.74137447025E+03  0.11208137192E+04  0.79557540914E+02 0.  0.
         11    1    3    3    0    0 -0.60411967896E+03  0.12852852262E+03  0.55485637995E+03  0.83026849272E+03  0.00000000000E+00 0. -1.
        -11    1    3    3    0    0 -0.22277236902E+03 -0.47291557400E-01  0.18651809030E+03  0.29054522651E+03  0.00000000000E+00 0.  1.
         22    1    1    2    0    0  0.82689204798E+03 -0.12848123106E+03 -0.30098713388E+03  0.88929811678E+03  0.00000000000E+00 0. -1.
<mgrwt>
<rscale>  0 0.19612773E+04</rscale>
<asrwt>0</asrwt>
<pdfrwt beam="1">  1        2 0.18849994E+00 0.19612773E+04</pdfrwt>
<pdfrwt beam="2">  1       -2 0.12074804E+00 0.19612773E+04</pdfrwt>
<totfact> 0.89163473E+00</totfact>
</mgrwt>
</event>
<event>
 6    1  0.3370758E-004  0.3138074E+04  0.7818608E-02  0.8205366E-01
          2   -1    0    0  501    0  0.00000000000E+00  0.00000000000E+00  0.23816107444E+04  0.23816107444E+04  0.00000000000E+00 0.  1.
         -2   -1    0    0    0  501 -0.00000000000E+00 -0.00000000000E+00 -0.10337024370E+04  0.10337024370E+04  0.00000000000E+00 0. -1.
         23    2    1    2    0    0 -0.65980120512E+03 -0.47901865532E+03 -0.78291403851E+03  0.11338223590E+04  0.88330332662E+02 0.  0.
         13    1    3    3    0    0 -0.37181641924E+03 -0.29463194365E+03 -0.40083456972E+03  0.62106665030E+03  0.00000000000E+00 0.  1.
        -13    1    3    3    0    0 -0.28798478588E+03 -0.18438671167E+03 -0.38207946879E+03  0.51275570871E+03  0.00000000000E+00 0. -1.
         22    1    1    2    0    0  0.65980120512E+03  0.47901865532E+03  0.21308223460E+04  0.22814908224E+04  0.00000000000E+00 0.  1.
<mgrwt>
<rscale>  0 0.31380738E+04</rscale>
<asrwt>0</asrwt>
<pdfrwt beam="1">  1        2 0.36640165E+00 0.31380738E+04</pdfrwt>
<pdfrwt beam="2">  1       -2 0.15903114E+00 0.31380738E+04</pdfrwt>
<totfact> 0.88273663E-01</totfact>
</mgrwt>
</event>
<event>
 6    1  0.1878398E-004  0.1470470E+04  0.7818608E-02  0.8904331E-01
          2   -1    0    0  501    0  0.00000000000E+00  0.00000000000E+00  0.76525686064E+03  0.76525686064E+03  0.00000000000E+00 0.  1.
         -2   -1    0    0    0  501 -0.00000000000E+00 -0.00000000000E+00 -0.70639054120E+03  0.70639054120E+03  0.00000000000E+00 0. -1.
         23    2    1    2    0    0  0.50731441851E+03 -0.42933591866E+03 -0.27839710690E+03  0.72636633470E+03  0.91683437855E+02 0.  0.
         11    1    3    3    0    0  0.13364568009E+03 -0.16570386042E+03 -0.10406441474E+03  0.23695640861E+03  0.00000000000E+00 0.  1.
        -11    1    3    3    0    0  0.37366873842E+03 -0.26363205824E+03 -0.17433269216E+03  0.48940992609E+03  0.00000000000E+00 0. -1.
         22    1    1    2    0    0 -0.50731441851E+03  0.42933591866E+03  0.33726342635E+03  0.74528106714E+03  0.00000000000E+00 0.  1.
<mgrwt>
<rscale>  0 0.14704696E+04</rscale>
<asrwt>0</asrwt>
<pdfrwt beam="1">  1        2 0.11773182E+00 0.14704696E+04</pdfrwt>
<pdfrwt beam="2">  1       -2 0.10867547E+00 0.14704696E+04</pdfrwt>
<totfact> 0.23933100E+01</totfact>
</mgrwt>
</event>
<event>
 6    1  0.1878398E-004  0.1379191E+04  0.7818608E-02  0.8969020E-01
          2   -1    0    0  501    0  0.00000000000E+00  0.00000000000E+00  0.22793354817E+04  0.22793354817E+04  0.00000000000E+00 0.  1.
         -2   -1    0    0    0  501 -0.00000000000E+00 -0.00000000000E+00 -0.20863188835E+03  0.20863188835E+03  0.00000000000E+00 0. -1.
         23    2    1    2    0    0 -0.17023717886E+03 -0.31434856130E+03  0.20973631810E+04  0.21294894089E+04  0.89426586874E+02 0.  0.
         13    1    3    3    0    0 -0.17084356763E+03 -0.25775000650E+03  0.16692577055E+04  0.16976583513E+04  0.00000000000E+00 0.  1.
        -13    1    3    3    0    0  0.60638876175E+00 -0.56598554797E+02  0.42810547550E+03  0.43183105755E+03  0.00000000000E+00 0. -1.
         22    1    1    2    0    0  0.17023717886E+03  0.31434856130E+03 -0.26659587613E+02  0.35847796121E+03  0.00000000000E+00 0. -1.
<mgrwt>
<rscale>  0 0.13791912E+04</rscale>
<asrwt>0</asrwt>
<pdfrwt beam="1">  1        2 0.35066698E+00 0.13791912E+04</pdfrwt>
<pdfrwt beam="2">  1       -2 0.32097215E-01 0.13791912E+04</pdfrwt>
<totfact> 0.41095020E+01</totfact>
</mgrwt>
</event>
<event>
 6    1  0.1878398E-004  0.2416940E+04  0.7818608E-02  0.8433189E-01
          2   -1    0    0  501    0  0.00000000000E+00  0.00000000000E+00  0.33945203972E+04  0.33945203972E+04  0.00000000000E+00 0.  1.
         -2   -1    0    0    0  501 -0.00000000000E+00 -0.00000000000E+00 -0.43022257583E+03  0.43022257583E+03  0.00000000000E+00 0. -1.
         23    2    1    2    0    0  0.28419551198E+03  0.89958680337E+03  0.26750041077E+04  0.28379733147E+04  0.91771743822E+02 0.  0.
         11    1    3    3    0    0  0.11122485110E+03  0.49030312354E+03  0.13628046285E+04  0.14525854797E+04  0.00000000000E+00 0.  1.
        -11    1    3    3    0    0  0.17297066089E+03  0.40928367983E+03  0.13121994792E+04  0.13853878350E+04  0.00000000000E+00 0. -1.
         22    1    1    2    0    0 -0.28419551198E+03 -0.89958680337E+03  0.28929371367E+03  0.98676965833E+03  0.00000000000E+00 0. -1.
<mgrwt>
<rscale>  0 0.24169396E+04</rscale>
<asrwt>0</asrwt>
<pdfrwt beam="1">  1        2 0.52223389E+00 0.24169396E+04</pdfrwt>
<pdfrwt beam="2">  1       -2 0.66188091E-01 0.24169396E+04</pdfrwt>
<totfact> 0.18156776E+00</totfact>
</mgrwt>
</event>
<event>
 6    1  0.1878398E-004  0.2275840E+04  0.7818608E-02  0.8487509E-01
          2   -1    0    0  501    0  0.00000000000E+00  0.00000000000E+00  0.12064192038E+04  0.12064192038E+04  0.00000000000E+00 0.  1.
         -2   -1    0    0    0  501 -0.00000000000E+00 -0.00000000000E+00 -0.10733096640E+04  0.10733096640E+04  0.00000000000E+00 0. -1.
         23    2    1    2    0    0  0.18111517096E+03 -0.60710576629E+03 -0.87798573770E+03  0.10865424714E+04  0.91298794589E+02 0.  0.
         13    1    3    3    0    0  0.15506094621E+03 -0.36880549894E+03 -0.56483758135E+03  0.69217258425E+03  0.00000000000E+00 0.  1.
        -13    1    3    3    0    0  0.26054224751E+02 -0.23830026735E+03 -0.31314815636E+03  0.39436988713E+03  0.00000000000E+00 0. -1.
         22    1    1    2    0    0 -0.18111517096E+03  0.60710576629E+03  0.10110952775E+04  0.11931863965E+04  0.00000000000E+00 0.  1.
<mgrwt>
<rscale>  0 0.22758395E+04</rscale>
<asrwt>0</asrwt>
<pdfrwt beam="1">  1        2 0.18560295E+00 0.22758395E+04</pdfrwt>
<pdfrwt beam="2">  1       -2 0.16512456E+00 0.22758395E+04</pdfrwt>
<totfact> 0.39403821E+00</totfact>
</mgrwt>
</event>
<event>
 6    1  0.1878398E-004  0.2661094E+04  0.7818608E-02  0.8347740E-01
          1   -1    0    0  501    0  0.00000000000E+00  0.00000000000E+00  0.18079630329E+04  0.18079630329E+04  0.00000000000E+00 0. -1.
         -1   -1    0    0    0  501 -0.00000000000E+00 -0.00000000000E+00 -0.97919857948E+03  0.97919857948E+03  0.00000000000E+00 0.  1.
         23    2    1    2    0    0  0.79988757602E+03  0.30809046027E+03  0.14786224941E+04  0.17114965442E+04  0.90310989209E+02 0.  0.
         11    1    3    3    0    0  0.43945106409E+02  0.41173557654E+02  0.10098081867E+03  0.11757363636E+03  0.00000000000E+00 0. -1.
        -11    1    3    3    0    0  0.75594246962E+03  0.26691690261E+03  0.13776416754E+04  0.15939229078E+04  0.00000000000E+00 0.  1.
         22    1    1    2    0    0 -0.79988757602E+03 -0.30809046027E+03 -0.64985804064E+03  0.10756650682E+04  0.00000000000E+00 0.  1.
<mgrwt>
<rscale>  0 0.26610936E+04</rscale>
<asrwt>0</asrwt>
<pdfrwt beam="1">  1        1 0.27814816E+00 0.26610936E+04</pdfrwt>
<pdfrwt beam="2">  1       -1 0.15064594E+00 0.26610936E+04</pdfrwt>
<totfact> 0.12156237E+00</totfact>
</mgrwt>
</event>
<event>
 6    1  0.1878398E-004  0.2125009E+04  0.7818608E-02  0.8550306E-01
          2   -1    0    0  501    0  0.00000000000E+00  0.00000000000E+00  0.26258279366E+04  0.26258279366E+04  0.00000000000E+00 0.  1.
         -2   -1    0    0    0  501 -0.00000000000E+00 -0.00000000000E+00 -0.42992737966E+03  0.42992737966E+03  0.00000000000E+00 0. -1.
         23    2    1    2    0    0 -0.73540366765E+03  0.18490534043E+03  0.21662134719E+04  0.22968812408E+04  0.90410670407E+02 0.  0.
         11    1    3    3    0    0 -0.22479418470E+03  0.15046412491E+02  0.61298773990E+03  0.65307946628E+03  0.00000000000E+00 0.  1.
        -11    1    3    3    0    0 -0.51060948295E+03  0.16985892794E+03  0.15532257320E+04  0.16438017746E+04  0.00000000000E+00 0. -1.
         22    1    1    2    0    0  0.73540366765E+03 -0.18490534043E+03  0.29687085029E+02  0.75887407541E+03  0.00000000000E+00 0. -1.
<mgrwt>
<rscale>  0 0.21250085E+04</rscale>
<asrwt>0</asrwt>
<pdfrwt beam="1">  1        2 0.40397352E+00 0.21250085E+04</pdfrwt>
<pdfrwt beam="2">  1       -2 0.66142675E-01 0.21250085E+04</pdfrwt>
<totfact> 0.56851246E+00</totfact>
</mgrwt>
</event>
<event>
 6    1  0.1878398E-004  0.3170387E+04  0.7818608E-02  0.8196682E-01
         -2   -1    0    0    0  501 -0.00000000000E+00  0.00000000000E+00  0.14234118348E+04  0.14234118348E+04  0.00000000000E+00 0. -1.
          2   -1    0    0  501    0  0.00000000000E+00 -0.00000000000E+00 -0.17653627293E+04  0.17653627293E+04  0.00000000000E+00 0.  1.
         23    2    1    2    0    0 -0.10531617878E+04 -0.11417500389E+04 -0.48279815023E+03  0.16291012483E+04  0.90188251917E+02 0.  0.
         13    1    3    3    0    0 -0.53147166044E+03 -0.51033409080E+03 -0.22246297607E+03  0.76967056966E+03  0.00000000000E+00 0.  1.
        -13    1    3    3    0    0 -0.52169012733E+03 -0.63141594811E+03 -0.26033517416E+03  0.85943067864E+03  0.00000000000E+00 0. -1.
         22    1    1    2    0    0  0.10531617878E+04  0.11417500389E+04  0.14084725579E+03  0.15596733158E+04  0.00000000000E+00 0.  1.
<mgrwt>
<rscale>  0 0.31703869E+04</rscale>
<asrwt>0</asrwt>
<pdfrwt beam="1">  1        2 0.27159427E+00 0.31703869E+04</pdfrwt>
<pdfrwt beam="2">  1       -2 0.21898643E+00 0.31703869E+04</pdfrwt>
<totfact> 0.76378167E-01</totfact>
</mgrwt>
</event>
<event>
 6    1  0.1878398E-004  0.3466229E+04  0.7818608E-02  0.8121840E-01
          1   -1    0    0  501    0  0.00000000000E+00  0.00000000000E+00  0.19596849717E+04  0.19596849717E+04  0.00000000000E+00 0.  1.
         -1   -1    0    0    0  501 -0.00000000000E+00 -0.00000000000E+00 -0.15327394368E+04  0.15327394368E+04  0.00000000000E+00 0. -1.
         23    2    1    2    0    0 -0.32760513527E+02  0.11093067472E+04  0.15536944826E+04  0.19109068140E+04  0.77224321659E+02 0.  0.
         13    1    3    3    0    0 -0.50947682122E+02  0.61119997106E+03  0.82293762369E+03  0.10263466293E+04  0.00000000000E+00 0. -1.
        -13    1    3    3    0    0  0.18187168595E+02  0.49810677616E+03  0.73075685893E+03  0.88456018475E+03  0.00000000000E+00 0.  1.
         22    1    1    2    0    0  0.32760513527E+02 -0.11093067472E+04 -0.11267489477E+04  0.15815175945E+04  0.00000000000E+00 0. -1.
<mgrwt>
<rscale>  0 0.34662293E+04</rscale>
<asrwt>0</asrwt>
<pdfrwt beam="1">  1        1 0.30149000E+00 0.34662293E+04</pdfrwt>
<pdfrwt beam="2">  1       -1 0.23580607E+00 0.34662293E+04</pdfrwt>
<totfact> 0.22436492E-01</totfact>
</mgrwt>
</event>
<event>
 6    1  0.1878398E-004  0.3219131E+04  0.7818608E-02  0.8183783E-01
          2   -1    0    0  501    0  0.00000000000E+00  0.00000000000E+00  0.22281268688E+04  0.22281268688E+04  0.00000000000E+00 0.  1.
         -2   -1    0    0    0  501 -0.00000000000E+00 -0.00000000000E+00 -0.11627260313E+04  0.11627260313E+04  0.00000000000E+00 0. -1.
         23    2    1    2    0    0  0.11325657239E+04 -0.11307448492E+04  0.36565915542E+03  0.16441624712E+04  0.90964722671E+02 0.  0.
         13    1    3    3    0    0  0.60796571359E+03 -0.62741476541E+03  0.24355617442E+03  0.90696813993E+03  0.00000000000E+00 0.  1.
        -13    1    3    3    0    0  0.52460001027E+03 -0.50333008381E+03  0.12210298100E+03  0.73719433124E+03  0.00000000000E+00 0. -1.
         22    1    1    2    0    0 -0.11325657239E+04  0.11307448492E+04  0.69974168213E+03  0.17466904290E+04  0.00000000000E+00 0. -1.
<mgrwt>
<rscale>  0 0.32191310E+04</rscale>
<asrwt>0</asrwt>
<pdfrwt beam="1">  1        2 0.34278875E+00 0.32191310E+04</pdfrwt>
<pdfrwt beam="2">  1       -2 0.17888093E+00 0.32191310E+04</pdfrwt>
<totfact> 0.77266448E-01</totfact>
</mgrwt>
</event>
<event>
 6    1  0.1878398E-004  0.3119292E+04  0.7818608E-02  0.8210463E-01
         -2   -1    0    0    0  501 -0.00000000000E+00  0.00000000000E+00  0.90158303124E+03  0.90158303124E+03  0.00000000000E+00 0. -1.
          2   -1    0    0  501    0  0.00000000000E+00 -0.00000000000E+00 -0.26980266341E+04  0.26980266341E+04  0.00000000000E+00 0.  1.
         23    2    1    2    0    0  0.46217218931E+03 -0.13814564092E+04 -0.15376019530E+04  0.21200746225E+04  0.92041815523E+02 0.  0.
         11    1    3    3    0    0  0.38687838542E+03 -0.10368341928E+04 -0.11504810382E+04  0.15963416450E+04  0.00000000000E+00 0. -1.
        -11    1    3    3    0    0  0.75293803888E+02 -0.34462221645E+03 -0.38712091488E+03  0.52373297749E+03  0.00000000000E+00 0.  1.
         22    1    1    2    0    0 -0.46217218931E+03  0.13814564092E+04 -0.25884164978E+03  0.14795350428E+04  0.00000000000E+00 0. -1.
<mgrwt>
<rscale>  0 0.31192916E+04</rscale>
<asrwt>0</asrwt>
<pdfrwt beam="1">  1        2 0.41508102E+00 0.31192916E+04</pdfrwt>
<pdfrwt beam="2">  1       -2 0.13870508E+00 0.31192916E+04</pdfrwt>
<totfact> 0.83015946E-01</totfact>
</mgrwt>
</event>
<event>
 6    1  0.1878398E-004  0.3494406E+04  0.7818608E-02  0.8115117E-01
         -2   -1    0    0    0  501 -0.00000000000E+00  0.00000000000E+00  0.16861583170E+04  0.16861583170E+04  0.00000000000E+00 0. -1.
          2   -1    0    0  501    0  0.00000000000E+00 -0.00000000000E+00 -0.18104576542E+04  0.18104576542E+04  0.00000000000E+00 0.  1.
         23    2    1    2    0    0 -0.15096450814E+03  0.78758638568E+03  0.14897210323E+04  0.16943550715E+04  0.92129021595E+02 0.  0.
         13    1    3    3    0    0 -0.12852703768E+01  0.22482092223E+03  0.40705531002E+03  0.46501626252E+03  0.00000000000E+00 0. -1.
        -13    1    3    3    0    0 -0.14967923776E+03  0.56276546345E+03  0.10826657222E+04  0.12293388090E+04  0.00000000000E+00 0.  1.
         22    1    1    2    0    0  0.15096450814E+03 -0.78758638568E+03 -0.16140203695E+04  0.18022608997E+04  0.00000000000E+00 0.  1.
<mgrwt>
<rscale>  0 0.34944059E+04</rscale>
<asrwt>0</asrwt>
<pdfrwt beam="1">  1        2 0.27853195E+00 0.34944059E+04</pdfrwt>
<pdfrwt beam="2">  1       -2 0.25940897E+00 0.34944059E+04</pdfrwt>
<totfact> 0.39380090E-01</totfact>
</mgrwt>
</event>
<event>
 6    1  0.1878398E-004  0.5636862E+04  0.7818608E-02  0.7737133E-01
          1   -1    0    0  501    0  0.00000000000E+00  0.00000000000E+00  0.21256529754E+04  0.21256529754E+04  0.00000000000E+00 0.  1.
         -1   -1    0    0    0  501 -0.00000000000E+00 -0.00000000000E+00 -0.37369948901E+04  0.37369948901E+04  0.00000000000E+00 0. -1.
         23    2    1    2    0    0  0.14783694063E+04  0.45029009215E+03 -0.32560230682E+04  0.36058108388E+04  0.10884997019E+03 0.  0.
         13    1    3    3    0    0  0.10712483722E+04  0.34025363103E+03 -0.22557457329E+04  0.25202647519E+04  0.00000000000E+00 0.  1.
        -13    1    3    3    0    0  0.40712103403E+03  0.11003646112E+03 -0.10002773354E+04  0.10855460869E+04  0.00000000000E+00 0. -1.
         22    1    1    2    0    0 -0.14783694063E+04 -0.45029009215E+03  0.16446811535E+04  0.22568370267E+04  0.00000000000E+00 0.  1.
<mgrwt>
<rscale>  0 0.56368624E+04</rscale>
<asrwt>0</asrwt>
<pdfrwt beam="1">  1        1 0.32702353E+00 0.56368624E+04</pdfrwt>
<pdfrwt beam="2">  1       -1 0.57492229E+00 0.56368624E+04</pdfrwt>
<totfact> 0.96505889E-04</totfact>
</mgrwt>
</event>
<event>
 6    1  0.1878398E-004  0.1709777E+04  0.7818608E-02  0.8755808E-01
          2   -1    0    0  501    0  0.00000000000E+00  0.00000000000E+00  0.46691961660E+03  0.46691961660E+03  0.00000000000E+00 0.  1.
         -2   -1    0    0    0  501 -0.00000000000E+00 -0.00000000000E+00 -0.15652255763E+04  0.15652255763E+04  0.00000000000E+00 0. -1.
         23    2    1    2    0    0  0.16057249886E+03 -0.83716464808E+03 -0.55962774217E+03  0.10237789909E+04  0.91170373200E+02 0.  0.
         13    1    3    3    0    0  0.13362400635E+03 -0.53188647397E+03 -0.32179244707E+03  0.63585295097E+03  0.00000000000E+00 0. -1.
        -13    1    3    3    0    0  0.26948492517E+02 -0.30527817411E+03 -0.23783529509E+03  0.38792603990E+03  0.00000000000E+00 0.  1.
         22    1    1    2    0    0 -0.16057249886E+03  0.83716464808E+03 -0.53867821755E+03  0.10083662021E+04  0.00000000000E+00 0.  1.
<mgrwt>
<rscale>  0 0.17097772E+04</rscale>
<asrwt>0</asrwt>
<pdfrwt beam="1">  1        2 0.71833786E-01 0.17097772E+04</pdfrwt>
<pdfrwt beam="2">  1       -2 0.24080394E+00 0.17097772E+04</pdfrwt>
<totfact> 0.46405190E+00</totfact>
</mgrwt>
</event>
<event>
 6    1  0.1878398E-004  0.1865376E+04  0.7818608E-02  0.8672286E-01
         -1   -1    0    0    0  501 -0.00000000000E+00  0.00000000000E+00  0.62147448724E+03  0.62147448724E+03  0.00000000000E+00 0. -1.
          1   -1    0    0  501    0  0.00000000000E+00 -0.00000000000E+00 -0.13997462775E+04  0.13997462775E+04  0.00000000000E+00 0.  1.
         23    2    1    2    0    0 -0.22609801016E+03 -0.35239228683E+03  0.51019259772E+03  0.66643623830E+03  0.92412872139E+02 0.  0.
         11    1    3    3    0    0 -0.26937986130E+02 -0.11136962806E+03  0.16256877283E+03  0.19889056049E+03  0.00000000000E+00 0.  1.
        -11    1    3    3    0    0 -0.19916002403E+03 -0.24102265876E+03  0.34762382489E+03  0.46754567781E+03  0.00000000000E+00 0. -1.
         22    1    1    2    0    0  0.22609801016E+03  0.35239228683E+03 -0.12884643879E+04  0.13547845264E+04  0.00000000000E+00 0.  1.
<mgrwt>
<rscale>  0 0.18653757E+04</rscale>
<asrwt>0</asrwt>
<pdfrwt beam="1">  1        1 0.21534558E+00 0.18653757E+04</pdfrwt>
<pdfrwt beam="2">  1       -1 0.95611461E-01 0.18653757E+04</pdfrwt>
<totfact> 0.76119299E+00</totfact>
</mgrwt>
</event>
<event>
 6    1  0.1878398E-004  0.9283226E+03  0.7818608E-02  0.9390853E-01
         -1   -1    0    0    0  501 -0.00000000000E+00  0.00000000000E+00  0.31415150343E+03  0.31415150343E+03  0.00000000000E+00 0. -1.
          1   -1    0    0  501    0  0.00000000000E+00 -0.00000000000E+00 -0.68580188569E+03  0.68580188569E+03  0.00000000000E+00 0.  1.
         23    2    1    2    0    0 -0.31513780380E+03  0.13520216473E+03  0.14191166996E+03  0.38242813279E+03  0.92308688364E+02 0.  0.
         13    1    3    3    0    0 -0.21967303627E+03  0.78779052517E+02  0.13872451767E+03  0.27149009886E+03  0.00000000000E+00 0.  1.
        -13    1    3    3    0    0 -0.95464767530E+02  0.56423112213E+02  0.31871522887E+01  0.11093803393E+03  0.00000000000E+00 0. -1.
         22    1    1    2    0    0  0.31513780380E+03 -0.13520216473E+03 -0.51356205222E+03  0.61752525633E+03  0.00000000000E+00 0.  1.
<mgrwt>
<rscale>  0 0.92832256E+03</rscale>
<asrwt>0</asrwt>
<pdfrwt beam="1">  1        1 0.10550798E+00 0.92832256E+03</pdfrwt>
<pdfrwt beam="2">  1       -1 0.48331001E-01 0.92832256E+03</pdfrwt>
<totfact> 0.12105605E+02</totfact>
</mgrwt>
</event>
<event>
 6    1  0.1878398E-004  0.3124565E+04  0.7818608E-02  0.8209028E-01
         -2   -1    0    0    0  501 -0.00000000000E+00  0.00000000000E+00  0.13880390294E+04  0.13880390294E+04  0.00000000000E+00 0. -1.
          2   -1    0    0  501    0  0.00000000000E+00 -0.00000000000E+00 -0.17583993730E+04  0.17583993730E+04  0.00000000000E+00 0.  1.
         23    2    1    2    0    0 -0.14131427048E+04  0.26060838882E+03 -0.79924242048E+03  0.16468288291E+04  0.91475184495E+02 0.  0.
         13    1    3    3    0    0 -0.31231089035E+03  0.36853671546E+02 -0.21188886030E+03  0.37920070471E+03  0.00000000000E+00 0. -1.
        -13    1    3    3    0    0 -0.11008318144E+04  0.22375471727E+03 -0.58735356018E+03  0.12676281244E+04  0.00000000000E+00 0.  1.
         22    1    1    2    0    0  0.14131427048E+04 -0.26060838882E+03  0.42888207682E+03  0.14996095732E+04  0.00000000000E+00 0. -1.
<mgrwt>
<rscale>  0 0.31245652E+04</rscale>
<asrwt>0</asrwt>
<pdfrwt beam="1">  1        2 0.27052298E+00 0.31245652E+04</pdfrwt>
<pdfrwt beam="2">  1       -2 0.21354447E+00 0.31245652E+04</pdfrwt>
<totfact> 0.83790066E-01</totfact>
</mgrwt>
</event>
<event>
 6    1  0.1878398E-004  0.2012846E+04  0.7818608E-02  0.8600638E-01
          1   -1    0    0  501    0  0.00000000000E+00  0.00000000000E+00  0.11821847349E+04  0.11821847349E+04  0.00000000000E+00 0.  1.
         -1   -1    0    0    0  501 -0.00000000000E+00 -0.00000000000E+00 -0.85679295422E+03  0.85679295422E+03  0.00000000000E+00 0. -1.
         23    2    1    2    0    0  0.56049251744E+03 -0.77590357302E+03 -0.14533372537E+03  0.97231901888E+03  0.90023141471E+02 0.  0.
         13    1    3    3    0    0  0.43460564629E+03 -0.66015811228E+03 -0.11762736995E+03  0.79907884414E+03  0.00000000000E+00 0. -1.
        -13    1    3    3    0    0  0.12588687115E+03 -0.11574546074E+03 -0.27706355427E+02  0.17324017473E+03  0.00000000000E+00 0.  1.
         22    1    1    2    0    0 -0.56049251744E+03  0.77590357302E+03  0.47072550604E+03  0.10666586702E+04  0.00000000000E+00 0.  1.
<mgrwt>
<rscale>  0 0.20128463E+04</rscale>
<asrwt>0</asrwt>
<pdfrwt beam="1">  1        1 0.18187457E+00 0.20128463E+04</pdfrwt>
<pdfrwt beam="2">  1       -1 0.13181430E+00 0.20128463E+04</pdfrwt>
<totfact> 0.49967573E+00</totfact>
</mgrwt>
</event>
<event>
 6    1  0.1878398E-004  0.2820781E+04  0.7818608E-02  0.8296846E-01
         -2   -1    0    0    0  501 -0.00000000000E+00  0.00000000000E+00  0.11175477870E+04  0.11175477870E+04  0.00000000000E+00 0. -1.
          2   -1    0    0  501    0  0.00000000000E+00 -0.00000000000E+00 -0.17799700825E+04  0.17799700825E+04  0.00000000000E+00 0.  1.
         23    2    1    2    0    0 -0.78117445666E+03 -0.10427446370E+04  0.21806389086E+03  0.13250021035E+04  0.10260996140E+03 0.  0.
         11    1    3    3    0    0 -0.79260606866E+02 -0.61567250560E+02  0.22553706056E+02  0.10286612562E+03  0.00000000000E+00 0.  1.
        -11    1    3    3    0    0 -0.70191384979E+03 -0.98117738645E+03  0.19551018480E+03  0.12221359779E+04  0.00000000000E+00 0. -1.
         22    1    1    2    0    0  0.78117445666E+03  0.10427446370E+04 -0.88048618637E+03  0.15725157659E+04  0.00000000000E+00 0.  1.
<mgrwt>
<rscale>  0 0.28207812E+04</rscale>
<asrwt>0</asrwt>
<pdfrwt beam="1">  1        2 0.27384155E+00 0.28207812E+04</pdfrwt>
<pdfrwt beam="2">  1       -2 0.17193043E+00 0.28207812E+04</pdfrwt>
<totfact> 0.15883525E+00</totfact>
</mgrwt>
</event>
<event>
 6    1  0.1878398E-004  0.4143785E+04  0.7818608E-02  0.7976153E-01
          2   -1    0    0  501    0  0.00000000000E+00  0.00000000000E+00  0.24538756667E+04  0.24538756667E+04  0.00000000000E+00 0.  1.
         -2   -1    0    0    0  501 -0.00000000000E+00 -0.00000000000E+00 -0.17493704521E+04  0.17493704521E+04  0.00000000000E+00 0. -1.
         23    2    1    2    0    0 -0.11531411322E+04 -0.93784734951E+03 -0.11102597370E+04  0.18574703513E+04  0.90704469722E+02 0.  0.
         13    1    3    3    0    0 -0.25144837969E+03 -0.21037295290E+03 -0.29262003598E+03  0.43944231979E+03  0.00000000000E+00 0.  1.
        -13    1    3    3    0    0 -0.90169275246E+03 -0.72747439661E+03 -0.81763970098E+03  0.14180280315E+04  0.00000000000E+00 0. -1.
         22    1    1    2    0    0  0.11531411322E+04  0.93784734951E+03  0.18147649516E+04  0.23457757674E+04  0.00000000000E+00 0.  1.
<mgrwt>
<rscale>  0 0.41437845E+04</rscale>
<asrwt>0</asrwt>
<pdfrwt beam="1">  1        2 0.37751933E+00 0.41437845E+04</pdfrwt>
<pdfrwt beam="2">  1       -2 0.26913392E+00 0.41437845E+04</pdfrwt>
<totfact> 0.14162186E-01</totfact>
</mgrwt>
</event>
<event>
 6    1  0.1878398E-004  0.2745513E+04  0.7818608E-02  0.8320387E-01
         -1   -1    0    0    0  501 -0.00000000000E+00  0.00000000000E+00  0.70835943484E+03  0.70835943484E+03  0.00000000000E+00 0. -1.
          1   -1    0    0  501    0  0.00000000000E+00 -0.00000000000E+00 -0.26603171175E+04  0.26603171175E+04  0.00000000000E+00 0.  1.
         23    2    1    2    0    0  0.70476311928E+03 -0.11707832761E+04 -0.11157973246E+04  0.17666189135E+04  0.92272324180E+02 0.  0.
         11    1    3    3    0    0  0.40723688513E+03 -0.75854610076E+03 -0.71959375795E+03  0.11220736358E+04  0.00000000000E+00 0. -1.
        -11    1    3    3    0    0  0.29752623415E+03 -0.41223717535E+03 -0.39620356667E+03  0.64454527769E+03  0.00000000000E+00 0.  1.
         22    1    1    2    0    0 -0.70476311928E+03  0.11707832761E+04 -0.83616035801E+03  0.16020576389E+04  0.00000000000E+00 0. -1.
<mgrwt>
<rscale>  0 0.27455132E+04</rscale>
<asrwt>0</asrwt>
<pdfrwt beam="1">  1        1 0.40927955E+00 0.27455132E+04</pdfrwt>
<pdfrwt beam="2">  1       -1 0.10897838E+00 0.27455132E+04</pdfrwt>
<totfact> 0.70991405E-01</totfact>
</mgrwt>
</event>
<event>
 6    1  0.1878398E-004  0.2352779E+04  0.7818608E-02  0.8457397E-01
          2   -1    0    0  501    0  0.00000000000E+00  0.00000000000E+00  0.89110998891E+03  0.89110998891E+03  0.00000000000E+00 0.  1.
         -2   -1    0    0    0  501 -0.00000000000E+00 -0.00000000000E+00 -0.15529984541E+04  0.15529984541E+04  0.00000000000E+00 0. -1.
         23    2    1    2    0    0  0.46769535775E+03 -0.55179565591E+03  0.62987957152E+03  0.96360783368E+03  0.92597996634E+02 0.  0.
         11    1    3    3    0    0  0.34520457905E+03 -0.39414058894E+03  0.40027756332E+03  0.65934447215E+03  0.00000000000E+00 0. -1.
        -11    1    3    3    0    0  0.12249077870E+03 -0.15765506696E+03  0.22960200820E+03  0.30426336154E+03  0.00000000000E+00 0.  1.
         22    1    1    2    0    0 -0.46769535775E+03  0.55179565591E+03 -0.12917680367E+04  0.14805006093E+04  0.00000000000E+00 0. -1.
<mgrwt>
<rscale>  0 0.23527792E+04</rscale>
<asrwt>0</asrwt>
<pdfrwt beam="1">  1        2 0.13709385E+00 0.23527792E+04</pdfrwt>
<pdfrwt beam="2">  1       -2 0.23892284E+00 0.23527792E+04</pdfrwt>
<totfact> 0.20185331E+00</totfact>
</mgrwt>
</event>
<event>
 6    1  0.1878398E-004  0.6236515E+03  0.7818608E-02  0.9857516E-01
          2   -1    0    0  501    0  0.00000000000E+00  0.00000000000E+00  0.15493196309E+04  0.15493196309E+04  0.00000000000E+00 0.  1.
         -2   -1    0    0    0  501 -0.00000000000E+00 -0.00000000000E+00 -0.62759990664E+02  0.62759990664E+02  0.00000000000E+00 0. -1.
         23    2    1    2    0    0  0.22306997732E+02 -0.20769504805E+03  0.13341342317E+04  0.13534904874E+04  0.91583383932E+02 0.  0.
         11    1    3    3    0    0  0.29820106666E+01 -0.13247745587E+02  0.34348642238E+03  0.34375473453E+03  0.00000000000E+00 0.  1.
        -11    1    3    3    0    0  0.19324987066E+02 -0.19444730246E+03  0.99064780932E+03  0.10097357529E+04  0.00000000000E+00 0. -1.
         22    1    1    2    0    0 -0.22306997732E+02  0.20769504805E+03  0.15242540854E+03  0.25858913415E+03  0.00000000000E+00 0. -1.
<mgrwt>
<rscale>  0 0.62365146E+03</rscale>
<asrwt>0</asrwt>
<pdfrwt beam="1">  1        2 0.23835684E+00 0.62365146E+03</pdfrwt>
<pdfrwt beam="2">  1       -2 0.96553843E-02 0.62365146E+03</pdfrwt>
<totfact> 0.88186443E+02</totfact>
</mgrwt>
</event>
<event>
 6    1  0.1878398E-004  0.2884211E+04  0.7818608E-02  0.8277591E-01
          1   -1    0    0  501    0  0.00000000000E+00  0.00000000000E+00  0.30758894571E+04  0.30758894571E+04  0.00000000000E+00 0.  1.
         -1   -1    0    0    0  501 -0.00000000000E+00 -0.00000000000E+00 -0.67611916210E+03  0.67611916210E+03  0.00000000000E+00 0. -1.
         23    2    1    2    0    0 -0.19364470683E+03 -0.14017291101E+04  0.84933580779E+03  0.16529159891E+04  0.91745202795E+02 0.  0.
         11    1    3    3    0    0 -0.43961739840E+01 -0.27740633530E+03  0.15018433108E+03  0.31548206686E+03  0.00000000000E+00 0.  1.
        -11    1    3    3    0    0 -0.18924853285E+03 -0.11243227748E+04  0.69915147671E+03  0.13374339223E+04  0.00000000000E+00 0. -1.
         22    1    1    2    0    0  0.19364470683E+03  0.14017291101E+04  0.15504344872E+04  0.20990926301E+04  0.00000000000E+00 0. -1.
<mgrwt>
<rscale>  0 0.28842107E+04</rscale>
<asrwt>0</asrwt>
<pdfrwt beam="1">  1        1 0.47321376E+00 0.28842107E+04</pdfrwt>
<pdfrwt beam="2">  1       -1 0.10401833E+00 0.28842107E+04</pdfrwt>
<totfact> 0.39299503E-01</totfact>
</mgrwt>
</event>
<event>
 6    1  0.1878398E-004  0.2011994E+04  0.7818608E-02  0.8601034E-01
         -2   -1    0    0    0  501 -0.00000000000E+00  0.00000000000E+00  0.73561482785E+03  0.73561482785E+03  0.00000000000E+00 0. -1.
          2   -1    0    0  501    0  0.00000000000E+00 -0.00000000000E+00 -0.13757606181E+04  0.13757606181E+04  0.00000000000E+00 0.  1.
         23    2    1    2    0    0  0.17202688159E+03 -0.20031274496E+03 -0.13371720837E+04  0.13660137234E+04  0.90806758411E+02 0.  0.
         11    1    3    3    0    0  0.79646667193E+02 -0.13300048115E+03 -0.94091562846E+03  0.95360103789E+03  0.00000000000E+00 0. -1.
        -11    1    3    3    0    0  0.92380214395E+02 -0.67312263807E+02 -0.39625645521E+03  0.41241268550E+03  0.00000000000E+00 0.  1.
         22    1    1    2    0    0 -0.17202688159E+03  0.20031274496E+03  0.69702629340E+03  0.74536172257E+03  0.00000000000E+00 0. -1.
<mgrwt>
<rscale>  0 0.20119939E+04</rscale>
<asrwt>0</asrwt>
<pdfrwt beam="1">  1        2 0.21165548E+00 0.20119939E+04</pdfrwt>
<pdfrwt beam="2">  1       -2 0.11317151E+00 0.20119939E+04</pdfrwt>
<totfact> 0.85051712E+00</totfact>
</mgrwt>
</event>
<event>
 6    1  0.1878398E-004  0.2434712E+04  0.7818608E-02  0.8426621E-01
          2   -1    0    0  501    0  0.00000000000E+00  0.00000000000E+00  0.26567125525E+04  0.26567125525E+04  0.00000000000E+00 0. -1.
         -2   -1    0    0    0  501 -0.00000000000E+00 -0.00000000000E+00 -0.55781578074E+03  0.55781578074E+03  0.00000000000E+00 0.  1.
         23    2    1    2    0    0  0.63817443655E+03  0.10547985996E+03 -0.30807663609E+03  0.72215725365E+03  0.90594000793E+02 0.  0.
         11    1    3    3    0    0  0.29780964663E+03  0.46589570411E+02 -0.19365033032E+03  0.35827590503E+03  0.00000000000E+00 0.  1.
        -11    1    3    3    0    0  0.34036478992E+03  0.58890289549E+02 -0.11442630577E+03  0.36388134862E+03  0.00000000000E+00 0. -1.
         22    1    1    2    0    0 -0.63817443655E+03 -0.10547985996E+03  0.24069734078E+04  0.24923710796E+04  0.00000000000E+00 0. -1.
<mgrwt>
<rscale>  0 0.24347125E+04</rscale>
<asrwt>0</asrwt>
<pdfrwt beam="1">  1        2 0.40872500E+00 0.24347125E+04</pdfrwt>
<pdfrwt beam="2">  1       -2 0.85817814E-01 0.24347125E+04</pdfrwt>
<totfact> 0.29781547E+00</totfact>
</mgrwt>
</event>
<event>
 6    1  0.1878398E-004  0.1681572E+04  0.7818608E-02  0.8771945E-01
         -2   -1    0    0    0  501 -0.00000000000E+00  0.00000000000E+00  0.21979364738E+03  0.21979364738E+03  0.00000000000E+00 0. -1.
          2   -1    0    0  501    0  0.00000000000E+00 -0.00000000000E+00 -0.32162962488E+04  0.32162962488E+04  0.00000000000E+00 0.  1.
         23    2    1    2    0    0  0.69543208663E+03  0.33771538884E+03 -0.21650109858E+04  0.23007239737E+04  0.91546511291E+02 0.  0.
         11    1    3    3    0    0  0.38885429924E+03  0.19268545509E+03 -0.13473280303E+04  0.14154957336E+04  0.00000000000E+00 0.  1.
        -11    1    3    3    0    0  0.30657778739E+03  0.14502993375E+03 -0.81768295550E+03  0.88522824013E+03  0.00000000000E+00 0. -1.
         22    1    1    2    0    0 -0.69543208663E+03 -0.33771538884E+03 -0.83149161562E+03  0.11353659224E+04  0.00000000000E+00 0. -1.
<mgrwt>
<rscale>  0 0.16815725E+04</rscale>
<asrwt>0</asrwt>
<pdfrwt beam="1">  1        2 0.49481476E+00 0.16815725E+04</pdfrwt>
<pdfrwt beam="2">  1       -2 0.33814411E-01 0.16815725E+04</pdfrwt>
<totfact> 0.99353904E+00</totfact>
</mgrwt>
</event>
<event>
 6    1  0.1878398E-004  0.2957570E+04  0.7818608E-02  0.8255952E-01
         -2   -1    0    0    0  501 -0.00000000000E+00  0.00000000000E+00  0.86066568873E+03  0.86066568873E+03  0.00000000000E+00 0. -1.
          2   -1    0    0  501    0  0.00000000000E+00 -0.00000000000E+00 -0.25408290512E+04  0.25408290512E+04  0.00000000000E+00 0.  1.
         23    2    1    2    0    0  0.62175705799E+03 -0.50549285415E+03  0.58646891658E+03  0.99738851241E+03  0.93451537309E+02 0.  0.
         11    1    3    3    0    0  0.53213781455E+03 -0.41345405289E+03  0.45206694584E+03  0.81146745532E+03  0.00000000000E+00 0. -1.
        -11    1    3    3    0    0  0.89619243442E+02 -0.92038801257E+02  0.13440197074E+03  0.18592105709E+03  0.00000000000E+00 0.  1.
         22    1    1    2    0    0 -0.62175705799E+03  0.50549285415E+03 -0.22666322791E+04  0.24041062275E+04  0.00000000000E+00 0.  1.
<mgrwt>
<rscale>  0 0.29575695E+04</rscale>
<asrwt>0</asrwt>
<pdfrwt beam="1">  1        2 0.39089677E+00 0.29575695E+04</pdfrwt>
<pdfrwt beam="2">  1       -2 0.13241011E+00 0.29575695E+04</pdfrwt>
<totfact> 0.11732387E+00</totfact>
</mgrwt>
</event>
<event>
 6    1  0.1878398E-004  0.1792128E+04  0.7818608E-02  0.8710497E-01
          2   -1    0    0  501    0  0.00000000000E+00  0.00000000000E+00  0.12456298653E+04  0.12456298653E+04  0.00000000000E+00 0.  1.
         -2   -1    0    0    0  501 -0.00000000000E+00 -0.00000000000E+00 -0.64459792800E+03  0.64459792800E+03  0.00000000000E+00 0. -1.
         23    2    1    2    0    0 -0.70217839848E+03 -0.14562749683E+03  0.86360609802E+03  0.11265478466E+04  0.95040449153E+02 0.  0.
         11    1    3    3    0    0 -0.39133209080E+03 -0.44848054953E+02  0.42310502519E+03  0.57807440322E+03  0.00000000000E+00 0. -1.
        -11    1    3    3    0    0 -0.31084630768E+03 -0.10077944188E+03  0.44050107283E+03  0.54847344336E+03  0.00000000000E+00 0.  1.
         22    1    1    2    0    0  0.70217839848E+03  0.14562749683E+03 -0.26257416073E+03  0.76367994671E+03  0.00000000000E+00 0. -1.
<mgrwt>
<rscale>  0 0.17921277E+04</rscale>
<asrwt>0</asrwt>
<pdfrwt beam="1">  1        2 0.19163536E+00 0.17921277E+04</pdfrwt>
<pdfrwt beam="2">  1       -2 0.99168912E-01 0.17921277E+04</pdfrwt>
<totfact> 0.14163368E+01</totfact>
</mgrwt>
</event>
<event>
 6    1  0.1878398E-004  0.8051153E+03  0.7818608E-02  0.9552642E-01
         -1   -1    0    0    0  501 -0.00000000000E+00  0.00000000000E+00  0.37467260714E+03  0.37467260714E+03  0.00000000000E+00 0. -1.
          1   -1    0    0  501    0  0.00000000000E+00 -0.00000000000E+00 -0.43251803362E+03  0.43251803362E+03  0.00000000000E+00 0.  1.
         23    2    1    2    0    0 -0.13380612245E+03  0.27782204822E+03  0.22169039002E+03  0.39098222953E+03  0.92904821754E+02 0.  0.
         11    1    3    3    0    0 -0.95572128020E+02  0.10257908315E+03  0.12155062714E+03  0.18555606946E+03  0.00000000000E+00 0. -1.
        -11    1    3    3    0    0 -0.38233994428E+02  0.17524296506E+03  0.10013976288E+03  0.20542616007E+03  0.00000000000E+00 0.  1.
         22    1    1    2    0    0  0.13380612245E+03 -0.27782204822E+03 -0.27953581649E+03  0.41620841123E+03  0.00000000000E+00 0.  1.
<mgrwt>
<rscale>  0 0.80511529E+03</rscale>
<asrwt>0</asrwt>
<pdfrwt beam="1">  1        1 0.66541236E-01 0.80511529E+03</pdfrwt>
<pdfrwt beam="2">  1       -1 0.57641940E-01 0.80511529E+03</pdfrwt>
<totfact> 0.16663741E+02</totfact>
</mgrwt>
</event>
<event>
 6    1  0.1878398E-004  0.1866996E+04  0.7818608E-02  0.8671461E-01
          1   -1    0    0  501    0  0.00000000000E+00  0.00000000000E+00  0.18058947408E+04  0.18058947408E+04  0.00000000000E+00 0. -1.
         -1   -1    0    0    0  501 -0.00000000000E+00 -0.00000000000E+00 -0.48254092945E+03  0.48254092945E+03  0.00000000000E+00 0.  1.
         23    2    1    2    0    0  0.23687365587E+03 -0.88323660796E+03  0.44723244246E+03  0.10220215644E+04  0.91077911676E+02 0.  0.
         11    1    3    3    0    0  0.12908666502E+03 -0.49608974488E+03  0.20033444433E+03  0.55036559817E+03  0.00000000000E+00 0.  1.
        -11    1    3    3    0    0  0.10778699086E+03 -0.38714686308E+03  0.24689799813E+03  0.47165596622E+03  0.00000000000E+00 0. -1.
         22    1    1    2    0    0 -0.23687365587E+03  0.88323660796E+03  0.87612136887E+03  0.12664141058E+04  0.00000000000E+00 0. -1.
<mgrwt>
<rscale>  0 0.18669956E+04</rscale>
<asrwt>0</asrwt>
<pdfrwt beam="1">  1        1 0.27782996E+00 0.18669956E+04</pdfrwt>
<pdfrwt beam="2">  1       -1 0.74237067E-01 0.18669956E+04</pdfrwt>
<totfact> 0.69172431E+00</totfact>
</mgrwt>
</event>
<event>
 6    1  0.1878398E-004  0.3126803E+04  0.7818608E-02  0.8208420E-01
          2   -1    0    0  501    0  0.00000000000E+00  0.00000000000E+00  0.22451716509E+04  0.22451716509E+04  0.00000000000E+00 0.  1.
         -2   -1    0    0    0  501 -0.00000000000E+00 -0.00000000000E+00 -0.10886581599E+04  0.10886581599E+04  0.00000000000E+00 0. -1.
         23    2    1    2    0    0  0.12373136787E+04 -0.88103454315E+03  0.19025522047E+03  0.15336014778E+04  0.92571259425E+02 0.  0.
         11    1    3    3    0    0  0.37783805834E+03 -0.21781692124E+03  0.51416177031E+02  0.43914625442E+03  0.00000000000E+00 0. -1.
        -11    1    3    3    0    0  0.85947562036E+03 -0.66321762191E+03  0.13883904344E+03  0.10944552234E+04  0.00000000000E+00 0.  1.
         22    1    1    2    0    0 -0.12373136787E+04  0.88103454315E+03  0.96625827054E+03  0.18002283331E+04  0.00000000000E+00 0.  1.
<mgrwt>
<rscale>  0 0.31268031E+04</rscale>
<asrwt>0</asrwt>
<pdfrwt beam="1">  1        2 0.34541102E+00 0.31268031E+04</pdfrwt>
<pdfrwt beam="2">  1       -2 0.16748587E+00 0.31268031E+04</pdfrwt>
<totfact> 0.91638554E-01</totfact>
</mgrwt>
</event>
<event>
 6    1  0.1878398E-004  0.2128806E+04  0.7818608E-02  0.8548659E-01
         -1   -1    0    0    0  501 -0.00000000000E+00  0.00000000000E+00  0.79121935141E+03  0.79121935141E+03  0.00000000000E+00 0. -1.
          1   -1    0    0  501    0  0.00000000000E+00 -0.00000000000E+00 -0.14319082879E+04  0.14319082879E+04  0.00000000000E+00 0.  1.
         23    2    1    2    0    0  0.16048570961E+03  0.51435939875E+03  0.63528750446E+03  0.83805105950E+03  0.91750263932E+02 0.  0.
         13    1    3    3    0    0  0.15690789832E+03  0.43240023084E+03  0.49651630022E+03  0.67684450546E+03  0.00000000000E+00 0.  1.
        -13    1    3    3    0    0  0.35778112827E+01  0.81959167903E+02  0.13877120425E+03  0.16120655404E+03  0.00000000000E+00 0. -1.
         22    1    1    2    0    0 -0.16048570961E+03 -0.51435939875E+03 -0.12759764410E+04  0.13850765798E+04  0.00000000000E+00 0.  1.
<mgrwt>
<rscale>  0 0.21288058E+04</rscale>
<asrwt>0</asrwt>
<pdfrwt beam="1">  1        1 0.22029358E+00 0.21288058E+04</pdfrwt>
<pdfrwt beam="2">  1       -1 0.12172605E+00 0.21288058E+04</pdfrwt>
<totfact> 0.40011357E+00</totfact>
</mgrwt>
</event>
<event>
 6    1  0.1878398E-004  0.1239712E+04  0.7818608E-02  0.9078790E-01
          2   -1    0    0  501    0  0.00000000000E+00  0.00000000000E+00  0.62298930909E+03  0.62298930909E+03  0.00000000000E+00 0.  1.
         -2   -1    0    0    0  501 -0.00000000000E+00 -0.00000000000E+00 -0.61673857685E+03  0.61673857685E+03  0.00000000000E+00 0. -1.
         23    2    1    2    0    0 -0.52179413119E+03 -0.31801831694E+03  0.84731422844E+02  0.62364024279E+03  0.91339877133E+02 0.  0.
         11    1    3    3    0    0 -0.38247816842E+03 -0.27157645001E+03  0.85332562386E+02  0.47678607753E+03  0.00000000000E+00 0. -1.
        -11    1    3    3    0    0 -0.13931596277E+03 -0.46441866926E+02 -0.60113954196E+00  0.14685416526E+03  0.00000000000E+00 0.  1.
         22    1    1    2    0    0  0.52179413119E+03  0.31801831694E+03 -0.78480690602E+02  0.61608764316E+03  0.00000000000E+00 0. -1.
<mgrwt>
<rscale>  0 0.12397121E+04</rscale>
<asrwt>0</asrwt>
<pdfrwt beam="1">  1        2 0.95844509E-01 0.12397121E+04</pdfrwt>
<pdfrwt beam="2">  1       -2 0.94882858E-01 0.12397121E+04</pdfrwt>
<totfact> 0.43596438E+01</totfact>
</mgrwt>
</event>
<event>
 6    1  0.1878398E-004  0.2992603E+04  0.7818608E-02  0.8245846E-01
         -2   -1    0    0    0  501 -0.00000000000E+00  0.00000000000E+00  0.17389858118E+04  0.17389858118E+04  0.00000000000E+00 0. -1.
          2   -1    0    0  501    0  0.00000000000E+00 -0.00000000000E+00 -0.12874852083E+04  0.12874852083E+04  0.00000000000E+00 0.  1.
         23    2    1    2    0    0  0.73163839837E+03 -0.34523117600E+03 -0.10454010917E+04  0.13249440600E+04  0.90188740226E+02 0.  0.
         11    1    3    3    0    0  0.17656946492E+03 -0.10374531432E+03 -0.21038966498E+03  0.29360462755E+03  0.00000000000E+00 0.  1.
        -11    1    3    3    0    0  0.55506893344E+03 -0.24148586168E+03 -0.83501142668E+03  0.10313394325E+04  0.00000000000E+00 0. -1.
         22    1    1    2    0    0 -0.73163839837E+03  0.34523117600E+03  0.14969016952E+04  0.17015269601E+04  0.00000000000E+00 0. -1.
<mgrwt>
<rscale>  0 0.29926032E+04</rscale>
<asrwt>0</asrwt>
<pdfrwt beam="1">  1        2 0.19807465E+00 0.29926032E+04</pdfrwt>
<pdfrwt beam="2">  1       -2 0.26753628E+00 0.29926032E+04</pdfrwt>
<totfact> 0.72254735E-01</totfact>
</mgrwt>
</event>
<event>
 6    1  0.1878398E-004  0.2339950E+04  0.7818608E-02  0.8462334E-01
          1   -1    0    0  501    0  0.00000000000E+00  0.00000000000E+00  0.23219399430E+04  0.23219399430E+04  0.00000000000E+00 0.  1.
         -1   -1    0    0    0  501 -0.00000000000E+00 -0.00000000000E+00 -0.58952517831E+03  0.58952517831E+03  0.00000000000E+00 0. -1.
         23    2    1    2    0    0 -0.82639345767E+03 -0.50665692788E+03  0.16786867001E+04  0.19406334704E+04  0.91879486159E+02 0.  0.
         13    1    3    3    0    0 -0.17146611864E+03 -0.63210601453E+02  0.31842635979E+03  0.36713969628E+03  0.00000000000E+00 0. -1.
        -13    1    3    3    0    0 -0.65492733903E+03 -0.44344632643E+03  0.13602603403E+04  0.15734937742E+04  0.00000000000E+00 0.  1.
         22    1    1    2    0    0  0.82639345767E+03  0.50665692788E+03  0.53728064587E+02  0.97083165089E+03  0.00000000000E+00 0. -1.
<mgrwt>
<rscale>  0 0.23399505E+04</rscale>
<asrwt>0</asrwt>
<pdfrwt beam="1">  1        1 0.35722153E+00 0.23399505E+04</pdfrwt>
<pdfrwt beam="2">  1       -1 0.90696182E-01 0.23399505E+04</pdfrwt>
<totfact> 0.19226389E+00</totfact>
</mgrwt>
</event>
<event>
 6    1  0.1878398E-004  0.4497237E+04  0.7818608E-02  0.7911121E-01
          2   -1    0    0  501    0  0.00000000000E+00  0.00000000000E+00  0.29627168402E+04  0.29627168402E+04  0.00000000000E+00 0.  1.
         -2   -1    0    0    0  501 -0.00000000000E+00 -0.00000000000E+00 -0.17066381536E+04  0.17066381536E+04  0.00000000000E+00 0. -1.
         23    2    1    2    0    0  0.38084130344E+03 -0.17323126657E+04 -0.80518056424E+03  0.19500284284E+04  0.91366626738E+02 0.  0.
         11    1    3    3    0    0  0.12573044668E+03 -0.42154332378E+03 -0.17482181001E+03  0.47335988877E+03  0.00000000000E+00 0.  1.
        -11    1    3    3    0    0  0.25511085676E+03 -0.13107693419E+04 -0.63035875423E+03  0.14766685396E+04  0.00000000000E+00 0. -1.
         22    1    1    2    0    0 -0.38084130344E+03  0.17323126657E+04  0.20612592508E+04  0.27193265654E+04  0.00000000000E+00 0.  1.
<mgrwt>
<rscale>  0 0.44972372E+04</rscale>
<asrwt>0</asrwt>
<pdfrwt beam="1">  1        2 0.45580259E+00 0.44972372E+04</pdfrwt>
<pdfrwt beam="2">  1       -2 0.26255972E+00 0.44972372E+04</pdfrwt>
<totfact> 0.74896176E-02</totfact>
</mgrwt>
</event>
<event>
 6    1  0.1878398E-004  0.3603153E+04  0.7818608E-02  0.8089770E-01
          2   -1    0    0  501    0  0.00000000000E+00  0.00000000000E+00  0.38693975215E+04  0.38693975215E+04  0.00000000000E+00 0.  1.
         -2   -1    0    0    0  501 -0.00000000000E+00 -0.00000000000E+00 -0.83880692075E+03  0.83880692075E+03  0.00000000000E+00 0. -1.
         23    2    1    2    0    0 -0.14654343544E+04  0.10179499396E+04  0.18297368388E+04  0.25574441850E+04  0.94148464456E+02 0.  0.
         11    1    3    3    0    0 -0.85703201774E+03  0.65076702368E+03  0.10918835821E+04  0.15330399066E+04  0.00000000000E+00 0. -1.
        -11    1    3    3    0    0 -0.60840233666E+03  0.36718291596E+03  0.73785325668E+03  0.10244042783E+04  0.00000000000E+00 0.  1.
         22    1    1    2    0    0  0.14654343544E+04 -0.10179499396E+04  0.12008537620E+04  0.21507602573E+04  0.00000000000E+00 0.  1.
<mgrwt>
<rscale>  0 0.36031527E+04</rscale>
<asrwt>0</asrwt>
<pdfrwt beam="1">  1        2 0.59529192E+00 0.36031527E+04</pdfrwt>
<pdfrwt beam="2">  1       -2 0.12904722E+00 0.36031527E+04</pdfrwt>
<totfact> 0.15618671E-01</totfact>
</mgrwt>
</event>
<event>
 6    1  0.1878398E-004  0.2010927E+04  0.7818608E-02  0.8601529E-01
          2   -1    0    0  501    0  0.00000000000E+00  0.00000000000E+00  0.59715704231E+03  0.59715704231E+03  0.00000000000E+00 0.  1.
         -2   -1    0    0    0  501 -0.00000000000E+00 -0.00000000000E+00 -0.16929504709E+04  0.16929504709E+04  0.00000000000E+00 0. -1.
         23    2    1    2    0    0 -0.35028908295E+03 -0.49212422751E+03 -0.14614801704E+04  0.15839804070E+04  0.90448573657E+02 0.  0.
         11    1    3    3    0    0 -0.12230036690E+03 -0.24714177431E+03 -0.63213034027E+03  0.68965585871E+03  0.00000000000E+00 0. -1.
        -11    1    3    3    0    0 -0.22798871605E+03 -0.24498245320E+03 -0.82934983011E+03  0.89432454832E+03  0.00000000000E+00 0.  1.
         22    1    1    2    0    0  0.35028908295E+03  0.49212422751E+03  0.36568674180E+03  0.70612710617E+03  0.00000000000E+00 0.  1.
<mgrwt>
<rscale>  0 0.20109274E+04</rscale>
<asrwt>0</asrwt>
<pdfrwt beam="1">  1        2 0.91870315E-01 0.20109274E+04</pdfrwt>
<pdfrwt beam="2">  1       -2 0.26045392E+00 0.20109274E+04</pdfrwt>
<totfact> 0.25669218E+00</totfact>
</mgrwt>
</event>
<event>
 6    1  0.1989708E-004  0.3595971E+04  0.7818608E-02  0.8091415E-01
         -2   -1    0    0    0  501 -0.00000000000E+00  0.00000000000E+00  0.10010364126E+04  0.10010364126E+04  0.00000000000E+00 0. -1.
          2   -1    0    0  501    0  0.00000000000E+00 -0.00000000000E+00 -0.32294046748E+04  0.32294046748E+04  0.00000000000E+00 0.  1.
         23    2    1    2    0    0  0.38012954653E+03  0.79906887481E+03 -0.29547375456E+04  0.30856171381E+04  0.86888555456E+02 0.  0.
         11    1    3    3    0    0  0.19591991413E+03  0.41208448065E+03 -0.13724748785E+04  0.14463352046E+04  0.00000000000E+00 0.  1.
        -11    1    3    3    0    0  0.18420963241E+03  0.38698439416E+03 -0.15822626671E+04  0.16392819335E+04  0.00000000000E+00 0. -1.
         22    1    1    2    0    0 -0.38012954653E+03 -0.79906887481E+03  0.72636928337E+03  0.11448239492E+04  0.00000000000E+00 0. -1.
<mgrwt>
<rscale>  0 0.35959709E+04</rscale>
<asrwt>0</asrwt>
<pdfrwt beam="1">  1        2 0.49683149E+00 0.35959709E+04</pdfrwt>
<pdfrwt beam="2">  1       -2 0.15400560E+00 0.35959709E+04</pdfrwt>
<totfact> 0.28216451E-01</totfact>
</mgrwt>
</event>
<event>
 6    1  0.1878398E-004  0.2942553E+04  0.7818608E-02  0.8260328E-01
         -2   -1    0    0    0  501 -0.00000000000E+00  0.00000000000E+00  0.95484298547E+03  0.95484298547E+03  0.00000000000E+00 0. -1.
          2   -1    0    0  501    0  0.00000000000E+00 -0.00000000000E+00 -0.22670261245E+04  0.22670261245E+04  0.00000000000E+00 0.  1.
         23    2    1    2    0    0 -0.10154013629E+03 -0.14417500938E+04 -0.94947804699E+03  0.17317319633E+04  0.91832994825E+02 0.  0.
         11    1    3    3    0    0 -0.83069040920E+01 -0.43930127894E+03 -0.24632037650E+03  0.50371454834E+03  0.00000000000E+00 0.  1.
        -11    1    3    3    0    0 -0.93233232202E+02 -0.10024488148E+04 -0.70315767049E+03  0.12280174150E+04  0.00000000000E+00 0. -1.
         22    1    1    2    0    0  0.10154013629E+03  0.14417500938E+04 -0.36270509208E+03  0.14901371467E+04  0.00000000000E+00 0.  1.
<mgrwt>
<rscale>  0 0.29425526E+04</rscale>
<asrwt>0</asrwt>
<pdfrwt beam="1">  1        2 0.34877324E+00 0.29425526E+04</pdfrwt>
<pdfrwt beam="2">  1       -2 0.14689892E+00 0.29425526E+04</pdfrwt>
<totfact> 0.12888626E+00</totfact>
</mgrwt>
</event>
<event>
 6    1  0.1878398E-004  0.1303467E+04  0.7818608E-02  0.9026821E-01
         -2   -1    0    0    0  501 -0.00000000000E+00  0.00000000000E+00  0.32391153894E+03  0.32391153894E+03  0.00000000000E+00 0. -1.
          2   -1    0    0  501    0  0.00000000000E+00 -0.00000000000E+00 -0.13113345022E+04  0.13113345022E+04  0.00000000000E+00 0.  1.
         23    2    1    2    0    0  0.50917164871E+03 -0.39550051239E+03 -0.58529981601E+03  0.87539115455E+03  0.89762885926E+02 0.  0.
         11    1    3    3    0    0  0.26112734629E+03 -0.16364167929E+03 -0.32222923662E+03  0.44586743670E+03  0.00000000000E+00 0.  1.
        -11    1    3    3    0    0  0.24804430242E+03 -0.23185883310E+03 -0.26307057940E+03  0.42952371785E+03  0.00000000000E+00 0. -1.
         22    1    1    2    0    0 -0.50917164871E+03  0.39550051239E+03 -0.40212314728E+03  0.75985488663E+03  0.00000000000E+00 0. -1.
<mgrwt>
<rscale>  0 0.13034667E+04</rscale>
<asrwt>0</asrwt>
<pdfrwt beam="1">  1        2 0.20174377E+00 0.13034667E+04</pdfrwt>
<pdfrwt beam="2">  1       -2 0.49832545E-01 0.13034667E+04</pdfrwt>
<totfact> 0.60776648E+01</totfact>
</mgrwt>
</event>
<event>
 6    1  0.1878398E-004  0.2261611E+04  0.7818608E-02  0.8493213E-01
         -2   -1    0    0    0  501 -0.00000000000E+00  0.00000000000E+00  0.97273793700E+03  0.97273793700E+03  0.00000000000E+00 0. -1.
          2   -1    0    0  501    0  0.00000000000E+00 -0.00000000000E+00 -0.13145589985E+04  0.13145589985E+04  0.00000000000E+00 0.  1.
         23    2    1    2    0    0  0.10074732009E+04  0.24841492893E+03 -0.62056054930E+03  0.12128631639E+04  0.96069930542E+02 0.  0.
         11    1    3    3    0    0  0.11755836100E+03  0.29055150778E+02 -0.38326077400E+02  0.12701597630E+03  0.00000000000E+00 0.  1.
        -11    1    3    3    0    0  0.88991483994E+03  0.21935977815E+03 -0.58223447190E+03  0.10858471876E+04  0.00000000000E+00 0. -1.
         22    1    1    2    0    0 -0.10074732009E+04 -0.24841492893E+03  0.27873948776E+03  0.10744337716E+04  0.00000000000E+00 0.  1.
<mgrwt>
<rscale>  0 0.22616113E+04</rscale>
<asrwt>0</asrwt>
<pdfrwt beam="1">  1        2 0.20223985E+00 0.22616113E+04</pdfrwt>
<pdfrwt beam="2">  1       -2 0.14965199E+00 0.22616113E+04</pdfrwt>
<totfact> 0.44453687E+00</totfact>
</mgrwt>
</event>
<event>
 6    1  0.1878398E-004  0.1707981E+04  0.7818608E-02  0.8756825E-01
         -2   -1    0    0    0  501 -0.00000000000E+00  0.00000000000E+00  0.63590442628E+03  0.63590442628E+03  0.00000000000E+00 0. -1.
          2   -1    0    0  501    0  0.00000000000E+00 -0.00000000000E+00 -0.11468703667E+04  0.11468703667E+04  0.00000000000E+00 0.  1.
         23    2    1    2    0    0  0.44900513328E+03 -0.53294146938E+03  0.25448163473E+03  0.74762156289E+03  0.92438516786E+02 0.  0.
         13    1    3    3    0    0  0.37491330796E+03 -0.47187978105E+03  0.24694257071E+03  0.65131493878E+03  0.00000000000E+00 0. -1.
        -13    1    3    3    0    0  0.74091825324E+02 -0.61061688332E+02  0.75390640205E+01  0.96306624113E+02  0.00000000000E+00 0.  1.
         22    1    1    2    0    0 -0.44900513328E+03  0.53294146938E+03 -0.76544757516E+03  0.10351532301E+04  0.00000000000E+00 0.  1.
<mgrwt>
<rscale>  0 0.17079812E+04</rscale>
<asrwt>0</asrwt>
<pdfrwt beam="1">  1        2 0.17644159E+00 0.17079812E+04</pdfrwt>
<pdfrwt beam="2">  1       -2 0.97831452E-01 0.17079812E+04</pdfrwt>
<totfact> 0.16872031E+01</totfact>
</mgrwt>
</event>
<event>
 6    1  0.1880327E-004  0.5141551E+04  0.7818608E-02  0.7807035E-01
          2   -1    0    0  501    0  0.00000000000E+00  0.00000000000E+00  0.34027071835E+04  0.34027071835E+04  0.00000000000E+00 0.  1.
         -2   -1    0    0    0  501 -0.00000000000E+00 -0.00000000000E+00 -0.19422433633E+04  0.19422433633E+04  0.00000000000E+00 0. -1.
         23    2    1    2    0    0  0.20157584657E+04 -0.40944821335E+03  0.23321182565E+04  0.31109605094E+04  0.91486049390E+02 0.  0.
         11    1    3    3    0    0  0.88970547024E+03 -0.14784724402E+03  0.97388478830E+03  0.13273606188E+04  0.00000000000E+00 0. -1.
        -11    1    3    3    0    0  0.11260529955E+04 -0.26160096933E+03  0.13582334682E+04  0.17835998906E+04  0.00000000000E+00 0.  1.
         22    1    1    2    0    0 -0.20157584657E+04  0.40944821335E+03 -0.87165443627E+03  0.22339900375E+04  0.00000000000E+00 0. -1.
<mgrwt>
<rscale>  0 0.51415505E+04</rscale>
<asrwt>0</asrwt>
<pdfrwt beam="1">  1        2 0.52349341E+00 0.51415505E+04</pdfrwt>
<pdfrwt beam="2">  1       -2 0.29880667E+00 0.51415505E+04</pdfrwt>
<totfact> 0.22054963E-02</totfact>
</mgrwt>
</event>
<event>
 6    1  0.1878398E-004  0.1547157E+04  0.7818608E-02  0.8853686E-01
          2   -1    0    0  501    0  0.00000000000E+00  0.00000000000E+00  0.23069558740E+04  0.23069558740E+04  0.00000000000E+00 0.  1.
         -2   -1    0    0    0  501 -0.00000000000E+00 -0.00000000000E+00 -0.25939975943E+03  0.25939975943E+03  0.00000000000E+00 0. -1.
         23    2    1    2    0    0  0.61454902314E+03  0.14902807452E+03  0.29598127297E+03  0.70412731914E+03  0.91161937069E+02 0.  0.
         11    1    3    3    0    0  0.29764404402E+03  0.93641560377E+02  0.19042585292E+03  0.36554442169E+03  0.00000000000E+00 0.  1.
        -11    1    3    3    0    0  0.31690497912E+03  0.55386514144E+02  0.10555542005E+03  0.33858289744E+03  0.00000000000E+00 0. -1.
         22    1    1    2    0    0 -0.61454902314E+03 -0.14902807452E+03  0.17515748416E+04  0.18622283143E+04  0.00000000000E+00 0.  1.
<mgrwt>
<rscale>  0 0.15471571E+04</rscale>
<asrwt>0</asrwt>
<pdfrwt beam="1">  1        2 0.35491627E+00 0.15471571E+04</pdfrwt>
<pdfrwt beam="2">  1       -2 0.39907657E-01 0.15471571E+04</pdfrwt>
<totfact> 0.25732984E+01</totfact>
</mgrwt>
</event>
<event>
 6    1  0.1878398E-004  0.3405934E+04  0.7818608E-02  0.8136451E-01
         -2   -1    0    0    0  501 -0.00000000000E+00  0.00000000000E+00  0.26928177892E+04  0.26928177892E+04  0.00000000000E+00 0. -1.
          2   -1    0    0  501    0  0.00000000000E+00 -0.00000000000E+00 -0.10769746182E+04  0.10769746182E+04  0.00000000000E+00 0.  1.
         23    2    1    2    0    0 -0.11002176768E+04  0.11579967299E+04  0.14582436313E+04  0.21647151576E+04  0.89899180535E+02 0.  0.
         11    1    3    3    0    0 -0.77264179411E+03  0.79831956209E+03  0.95906422992E+03  0.14676830933E+04  0.00000000000E+00 0. -1.
        -11    1    3    3    0    0 -0.32757588272E+03  0.35967716780E+03  0.49917940133E+03  0.69703206432E+03  0.00000000000E+00 0.  1.
         22    1    1    2    0    0  0.11002176768E+04 -0.11579967299E+04  0.15759953983E+03  0.16050772498E+04  0.00000000000E+00 0.  1.
<mgrwt>
<rscale>  0 0.34059339E+04</rscale>
<asrwt>0</asrwt>
<pdfrwt beam="1">  1        2 0.16568840E+00 0.34059339E+04</pdfrwt>
<pdfrwt beam="2">  1       -2 0.41427966E+00 0.34059339E+04</pdfrwt>
<totfact> 0.11139016E-01</totfact>
</mgrwt>
</event>
<event>
 6    1  0.1878398E-004  0.1602667E+04  0.7818608E-02  0.8818911E-01
          2   -1    0    0  501    0  0.00000000000E+00  0.00000000000E+00  0.22347052409E+04  0.22347052409E+04  0.00000000000E+00 0.  1.
         -2   -1    0    0    0  501 -0.00000000000E+00 -0.00000000000E+00 -0.28734675547E+03  0.28734675547E+03  0.00000000000E+00 0. -1.
         23    2    1    2    0    0  0.68425329634E+03 -0.17218138302E+03  0.15665442303E+04  0.17202611888E+04  0.85957721764E+02 0.  0.
         11    1    3    3    0    0  0.27931051257E+03 -0.36653052494E+02  0.68789560770E+03  0.74334256961E+03  0.00000000000E+00 0. -1.
        -11    1    3    3    0    0  0.40494278377E+03 -0.13552833053E+03  0.87864862258E+03  0.97691861916E+03  0.00000000000E+00 0.  1.
         22    1    1    2    0    0 -0.68425329634E+03  0.17218138302E+03  0.38081425510E+03  0.80179080757E+03  0.00000000000E+00 0.  1.
<mgrwt>
<rscale>  0 0.16026669E+04</rscale>
<asrwt>0</asrwt>
<pdfrwt beam="1">  1        2 0.34380080E+00 0.16026669E+04</pdfrwt>
<pdfrwt beam="2">  1       -2 0.44207195E-01 0.16026669E+04</pdfrwt>
<totfact> 0.22986270E+01</totfact>
</mgrwt>
</event>
<event>
 6    1  0.1878398E-004  0.1303698E+04  0.7818608E-02  0.9026638E-01
          1   -1    0    0  501    0  0.00000000000E+00  0.00000000000E+00  0.69639484942E+03  0.69639484942E+03  0.00000000000E+00 0. -1.
         -1   -1    0    0    0  501 -0.00000000000E+00 -0.00000000000E+00 -0.61015281853E+03  0.61015281853E+03  0.00000000000E+00 0.  1.
         23    2    1    2    0    0  0.28817353803E+03  0.56030885734E+03 -0.11106828401E+03  0.64630425526E+03  0.91558849999E+02 0.  0.
         11    1    3    3    0    0  0.18007788840E+03  0.35185251195E+03 -0.24418881027E+02  0.39601075466E+03  0.00000000000E+00 0.  1.
        -11    1    3    3    0    0  0.10809564963E+03  0.20845634539E+03 -0.86649402986E+02  0.25029350060E+03  0.00000000000E+00 0. -1.
         22    1    1    2    0    0 -0.28817353803E+03 -0.56030885734E+03  0.19731031490E+03  0.66024341269E+03  0.00000000000E+00 0.  1.
<mgrwt>
<rscale>  0 0.13036982E+04</rscale>
<asrwt>0</asrwt>
<pdfrwt beam="1">  1        1 0.10713767E+00 0.13036982E+04</pdfrwt>
<pdfrwt beam="2">  1       -1 0.93869664E-01 0.13036982E+04</pdfrwt>
<totfact> 0.29681818E+01</totfact>
</mgrwt>
</event>
<event>
 6    1  0.1878398E-004  0.8703565E+03  0.7818608E-02  0.9463415E-01
         -2   -1    0    0    0  501 -0.00000000000E+00  0.00000000000E+00  0.21358257359E+03  0.21358257359E+03  0.00000000000E+00 0. -1.
          2   -1    0    0  501    0  0.00000000000E+00 -0.00000000000E+00 -0.88668333230E+03  0.88668333230E+03  0.00000000000E+00 0.  1.
         23    2    1    2    0    0 -0.82182772287E+02 -0.31065339524E+03  0.22152799883E+02  0.33434355293E+03  0.89639973296E+02 0.  0.
         11    1    3    3    0    0 -0.50024774803E+02 -0.22835831471E+03  0.54868424581E+02  0.24012609605E+03  0.00000000000E+00 0.  1.
        -11    1    3    3    0    0 -0.32157997485E+02 -0.82295080532E+02 -0.32715624698E+02  0.94217456882E+02  0.00000000000E+00 0. -1.
         22    1    1    2    0    0  0.82182772287E+02  0.31065339524E+03 -0.69525355859E+03  0.76592235296E+03  0.00000000000E+00 0.  1.
<mgrwt>
<rscale>  0 0.87035650E+03</rscale>
<asrwt>0</asrwt>
<pdfrwt beam="1">  1        2 0.13641282E+00 0.87035650E+03</pdfrwt>
<pdfrwt beam="2">  1       -2 0.32858858E-01 0.87035650E+03</pdfrwt>
<totfact> 0.25933182E+02</totfact>
</mgrwt>
</event>
<event>
 6    1  0.1878398E-004  0.3229743E+04  0.7818608E-02  0.8181006E-01
         -1   -1    0    0    0  501 -0.00000000000E+00  0.00000000000E+00  0.97529930101E+03  0.97529930101E+03  0.00000000000E+00 0. -1.
          1   -1    0    0  501    0  0.00000000000E+00 -0.00000000000E+00 -0.26738565943E+04  0.26738565943E+04  0.00000000000E+00 0.  1.
         23    2    1    2    0    0 -0.29247784836E+03 -0.11944960284E+04 -0.20302391900E+04  0.23754302835E+04  0.91835776526E+02 0.  0.
         13    1    3    3    0    0 -0.85116624871E+02 -0.31889471493E+03 -0.62471180068E+03  0.70654335532E+03  0.00000000000E+00 0.  1.
        -13    1    3    3    0    0 -0.20736122349E+03 -0.87560131343E+03 -0.14055273893E+04  0.16688869282E+04  0.00000000000E+00 0. -1.
         22    1    1    2    0    0  0.29247784836E+03  0.11944960284E+04  0.33168189668E+03  0.12737256118E+04  0.00000000000E+00 0. -1.
<mgrwt>
<rscale>  0 0.32297433E+04</rscale>
<asrwt>0</asrwt>
<pdfrwt beam="1">  1        1 0.41136255E+00 0.32297433E+04</pdfrwt>
<pdfrwt beam="2">  1       -1 0.15004605E+00 0.32297433E+04</pdfrwt>
<totfact> 0.29775183E-01</totfact>
</mgrwt>
</event>
<event>
 6    1  0.1878398E-004  0.3384778E+04  0.7818608E-02  0.8141652E-01
         -2   -1    0    0    0  501 -0.00000000000E+00  0.00000000000E+00  0.13609324481E+04  0.13609324481E+04  0.00000000000E+00 0. -1.
          2   -1    0    0  501    0  0.00000000000E+00 -0.00000000000E+00 -0.21045723471E+04  0.21045723471E+04  0.00000000000E+00 0.  1.
         23    2    1    2    0    0  0.64535194554E+03  0.11067975494E+04 -0.15023257765E+04  0.19765171492E+04  0.90318066832E+02 0.  0.
         13    1    3    3    0    0  0.25399803644E+03  0.43091073261E+03 -0.65505127582E+03  0.82419126175E+03  0.00000000000E+00 0. -1.
        -13    1    3    3    0    0  0.39135390910E+03  0.67588681682E+03 -0.84727450073E+03  0.11523258875E+04  0.00000000000E+00 0.  1.
         22    1    1    2    0    0 -0.64535194554E+03 -0.11067975494E+04  0.75868587761E+03  0.14889876460E+04  0.00000000000E+00 0. -1.
<mgrwt>
<rscale>  0 0.33847782E+04</rscale>
<asrwt>0</asrwt>
<pdfrwt beam="1">  1        2 0.32378036E+00 0.33847782E+04</pdfrwt>
<pdfrwt beam="2">  1       -2 0.20937422E+00 0.33847782E+04</pdfrwt>
<totfact> 0.56002244E-01</totfact>
</mgrwt>
</event>
<event>
 6    1  0.1878398E-004  0.1455850E+04  0.7818608E-02  0.8914355E-01
         -1   -1    0    0    0  501 -0.00000000000E+00  0.00000000000E+00  0.43115018431E+03  0.43115018431E+03  0.00000000000E+00 0. -1.
          1   -1    0    0  501    0  0.00000000000E+00 -0.00000000000E+00 -0.12289802787E+04  0.12289802787E+04  0.00000000000E+00 0.  1.
         23    2    1    2    0    0  0.20669665589E+03 -0.24685699056E+03 -0.11412713577E+04  0.11893717322E+04  0.91885385056E+02 0.  0.
         13    1    3    3    0    0  0.15062016296E+03 -0.22962391898E+03 -0.89344285082E+03  0.93469444490E+03  0.00000000000E+00 0. -1.
        -13    1    3    3    0    0  0.56076492925E+02 -0.17233071584E+02 -0.24782850692E+03  0.25467728728E+03  0.00000000000E+00 0.  1.
         22    1    1    2    0    0 -0.20669665589E+03  0.24685699056E+03  0.34344126331E+03  0.47075873087E+03  0.00000000000E+00 0. -1.
<mgrwt>
<rscale>  0 0.14558504E+04</rscale>
<asrwt>0</asrwt>
<pdfrwt beam="1">  1        1 0.18907389E+00 0.14558504E+04</pdfrwt>
<pdfrwt beam="2">  1       -1 0.66330798E-01 0.14558504E+04</pdfrwt>
<totfact> 0.22757020E+01</totfact>
</mgrwt>
</event>
<event>
 6    1  0.1878398E-004  0.2971120E+04  0.7818608E-02  0.8252026E-01
          1   -1    0    0  501    0  0.00000000000E+00  0.00000000000E+00  0.18190684290E+04  0.18190684290E+04  0.00000000000E+00 0.  1.
         -1   -1    0    0    0  501 -0.00000000000E+00 -0.00000000000E+00 -0.12131968231E+04  0.12131968231E+04  0.00000000000E+00 0. -1.
         23    2    1    2    0    0  0.83351398805E+03 -0.19781593115E+02  0.15563246653E+04  0.17679480856E+04  0.91417120196E+02 0.  0.
         11    1    3    3    0    0  0.56410616388E+03 -0.53417708020E+02  0.10834881735E+04  0.12227084026E+04  0.00000000000E+00 0. -1.
        -11    1    3    3    0    0  0.26940782417E+03  0.33636114905E+02  0.47283649174E+03  0.54523968296E+03  0.00000000000E+00 0.  1.
         22    1    1    2    0    0 -0.83351398805E+03  0.19781593115E+02 -0.95045305937E+03  0.12643171666E+04  0.00000000000E+00 0. -1.
<mgrwt>
<rscale>  0 0.29711197E+04</rscale>
<asrwt>0</asrwt>
<pdfrwt beam="1">  1        1 0.27985668E+00 0.29711197E+04</pdfrwt>
<pdfrwt beam="2">  1       -1 0.18664566E+00 0.29711197E+04</pdfrwt>
<totfact> 0.62949943E-01</totfact>
</mgrwt>
</event>
<event>
 6    1  0.1878398E-004  0.3642435E+03  0.7818608E-02  0.1056916E+00
         -4   -1    0    0    0  501 -0.00000000000E+00  0.00000000000E+00  0.12007791139E+03  0.12007791139E+03  0.00000000000E+00 0. -1.
          4   -1    0    0  501    0  0.00000000000E+00 -0.00000000000E+00 -0.27622334964E+03  0.27622334964E+03  0.00000000000E+00 0.  1.
         23    2    1    2    0    0  0.16421910787E+03 -0.43830030547E+02 -0.99225372416E+02  0.21705595186E+03  0.91534827997E+02 0.  0.
         11    1    3    3    0    0  0.85193600116E+02  0.18140005892E+02 -0.20583158350E+02  0.89502378304E+02  0.00000000000E+00 0.  1.
        -11    1    3    3    0    0  0.79025507759E+02 -0.61970036439E+02 -0.78642214066E+02  0.12755357355E+03  0.00000000000E+00 0. -1.
         22    1    1    2    0    0 -0.16421910787E+03  0.43830030547E+02 -0.56920065833E+02  0.17924530918E+03  0.00000000000E+00 0. -1.
<mgrwt>
<rscale>  0 0.36424345E+03</rscale>
<asrwt>0</asrwt>
<pdfrwt beam="1">  1        4 0.42495900E-01 0.36424345E+03</pdfrwt>
<pdfrwt beam="2">  1       -4 0.18473525E-01 0.36424345E+03</pdfrwt>
<totfact> 0.27088742E+02</totfact>
</mgrwt>
</event>
<event>
 6    1  0.1878398E-004  0.4204742E+04  0.7818608E-02  0.7964471E-01
         -2   -1    0    0    0  501 -0.00000000000E+00  0.00000000000E+00  0.13026185502E+04  0.13026185502E+04  0.00000000000E+00 0. -1.
          2   -1    0    0  501    0  0.00000000000E+00 -0.00000000000E+00 -0.33931368492E+04  0.33931368492E+04  0.00000000000E+00 0.  1.
         23    2    1    2    0    0  0.40008228176E+02 -0.16539366145E+04 -0.24927254803E+04  0.29931463427E+04  0.90209340091E+02 0.  0.
         13    1    3    3    0    0  0.22723770911E+02 -0.15014839363E+04 -0.22189934043E+04  0.26793473289E+04  0.00000000000E+00 0. -1.
        -13    1    3    3    0    0  0.17284457265E+02 -0.15245267823E+03 -0.27373207608E+03  0.31379901376E+03  0.00000000000E+00 0.  1.
         22    1    1    2    0    0 -0.40008228176E+02  0.16539366145E+04  0.40220718134E+03  0.17026090567E+04  0.00000000000E+00 0. -1.
<mgrwt>
<rscale>  0 0.42047416E+04</rscale>
<asrwt>0</asrwt>
<pdfrwt beam="1">  1        2 0.52202104E+00 0.42047416E+04</pdfrwt>
<pdfrwt beam="2">  1       -2 0.20040286E+00 0.42047416E+04</pdfrwt>
<totfact> 0.98708208E-02</totfact>
</mgrwt>
</event>
<event>
 6    1  0.1878398E-004  0.1745415E+04  0.7818608E-02  0.8735878E-01
         -2   -1    0    0    0  501 -0.00000000000E+00  0.00000000000E+00  0.68821920780E+03  0.68821920780E+03  0.00000000000E+00 0. -1.
          2   -1    0    0  501    0  0.00000000000E+00 -0.00000000000E+00 -0.11066509124E+04  0.11066509124E+04  0.00000000000E+00 0.  1.
         23    2    1    2    0    0 -0.31455653847E+03 -0.81155130527E+03 -0.19907274815E+03  0.89727350217E+03  0.88929419558E+02 0.  0.
         11    1    3    3    0    0 -0.90757624307E+02 -0.33647620703E+03 -0.10304327162E+03  0.36341587760E+03  0.00000000000E+00 0.  1.
        -11    1    3    3    0    0 -0.22379891417E+03 -0.47507509824E+03 -0.96029476533E+02  0.53385762457E+03  0.00000000000E+00 0. -1.
         22    1    1    2    0    0  0.31455653847E+03  0.81155130527E+03 -0.21935895649E+03  0.89759661807E+03  0.00000000000E+00 0.  1.
<mgrwt>
<rscale>  0 0.17454150E+04</rscale>
<asrwt>0</asrwt>
<pdfrwt beam="1">  1        2 0.17025399E+00 0.17454150E+04</pdfrwt>
<pdfrwt beam="2">  1       -2 0.10587988E+00 0.17454150E+04</pdfrwt>
<totfact> 0.14745332E+01</totfact>
</mgrwt>
</event>
<event>
 6    1  0.1878398E-004  0.2828225E+04  0.7818608E-02  0.8294559E-01
          2   -1    0    0  501    0  0.00000000000E+00  0.00000000000E+00  0.84602996036E+03  0.84602996036E+03  0.00000000000E+00 0.  1.
         -2   -1    0    0    0  501 -0.00000000000E+00 -0.00000000000E+00 -0.23636442614E+04  0.23636442614E+04  0.00000000000E+00 0. -1.
         23    2    1    2    0    0 -0.45706455717E+03 -0.25342440448E+03  0.72982638386E+03  0.90226841212E+03  0.91158097381E+02 0.  0.
         13    1    3    3    0    0 -0.27692427626E+03 -0.10609188289E+03  0.43935029737E+03  0.53006719026E+03  0.00000000000E+00 0. -1.
        -13    1    3    3    0    0 -0.18014028091E+03 -0.14733252159E+03  0.29047608650E+03  0.37220122186E+03  0.00000000000E+00 0.  1.
         22    1    1    2    0    0  0.45706455717E+03  0.25342440448E+03 -0.22474406849E+04  0.23074058097E+04  0.00000000000E+00 0. -1.
<mgrwt>
<rscale>  0 0.28282248E+04</rscale>
<asrwt>0</asrwt>
<pdfrwt beam="1">  1        2 0.13015846E+00 0.28282248E+04</pdfrwt>
<pdfrwt beam="2">  1       -2 0.36363758E+00 0.28282248E+04</pdfrwt>
<totfact> 0.35349614E-01</totfact>
</mgrwt>
</event>
<event>
 6    1  0.1878398E-004  0.3707067E+04  0.7818608E-02  0.8066397E-01
          1   -1    0    0  501    0  0.00000000000E+00  0.00000000000E+00  0.22396915724E+04  0.22396915724E+04  0.00000000000E+00 0. -1.
         -1   -1    0    0    0  501 -0.00000000000E+00 -0.00000000000E+00 -0.15339553527E+04  0.15339553527E+04  0.00000000000E+00 0.  1.
         23    2    1    2    0    0  0.54409452447E+03 -0.17118634867E+04  0.81408976592E+03  0.19741314515E+04  0.89092043275E+02 0.  0.
         13    1    3    3    0    0  0.17743550021E+03 -0.65929563574E+03  0.34289603751E+03  0.76402341887E+03  0.00000000000E+00 0.  1.
        -13    1    3    3    0    0  0.36665902427E+03 -0.10525678510E+04  0.47119372841E+03  0.12101080326E+04  0.00000000000E+00 0. -1.
         22    1    1    2    0    0 -0.54409452447E+03  0.17118634867E+04 -0.10835354629E+03  0.17995154736E+04  0.00000000000E+00 0.  1.
<mgrwt>
<rscale>  0 0.37070672E+04</rscale>
<asrwt>0</asrwt>
<pdfrwt beam="1">  1        1 0.34456793E+00 0.37070672E+04</pdfrwt>
<pdfrwt beam="2">  1       -1 0.23599313E+00 0.37070672E+04</pdfrwt>
<totfact> 0.14140331E-01</totfact>
</mgrwt>
</event>
<event>
 6    1  0.1878398E-004  0.5567567E+04  0.7818608E-02  0.7746460E-01
         -2   -1    0    0    0  501 -0.00000000000E+00  0.00000000000E+00  0.28948580035E+04  0.28948580035E+04  0.00000000000E+00 0. -1.
          2   -1    0    0  501    0  0.00000000000E+00 -0.00000000000E+00 -0.26769705336E+04  0.26769705336E+04  0.00000000000E+00 0.  1.
         23    2    1    2    0    0 -0.13683577249E+04  0.21336362131E+04  0.12590390889E+04  0.28316090117E+04  0.89575748683E+02 0.  0.
         11    1    3    3    0    0 -0.12610916864E+04  0.19840959127E+04  0.11907606801E+04  0.26353177853E+04  0.00000000000E+00 0.  1.
        -11    1    3    3    0    0 -0.10726603850E+03  0.14954030037E+03  0.68278408813E+02  0.19629122639E+03  0.00000000000E+00 0. -1.
         22    1    1    2    0    0  0.13683577249E+04 -0.21336362131E+04 -0.10411516190E+04  0.27402195253E+04  0.00000000000E+00 0.  1.
<mgrwt>
<rscale>  0 0.55675666E+04</rscale>
<asrwt>0</asrwt>
<pdfrwt beam="1">  1        2 0.41184162E+00 0.55675666E+04</pdfrwt>
<pdfrwt beam="2">  1       -2 0.44536277E+00 0.55675666E+04</pdfrwt>
<totfact> 0.71317778E-03</totfact>
</mgrwt>
</event>
<event>
 6    1  0.1878398E-004  0.3138528E+04  0.7818608E-02  0.8205243E-01
         -2   -1    0    0    0  501 -0.00000000000E+00  0.00000000000E+00  0.97440802825E+03  0.97440802825E+03  0.00000000000E+00 0. -1.
          2   -1    0    0  501    0  0.00000000000E+00 -0.00000000000E+00 -0.25272665407E+04  0.25272665407E+04  0.00000000000E+00 0.  1.
         23    2    1    2    0    0  0.13093473681E+04 -0.28867201441E+03  0.12975897414E+03  0.13501812112E+04  0.91814211052E+02 0.  0.
         13    1    3    3    0    0  0.30295290139E+03 -0.58719637518E+02  0.68063031635E+02  0.31600796282E+03  0.00000000000E+00 0. -1.
        -13    1    3    3    0    0  0.10063944667E+04 -0.22995237689E+03  0.61695942508E+02  0.10341732484E+04  0.00000000000E+00 0.  1.
         22    1    1    2    0    0 -0.13093473681E+04  0.28867201441E+03 -0.16826174866E+04  0.21514933578E+04  0.00000000000E+00 0.  1.
<mgrwt>
<rscale>  0 0.31385276E+04</rscale>
<asrwt>0</asrwt>
<pdfrwt beam="1">  1        2 0.38881023E+00 0.31385276E+04</pdfrwt>
<pdfrwt beam="2">  1       -2 0.14990893E+00 0.31385276E+04</pdfrwt>
<totfact> 0.85228678E-01</totfact>
</mgrwt>
</event>
<event>
 6    1  0.1878398E-004  0.2132685E+04  0.7818608E-02  0.8546981E-01
         -2   -1    0    0    0  501 -0.00000000000E+00  0.00000000000E+00  0.73942501223E+03  0.73942501223E+03  0.00000000000E+00 0. -1.
          2   -1    0    0  501    0  0.00000000000E+00 -0.00000000000E+00 -0.15377975573E+04  0.15377975573E+04  0.00000000000E+00 0.  1.
         23    2    1    2    0    0 -0.52009869430E+03 -0.10599261806E+02 -0.13914373070E+04  0.14883367679E+04  0.91834412620E+02 0.  0.
         13    1    3    3    0    0 -0.27237067593E+03 -0.33359967930E+02 -0.62639162636E+03  0.68386046979E+03  0.00000000000E+00 0. -1.
        -13    1    3    3    0    0 -0.24772801837E+03  0.22760706124E+02 -0.76504568060E+03  0.80447629812E+03  0.00000000000E+00 0.  1.
         22    1    1    2    0    0  0.52009869430E+03  0.10599261806E+02  0.59306476191E+03  0.78888580161E+03  0.00000000000E+00 0. -1.
<mgrwt>
<rscale>  0 0.21326847E+04</rscale>
<asrwt>0</asrwt>
<pdfrwt beam="1">  1        2 0.23658423E+00 0.21326847E+04</pdfrwt>
<pdfrwt beam="2">  1       -2 0.11375770E+00 0.21326847E+04</pdfrwt>
<totfact> 0.67267114E+00</totfact>
</mgrwt>
</event>
<event>
 6    1  0.1878398E-004  0.3259664E+04  0.7818608E-02  0.8173235E-01
          2   -1    0    0  501    0  0.00000000000E+00  0.00000000000E+00  0.17749901214E+04  0.17749901214E+04  0.00000000000E+00 0.  1.
         -2   -1    0    0    0  501 -0.00000000000E+00 -0.00000000000E+00 -0.14965450875E+04  0.14965450875E+04  0.00000000000E+00 0. -1.
         23    2    1    2    0    0  0.95862000265E+03  0.10854784126E+04  0.88695870744E+03  0.17007059425E+04  0.92137182556E+02 0.  0.
         13    1    3    3    0    0  0.83596773912E+03  0.89768277351E+03  0.75866787223E+03  0.14423083453E+04  0.00000000000E+00 0. -1.
        -13    1    3    3    0    0  0.12265226352E+03  0.18779563906E+03  0.12829083521E+03  0.25839759712E+03  0.00000000000E+00 0.  1.
         22    1    1    2    0    0 -0.95862000265E+03 -0.10854784126E+04 -0.60851367356E+03  0.15708292665E+04  0.00000000000E+00 0. -1.
<mgrwt>
<rscale>  0 0.32596642E+04</rscale>
<asrwt>0</asrwt>
<pdfrwt beam="1">  1        2 0.27307540E+00 0.32596642E+04</pdfrwt>
<pdfrwt beam="2">  1       -2 0.23023771E+00 0.32596642E+04</pdfrwt>
<totfact> 0.63615291E-01</totfact>
</mgrwt>
</event>
<event>
 6    1  0.1878398E-004  0.2571677E+04  0.7818608E-02  0.8377886E-01
          2   -1    0    0  501    0  0.00000000000E+00  0.00000000000E+00  0.26209063775E+04  0.26209063775E+04  0.00000000000E+00 0.  1.
         -2   -1    0    0    0  501 -0.00000000000E+00 -0.00000000000E+00 -0.63084316223E+03  0.63084316223E+03  0.00000000000E+00 0. -1.
         23    2    1    2    0    0 -0.49501738129E+03 -0.10073122963E+04  0.20784520789E+03  0.11455631055E+04  0.96927438115E+02 0.  0.
         13    1    3    3    0    0 -0.36324113913E+03 -0.72979579665E+03  0.10682540006E+03  0.82216646494E+03  0.00000000000E+00 0.  1.
        -13    1    3    3    0    0 -0.13177624216E+03 -0.27751649960E+03  0.10101980783E+03  0.32339664056E+03  0.00000000000E+00 0. -1.
         22    1    1    2    0    0  0.49501738129E+03  0.10073122963E+04  0.17822180074E+04  0.21061864342E+04  0.00000000000E+00 0.  1.
<mgrwt>
<rscale>  0 0.25716772E+04</rscale>
<asrwt>0</asrwt>
<pdfrwt beam="1">  1        2 0.40321636E+00 0.25716772E+04</pdfrwt>
<pdfrwt beam="2">  1       -2 0.97052796E-01 0.25716772E+04</pdfrwt>
<totfact> 0.23245013E+00</totfact>
</mgrwt>
</event>
<event>
 6    1  0.1878398E-004  0.1957621E+04  0.7818608E-02  0.8626695E-01
         -1   -1    0    0    0  501 -0.00000000000E+00  0.00000000000E+00  0.49087912181E+03  0.49087912181E+03  0.00000000000E+00 0. -1.
          1   -1    0    0  501    0  0.00000000000E+00 -0.00000000000E+00 -0.19517430611E+04  0.19517430611E+04  0.00000000000E+00 0.  1.
         23    2    1    2    0    0  0.42586894279E+03 -0.18293168438E+03  0.34081798378E+03  0.58227648669E+03  0.89781129970E+02 0.  0.
         13    1    3    3    0    0  0.12941821030E+03 -0.80789455223E+02  0.69569189633E+02  0.16767790963E+03  0.00000000000E+00 0.  1.
        -13    1    3    3    0    0  0.29645073250E+03 -0.10214222916E+03  0.27124879414E+03  0.41459857706E+03  0.00000000000E+00 0. -1.
         22    1    1    2    0    0 -0.42586894279E+03  0.18293168438E+03 -0.18016819231E+04  0.18603456962E+04  0.00000000000E+00 0.  1.
<mgrwt>
<rscale>  0 0.19576209E+04</rscale>
<asrwt>0</asrwt>
<pdfrwt beam="1">  1        1 0.30026817E+00 0.19576209E+04</pdfrwt>
<pdfrwt beam="2">  1       -1 0.75519864E-01 0.19576209E+04</pdfrwt>
<totfact> 0.52717992E+00</totfact>
</mgrwt>
</event>
<event>
 6    1  0.1878398E-004  0.1197532E+04  0.7818608E-02  0.9115020E-01
          1   -1    0    0  501    0  0.00000000000E+00  0.00000000000E+00  0.96981300153E+03  0.96981300153E+03  0.00000000000E+00 0.  1.
         -1   -1    0    0    0  501 -0.00000000000E+00 -0.00000000000E+00 -0.36967999835E+03  0.36967999835E+03  0.00000000000E+00 0. -1.
         23    2    1    2    0    0  0.44235028416E+03 -0.17488680507E+03  0.70235772195E+03  0.85296544505E+03  0.89356098721E+02 0.  0.
         13    1    3    3    0    0  0.23683326770E+03 -0.51168456877E+02  0.31610338460E+03  0.39828326280E+03  0.00000000000E+00 0. -1.
        -13    1    3    3    0    0  0.20551701646E+03 -0.12371834819E+03  0.38625433735E+03  0.45468218225E+03  0.00000000000E+00 0.  1.
         22    1    1    2    0    0 -0.44235028416E+03  0.17488680507E+03 -0.10222471877E+03  0.48652755483E+03  0.00000000000E+00 0. -1.
<mgrwt>
<rscale>  0 0.11975316E+04</rscale>
<asrwt>0</asrwt>
<pdfrwt beam="1">  1        1 0.14920200E+00 0.11975316E+04</pdfrwt>
<pdfrwt beam="2">  1       -1 0.56873846E-01 0.11975316E+04</pdfrwt>
<totfact> 0.49513290E+01</totfact>
</mgrwt>
</event>
<event>
 6    1  0.1878398E-004  0.2551609E+04  0.7818608E-02  0.8384827E-01
         -2   -1    0    0    0  501 -0.00000000000E+00  0.00000000000E+00  0.14234570504E+04  0.14234570504E+04  0.00000000000E+00 0.  1.
          2   -1    0    0  501    0  0.00000000000E+00 -0.00000000000E+00 -0.11434680709E+04  0.11434680709E+04  0.00000000000E+00 0. -1.
         23    2    1    2    0    0  0.39487386818E+03  0.93150895896E+03  0.91936500954E+03  0.13700809291E+04  0.90859337456E+02 0.  0.
         11    1    3    3    0    0  0.32438989261E+03  0.69012859496E+03  0.65539765853E+03  0.10055109998E+04  0.00000000000E+00 0.  1.
        -11    1    3    3    0    0  0.70483975576E+02  0.24138036401E+03  0.26396735102E+03  0.36456992930E+03  0.00000000000E+00 0. -1.
         22    1    1    2    0    0 -0.39487386818E+03 -0.93150895896E+03 -0.63937603001E+03  0.11968441921E+04  0.00000000000E+00 0. -1.
<mgrwt>
<rscale>  0 0.25516094E+04</rscale>
<asrwt>0</asrwt>
<pdfrwt beam="1">  1        2 0.17591816E+00 0.25516094E+04</pdfrwt>
<pdfrwt beam="2">  1       -2 0.21899339E+00 0.25516094E+04</pdfrwt>
<totfact> 0.18249357E+00</totfact>
</mgrwt>
</event>
<event>
 6    1  0.1878398E-004  0.1221560E+04  0.7818608E-02  0.9094191E-01
         -1   -1    0    0    0  501 -0.00000000000E+00  0.00000000000E+00  0.25377274105E+03  0.25377274105E+03  0.00000000000E+00 0.  1.
          1   -1    0    0  501    0  0.00000000000E+00 -0.00000000000E+00 -0.14700254266E+04  0.14700254266E+04  0.00000000000E+00 0. -1.
         23    2    1    2    0    0 -0.52011860382E+03 -0.26708154417E+01 -0.10541762150E+04  0.11790052918E+04  0.90749603248E+02 0.  0.
         11    1    3    3    0    0 -0.22171149974E+03  0.20461022838E+02 -0.36356637392E+03  0.42632751590E+03  0.00000000000E+00 0. -1.
        -11    1    3    3    0    0 -0.29840710408E+03 -0.23131838280E+02 -0.69060984105E+03  0.75267777585E+03  0.00000000000E+00 0.  1.
         22    1    1    2    0    0  0.52011860382E+03  0.26708154417E+01 -0.16207647055E+03  0.54479287587E+03  0.00000000000E+00 0.  1.
<mgrwt>
<rscale>  0 0.12215603E+04</rscale>
<asrwt>0</asrwt>
<pdfrwt beam="1">  1        1 0.22615776E+00 0.12215603E+04</pdfrwt>
<pdfrwt beam="2">  1       -1 0.39041960E-01 0.12215603E+04</pdfrwt>
<totfact> 0.43172017E+01</totfact>
</mgrwt>
</event>
<event>
 6    1  0.1878398E-004  0.2232797E+04  0.7818608E-02  0.8504900E-01
          1   -1    0    0  501    0  0.00000000000E+00  0.00000000000E+00  0.10540522510E+04  0.10540522510E+04  0.00000000000E+00 0.  1.
         -1   -1    0    0    0  501 -0.00000000000E+00 -0.00000000000E+00 -0.11824324203E+04  0.11824324203E+04  0.00000000000E+00 0. -1.
         23    2    1    2    0    0 -0.35551131476E+03 -0.49524673569E+03  0.87039873044E+03  0.10663492454E+04  0.88595367213E+02 0.  0.
         11    1    3    3    0    0 -0.20465389263E+03 -0.32362758805E+03  0.48025406638E+03  0.61421657401E+03  0.00000000000E+00 0. -1.
        -11    1    3    3    0    0 -0.15085742213E+03 -0.17161914765E+03  0.39014466406E+03  0.45213267140E+03  0.00000000000E+00 0.  1.
         22    1    1    2    0    0  0.35551131476E+03  0.49524673569E+03 -0.99877889977E+03  0.11701354258E+04  0.00000000000E+00 0. -1.
<mgrwt>
<rscale>  0 0.22327969E+04</rscale>
<asrwt>0</asrwt>
<pdfrwt beam="1">  1        1 0.16216189E+00 0.22327969E+04</pdfrwt>
<pdfrwt beam="2">  1       -1 0.18191268E+00 0.22327969E+04</pdfrwt>
<totfact> 0.25189104E+00</totfact>
</mgrwt>
</event>
<event>
 6    1  0.1878398E-004  0.3443860E+04  0.7818608E-02  0.8127225E-01
         -2   -1    0    0    0  501 -0.00000000000E+00  0.00000000000E+00  0.23284957082E+04  0.23284957082E+04  0.00000000000E+00 0. -1.
          2   -1    0    0  501    0  0.00000000000E+00 -0.00000000000E+00 -0.12733726307E+04  0.12733726307E+04  0.00000000000E+00 0.  1.
         23    2    1    2    0    0 -0.76428153031E+03  0.22690133475E+03  0.21227819787E+04  0.22693871936E+04  0.91128656673E+02 0.  0.
         13    1    3    3    0    0 -0.52275242983E+03  0.17023587484E+03  0.15703643108E+04  0.16638192284E+04  0.00000000000E+00 0. -1.
        -13    1    3    3    0    0 -0.24152910048E+03  0.56665459911E+02  0.55241766785E+03  0.60556796520E+03  0.00000000000E+00 0.  1.
         22    1    1    2    0    0  0.76428153031E+03 -0.22690133475E+03 -0.10676589012E+04  0.13324811453E+04  0.00000000000E+00 0.  1.
<mgrwt>
<rscale>  0 0.34438599E+04</rscale>
<asrwt>0</asrwt>
<pdfrwt beam="1">  1        2 0.19590348E+00 0.34438599E+04</pdfrwt>
<pdfrwt beam="2">  1       -2 0.35823011E+00 0.34438599E+04</pdfrwt>
<totfact> 0.19511091E-01</totfact>
</mgrwt>
</event>
<event>
 6    1  0.1878398E-004  0.1460184E+04  0.7818608E-02  0.8911370E-01
          2   -1    0    0  501    0  0.00000000000E+00  0.00000000000E+00  0.88553789225E+03  0.88553789225E+03  0.00000000000E+00 0.  1.
         -2   -1    0    0    0  501 -0.00000000000E+00 -0.00000000000E+00 -0.60193308620E+03  0.60193308620E+03  0.00000000000E+00 0. -1.
         23    2    1    2    0    0  0.28162863844E+03 -0.65074233132E+03  0.30662788938E+03  0.77802729913E+03  0.92333871808E+02 0.  0.
         11    1    3    3    0    0  0.15949218442E+03 -0.28164818745E+03  0.17245834647E+03  0.36674969619E+03  0.00000000000E+00 0.  1.
        -11    1    3    3    0    0  0.12213645402E+03 -0.36909414387E+03  0.13416954292E+03  0.41127760295E+03  0.00000000000E+00 0. -1.
         22    1    1    2    0    0 -0.28162863844E+03  0.65074233132E+03 -0.23023083333E+02  0.70944367932E+03  0.00000000000E+00 0. -1.
<mgrwt>
<rscale>  0 0.14601843E+04</rscale>
<asrwt>0</asrwt>
<pdfrwt beam="1">  1        2 0.13623660E+00 0.14601843E+04</pdfrwt>
<pdfrwt beam="2">  1       -2 0.92605090E-01 0.14601843E+04</pdfrwt>
<totfact> 0.28759086E+01</totfact>
</mgrwt>
</event>
<event>
 6    1  0.1878398E-004  0.2727599E+04  0.7818608E-02  0.8326105E-01
          2   -1    0    0  501    0  0.00000000000E+00  0.00000000000E+00  0.17814282843E+04  0.17814282843E+04  0.00000000000E+00 0.  1.
         -2   -1    0    0    0  501 -0.00000000000E+00 -0.00000000000E+00 -0.10440772754E+04  0.10440772754E+04  0.00000000000E+00 0. -1.
         23    2    1    2    0    0  0.11868382936E+03  0.19292856297E+03  0.17606189663E+04  0.17774671088E+04  0.91120232890E+02 0.  0.
         13    1    3    3    0    0  0.26310543658E+02  0.11956154411E+03  0.10515949794E+04  0.10586969388E+04  0.00000000000E+00 0.  1.
        -13    1    3    3    0    0  0.92373285704E+02  0.73367018859E+02  0.70902398689E+03  0.71877017005E+03  0.00000000000E+00 0. -1.
         22    1    1    2    0    0 -0.11868382936E+03 -0.19292856297E+03 -0.10232679574E+04  0.10480384508E+04  0.00000000000E+00 0. -1.
<mgrwt>
<rscale>  0 0.27275988E+04</rscale>
<asrwt>0</asrwt>
<pdfrwt beam="1">  1        2 0.27406589E+00 0.27275988E+04</pdfrwt>
<pdfrwt beam="2">  1       -2 0.16062727E+00 0.27275988E+04</pdfrwt>
<totfact> 0.19278551E+00</totfact>
</mgrwt>
</event>
<event>
 6    1  0.1878398E-004  0.2249454E+04  0.7818608E-02  0.8498121E-01
          1   -1    0    0  501    0  0.00000000000E+00  0.00000000000E+00  0.18904786675E+04  0.18904786675E+04  0.00000000000E+00 0.  1.
         -1   -1    0    0    0  501 -0.00000000000E+00 -0.00000000000E+00 -0.66914869014E+03  0.66914869014E+03  0.00000000000E+00 0. -1.
         23    2    1    2    0    0 -0.76456671929E+03  0.30830943309E+03 -0.25599372496E+03  0.86785246238E+03  0.89544036482E+02 0.  0.
         11    1    3    3    0    0 -0.56412849046E+03  0.26411904236E+03 -0.17316648199E+03  0.64651871804E+03  0.00000000000E+00 0. -1.
        -11    1    3    3    0    0 -0.20043822883E+03  0.44190390728E+02 -0.82827242965E+02  0.22133374435E+03  0.00000000000E+00 0.  1.
         22    1    1    2    0    0  0.76456671929E+03 -0.30830943309E+03  0.14773237023E+04  0.16917748953E+04  0.00000000000E+00 0.  1.
<mgrwt>
<rscale>  0 0.22494544E+04</rscale>
<asrwt>0</asrwt>
<pdfrwt beam="1">  1        1 0.29084287E+00 0.22494544E+04</pdfrwt>
<pdfrwt beam="2">  1       -1 0.10294595E+00 0.22494544E+04</pdfrwt>
<totfact> 0.28612402E+00</totfact>
</mgrwt>
</event>
<event>
 6    1  0.1878398E-004  0.1472850E+04  0.7818608E-02  0.8902711E-01
          1   -1    0    0  501    0  0.00000000000E+00  0.00000000000E+00  0.26057046417E+04  0.26057046417E+04  0.00000000000E+00 0.  1.
         -1   -1    0    0    0  501 -0.00000000000E+00 -0.00000000000E+00 -0.20812857057E+03  0.20812857057E+03  0.00000000000E+00 0. -1.
         23    2    1    2    0    0  0.13283762390E+03 -0.56554529987E+03  0.20591099786E+04  0.21414890918E+04  0.92489489416E+02 0.  0.
         11    1    3    3    0    0  0.41198019197E+01 -0.20829334005E+03  0.70392444562E+03  0.73410674525E+03  0.00000000000E+00 0. -1.
        -11    1    3    3    0    0  0.12871782198E+03 -0.35725195981E+03  0.13551855330E+04  0.14073823465E+04  0.00000000000E+00 0.  1.
         22    1    1    2    0    0 -0.13283762390E+03  0.56554529987E+03  0.33846609245E+03  0.67234412042E+03  0.00000000000E+00 0. -1.
<mgrwt>
<rscale>  0 0.14728497E+04</rscale>
<asrwt>0</asrwt>
<pdfrwt beam="1">  1        1 0.40087761E+00 0.14728497E+04</pdfrwt>
<pdfrwt beam="2">  1       -1 0.32019782E-01 0.14728497E+04</pdfrwt>
<totfact> 0.10116270E+01</totfact>
</mgrwt>
</event>
<event>
 6    1  0.1878398E-004  0.1488143E+04  0.7818608E-02  0.8892376E-01
         -2   -1    0    0    0  501 -0.00000000000E+00  0.00000000000E+00  0.43704238500E+03  0.43704238500E+03  0.00000000000E+00 0. -1.
          2   -1    0    0  501    0  0.00000000000E+00 -0.00000000000E+00 -0.12667939882E+04  0.12667939882E+04  0.00000000000E+00 0.  1.
         23    2    1    2    0    0  0.33774486128E+03 -0.29236616873E+03 -0.10937293109E+04  0.11849589329E+04  0.91292382076E+02 0.  0.
         13    1    3    3    0    0  0.98974936474E+02 -0.12955188583E+03 -0.47151280274E+03  0.49890284858E+03  0.00000000000E+00 0. -1.
        -13    1    3    3    0    0  0.23876992481E+03 -0.16281428290E+03 -0.62221650821E+03  0.68605608430E+03  0.00000000000E+00 0.  1.
         22    1    1    2    0    0 -0.33774486128E+03  0.29236616873E+03  0.26397770772E+03  0.51887744036E+03  0.00000000000E+00 0. -1.
<mgrwt>
<rscale>  0 0.14881434E+04</rscale>
<asrwt>0</asrwt>
<pdfrwt beam="1">  1        2 0.19489138E+00 0.14881434E+04</pdfrwt>
<pdfrwt beam="2">  1       -2 0.67237291E-01 0.14881434E+04</pdfrwt>
<totfact> 0.33928550E+01</totfact>
</mgrwt>
</event>
<event>
 6    1  0.1878398E-004  0.1649561E+04  0.7818608E-02  0.8790666E-01
          1   -1    0    0  501    0  0.00000000000E+00  0.00000000000E+00  0.13141743401E+04  0.13141743401E+04  0.00000000000E+00 0.  1.
         -1   -1    0    0    0  501 -0.00000000000E+00 -0.00000000000E+00 -0.51763520154E+03  0.51763520154E+03  0.00000000000E+00 0. -1.
         23    2    1    2    0    0 -0.56041865277E+03 -0.12422079419E+03  0.10533215808E+04  0.12029716493E+04  0.90302626524E+02 0.  0.
         13    1    3    3    0    0 -0.81907181503E+02 -0.52332999100E+02  0.17690558930E+03  0.20184924251E+03  0.00000000000E+00 0. -1.
        -13    1    3    3    0    0 -0.47851147127E+03 -0.71887795087E+02  0.87641599153E+03  0.10011224068E+04  0.00000000000E+00 0.  1.
         22    1    1    2    0    0  0.56041865277E+03  0.12422079419E+03 -0.25678244231E+03  0.62883789227E+03  0.00000000000E+00 0. -1.
<mgrwt>
<rscale>  0 0.16495610E+04</rscale>
<asrwt>0</asrwt>
<pdfrwt beam="1">  1        1 0.20218067E+00 0.16495610E+04</pdfrwt>
<pdfrwt beam="2">  1       -1 0.79636185E-01 0.16495610E+04</pdfrwt>
<totfact> 0.13302165E+01</totfact>
</mgrwt>
</event>
<event>
 6    1  0.1878398E-004  0.4510145E+04  0.7818608E-02  0.7908863E-01
         -2   -1    0    0    0  501 -0.00000000000E+00  0.00000000000E+00  0.10315431926E+04  0.10315431926E+04  0.00000000000E+00 0. -1.
          2   -1    0    0  501    0  0.00000000000E+00 -0.00000000000E+00 -0.49298477405E+04  0.49298477405E+04  0.00000000000E+00 0.  1.
         23    2    1    2    0    0 -0.15683896860E+04 -0.11927326176E+04 -0.50273124292E+03  0.20355311071E+04  0.90503487543E+02 0.  0.
         13    1    3    3    0    0 -0.13178069342E+04 -0.97185360517E+03 -0.39273082719E+03  0.16838503640E+04  0.00000000000E+00 0.  1.
        -13    1    3    3    0    0 -0.25058275179E+03 -0.22087901239E+03 -0.11000041573E+03  0.35168074310E+03  0.00000000000E+00 0. -1.
         22    1    1    2    0    0  0.15683896860E+04  0.11927326176E+04 -0.33955733050E+04  0.39258598261E+04  0.00000000000E+00 0.  1.
<mgrwt>
<rscale>  0 0.45101445E+04</rscale>
<asrwt>0</asrwt>
<pdfrwt beam="1">  1        2 0.75843812E+00 0.45101445E+04</pdfrwt>
<pdfrwt beam="2">  1       -2 0.15869895E+00 0.45101445E+04</pdfrwt>
<totfact> 0.80640495E-03</totfact>
</mgrwt>
</event>
<event>
 6    1  0.1878398E-004  0.1891106E+04  0.7818608E-02  0.8659296E-01
          2   -1    0    0  501    0  0.00000000000E+00  0.00000000000E+00  0.16857387886E+04  0.16857387886E+04  0.00000000000E+00 0.  1.
         -2   -1    0    0    0  501 -0.00000000000E+00 -0.00000000000E+00 -0.53037324667E+03  0.53037324667E+03  0.00000000000E+00 0. -1.
         23    2    1    2    0    0  0.27363527710E+03  0.55702684613E+02  0.16349792175E+04  0.16611270518E+04  0.90592420397E+02 0.  0.
         11    1    3    3    0    0  0.25704618081E+03  0.24501104174E+02  0.14308718679E+04  0.14539832686E+04  0.00000000000E+00 0. -1.
        -11    1    3    3    0    0  0.16589096288E+02  0.31201580438E+02  0.20410734965E+03  0.20714378320E+03  0.00000000000E+00 0.  1.
         22    1    1    2    0    0 -0.27363527710E+03 -0.55702684613E+02 -0.47961367563E+03  0.55498498340E+03  0.00000000000E+00 0. -1.
<mgrwt>
<rscale>  0 0.18911063E+04</rscale>
<asrwt>0</asrwt>
<pdfrwt beam="1">  1        2 0.25934443E+00 0.18911063E+04</pdfrwt>
<pdfrwt beam="2">  1       -2 0.81595885E-01 0.18911063E+04</pdfrwt>
<totfact> 0.12375005E+01</totfact>
</mgrwt>
</event>
<event>
 6    1  0.1878398E-004  0.2377452E+04  0.7818608E-02  0.8447994E-01
          1   -1    0    0  501    0  0.00000000000E+00  0.00000000000E+00  0.15685436542E+04  0.15685436542E+04  0.00000000000E+00 0.  1.
         -1   -1    0    0    0  501 -0.00000000000E+00 -0.00000000000E+00 -0.90088015944E+03  0.90088015944E+03  0.00000000000E+00 0. -1.
         23    2    1    2    0    0 -0.10142029007E+02  0.37671152180E+03  0.15033328646E+04  0.15527135393E+04  0.94314379461E+02 0.  0.
         13    1    3    3    0    0 -0.45768146158E+02  0.13928124231E+03  0.64355503539E+03  0.66004323437E+03  0.00000000000E+00 0. -1.
        -13    1    3    3    0    0  0.35626117151E+02  0.23743027949E+03  0.85977782916E+03  0.89267030496E+03  0.00000000000E+00 0.  1.
         22    1    1    2    0    0  0.10142029007E+02 -0.37671152180E+03 -0.83566936980E+03  0.91671027431E+03  0.00000000000E+00 0. -1.
<mgrwt>
<rscale>  0 0.23774523E+04</rscale>
<asrwt>0</asrwt>
<pdfrwt beam="1">  1        1 0.24131441E+00 0.23774523E+04</pdfrwt>
<pdfrwt beam="2">  1       -1 0.13859695E+00 0.23774523E+04</pdfrwt>
<totfact> 0.22663214E+00</totfact>
</mgrwt>
</event>
<event>
 6    1  0.1878398E-004  0.2248553E+04  0.7818608E-02  0.8498487E-01
          1   -1    0    0  501    0  0.00000000000E+00  0.00000000000E+00  0.26991546124E+04  0.26991546124E+04  0.00000000000E+00 0. -1.
         -1   -1    0    0    0  501 -0.00000000000E+00 -0.00000000000E+00 -0.46829376097E+03  0.46829376097E+03  0.00000000000E+00 0.  1.
         23    2    1    2    0    0  0.38414557625E+02 -0.62293538985E+03  0.24314380260E+04  0.25118910676E+04  0.90452658691E+02 0.  0.
         11    1    3    3    0    0  0.15793944324E+02 -0.47508330593E+03  0.16935095088E+04  0.17589565238E+04  0.00000000000E+00 0. -1.
        -11    1    3    3    0    0  0.22620613301E+02 -0.14785208392E+03  0.73792851714E+03  0.75293454381E+03  0.00000000000E+00 0.  1.
         22    1    1    2    0    0 -0.38414557625E+02  0.62293538985E+03 -0.20057717452E+03  0.65555730574E+03  0.00000000000E+00 0.  1.
<mgrwt>
<rscale>  0 0.22485527E+04</rscale>
<asrwt>0</asrwt>
<pdfrwt beam="1">  1        1 0.41525455E+00 0.22485527E+04</pdfrwt>
<pdfrwt beam="2">  1       -1 0.72045196E-01 0.22485527E+04</pdfrwt>
<totfact> 0.17348737E+00</totfact>
</mgrwt>
</event>
<event>
 6    1  0.1878398E-004  0.4817258E+04  0.7818608E-02  0.7857332E-01
          1   -1    0    0  501    0  0.00000000000E+00  0.00000000000E+00  0.46140557155E+04  0.46140557155E+04  0.00000000000E+00 0.  1.
         -1   -1    0    0    0  501 -0.00000000000E+00 -0.00000000000E+00 -0.12573521471E+04  0.12573521471E+04  0.00000000000E+00 0. -1.
         23    2    1    2    0    0 -0.13270773968E+04 -0.19530294673E+04  0.22529527843E+04  0.32649304868E+04  0.92283900090E+02 0.  0.
         11    1    3    3    0    0 -0.29117906032E+03 -0.49730238002E+03  0.56148277896E+03  0.80458549167E+03  0.00000000000E+00 0. -1.
        -11    1    3    3    0    0 -0.10358983364E+04 -0.14557270873E+04  0.16914700053E+04  0.24603449951E+04  0.00000000000E+00 0.  1.
         22    1    1    2    0    0  0.13270773968E+04  0.19530294673E+04  0.11037507841E+04  0.26064773758E+04  0.00000000000E+00 0.  1.
<mgrwt>
<rscale>  0 0.48172577E+04</rscale>
<asrwt>0</asrwt>
<pdfrwt beam="1">  1        1 0.70985471E+00 0.48172577E+04</pdfrwt>
<pdfrwt beam="2">  1       -1 0.19343879E+00 0.48172577E+04</pdfrwt>
<totfact> 0.29679522E-03</totfact>
</mgrwt>
</event>
<event>
 6    1  0.1878398E-004  0.4209635E+04  0.7818608E-02  0.7963542E-01
         -2   -1    0    0    0  501 -0.00000000000E+00  0.00000000000E+00  0.14062529921E+04  0.14062529921E+04  0.00000000000E+00 0. -1.
          2   -1    0    0  501    0  0.00000000000E+00 -0.00000000000E+00 -0.31503982478E+04  0.31503982478E+04  0.00000000000E+00 0.  1.
         23    2    1    2    0    0 -0.19393458176E+04 -0.73219364019E+03 -0.48239722099E+03  0.21298884105E+04  0.80918694294E+02 0.  0.
         11    1    3    3    0    0 -0.15431323520E+04 -0.56175788291E+03 -0.35477819757E+03  0.16800883739E+04  0.00000000000E+00 0.  1.
        -11    1    3    3    0    0 -0.39621346564E+03 -0.17043575727E+03 -0.12761902342E+03  0.44980003652E+03  0.00000000000E+00 0. -1.
         22    1    1    2    0    0  0.19393458176E+04  0.73219364019E+03 -0.12617480347E+04  0.24267628294E+04  0.00000000000E+00 0. -1.
<mgrwt>
<rscale>  0 0.42096351E+04</rscale>
<asrwt>0</asrwt>
<pdfrwt beam="1">  1        2 0.48467665E+00 0.42096351E+04</pdfrwt>
<pdfrwt beam="2">  1       -2 0.21634662E+00 0.42096351E+04</pdfrwt>
<totfact> 0.11285535E-01</totfact>
</mgrwt>
</event>
<event>
 6    1  0.1878398E-004  0.4454704E+04  0.7818608E-02  0.7918615E-01
         -1   -1    0    0    0  501 -0.00000000000E+00  0.00000000000E+00  0.30548056624E+04  0.30548056624E+04  0.00000000000E+00 0.  1.
          1   -1    0    0  501    0  0.00000000000E+00 -0.00000000000E+00 -0.16240303329E+04  0.16240303329E+04  0.00000000000E+00 0. -1.
         23    2    1    2    0    0 -0.16409711210E+04 -0.54599495155E+03  0.21883789785E+04  0.27907523118E+04  0.91647178852E+02 0.  0.
         11    1    3    3    0    0 -0.10257564435E+04 -0.35387610369E+03  0.14409536451E+04  0.18038159511E+04  0.00000000000E+00 0.  1.
        -11    1    3    3    0    0 -0.61521467750E+03 -0.19211884786E+03  0.74742533340E+03  0.98693636073E+03  0.00000000000E+00 0. -1.
         22    1    1    2    0    0  0.16409711210E+04  0.54599495155E+03 -0.75760364898E+03  0.18880836835E+04  0.00000000000E+00 0. -1.
<mgrwt>
<rscale>  0 0.44547041E+04</rscale>
<asrwt>0</asrwt>
<pdfrwt beam="1">  1        1 0.24985082E+00 0.44547041E+04</pdfrwt>
<pdfrwt beam="2">  1       -1 0.46997010E+00 0.44547041E+04</pdfrwt>
<totfact> 0.95817621E-03</totfact>
</mgrwt>
</event>
<event>
 6    1  0.1878398E-004  0.1771170E+04  0.7818608E-02  0.8721783E-01
          2   -1    0    0  501    0  0.00000000000E+00  0.00000000000E+00  0.24267735592E+04  0.24267735592E+04  0.00000000000E+00 0.  1.
         -2   -1    0    0    0  501 -0.00000000000E+00 -0.00000000000E+00 -0.32317021009E+03  0.32317021009E+03  0.00000000000E+00 0. -1.
         23    2    1    2    0    0  0.77094048780E+03  0.31003857026E+03  0.15194067419E+04  0.17341884707E+04  0.91321704692E+02 0.  0.
         11    1    3    3    0    0  0.30001239324E+03  0.16045489726E+03  0.56723235296E+03  0.66144217616E+03  0.00000000000E+00 0. -1.
        -11    1    3    3    0    0  0.47092809456E+03  0.14958367300E+03  0.95217438897E+03  0.10727462946E+04  0.00000000000E+00 0.  1.
         22    1    1    2    0    0 -0.77094048780E+03 -0.31003857026E+03  0.58419660721E+03  0.10157552986E+04  0.00000000000E+00 0. -1.
<mgrwt>
<rscale>  0 0.17711701E+04</rscale>
<asrwt>0</asrwt>
<pdfrwt beam="1">  1        2 0.37334977E+00 0.17711701E+04</pdfrwt>
<pdfrwt beam="2">  1       -2 0.49718496E-01 0.17711701E+04</pdfrwt>
<totfact> 0.13913755E+01</totfact>
</mgrwt>
</event>
<event>
 6    1  0.1878398E-004  0.1553011E+04  0.7818608E-02  0.8849947E-01
          2   -1    0    0  501    0  0.00000000000E+00  0.00000000000E+00  0.45860901176E+03  0.45860901176E+03  0.00000000000E+00 0.  1.
         -2   -1    0    0    0  501 -0.00000000000E+00 -0.00000000000E+00 -0.13147594057E+04  0.13147594057E+04  0.00000000000E+00 0. -1.
         23    2    1    2    0    0  0.61908486650E+03  0.37278343220E+03 -0.74466269552E+03  0.10421618350E+04  0.96670580222E+02 0.  0.
         11    1    3    3    0    0  0.50336456756E+03  0.28512856840E+03 -0.54101387581E+03  0.79206704401E+03  0.00000000000E+00 0.  1.
        -11    1    3    3    0    0  0.11572029894E+03  0.87654863806E+02 -0.20364881970E+03  0.25009479103E+03  0.00000000000E+00 0. -1.
         22    1    1    2    0    0 -0.61908486650E+03 -0.37278343220E+03 -0.11148769842E+03  0.73120658240E+03  0.00000000000E+00 0.  1.
<mgrwt>
<rscale>  0 0.15530106E+04</rscale>
<asrwt>0</asrwt>
<pdfrwt beam="1">  1        2 0.70555234E-01 0.15530106E+04</pdfrwt>
<pdfrwt beam="2">  1       -2 0.20227067E+00 0.15530106E+04</pdfrwt>
<totfact> 0.84085211E+00</totfact>
</mgrwt>
</event>
<event>
 6    1  0.1878398E-004  0.2232163E+04  0.7818608E-02  0.8505159E-01
          2   -1    0    0  501    0  0.00000000000E+00  0.00000000000E+00  0.26349094069E+04  0.26349094069E+04  0.00000000000E+00 0.  1.
         -2   -1    0    0    0  501 -0.00000000000E+00 -0.00000000000E+00 -0.47274394643E+03  0.47274394643E+03  0.00000000000E+00 0. -1.
         23    2    1    2    0    0 -0.63217599456E+03  0.72203745617E+03  0.18710645587E+04  0.21047952820E+04  0.91082490315E+02 0.  0.
         11    1    3    3    0    0 -0.55790551832E+03  0.58811142735E+03  0.15573050487E+04  0.17556573223E+04  0.00000000000E+00 0.  1.
        -11    1    3    3    0    0 -0.74270476243E+02  0.13392602882E+03  0.31375951001E+03  0.34913795978E+03  0.00000000000E+00 0. -1.
         22    1    1    2    0    0  0.63217599456E+03 -0.72203745617E+03  0.29110090173E+03  0.10028580713E+04  0.00000000000E+00 0. -1.
<mgrwt>
<rscale>  0 0.22321626E+04</rscale>
<asrwt>0</asrwt>
<pdfrwt beam="1">  1        2 0.40537067E+00 0.22321626E+04</pdfrwt>
<pdfrwt beam="2">  1       -2 0.72729839E-01 0.22321626E+04</pdfrwt>
<totfact> 0.45234667E+00</totfact>
</mgrwt>
</event>
<event>
 6    1  0.1878398E-004  0.4638447E+04  0.7818608E-02  0.7886837E-01
          2   -1    0    0  501    0  0.00000000000E+00  0.00000000000E+00  0.18524747715E+04  0.18524747715E+04  0.00000000000E+00 0.  1.
         -2   -1    0    0    0  501 -0.00000000000E+00 -0.00000000000E+00 -0.29035746107E+04  0.29035746107E+04  0.00000000000E+00 0. -1.
         23    2    1    2    0    0  0.22599977490E+04  0.35131662895E+03 -0.91446433985E+03  0.24648308289E+04  0.90181967348E+02 0.  0.
         13    1    3    3    0    0  0.11887620970E+04  0.15674103039E+03 -0.51747891515E+03  0.13059508036E+04  0.00000000000E+00 0. -1.
        -13    1    3    3    0    0  0.10712356520E+04  0.19457559856E+03 -0.39698542470E+03  0.11588800253E+04  0.00000000000E+00 0.  1.
         22    1    1    2    0    0 -0.22599977490E+04 -0.35131662895E+03 -0.13663549942E+03  0.22912185533E+04  0.00000000000E+00 0. -1.
<mgrwt>
<rscale>  0 0.46384475E+04</rscale>
<asrwt>0</asrwt>
<pdfrwt beam="1">  1        2 0.28499612E+00 0.46384475E+04</pdfrwt>
<pdfrwt beam="2">  1       -2 0.44670379E+00 0.46384475E+04</pdfrwt>
<totfact> 0.22100196E-02</totfact>
</mgrwt>
</event>
<event>
 6    1  0.1878398E-004  0.7224701E+03  0.7818608E-02  0.9679559E-01
         -1   -1    0    0    0  501 -0.00000000000E+00  0.00000000000E+00  0.25026214220E+03  0.25026214220E+03  0.00000000000E+00 0. -1.
          1   -1    0    0  501    0  0.00000000000E+00 -0.00000000000E+00 -0.52141628418E+03  0.52141628418E+03  0.00000000000E+00 0.  1.
         23    2    1    2    0    0  0.14969203878E+03 -0.26360320710E+03  0.68165544468E+02  0.31667050680E+03  0.61149907256E+02 0.  0.
         11    1    3    3    0    0  0.79147322637E+02 -0.18729399128E+03  0.61970951137E+02  0.21256466460E+03  0.00000000000E+00 0. -1.
        -11    1    3    3    0    0  0.70544716140E+02 -0.76309215825E+02  0.61945933306E+01  0.10410584221E+03  0.00000000000E+00 0.  1.
         22    1    1    2    0    0 -0.14969203878E+03  0.26360320710E+03 -0.33931968644E+03  0.45500791958E+03  0.00000000000E+00 0.  1.
<mgrwt>
<rscale>  0 0.72247009E+03</rscale>
<asrwt>0</asrwt>
<pdfrwt beam="1">  1        1 0.80217889E-01 0.72247009E+03</pdfrwt>
<pdfrwt beam="2">  1       -1 0.38501868E-01 0.72247009E+03</pdfrwt>
<totfact> 0.27640953E+02</totfact>
</mgrwt>
</event>
<event>
 6    1  0.1878398E-004  0.1915922E+04  0.7818608E-02  0.8646972E-01
          2   -1    0    0  501    0  0.00000000000E+00  0.00000000000E+00  0.16257557647E+04  0.16257557647E+04  0.00000000000E+00 0.  1.
         -2   -1    0    0    0  501 -0.00000000000E+00 -0.00000000000E+00 -0.56446908897E+03  0.56446908897E+03  0.00000000000E+00 0. -1.
         23    2    1    2    0    0 -0.61874648208E+03  0.37113547901E+03 -0.18502779164E+03  0.75012468200E+03  0.88673569856E+02 0.  0.
         13    1    3    3    0    0 -0.36389449448E+03  0.26832722278E+03 -0.11293237930E+03  0.46601762187E+03  0.00000000000E+00 0. -1.
        -13    1    3    3    0    0 -0.25485198760E+03  0.10280825623E+03 -0.72095412339E+02  0.28410706013E+03  0.00000000000E+00 0.  1.
         22    1    1    2    0    0  0.61874648208E+03 -0.37113547901E+03  0.12463144673E+04  0.14401001716E+04  0.00000000000E+00 0. -1.
<mgrwt>
<rscale>  0 0.19159216E+04</rscale>
<asrwt>0</asrwt>
<pdfrwt beam="1">  1        2 0.25011627E+00 0.19159216E+04</pdfrwt>
<pdfrwt beam="2">  1       -2 0.86841399E-01 0.19159216E+04</pdfrwt>
<totfact> 0.11577270E+01</totfact>
</mgrwt>
</event>
<event>
 6    1  0.1878398E-004  0.6551625E+03  0.7818608E-02  0.9797140E-01
         -2   -1    0    0    0  501 -0.00000000000E+00  0.00000000000E+00  0.12850921965E+03  0.12850921965E+03  0.00000000000E+00 0. -1.
          2   -1    0    0  501    0  0.00000000000E+00 -0.00000000000E+00 -0.83503340060E+03  0.83503340060E+03  0.00000000000E+00 0.  1.
         23    2    1    2    0    0 -0.23862971675E+03  0.21450831145E+03 -0.38357056288E+03  0.50828775006E+03  0.90951100917E+02 0.  0.
         11    1    3    3    0    0 -0.47722432485E+02  0.13380247100E+02 -0.26556806594E+02  0.56229223285E+02  0.00000000000E+00 0.  1.
        -11    1    3    3    0    0 -0.19090728426E+03  0.20112806435E+03 -0.35701375628E+03  0.45205852678E+03  0.00000000000E+00 0. -1.
         22    1    1    2    0    0  0.23862971675E+03 -0.21450831145E+03 -0.32295361808E+03  0.45525487019E+03  0.00000000000E+00 0.  1.
<mgrwt>
<rscale>  0 0.65516255E+03</rscale>
<asrwt>0</asrwt>
<pdfrwt beam="1">  1        2 0.12846667E+00 0.65516255E+03</pdfrwt>
<pdfrwt beam="2">  1       -2 0.19770650E-01 0.65516255E+03</pdfrwt>
<totfact> 0.71240354E+02</totfact>
</mgrwt>
</event>
<event>
 6    1  0.1878398E-004  0.6548318E+03  0.7818608E-02  0.9797755E-01
         -2   -1    0    0    0  501 -0.00000000000E+00  0.00000000000E+00  0.64124683153E+02  0.64124683153E+02  0.00000000000E+00 0. -1.
          2   -1    0    0  501    0  0.00000000000E+00 -0.00000000000E+00 -0.16717616344E+04  0.16717616344E+04  0.00000000000E+00 0.  1.
         23    2    1    2    0    0 -0.10853705044E+03 -0.28762867525E+03 -0.57272193133E+03  0.65627544108E+03  0.90423989073E+02 0.  0.
         11    1    3    3    0    0 -0.37692938798E+02 -0.19070986630E+03 -0.41302606791E+03  0.45648827314E+03  0.00000000000E+00 0. -1.
        -11    1    3    3    0    0 -0.70844111640E+02 -0.96918808953E+02 -0.15969586342E+03  0.19978716795E+03  0.00000000000E+00 0.  1.
         22    1    1    2    0    0  0.10853705044E+03  0.28762867525E+03 -0.10349150199E+04  0.10796108765E+04  0.00000000000E+00 0.  1.
<mgrwt>
<rscale>  0 0.65483184E+03</rscale>
<asrwt>0</asrwt>
<pdfrwt beam="1">  1        2 0.25719410E+00 0.65483184E+03</pdfrwt>
<pdfrwt beam="2">  1       -2 0.98653357E-02 0.65483184E+03</pdfrwt>
<totfact> 0.72857906E+02</totfact>
</mgrwt>
</event>
<event>
 6    1  0.1878398E-004  0.1581165E+04  0.7818608E-02  0.8832203E-01
          2   -1    0    0  501    0  0.00000000000E+00  0.00000000000E+00  0.72325058016E+03  0.72325058016E+03  0.00000000000E+00 0.  1.
         -2   -1    0    0    0  501 -0.00000000000E+00 -0.00000000000E+00 -0.86418275000E+03  0.86418275000E+03  0.00000000000E+00 0. -1.
         23    2    1    2    0    0 -0.17034893986E+03 -0.63864087892E+03  0.35990821159E+03  0.75814325955E+03  0.91467741216E+02 0.  0.
         13    1    3    3    0    0 -0.70127396724E+02 -0.37411464230E+03  0.16640350038E+03  0.41541514452E+03  0.00000000000E+00 0. -1.
        -13    1    3    3    0    0 -0.10022154314E+03 -0.26452623661E+03  0.19350471122E+03  0.34272811503E+03  0.00000000000E+00 0.  1.
         22    1    1    2    0    0  0.17034893986E+03  0.63864087892E+03 -0.50084038144E+03  0.82929007062E+03  0.00000000000E+00 0. -1.
<mgrwt>
<rscale>  0 0.15811650E+04</rscale>
<asrwt>0</asrwt>
<pdfrwt beam="1">  1        2 0.11126932E+00 0.15811650E+04</pdfrwt>
<pdfrwt beam="2">  1       -2 0.13295119E+00 0.15811650E+04</pdfrwt>
<totfact> 0.15477020E+01</totfact>
</mgrwt>
</event>
<event>
 6    1  0.1878398E-004  0.9231213E+03  0.7818608E-02  0.9397131E-01
         -1   -1    0    0    0  501 -0.00000000000E+00  0.00000000000E+00  0.32498298170E+03  0.32498298170E+03  0.00000000000E+00 0. -1.
          1   -1    0    0  501    0  0.00000000000E+00 -0.00000000000E+00 -0.65553661244E+03  0.65553661244E+03  0.00000000000E+00 0.  1.
         23    2    1    2    0    0  0.33138084667E+03 -0.29537573700E+03 -0.28178486409E+03  0.53393423372E+03  0.92859920121E+02 0.  0.
         11    1    3    3    0    0  0.15926612564E+03 -0.11885122837E+03 -0.75888406293E+02  0.21272132820E+03  0.00000000000E+00 0. -1.
        -11    1    3    3    0    0  0.17211472103E+03 -0.17652450863E+03 -0.20589645779E+03  0.32121290552E+03  0.00000000000E+00 0.  1.
         22    1    1    2    0    0 -0.33138084667E+03  0.29537573700E+03 -0.48768766659E+02  0.44658536043E+03  0.00000000000E+00 0. -1.
<mgrwt>
<rscale>  0 0.92312132E+03</rscale>
<asrwt>0</asrwt>
<pdfrwt beam="1">  1        1 0.10085179E+00 0.92312132E+03</pdfrwt>
<pdfrwt beam="2">  1       -1 0.49997382E-01 0.92312132E+03</pdfrwt>
<totfact> 0.12150254E+02</totfact>
</mgrwt>
</event>
<event>
 6    1  0.1878398E-004  0.2423365E+04  0.7818608E-02  0.8430807E-01
         -2   -1    0    0    0  501 -0.00000000000E+00  0.00000000000E+00  0.63966247460E+03  0.63966247460E+03  0.00000000000E+00 0. -1.
          2   -1    0    0  501    0  0.00000000000E+00 -0.00000000000E+00 -0.22952338644E+04  0.22952338644E+04  0.00000000000E+00 0.  1.
         23    2    1    2    0    0  0.46298278359E+03 -0.10375715527E+04 -0.32518410302E+03  0.11853712269E+04  0.91937260505E+02 0.  0.
         13    1    3    3    0    0  0.25586453666E+03 -0.61920677380E+03 -0.14864629125E+03  0.68627939627E+03  0.00000000000E+00 0.  1.
        -13    1    3    3    0    0  0.20711824693E+03 -0.41836477891E+03 -0.17653781176E+03  0.49909183066E+03  0.00000000000E+00 0. -1.
         22    1    1    2    0    0 -0.46298278359E+03  0.10375715527E+04 -0.13303872868E+04  0.17495251121E+04  0.00000000000E+00 0.  1.
<mgrwt>
<rscale>  0 0.24233654E+04</rscale>
<asrwt>0</asrwt>
<pdfrwt beam="1">  1        2 0.35311291E+00 0.24233654E+04</pdfrwt>
<pdfrwt beam="2">  1       -2 0.98409610E-01 0.24233654E+04</pdfrwt>
<totfact> 0.35121346E+00</totfact>
</mgrwt>
</event>
<event>
 6    1  0.1878398E-004  0.1238763E+04  0.7818608E-02  0.9079588E-01
         -1   -1    0    0    0  501 -0.00000000000E+00  0.00000000000E+00  0.11449063932E+03  0.11449063932E+03  0.00000000000E+00 0. -1.
          1   -1    0    0  501    0  0.00000000000E+00 -0.00000000000E+00 -0.33507844105E+04  0.33507844105E+04  0.00000000000E+00 0.  1.
         23    2    1    2    0    0 -0.45929926862E+03 -0.12751957516E+03 -0.27185617722E+04  0.27615254615E+04  0.90706699524E+02 0.  0.
         13    1    3    3    0    0 -0.38824986335E+03 -0.11284113066E+03 -0.20864101299E+04  0.21252242958E+04  0.00000000000E+00 0.  1.
        -13    1    3    3    0    0 -0.71049405271E+02 -0.14678444500E+02 -0.63215164227E+03  0.63630116576E+03  0.00000000000E+00 0. -1.
         22    1    1    2    0    0  0.45929926862E+03  0.12751957516E+03 -0.51773199897E+03  0.70374958825E+03  0.00000000000E+00 0. -1.
<mgrwt>
<rscale>  0 0.12387630E+04</rscale>
<asrwt>0</asrwt>
<pdfrwt beam="1">  1        1 0.51550530E+00 0.12387630E+04</pdfrwt>
<pdfrwt beam="2">  1       -1 0.17613944E-01 0.12387630E+04</pdfrwt>
<totfact> 0.82907924E+00</totfact>
</mgrwt>
</event>
<event>
 6    1  0.1878398E-004  0.2124506E+04  0.7818608E-02  0.8550524E-01
         -2   -1    0    0    0  501 -0.00000000000E+00  0.00000000000E+00  0.48716412416E+03  0.48716412416E+03  0.00000000000E+00 0. -1.
          2   -1    0    0  501    0  0.00000000000E+00 -0.00000000000E+00 -0.23162242556E+04  0.23162242556E+04  0.00000000000E+00 0.  1.
         23    2    1    2    0    0  0.39157347247E+02  0.72796216200E+03 -0.19321814496E+04  0.20671165458E+04  0.90462438658E+02 0.  0.
         11    1    3    3    0    0  0.13242915214E+02  0.32149354115E+03 -0.72856347574E+03  0.79645352029E+03  0.00000000000E+00 0. -1.
        -11    1    3    3    0    0  0.25914432033E+02  0.40646862085E+03 -0.12036179738E+04  0.12706630255E+04  0.00000000000E+00 0.  1.
         22    1    1    2    0    0 -0.39157347247E+02 -0.72796216200E+03  0.10312131816E+03  0.73627183391E+03  0.00000000000E+00 0. -1.
<mgrwt>
<rscale>  0 0.21245059E+04</rscale>
<asrwt>0</asrwt>
<pdfrwt beam="1">  1        2 0.35634219E+00 0.21245059E+04</pdfrwt>
<pdfrwt beam="2">  1       -2 0.74948327E-01 0.21245059E+04</pdfrwt>
<totfact> 0.65282362E+00</totfact>
</mgrwt>
</event>
<event>
 6    1  0.1878398E-004  0.5249895E+03  0.7818608E-02  0.1007455E+00
         -2   -1    0    0    0  501 -0.00000000000E+00  0.00000000000E+00  0.30345338588E+03  0.30345338588E+03  0.00000000000E+00 0. -1.
          2   -1    0    0  501    0  0.00000000000E+00 -0.00000000000E+00 -0.22706446997E+03  0.22706446997E+03  0.00000000000E+00 0.  1.
         23    2    1    2    0    0 -0.13895980240E+02  0.12811574885E+03 -0.18266753955E+03  0.24117897065E+03  0.90515868801E+02 0.  0.
         11    1    3    3    0    0  0.53426892926E+01  0.48627925750E+02 -0.97302540617E+01  0.49878826527E+02  0.00000000000E+00 0.  1.
        -11    1    3    3    0    0 -0.19238669533E+02  0.79487823103E+02 -0.17293728549E+03  0.19130014412E+03  0.00000000000E+00 0. -1.
         22    1    1    2    0    0  0.13895980240E+02 -0.12811574885E+03  0.25905645547E+03  0.28933888520E+03  0.00000000000E+00 0. -1.
<mgrwt>
<rscale>  0 0.52498946E+03</rscale>
<asrwt>0</asrwt>
<pdfrwt beam="1">  1        2 0.34932995E-01 0.52498946E+03</pdfrwt>
<pdfrwt beam="2">  1       -2 0.46685136E-01 0.52498946E+03</pdfrwt>
<totfact> 0.65603272E+02</totfact>
</mgrwt>
</event>
<event>
 6    1  0.1878398E-004  0.3218199E+04  0.7818608E-02  0.8184027E-01
         -1   -1    0    0    0  501 -0.00000000000E+00  0.00000000000E+00  0.10300328947E+04  0.10300328947E+04  0.00000000000E+00 0.  1.
          1   -1    0    0  501    0  0.00000000000E+00 -0.00000000000E+00 -0.25137069063E+04  0.25137069063E+04  0.00000000000E+00 0. -1.
         23    2    1    2    0    0 -0.14474516551E+04  0.51094377008E+03 -0.21576909013E+03  0.15528197324E+04  0.92265871833E+02 0.  0.
         11    1    3    3    0    0 -0.90059978350E+03  0.35057989878E+03 -0.10315695964E+03  0.97191954081E+03  0.00000000000E+00 0. -1.
        -11    1    3    3    0    0 -0.54685187157E+03  0.16036387130E+03 -0.11261213049E+03  0.58090019160E+03  0.00000000000E+00 0.  1.
         22    1    1    2    0    0  0.14474516551E+04 -0.51094377008E+03 -0.12679049215E+04  0.19909200687E+04  0.00000000000E+00 0.  1.
<mgrwt>
<rscale>  0 0.32181988E+04</rscale>
<asrwt>0</asrwt>
<pdfrwt beam="1">  1        1 0.38672414E+00 0.32181988E+04</pdfrwt>
<pdfrwt beam="2">  1       -1 0.15846660E+00 0.32181988E+04</pdfrwt>
<totfact> 0.33224573E-01</totfact>
</mgrwt>
</event>
<event>
 6    1  0.1878398E-004  0.1459106E+04  0.7818608E-02  0.8912112E-01
          2   -1    0    0  501    0  0.00000000000E+00  0.00000000000E+00  0.15597000320E+04  0.15597000320E+04  0.00000000000E+00 0.  1.
         -2   -1    0    0    0  501 -0.00000000000E+00 -0.00000000000E+00 -0.34124994319E+03  0.34124994319E+03  0.00000000000E+00 0. -1.
         23    2    1    2    0    0 -0.51018940771E+02  0.46802415967E+03 -0.10947413473E+03  0.49203823565E+03  0.92018980743E+02 0.  0.
         11    1    3    3    0    0 -0.59243453826E+02  0.14636768382E+03 -0.39056311270E+02  0.16266124657E+03  0.00000000000E+00 0. -1.
        -11    1    3    3    0    0  0.82245130552E+01  0.32165647585E+03 -0.70417823459E+02  0.32937698908E+03  0.00000000000E+00 0.  1.
         22    1    1    2    0    0  0.51018940771E+02 -0.46802415967E+03  0.13279242235E+04  0.14089117395E+04  0.00000000000E+00 0.  1.
<mgrwt>
<rscale>  0 0.14591060E+04</rscale>
<asrwt>0</asrwt>
<pdfrwt beam="1">  1        2 0.23995385E+00 0.14591060E+04</pdfrwt>
<pdfrwt beam="2">  1       -2 0.52499992E-01 0.14591060E+04</pdfrwt>
<totfact> 0.38970477E+01</totfact>
</mgrwt>
</event>
<event>
 6    1  0.1878398E-004  0.2234635E+04  0.7818608E-02  0.8504149E-01
          2   -1    0    0  501    0  0.00000000000E+00  0.00000000000E+00  0.21406157912E+04  0.21406157912E+04  0.00000000000E+00 0.  1.
         -2   -1    0    0    0  501 -0.00000000000E+00 -0.00000000000E+00 -0.58319597203E+03  0.58319597203E+03  0.00000000000E+00 0. -1.
         23    2    1    2    0    0 -0.40489012253E+03  0.46400358335E+03  0.19135650934E+04  0.20124224232E+04  0.94219456558E+02 0.  0.
         13    1    3    3    0    0 -0.45871299835E+02  0.71393093077E+02  0.37470581342E+03  0.38419473773E+03  0.00000000000E+00 0. -1.
        -13    1    3    3    0    0 -0.35901882270E+03  0.39261049027E+03  0.15388592800E+04  0.16282276855E+04  0.00000000000E+00 0.  1.
         22    1    1    2    0    0  0.40489012253E+03 -0.46400358335E+03 -0.35614527427E+03  0.71138934001E+03  0.00000000000E+00 0. -1.
<mgrwt>
<rscale>  0 0.22346351E+04</rscale>
<asrwt>0</asrwt>
<pdfrwt beam="1">  1        2 0.32932550E+00 0.22346351E+04</pdfrwt>
<pdfrwt beam="2">  1       -2 0.89722458E-01 0.22346351E+04</pdfrwt>
<totfact> 0.54088520E+00</totfact>
</mgrwt>
</event>
<event>
 6    1  0.1878398E-004  0.6870387E+04  0.7818608E-02  0.7590952E-01
         -1   -1    0    0    0  501 -0.00000000000E+00  0.00000000000E+00  0.48877743824E+04  0.48877743824E+04  0.00000000000E+00 0. -1.
          1   -1    0    0  501    0  0.00000000000E+00 -0.00000000000E+00 -0.24143003810E+04  0.24143003810E+04  0.00000000000E+00 0.  1.
         23    2    1    2    0    0  0.38897397078E+03 -0.33548631773E+04  0.19022588757E+04  0.38767726733E+04  0.66104778113E+02 0.  0.
         11    1    3    3    0    0  0.25488604534E+03 -0.19215578756E+04  0.10998767940E+04  0.22286948035E+04  0.00000000000E+00 0. -1.
        -11    1    3    3    0    0  0.13408792544E+03 -0.14333053017E+04  0.80238208174E+03  0.16480778698E+04  0.00000000000E+00 0.  1.
         22    1    1    2    0    0 -0.38897397078E+03  0.33548631773E+04  0.57121512576E+03  0.34253020901E+04  0.00000000000E+00 0.  1.
<mgrwt>
<rscale>  0 0.68703873E+04</rscale>
<asrwt>0</asrwt>
<pdfrwt beam="1">  1        1 0.37143083E+00 0.68703873E+04</pdfrwt>
<pdfrwt beam="2">  1       -1 0.75196529E+00 0.68703873E+04</pdfrwt>
<totfact> 0.12338958E-04</totfact>
</mgrwt>
</event>
<event>
 6    1  0.1878398E-004  0.3166865E+04  0.7818608E-02  0.8197623E-01
         -2   -1    0    0    0  501 -0.00000000000E+00  0.00000000000E+00  0.28765998090E+04  0.28765998090E+04  0.00000000000E+00 0. -1.
          2   -1    0    0  501    0  0.00000000000E+00 -0.00000000000E+00 -0.87160469955E+03  0.87160469955E+03  0.00000000000E+00 0.  1.
         23    2    1    2    0    0  0.19003322417E+03 -0.15338735390E+04  0.60317264104E+03  0.16615835816E+04  0.90344361378E+02 0.  0.
         13    1    3    3    0    0  0.42212271566E+02 -0.70509172293E+03  0.27972141882E+03  0.75972382203E+03  0.00000000000E+00 0. -1.
        -13    1    3    3    0    0  0.14782095261E+03 -0.82878181609E+03  0.32345122222E+03  0.90185975953E+03  0.00000000000E+00 0.  1.
         22    1    1    2    0    0 -0.19003322417E+03  0.15338735390E+04  0.14018224684E+04  0.20866209270E+04  0.00000000000E+00 0. -1.
<mgrwt>
<rscale>  0 0.31668646E+04</rscale>
<asrwt>0</asrwt>
<pdfrwt beam="1">  1        2 0.13409303E+00 0.31668646E+04</pdfrwt>
<pdfrwt beam="2">  1       -2 0.44255381E+00 0.31668646E+04</pdfrwt>
<totfact> 0.10051610E-01</totfact>
</mgrwt>
</event>
<event>
 6    1  0.1878398E-004  0.2041887E+04  0.7818608E-02  0.8587284E-01
         -1   -1    0    0    0  501 -0.00000000000E+00  0.00000000000E+00  0.12195471734E+04  0.12195471734E+04  0.00000000000E+00 0. -1.
          1   -1    0    0  501    0  0.00000000000E+00 -0.00000000000E+00 -0.85468234290E+03  0.85468234290E+03  0.00000000000E+00 0.  1.
         23    2    1    2    0    0  0.66816686145E+03 -0.52408881902E+03  0.75497818818E+03  0.11397219043E+04  0.88644851152E+02 0.  0.
         13    1    3    3    0    0  0.16488967228E+03 -0.98834267625E+02  0.20955252975E+03  0.28437489201E+03  0.00000000000E+00 0.  1.
        -13    1    3    3    0    0  0.50327718917E+03 -0.42525455139E+03  0.54542565843E+03  0.85534701232E+03  0.00000000000E+00 0. -1.
         22    1    1    2    0    0 -0.66816686145E+03  0.52408881902E+03 -0.39011335769E+03  0.93450761196E+03  0.00000000000E+00 0.  1.
<mgrwt>
<rscale>  0 0.20418868E+04</rscale>
<asrwt>0</asrwt>
<pdfrwt beam="1">  1        1 0.13148959E+00 0.20418868E+04</pdfrwt>
<pdfrwt beam="2">  1       -1 0.18762264E+00 0.20418868E+04</pdfrwt>
<totfact> 0.33686367E+00</totfact>
</mgrwt>
</event>
<event>
 6    1  0.1878398E-004  0.2952122E+04  0.7818608E-02  0.8257537E-01
         -2   -1    0    0    0  501 -0.00000000000E+00  0.00000000000E+00  0.45385172638E+03  0.45385172638E+03  0.00000000000E+00 0. -1.
          2   -1    0    0  501    0  0.00000000000E+00 -0.00000000000E+00 -0.48005888022E+04  0.48005888022E+04  0.00000000000E+00 0.  1.
         23    2    1    2    0    0 -0.12690348182E+04  0.62630876901E+03 -0.14375679629E+04  0.20193243063E+04  0.91416421830E+02 0.  0.
         11    1    3    3    0    0 -0.79995802885E+03  0.40525089814E+03 -0.84880030118E+03  0.12347562875E+04  0.00000000000E+00 0. -1.
        -11    1    3    3    0    0 -0.46907678936E+03  0.22105787087E+03 -0.58876766174E+03  0.78456801879E+03  0.00000000000E+00 0.  1.
         22    1    1    2    0    0  0.12690348182E+04 -0.62630876901E+03 -0.29091691129E+04  0.32351162222E+04  0.00000000000E+00 0.  1.
<mgrwt>
<rscale>  0 0.29521216E+04</rscale>
<asrwt>0</asrwt>
<pdfrwt beam="1">  1        2 0.73855211E+00 0.29521216E+04</pdfrwt>
<pdfrwt beam="2">  1       -2 0.69823344E-01 0.29521216E+04</pdfrwt>
<totfact> 0.95470281E-02</totfact>
</mgrwt>
</event>
<event>
 6    1  0.1878398E-004  0.4281944E+04  0.7818608E-02  0.7949965E-01
         -2   -1    0    0    0  501 -0.00000000000E+00  0.00000000000E+00  0.18648518818E+04  0.18648518818E+04  0.00000000000E+00 0. -1.
          2   -1    0    0  501    0  0.00000000000E+00 -0.00000000000E+00 -0.24579764685E+04  0.24579764685E+04  0.00000000000E+00 0.  1.
         23    2    1    2    0    0  0.11181554482E+04  0.74040771454E+03 -0.19802761749E+04  0.23934075256E+04  0.91818651393E+02 0.  0.
         13    1    3    3    0    0  0.49050930064E+03  0.28443872479E+03 -0.89064721875E+03  0.10558206431E+04  0.00000000000E+00 0. -1.
        -13    1    3    3    0    0  0.62764614755E+03  0.45596898975E+03 -0.10896289562E+04  0.13375868825E+04  0.00000000000E+00 0.  1.
         22    1    1    2    0    0 -0.11181554482E+04 -0.74040771454E+03  0.13871515882E+04  0.19294208247E+04  0.00000000000E+00 0. -1.
<mgrwt>
<rscale>  0 0.42819444E+04</rscale>
<asrwt>0</asrwt>
<pdfrwt beam="1">  1        2 0.37815023E+00 0.42819444E+04</pdfrwt>
<pdfrwt beam="2">  1       -2 0.28690029E+00 0.42819444E+04</pdfrwt>
<totfact> 0.10851348E-01</totfact>
</mgrwt>
</event>
<event>
 6    1  0.1878398E-004  0.1335264E+04  0.7818608E-02  0.9002059E-01
          1   -1    0    0  501    0  0.00000000000E+00  0.00000000000E+00  0.16521924908E+04  0.16521924908E+04  0.00000000000E+00 0. -1.
         -1   -1    0    0    0  501 -0.00000000000E+00 -0.00000000000E+00 -0.26978246130E+03  0.26978246130E+03  0.00000000000E+00 0.  1.
         23    2    1    2    0    0 -0.31385789694E+03 -0.15123228360E+03 -0.12056671435E+03  0.37914732867E+03  0.88534632527E+02 0.  0.
         11    1    3    3    0    0 -0.10727788909E+03 -0.71661475645E+01 -0.40096030575E+02  0.11475012343E+03  0.00000000000E+00 0. -1.
        -11    1    3    3    0    0 -0.20658000785E+03 -0.14406613603E+03 -0.80470683779E+02  0.26439720524E+03  0.00000000000E+00 0.  1.
         22    1    1    2    0    0  0.31385789694E+03  0.15123228360E+03  0.15029767439E+04  0.15428276235E+04  0.00000000000E+00 0.  1.
<mgrwt>
<rscale>  0 0.13352641E+04</rscale>
<asrwt>0</asrwt>
<pdfrwt beam="1">  1        1 0.25418345E+00 0.13352641E+04</pdfrwt>
<pdfrwt beam="2">  1       -1 0.41504995E-01 0.13352641E+04</pdfrwt>
<totfact> 0.28658436E+01</totfact>
</mgrwt>
</event>
<event>
 6    1  0.1878398E-004  0.3047826E+04  0.7818608E-02  0.8230204E-01
         -2   -1    0    0    0  501 -0.00000000000E+00  0.00000000000E+00  0.69837997378E+03  0.69837997378E+03  0.00000000000E+00 0. -1.
          2   -1    0    0  501    0  0.00000000000E+00 -0.00000000000E+00 -0.33252826682E+04  0.33252826682E+04  0.00000000000E+00 0.  1.
         23    2    1    2    0    0  0.12752284383E+04 -0.63643349439E+03 -0.60746020599E+03  0.15519419606E+04  0.90888857364E+02 0.  0.
         13    1    3    3    0    0  0.79403195150E+03 -0.44411572470E+03 -0.39656761466E+03  0.99246732437E+03  0.00000000000E+00 0.  1.
        -13    1    3    3    0    0  0.48119648684E+03 -0.19231776969E+03 -0.21089259132E+03  0.55947463621E+03  0.00000000000E+00 0. -1.
         22    1    1    2    0    0 -0.12752284383E+04  0.63643349439E+03 -0.20194424884E+04  0.24717206814E+04  0.00000000000E+00 0.  1.
<mgrwt>
<rscale>  0 0.30478260E+04</rscale>
<asrwt>0</asrwt>
<pdfrwt beam="1">  1        2 0.51158194E+00 0.30478260E+04</pdfrwt>
<pdfrwt beam="2">  1       -2 0.10744307E+00 0.30478260E+04</pdfrwt>
<totfact> 0.63472197E-01</totfact>
</mgrwt>
</event>
<event>
 6    1  0.2772987E-004  0.2414484E+04  0.7818608E-02  0.8434101E-01
         -1   -1    0    0    0  501 -0.00000000000E+00  0.00000000000E+00  0.81180489547E+03  0.81180489547E+03  0.00000000000E+00 0. -1.
          1   -1    0    0  501    0  0.00000000000E+00 -0.00000000000E+00 -0.17953000233E+04  0.17953000233E+04  0.00000000000E+00 0.  1.
         23    2    1    2    0    0 -0.19355298721E+03  0.36617515253E+03  0.72984106187E+03  0.84441722660E+03  0.93944003593E+02 0.  0.
         11    1    3    3    0    0 -0.12219240130E+03  0.17696387350E+03  0.45434832926E+03  0.50267245773E+03  0.00000000000E+00 0. -1.
        -11    1    3    3    0    0 -0.71360585912E+02  0.18921127902E+03  0.27549273260E+03  0.34174476887E+03  0.00000000000E+00 0.  1.
         22    1    1    2    0    0  0.19355298721E+03 -0.36617515253E+03 -0.17133361897E+04  0.17626876922E+04  0.00000000000E+00 0.  1.
<mgrwt>
<rscale>  0 0.24144841E+04</rscale>
<asrwt>0</asrwt>
<pdfrwt beam="1">  1        1 0.27620000E+00 0.24144841E+04</pdfrwt>
<pdfrwt beam="2">  1       -1 0.12489306E+00 0.24144841E+04</pdfrwt>
<totfact> 0.20598225E+00</totfact>
</mgrwt>
</event>
<event>
 6    1  0.1878398E-004  0.1032845E+04  0.7818608E-02  0.9273237E-01
         -2   -1    0    0    0  501 -0.00000000000E+00  0.00000000000E+00  0.12919376233E+03  0.12919376233E+03  0.00000000000E+00 0. -1.
          2   -1    0    0  501    0  0.00000000000E+00 -0.00000000000E+00 -0.20642798618E+04  0.20642798618E+04  0.00000000000E+00 0.  1.
         23    2    1    2    0    0 -0.52024087777E+02  0.16610570889E+03 -0.19985844565E+04  0.20081909924E+04  0.90518616979E+02 0.  0.
         13    1    3    3    0    0 -0.38276439519E+02  0.13225282103E+03 -0.10611162541E+04  0.10700110276E+04  0.00000000000E+00 0.  1.
        -13    1    3    3    0    0 -0.13747648258E+02  0.33852887858E+02 -0.93746820247E+03  0.93817996487E+03  0.00000000000E+00 0. -1.
         22    1    1    2    0    0  0.52024087777E+02 -0.16610570889E+03  0.63498357095E+02  0.18528263165E+03  0.00000000000E+00 0. -1.
<mgrwt>
<rscale>  0 0.10328448E+04</rscale>
<asrwt>0</asrwt>
<pdfrwt beam="1">  1        2 0.31758149E+00 0.10328448E+04</pdfrwt>
<pdfrwt beam="2">  1       -2 0.19875965E-01 0.10328448E+04</pdfrwt>
<totfact> 0.13301938E+02</totfact>
</mgrwt>
</event>
<event>
 6    1  0.1878398E-004  0.5521857E+04  0.7818608E-02  0.7752689E-01
         -2   -1    0    0    0  501 -0.00000000000E+00  0.00000000000E+00  0.18756609424E+04  0.18756609424E+04  0.00000000000E+00 0. -1.
          2   -1    0    0  501    0  0.00000000000E+00 -0.00000000000E+00 -0.40640209784E+04  0.40640209784E+04  0.00000000000E+00 0.  1.
         23    2    1    2    0    0  0.87819222668E+03 -0.25529466240E+04 -0.47661054554E+03  0.27429891971E+04  0.89855835758E+02 0.  0.
         11    1    3    3    0    0  0.42575678742E+03 -0.11037436347E+04 -0.21830926199E+03  0.12029870269E+04  0.00000000000E+00 0.  1.
        -11    1    3    3    0    0  0.45243543926E+03 -0.14492029893E+04 -0.25830128355E+03  0.15400021701E+04  0.00000000000E+00 0. -1.
         22    1    1    2    0    0 -0.87819222668E+03  0.25529466240E+04 -0.17117494905E+04  0.31966927237E+04  0.00000000000E+00 0.  1.
<mgrwt>
<rscale>  0 0.55218567E+04</rscale>
<asrwt>0</asrwt>
<pdfrwt beam="1">  1        2 0.62523398E+00 0.55218567E+04</pdfrwt>
<pdfrwt beam="2">  1       -2 0.28856323E+00 0.55218567E+04</pdfrwt>
<totfact> 0.78642264E-03</totfact>
</mgrwt>
</event>
<event>
 6    1  0.1878398E-004  0.4353561E+04  0.7818608E-02  0.7936788E-01
         -2   -1    0    0    0  501 -0.00000000000E+00  0.00000000000E+00  0.12884935297E+04  0.12884935297E+04  0.00000000000E+00 0. -1.
          2   -1    0    0  501    0  0.00000000000E+00 -0.00000000000E+00 -0.36774520549E+04  0.36774520549E+04  0.00000000000E+00 0.  1.
         23    2    1    2    0    0  0.33188460745E+03  0.88102534013E+03  0.10425374784E+04  0.14076429183E+04  0.90670551164E+02 0.  0.
         11    1    3    3    0    0  0.15365743869E+03  0.51033738754E+03  0.54835577364E+03  0.76468876811E+03  0.00000000000E+00 0. -1.
        -11    1    3    3    0    0  0.17822716876E+03  0.37068795259E+03  0.49418170475E+03  0.64295415014E+03  0.00000000000E+00 0.  1.
         22    1    1    2    0    0 -0.33188460745E+03 -0.88102534013E+03 -0.34314960036E+04  0.35583026663E+04  0.00000000000E+00 0.  1.
<mgrwt>
<rscale>  0 0.43535609E+04</rscale>
<asrwt>0</asrwt>
<pdfrwt beam="1">  1        2 0.56576186E+00 0.43535609E+04</pdfrwt>
<pdfrwt beam="2">  1       -2 0.19822977E+00 0.43535609E+04</pdfrwt>
<totfact> 0.63363980E-02</totfact>
</mgrwt>
</event>
<event>
 6    1  0.1878398E-004  0.1845744E+04  0.7818608E-02  0.8682344E-01
          1   -1    0    0  501    0  0.00000000000E+00  0.00000000000E+00  0.24912553745E+04  0.24912553745E+04  0.00000000000E+00 0.  1.
         -1   -1    0    0    0  501 -0.00000000000E+00 -0.00000000000E+00 -0.34187300816E+03  0.34187300816E+03  0.00000000000E+00 0. -1.
         23    2    1    2    0    0 -0.26432457778E+03 -0.27145622907E+03  0.23652950850E+04  0.23970386341E+04  0.87277760676E+02 0.  0.
         13    1    3    3    0    0 -0.19765285380E+03 -0.20091018260E+03  0.19668872193E+04  0.19869768206E+04  0.00000000000E+00 0.  1.
        -13    1    3    3    0    0 -0.66671723977E+02 -0.70546046477E+02  0.39840786572E+03  0.41006181354E+03  0.00000000000E+00 0. -1.
         22    1    1    2    0    0  0.26432457778E+03  0.27145622907E+03 -0.21591271866E+03  0.43608974856E+03  0.00000000000E+00 0. -1.
<mgrwt>
<rscale>  0 0.18457443E+04</rscale>
<asrwt>0</asrwt>
<pdfrwt beam="1">  1        1 0.38327005E+00 0.18457443E+04</pdfrwt>
<pdfrwt beam="2">  1       -1 0.52595849E-01 0.18457443E+04</pdfrwt>
<totfact> 0.47081613E+00</totfact>
</mgrwt>
</event>
<event>
 6    1  0.1878398E-004  0.3858415E+04  0.7818608E-02  0.8033734E-01
          1   -1    0    0  501    0  0.00000000000E+00  0.00000000000E+00  0.29737637091E+04  0.29737637091E+04  0.00000000000E+00 0.  1.
         -1   -1    0    0    0  501 -0.00000000000E+00 -0.00000000000E+00 -0.12515592663E+04  0.12515592663E+04  0.00000000000E+00 0. -1.
         23    2    1    2    0    0  0.66536810684E+03  0.56271613807E+03  0.27451189654E+04  0.28815527978E+04  0.91127507217E+02 0.  0.
         13    1    3    3    0    0  0.32201697279E+03  0.27740951933E+03  0.11899703033E+04  0.12635981540E+04  0.00000000000E+00 0.  1.
        -13    1    3    3    0    0  0.34335113405E+03  0.28530661874E+03  0.15551486621E+04  0.16179546438E+04  0.00000000000E+00 0. -1.
         22    1    1    2    0    0 -0.66536810684E+03 -0.56271613807E+03 -0.10229145226E+04  0.13437701776E+04  0.00000000000E+00 0. -1.
<mgrwt>
<rscale>  0 0.38584150E+04</rscale>
<asrwt>0</asrwt>
<pdfrwt beam="1">  1        1 0.45750210E+00 0.38584150E+04</pdfrwt>
<pdfrwt beam="2">  1       -1 0.19254758E+00 0.38584150E+04</pdfrwt>
<totfact> 0.83829666E-02</totfact>
</mgrwt>
</event>
<event>
 6    1  0.1878398E-004  0.1867878E+04  0.7818608E-02  0.8671013E-01
          2   -1    0    0  501    0  0.00000000000E+00  0.00000000000E+00  0.10007425008E+04  0.10007425008E+04  0.00000000000E+00 0.  1.
         -2   -1    0    0    0  501 -0.00000000000E+00 -0.00000000000E+00 -0.87159446503E+03  0.87159446503E+03  0.00000000000E+00 0. -1.
         23    2    1    2    0    0 -0.52959282011E+03 -0.17872984577E+03 -0.68252953620E+03  0.88682522378E+03  0.90551073230E+02 0.  0.
         13    1    3    3    0    0 -0.57075116700E+02 -0.50955867606E+02 -0.83894848827E+02  0.11354477112E+03  0.00000000000E+00 0. -1.
        -13    1    3    3    0    0 -0.47251770341E+03 -0.12777397816E+03 -0.59863468737E+03  0.77328045265E+03  0.00000000000E+00 0.  1.
         22    1    1    2    0    0  0.52959282011E+03  0.17872984577E+03  0.81167757197E+03  0.98551174205E+03  0.00000000000E+00 0.  1.
<mgrwt>
<rscale>  0 0.18678775E+04</rscale>
<asrwt>0</asrwt>
<pdfrwt beam="1">  1        2 0.15396039E+00 0.18678775E+04</pdfrwt>
<pdfrwt beam="2">  1       -2 0.13409146E+00 0.18678775E+04</pdfrwt>
<totfact> 0.94825299E+00</totfact>
</mgrwt>
</event>
<event>
 6    1  0.1878398E-004  0.9828919E+03  0.7818608E-02  0.9327510E-01
          2   -1    0    0  501    0  0.00000000000E+00  0.00000000000E+00  0.12730606560E+04  0.12730606560E+04  0.00000000000E+00 0.  1.
         -2   -1    0    0    0  501 -0.00000000000E+00 -0.00000000000E+00 -0.18971533081E+03  0.18971533081E+03  0.00000000000E+00 0. -1.
         23    2    1    2    0    0  0.22192056919E+03  0.38223260840E+03  0.23939057680E+03  0.51009024468E+03  0.86796909514E+02 0.  0.
         13    1    3    3    0    0  0.10186167182E+03  0.11736953564E+03  0.50848036252E+02  0.16351431397E+03  0.00000000000E+00 0.  1.
        -13    1    3    3    0    0  0.12005889737E+03  0.26486307276E+03  0.18854254055E+03  0.34657593071E+03  0.00000000000E+00 0. -1.
         22    1    1    2    0    0 -0.22192056919E+03 -0.38223260840E+03  0.84395474843E+03  0.95268574218E+03  0.00000000000E+00 0.  1.
<mgrwt>
<rscale>  0 0.98289190E+03</rscale>
<asrwt>0</asrwt>
<pdfrwt beam="1">  1        2 0.19585548E+00 0.98289190E+03</pdfrwt>
<pdfrwt beam="2">  1       -2 0.29186975E-01 0.98289190E+03</pdfrwt>
<totfact> 0.18461635E+02</totfact>
</mgrwt>
</event>
<event>
 6    1  0.1878398E-004  0.1598721E+04  0.7818608E-02  0.8821334E-01
          1   -1    0    0  501    0  0.00000000000E+00  0.00000000000E+00  0.99571257736E+03  0.99571257736E+03  0.00000000000E+00 0.  1.
         -1   -1    0    0    0  501 -0.00000000000E+00 -0.00000000000E+00 -0.64172834879E+03  0.64172834879E+03  0.00000000000E+00 0. -1.
         23    2    1    2    0    0 -0.13903739066E+03 -0.38090849905E+03  0.88010168712E+03  0.97319529324E+03  0.90041204273E+02 0.  0.
         11    1    3    3    0    0 -0.13852071067E+03 -0.31771206599E+03  0.79433911023E+03  0.86666231382E+03  0.00000000000E+00 0.  1.
        -11    1    3    3    0    0 -0.51667999834E+00 -0.63196433054E+02  0.85762576895E+02  0.10653297942E+03  0.00000000000E+00 0. -1.
         22    1    1    2    0    0  0.13903739066E+03  0.38090849905E+03 -0.52611745855E+03  0.66424563291E+03  0.00000000000E+00 0. -1.
<mgrwt>
<rscale>  0 0.15987207E+04</rscale>
<asrwt>0</asrwt>
<pdfrwt beam="1">  1        1 0.15318655E+00 0.15987207E+04</pdfrwt>
<pdfrwt beam="2">  1       -1 0.98727437E-01 0.15987207E+04</pdfrwt>
<totfact> 0.14364456E+01</totfact>
</mgrwt>
</event>
<event>
 6    1  0.1878398E-004  0.3937012E+04  0.7818608E-02  0.8017375E-01
          1   -1    0    0  501    0  0.00000000000E+00  0.00000000000E+00  0.20925548624E+04  0.20925548624E+04  0.00000000000E+00 0. -1.
         -1   -1    0    0    0  501 -0.00000000000E+00 -0.00000000000E+00 -0.18518106617E+04  0.18518106617E+04  0.00000000000E+00 0.  1.
         23    2    1    2    0    0 -0.23092918398E+03  0.12511758628E+04 -0.13830231698E+04  0.18815059068E+04  0.92423273180E+02 0.  0.
         11    1    3    3    0    0 -0.16802790845E+03  0.65963643843E+03 -0.74893294065E+03  0.10120544247E+04  0.00000000000E+00 0.  1.
        -11    1    3    3    0    0 -0.62901275533E+02  0.59153942433E+03 -0.63409022916E+03  0.86945148209E+03  0.00000000000E+00 0. -1.
         22    1    1    2    0    0  0.23092918398E+03 -0.12511758628E+04  0.16237673705E+04  0.20628596174E+04  0.00000000000E+00 0. -1.
<mgrwt>
<rscale>  0 0.39370118E+04</rscale>
<asrwt>0</asrwt>
<pdfrwt beam="1">  1        1 0.32193152E+00 0.39370118E+04</pdfrwt>
<pdfrwt beam="2">  1       -1 0.28489395E+00 0.39370118E+04</pdfrwt>
<totfact> 0.83925809E-02</totfact>
</mgrwt>
</event>
<event>
 6    1  0.1878398E-004  0.3485404E+03  0.7818608E-02  0.1063216E+00
          1   -1    0    0  501    0  0.00000000000E+00  0.00000000000E+00  0.17957989965E+03  0.17957989965E+03  0.00000000000E+00 0.  1.
         -1   -1    0    0    0  501 -0.00000000000E+00 -0.00000000000E+00 -0.16911753803E+03  0.16911753803E+03  0.00000000000E+00 0. -1.
         23    2    1    2    0    0  0.79495404828E+02  0.13267138115E+03 -0.44885699837E+02  0.18442746882E+03  0.89875193694E+02 0.  0.
         13    1    3    3    0    0  0.43343524753E+02  0.83922288314E+02  0.18959832345E+02  0.96338397623E+02  0.00000000000E+00 0. -1.
        -13    1    3    3    0    0  0.36151880075E+02  0.48749092831E+02 -0.63845532182E+02  0.88089071198E+02  0.00000000000E+00 0.  1.
         22    1    1    2    0    0 -0.79495404828E+02 -0.13267138115E+03  0.55348061453E+02  0.16426996886E+03  0.00000000000E+00 0.  1.
<mgrwt>
<rscale>  0 0.34854045E+03</rscale>
<asrwt>0</asrwt>
<pdfrwt beam="1">  1        1 0.27627677E-01 0.34854045E+03</pdfrwt>
<pdfrwt beam="2">  1       -1 0.26018083E-01 0.34854045E+03</pdfrwt>
<totfact> 0.21982002E+03</totfact>
</mgrwt>
</event>
<event>
 6    1  0.1878398E-004  0.3917879E+04  0.7818608E-02  0.8021321E-01
          2   -1    0    0  501    0  0.00000000000E+00  0.00000000000E+00  0.15926013557E+04  0.15926013557E+04  0.00000000000E+00 0.  1.
         -2   -1    0    0    0  501 -0.00000000000E+00 -0.00000000000E+00 -0.24095442183E+04  0.24095442183E+04  0.00000000000E+00 0. -1.
         23    2    1    2    0    0  0.61486464831E+03  0.12942830327E+04  0.95426940911E+03  0.17238962426E+04  0.89224692116E+02 0.  0.
         11    1    3    3    0    0  0.13822904639E+03  0.37691448526E+03  0.28575672015E+03  0.49277652296E+03  0.00000000000E+00 0. -1.
        -11    1    3    3    0    0  0.47663560192E+03  0.91736854742E+03  0.66851268896E+03  0.12311197197E+04  0.00000000000E+00 0.  1.
         22    1    1    2    0    0 -0.61486464831E+03 -0.12942830327E+04 -0.17712122717E+04  0.22782493314E+04  0.00000000000E+00 0. -1.
<mgrwt>
<rscale>  0 0.39178787E+04</rscale>
<asrwt>0</asrwt>
<pdfrwt beam="1">  1        2 0.24501560E+00 0.39178787E+04</pdfrwt>
<pdfrwt beam="2">  1       -2 0.37069911E+00 0.39178787E+04</pdfrwt>
<totfact> 0.10269294E-01</totfact>
</mgrwt>
</event>
<event>
 6    1  0.1878398E-004  0.1234426E+04  0.7818608E-02  0.9083246E-01
          1   -1    0    0  501    0  0.00000000000E+00  0.00000000000E+00  0.93148821171E+03  0.93148821171E+03  0.00000000000E+00 0. -1.
         -1   -1    0    0    0  501 -0.00000000000E+00 -0.00000000000E+00 -0.40897137809E+03  0.40897137809E+03  0.00000000000E+00 0.  1.
         23    2    1    2    0    0 -0.16616500929E+03 -0.23856910510E+02  0.90417586046E+03  0.92351405947E+03  0.84642004433E+02 0.  0.
         11    1    3    3    0    0  0.69500508002E+01 -0.26136251824E+01  0.11755374574E+03  0.11778801883E+03  0.00000000000E+00 0. -1.
        -11    1    3    3    0    0 -0.17311506009E+03 -0.21243285327E+02  0.78662211471E+03  0.80572604064E+03  0.00000000000E+00 0.  1.
         22    1    1    2    0    0  0.16616500929E+03  0.23856910510E+02 -0.38165902684E+03  0.41694553032E+03  0.00000000000E+00 0.  1.
<mgrwt>
<rscale>  0 0.12344262E+04</rscale>
<asrwt>0</asrwt>
<pdfrwt beam="1">  1        1 0.14330588E+00 0.12344262E+04</pdfrwt>
<pdfrwt beam="2">  1       -1 0.62918674E-01 0.12344262E+04</pdfrwt>
<totfact> 0.43392389E+01</totfact>
</mgrwt>
</event>
<event>
 6    1  0.1878398E-004  0.2119928E+04  0.7818608E-02  0.8552515E-01
          1   -1    0    0  501    0  0.00000000000E+00  0.00000000000E+00  0.16506926162E+04  0.16506926162E+04  0.00000000000E+00 0.  1.
         -1   -1    0    0    0  501 -0.00000000000E+00 -0.00000000000E+00 -0.68063760635E+03  0.68063760635E+03  0.00000000000E+00 0. -1.
         23    2    1    2    0    0  0.32592254401E+03 -0.23378334489E+03  0.15625691987E+04  0.16158211582E+04  0.91516978449E+02 0.  0.
         11    1    3    3    0    0  0.93129901736E+02 -0.95091016201E+02  0.66717532371E+03  0.68032227108E+03  0.00000000000E+00 0.  1.
        -11    1    3    3    0    0  0.23279264227E+03 -0.13869232869E+03  0.89539387504E+03  0.93549888711E+03  0.00000000000E+00 0. -1.
         22    1    1    2    0    0 -0.32592254401E+03  0.23378334489E+03 -0.59251418893E+03  0.71550906432E+03  0.00000000000E+00 0. -1.
<mgrwt>
<rscale>  0 0.21199278E+04</rscale>
<asrwt>0</asrwt>
<pdfrwt beam="1">  1        1 0.25395271E+00 0.21199278E+04</pdfrwt>
<pdfrwt beam="2">  1       -1 0.10471348E+00 0.21199278E+04</pdfrwt>
<totfact> 0.40513383E+00</totfact>
</mgrwt>
</event>
<event>
 6    1  0.1878398E-004  0.1803080E+04  0.7818608E-02  0.8704663E-01
         -2   -1    0    0    0  501 -0.00000000000E+00  0.00000000000E+00  0.30524329595E+03  0.30524329595E+03  0.00000000000E+00 0. -1.
          2   -1    0    0  501    0  0.00000000000E+00 -0.00000000000E+00 -0.26627092655E+04  0.26627092655E+04  0.00000000000E+00 0.  1.
         23    2    1    2    0    0  0.30442662992E+03 -0.44180285322E+03  0.61169376493E+01  0.54423857392E+03  0.91065219992E+02 0.  0.
         13    1    3    3    0    0  0.47352686715E+02 -0.22677479107E+02 -0.69666320650E+00  0.52507431259E+02  0.00000000000E+00 0.  1.
        -13    1    3    3    0    0  0.25707394320E+03 -0.41912537412E+03  0.68136008558E+01  0.49173114266E+03  0.00000000000E+00 0. -1.
         22    1    1    2    0    0 -0.30442662992E+03  0.44180285322E+03 -0.23635829072E+04  0.24237139875E+04  0.00000000000E+00 0.  1.
<mgrwt>
<rscale>  0 0.18030798E+04</rscale>
<asrwt>0</asrwt>
<pdfrwt beam="1">  1        2 0.40964759E+00 0.18030798E+04</pdfrwt>
<pdfrwt beam="2">  1       -2 0.46960506E-01 0.18030798E+04</pdfrwt>
<totfact> 0.11358597E+01</totfact>
</mgrwt>
</event>
<event>
 6    1  0.1878398E-004  0.1625047E+04  0.7818608E-02  0.8805307E-01
         -2   -1    0    0    0  501 -0.00000000000E+00  0.00000000000E+00  0.10640990166E+04  0.10640990166E+04  0.00000000000E+00 0. -1.
          2   -1    0    0  501    0  0.00000000000E+00 -0.00000000000E+00 -0.62042570119E+03  0.62042570119E+03  0.00000000000E+00 0.  1.
         23    2    1    2    0    0  0.67475338814E+03 -0.29172852980E+03  0.57515824920E+03  0.93774097556E+03  0.90296487833E+02 0.  0.
         13    1    3    3    0    0  0.29201062920E+03 -0.10628269327E+03  0.29486179298E+03  0.42838031633E+03  0.00000000000E+00 0. -1.
        -13    1    3    3    0    0  0.38274275893E+03 -0.18544583653E+03  0.28029645622E+03  0.50936065923E+03  0.00000000000E+00 0.  1.
         22    1    1    2    0    0 -0.67475338814E+03  0.29172852980E+03 -0.13148493376E+03  0.74678374226E+03  0.00000000000E+00 0. -1.
<mgrwt>
<rscale>  0 0.16250469E+04</rscale>
<asrwt>0</asrwt>
<pdfrwt beam="1">  1        2 0.95450108E-01 0.16250469E+04</pdfrwt>
<pdfrwt beam="2">  1       -2 0.16370754E+00 0.16250469E+04</pdfrwt>
<totfact> 0.10772858E+01</totfact>
</mgrwt>
</event>
<event>
 6    1  0.1878398E-004  0.2039998E+04  0.7818608E-02  0.8588145E-01
          1   -1    0    0  501    0  0.00000000000E+00  0.00000000000E+00  0.85364737264E+03  0.85364737264E+03  0.00000000000E+00 0. -1.
         -1   -1    0    0    0  501 -0.00000000000E+00 -0.00000000000E+00 -0.12187676800E+04  0.12187676800E+04  0.00000000000E+00 0.  1.
         23    2    1    2    0    0 -0.67728259623E+03  0.17188007882E+03  0.56915775111E+03  0.90574030483E+03  0.90390693670E+02 0.  0.
         11    1    3    3    0    0 -0.18037284053E+03  0.55968341726E+02  0.20588613980E+03  0.27938489479E+03  0.00000000000E+00 0. -1.
        -11    1    3    3    0    0 -0.49690975569E+03  0.11591173710E+03  0.36327161131E+03  0.62635541004E+03  0.00000000000E+00 0.  1.
         22    1    1    2    0    0  0.67728259623E+03 -0.17188007882E+03 -0.93427805852E+03  0.11666747479E+04  0.00000000000E+00 0.  1.
<mgrwt>
<rscale>  0 0.20399979E+04</rscale>
<asrwt>0</asrwt>
<pdfrwt beam="1">  1        1 0.13133037E+00 0.20399979E+04</pdfrwt>
<pdfrwt beam="2">  1       -1 0.18750272E+00 0.20399979E+04</pdfrwt>
<totfact> 0.33825514E+00</totfact>
</mgrwt>
</event>
<event>
 6    1  0.1878398E-004  0.5869228E+04  0.7818608E-02  0.7706831E-01
          2   -1    0    0  501    0  0.00000000000E+00  0.00000000000E+00  0.32496436374E+04  0.32496436374E+04  0.00000000000E+00 0.  1.
         -2   -1    0    0    0  501 -0.00000000000E+00 -0.00000000000E+00 -0.26501242277E+04  0.26501242277E+04  0.00000000000E+00 0. -1.
         23    2    1    2    0    0 -0.28150544357E+04 -0.50645137106E+03  0.95663975180E+03  0.30173106831E+04  0.89329032369E+02 0.  0.
         11    1    3    3    0    0 -0.23333486289E+04 -0.41639298126E+03  0.75710665160E+03  0.24881940078E+04  0.00000000000E+00 0. -1.
        -11    1    3    3    0    0 -0.48170580687E+03 -0.90058389802E+02  0.19953310020E+03  0.52911667524E+03  0.00000000000E+00 0.  1.
         22    1    1    2    0    0  0.28150544357E+04  0.50645137106E+03 -0.35712034205E+03  0.28824571820E+04  0.00000000000E+00 0. -1.
<mgrwt>
<rscale>  0 0.58692280E+04</rscale>
<asrwt>0</asrwt>
<pdfrwt beam="1">  1        2 0.49994517E+00 0.58692280E+04</pdfrwt>
<pdfrwt beam="2">  1       -2 0.40771142E+00 0.58692280E+04</pdfrwt>
<totfact> 0.54063964E-03</totfact>
</mgrwt>
</event>
<event>
 6    1  0.1878398E-004  0.3333097E+04  0.7818608E-02  0.8154525E-01
         -2   -1    0    0    0  501 -0.00000000000E+00  0.00000000000E+00  0.15587234606E+04  0.15587234606E+04  0.00000000000E+00 0.  1.
          2   -1    0    0  501    0  0.00000000000E+00 -0.00000000000E+00 -0.17818325150E+04  0.17818325150E+04  0.00000000000E+00 0. -1.
         23    2    1    2    0    0  0.49732842331E+03  0.37313621499E+03 -0.16599678496E+04  0.17749476616E+04  0.91540941522E+02 0.  0.
         11    1    3    3    0    0  0.26454669058E+03  0.23319709256E+03 -0.83491625746E+03  0.90633933626E+03  0.00000000000E+00 0. -1.
        -11    1    3    3    0    0  0.23278173274E+03  0.13993912243E+03 -0.82505159217E+03  0.86860832532E+03  0.00000000000E+00 0.  1.
         22    1    1    2    0    0 -0.49732842331E+03 -0.37313621499E+03  0.14368587952E+04  0.15656083140E+04  0.00000000000E+00 0.  1.
<mgrwt>
<rscale>  0 0.33330971E+04</rscale>
<asrwt>0</asrwt>
<pdfrwt beam="1">  1        2 0.27412808E+00 0.33330971E+04</pdfrwt>
<pdfrwt beam="2">  1       -2 0.23980361E+00 0.33330971E+04</pdfrwt>
<totfact> 0.54648895E-01</totfact>
</mgrwt>
</event>
<event>
 6    1  0.1878398E-004  0.4127536E+04  0.7818608E-02  0.7979301E-01
         -2   -1    0    0    0  501 -0.00000000000E+00  0.00000000000E+00  0.14684144523E+04  0.14684144523E+04  0.00000000000E+00 0. -1.
          2   -1    0    0  501    0  0.00000000000E+00 -0.00000000000E+00 -0.29005018613E+04  0.29005018613E+04  0.00000000000E+00 0.  1.
         23    2    1    2    0    0  0.86131303951E+03  0.20413742936E+03  0.12557181240E+04  0.15391052200E+04  0.92112047075E+02 0.  0.
         11    1    3    3    0    0  0.29186561567E+03  0.94126870517E+02  0.37266543452E+03  0.48262297028E+03  0.00000000000E+00 0. -1.
        -11    1    3    3    0    0  0.56944742385E+03  0.11001055884E+03  0.88305268947E+03  0.10564822497E+04  0.00000000000E+00 0.  1.
         22    1    1    2    0    0 -0.86131303951E+03 -0.20413742936E+03 -0.26878055330E+04  0.28298110935E+04  0.00000000000E+00 0.  1.
<mgrwt>
<rscale>  0 0.41275362E+04</rscale>
<asrwt>0</asrwt>
<pdfrwt beam="1">  1        2 0.44623105E+00 0.41275362E+04</pdfrwt>
<pdfrwt beam="2">  1       -2 0.22590992E+00 0.41275362E+04</pdfrwt>
<totfact> 0.14212411E-01</totfact>
</mgrwt>
</event>
<event>
 6    1  0.1878398E-004  0.2174032E+04  0.7818608E-02  0.8529315E-01
          1   -1    0    0  501    0  0.00000000000E+00  0.00000000000E+00  0.11657061977E+04  0.11657061977E+04  0.00000000000E+00 0.  1.
         -1   -1    0    0    0  501 -0.00000000000E+00 -0.00000000000E+00 -0.10136373944E+04  0.10136373944E+04  0.00000000000E+00 0. -1.
         23    2    1    2    0    0  0.70278260949E+02  0.36940453489E+03  0.10965044365E+04  0.11628017043E+04  0.91581002280E+02 0.  0.
         11    1    3    3    0    0  0.91040115226E+02  0.30246702306E+03  0.86214568930E+03  0.91818832066E+03  0.00000000000E+00 0. -1.
        -11    1    3    3    0    0 -0.20761854277E+02  0.66937511829E+02  0.23435874719E+03  0.24461338366E+03  0.00000000000E+00 0.  1.
         22    1    1    2    0    0 -0.70278260949E+02 -0.36940453489E+03 -0.94443563321E+03  0.10165418878E+04  0.00000000000E+00 0. -1.
<mgrwt>
<rscale>  0 0.21740316E+04</rscale>
<asrwt>0</asrwt>
<pdfrwt beam="1">  1        1 0.17933942E+00 0.21740316E+04</pdfrwt>
<pdfrwt beam="2">  1       -1 0.15594421E+00 0.21740316E+04</pdfrwt>
<totfact> 0.32479475E+00</totfact>
</mgrwt>
</event>
<event>
 6    1  0.1878398E-004  0.1343437E+04  0.7818608E-02  0.8995811E-01
          4   -1    0    0  501    0  0.00000000000E+00  0.00000000000E+00  0.23259243270E+03  0.23259243270E+03  0.00000000000E+00 0. -1.
         -4   -1    0    0    0  501 -0.00000000000E+00 -0.00000000000E+00 -0.19398988836E+04  0.19398988836E+04  0.00000000000E+00 0.  1.
         23    2    1    2    0    0 -0.51922237862E+03  0.14373300576E+03 -0.14981218936E+04  0.15945559961E+04  0.89378750439E+02 0.  0.
         13    1    3    3    0    0 -0.32178935842E+03  0.11808615514E+03 -0.84883565277E+03  0.91543142651E+03  0.00000000000E+00 0. -1.
        -13    1    3    3    0    0 -0.19743302019E+03  0.25646850615E+02 -0.64928624084E+03  0.67912456954E+03  0.00000000000E+00 0.  1.
         22    1    1    2    0    0  0.51922237862E+03 -0.14373300576E+03 -0.20918455732E+03  0.57793532028E+03  0.00000000000E+00 0. -1.
<mgrwt>
<rscale>  0 0.13434371E+04</rscale>
<asrwt>0</asrwt>
<pdfrwt beam="1">  1        4 0.35783452E-01 0.13434371E+04</pdfrwt>
<pdfrwt beam="2">  1       -4 0.29844598E+00 0.13434371E+04</pdfrwt>
<totfact> 0.47430933E-01</totfact>
</mgrwt>
</event>
<event>
 6    1  0.1878398E-004  0.2514598E+04  0.7818608E-02  0.8397803E-01
          2   -1    0    0  501    0  0.00000000000E+00  0.00000000000E+00  0.15326597063E+04  0.15326597063E+04  0.00000000000E+00 0.  1.
         -2   -1    0    0    0  501 -0.00000000000E+00 -0.00000000000E+00 -0.10314100115E+04  0.10314100115E+04  0.00000000000E+00 0. -1.
         23    2    1    2    0    0  0.62917613780E+03 -0.10837951974E+04  0.32982131270E+03  0.12992130727E+04  0.93262358392E+02 0.  0.
         11    1    3    3    0    0  0.39582236207E+03 -0.75265193875E+03  0.24936665050E+03  0.88619637192E+03  0.00000000000E+00 0. -1.
        -11    1    3    3    0    0  0.23335377573E+03 -0.33114325868E+03  0.80454662199E+02  0.41301670074E+03  0.00000000000E+00 0.  1.
         22    1    1    2    0    0 -0.62917613780E+03  0.10837951974E+04  0.17142838209E+03  0.12648566451E+04  0.00000000000E+00 0. -1.
<mgrwt>
<rscale>  0 0.25145978E+04</rscale>
<asrwt>0</asrwt>
<pdfrwt beam="1">  1        2 0.23579380E+00 0.25145978E+04</pdfrwt>
<pdfrwt beam="2">  1       -2 0.15867846E+00 0.25145978E+04</pdfrwt>
<totfact> 0.27927881E+00</totfact>
</mgrwt>
</event>
<event>
 6    1  0.1878398E-004  0.2814156E+04  0.7818608E-02  0.8298887E-01
         -1   -1    0    0    0  501 -0.00000000000E+00  0.00000000000E+00  0.17533647664E+04  0.17533647664E+04  0.00000000000E+00 0. -1.
          1   -1    0    0  501    0  0.00000000000E+00 -0.00000000000E+00 -0.11291826772E+04  0.11291826772E+04  0.00000000000E+00 0.  1.
         23    2    1    2    0    0 -0.12757534939E+04 -0.58955214088E+03  0.33601847829E+03  0.14479196275E+04  0.91891925403E+02 0.  0.
         11    1    3    3    0    0 -0.77649563789E+03 -0.31062463881E+03  0.21086328501E+03  0.86249432860E+03  0.00000000000E+00 0. -1.
        -11    1    3    3    0    0 -0.49925785601E+03 -0.27892750207E+03  0.12515519328E+03  0.58542529891E+03  0.00000000000E+00 0.  1.
         22    1    1    2    0    0  0.12757534939E+04  0.58955214088E+03  0.28816361093E+03  0.14346278161E+04  0.00000000000E+00 0.  1.
<mgrwt>
<rscale>  0 0.28141564E+04</rscale>
<asrwt>0</asrwt>
<pdfrwt beam="1">  1        1 0.17372041E+00 0.28141564E+04</pdfrwt>
<pdfrwt beam="2">  1       -1 0.26974843E+00 0.28141564E+04</pdfrwt>
<totfact> 0.54058168E-01</totfact>
</mgrwt>
</event>
<event>
 6    1  0.1878398E-004  0.4165563E+04  0.7818608E-02  0.7971955E-01
          2   -1    0    0  501    0  0.00000000000E+00  0.00000000000E+00  0.38877768731E+04  0.38877768731E+04  0.00000000000E+00 0.  1.
         -2   -1    0    0    0  501 -0.00000000000E+00 -0.00000000000E+00 -0.11157994149E+04  0.11157994149E+04  0.00000000000E+00 0. -1.
         23    2    1    2    0    0 -0.11405514013E+04 -0.36165789440E+03  0.34329460018E+04  0.36366332215E+04  0.91263382722E+02 0.  0.
         13    1    3    3    0    0 -0.73965498177E+03 -0.26129703586E+03  0.21400406726E+04  0.22792849128E+04  0.00000000000E+00 0. -1.
        -13    1    3    3    0    0 -0.40089641950E+03 -0.10036085854E+03  0.12929053291E+04  0.13573483087E+04  0.00000000000E+00 0.  1.
         22    1    1    2    0    0  0.11405514013E+04  0.36165789440E+03 -0.66096854359E+03  0.13669430665E+04  0.00000000000E+00 0. -1.
<mgrwt>
<rscale>  0 0.41655632E+04</rscale>
<asrwt>0</asrwt>
<pdfrwt beam="1">  1        2 0.59811951E+00 0.41655632E+04</pdfrwt>
<pdfrwt beam="2">  1       -2 0.17166145E+00 0.41655632E+04</pdfrwt>
<totfact> 0.67626387E-02</totfact>
</mgrwt>
</event>
<event>
 6    1  0.1878398E-004  0.2890775E+04  0.7818608E-02  0.8275627E-01
         -2   -1    0    0    0  501 -0.00000000000E+00  0.00000000000E+00  0.11804519423E+04  0.11804519423E+04  0.00000000000E+00 0. -1.
          2   -1    0    0  501    0  0.00000000000E+00 -0.00000000000E+00 -0.17697841932E+04  0.17697841932E+04  0.00000000000E+00 0.  1.
         23    2    1    2    0    0 -0.40128026803E+02  0.11792745415E+04  0.55444377709E+03  0.13069095384E+04  0.91136911901E+02 0.  0.
         13    1    3    3    0    0 -0.23227677597E+02  0.98634249233E+03  0.42690245451E+03  0.10750147640E+04  0.00000000000E+00 0. -1.
        -13    1    3    3    0    0 -0.16900349205E+02  0.19293204921E+03  0.12754132257E+03  0.23189477437E+03  0.00000000000E+00 0.  1.
         22    1    1    2    0    0  0.40128026803E+02 -0.11792745415E+04 -0.11437760279E+04  0.16433265971E+04  0.00000000000E+00 0.  1.
<mgrwt>
<rscale>  0 0.28907751E+04</rscale>
<asrwt>0</asrwt>
<pdfrwt beam="1">  1        2 0.27227449E+00 0.28907751E+04</pdfrwt>
<pdfrwt beam="2">  1       -2 0.18160799E+00 0.28907751E+04</pdfrwt>
<totfact> 0.13694052E+00</totfact>
</mgrwt>
</event>
<event>
 6    1  0.2117914E-004  0.3806020E+04  0.7818608E-02  0.8044864E-01
          1   -1    0    0  501    0  0.00000000000E+00  0.00000000000E+00  0.26047330533E+04  0.26047330533E+04  0.00000000000E+00 0.  1.
         -1   -1    0    0    0  501 -0.00000000000E+00 -0.00000000000E+00 -0.13903333533E+04  0.13903333533E+04  0.00000000000E+00 0. -1.
         23    2    1    2    0    0  0.77400913814E+03  0.16052914407E+03 -0.12082137141E+04  0.14467501967E+04  0.91902125860E+02 0.  0.
         13    1    3    3    0    0  0.47574434247E+03  0.53568005908E+02 -0.71146118080E+03  0.85754254847E+03  0.00000000000E+00 0. -1.
        -13    1    3    3    0    0  0.29826479566E+03  0.10696113816E+03 -0.49675253326E+03  0.58920764821E+03  0.00000000000E+00 0.  1.
         22    1    1    2    0    0 -0.77400913814E+03 -0.16052914407E+03  0.24226134140E+04  0.25483162099E+04  0.00000000000E+00 0.  1.
<mgrwt>
<rscale>  0 0.38060201E+04</rscale>
<asrwt>0</asrwt>
<pdfrwt beam="1">  1        1 0.40072816E+00 0.38060201E+04</pdfrwt>
<pdfrwt beam="2">  1       -1 0.21389744E+00 0.38060201E+04</pdfrwt>
<totfact> 0.11014831E-01</totfact>
</mgrwt>
</event>
<event>
 6    1  0.1878398E-004  0.1732863E+04  0.7818608E-02  0.8742840E-01
         -1   -1    0    0    0  501 -0.00000000000E+00  0.00000000000E+00  0.46236331871E+03  0.46236331871E+03  0.00000000000E+00 0. -1.
          1   -1    0    0  501    0  0.00000000000E+00 -0.00000000000E+00 -0.16236233880E+04  0.16236233880E+04  0.00000000000E+00 0.  1.
         23    2    1    2    0    0 -0.46131058166E+03 -0.62733702830E+03 -0.13138147619E+03  0.79485963459E+03  0.90451902096E+02 0.  0.
         13    1    3    3    0    0 -0.17030638767E+03 -0.30107457621E+03 -0.76282803373E+02  0.35421636356E+03  0.00000000000E+00 0.  1.
        -13    1    3    3    0    0 -0.29100419399E+03 -0.32626245209E+03 -0.55098672813E+02  0.44064327104E+03  0.00000000000E+00 0. -1.
         22    1    1    2    0    0  0.46131058166E+03  0.62733702830E+03 -0.10298785931E+04  0.12911270721E+04  0.00000000000E+00 0.  1.
<mgrwt>
<rscale>  0 0.17328634E+04</rscale>
<asrwt>0</asrwt>
<pdfrwt beam="1">  1        1 0.24978821E+00 0.17328634E+04</pdfrwt>
<pdfrwt beam="2">  1       -1 0.71132820E-01 0.17328634E+04</pdfrwt>
<totfact> 0.10182026E+01</totfact>
</mgrwt>
</event>
<event>
 6    1  0.1878398E-004  0.2622423E+04  0.7818608E-02  0.8360624E-01
          1   -1    0    0  501    0  0.00000000000E+00  0.00000000000E+00  0.12255541953E+04  0.12255541953E+04  0.00000000000E+00 0.  1.
         -1   -1    0    0    0  501 -0.00000000000E+00 -0.00000000000E+00 -0.14028558813E+04  0.14028558813E+04  0.00000000000E+00 0. -1.
         23    2    1    2    0    0 -0.62880123998E+03  0.11422501551E+04 -0.21120346239E+03  0.13240804608E+04  0.91955140004E+02 0.  0.
         11    1    3    3    0    0 -0.43708090189E+03  0.78762101493E+03 -0.10275172073E+03  0.90661154530E+03  0.00000000000E+00 0. -1.
        -11    1    3    3    0    0 -0.19172033809E+03  0.35462914020E+03 -0.10845174165E+03  0.41746891547E+03  0.00000000000E+00 0.  1.
         22    1    1    2    0    0  0.62880123998E+03 -0.11422501551E+04  0.33901776382E+02  0.13043296158E+04  0.00000000000E+00 0. -1.
<mgrwt>
<rscale>  0 0.26224232E+04</rscale>
<asrwt>0</asrwt>
<pdfrwt beam="1">  1        1 0.18854680E+00 0.26224232E+04</pdfrwt>
<pdfrwt beam="2">  1       -1 0.21582398E+00 0.26224232E+04</pdfrwt>
<totfact> 0.10563988E+00</totfact>
</mgrwt>
</event>
<event>
 6    1  0.1878398E-004  0.1409850E+04  0.7818608E-02  0.8946720E-01
          2   -1    0    0  501    0  0.00000000000E+00  0.00000000000E+00  0.61790744582E+03  0.61790744582E+03  0.00000000000E+00 0.  1.
         -2   -1    0    0    0  501 -0.00000000000E+00 -0.00000000000E+00 -0.80419653933E+03  0.80419653933E+03  0.00000000000E+00 0. -1.
         23    2    1    2    0    0 -0.58965905228E+03 -0.26118697203E+03  0.18074823761E+03  0.68005760200E+03  0.11786426237E+03 0.  0.
         11    1    3    3    0    0 -0.28669590631E+03 -0.12006613538E+03  0.14793877632E+03  0.34423291693E+03  0.00000000000E+00 0. -1.
        -11    1    3    3    0    0 -0.30296314597E+03 -0.14112083665E+03  0.32809461299E+02  0.33582468507E+03  0.00000000000E+00 0.  1.
         22    1    1    2    0    0  0.58965905228E+03  0.26118697203E+03 -0.36703733113E+03  0.74204638315E+03  0.00000000000E+00 0. -1.
<mgrwt>
<rscale>  0 0.14098497E+04</rscale>
<asrwt>0</asrwt>
<pdfrwt beam="1">  1        2 0.95062684E-01 0.14098497E+04</pdfrwt>
<pdfrwt beam="2">  1       -2 0.12372254E+00 0.14098497E+04</pdfrwt>
<totfact> 0.22892712E+01</totfact>
</mgrwt>
</event>
<event>
 6    1  0.1878398E-004  0.1809886E+04  0.7818608E-02  0.8701060E-01
          2   -1    0    0  501    0  0.00000000000E+00  0.00000000000E+00  0.17668339742E+04  0.17668339742E+04  0.00000000000E+00 0.  1.
         -2   -1    0    0    0  501 -0.00000000000E+00 -0.00000000000E+00 -0.46349695125E+03  0.46349695125E+03  0.00000000000E+00 0. -1.
         23    2    1    2    0    0  0.15811006781E+03  0.85615218134E+03  0.35983490820E+03  0.94651178254E+03  0.91695376943E+02 0.  0.
         11    1    3    3    0    0  0.12391335283E+03  0.64845579298E+03  0.22953582946E+03  0.69895359750E+03  0.00000000000E+00 0. -1.
        -11    1    3    3    0    0  0.34196714986E+02  0.20769638837E+03  0.13029907874E+03  0.24755818503E+03  0.00000000000E+00 0.  1.
         22    1    1    2    0    0 -0.15811006781E+03 -0.85615218134E+03  0.94350211470E+03  0.12838191429E+04  0.00000000000E+00 0.  1.
<mgrwt>
<rscale>  0 0.18098864E+04</rscale>
<asrwt>0</asrwt>
<pdfrwt beam="1">  1        2 0.27182061E+00 0.18098864E+04</pdfrwt>
<pdfrwt beam="2">  1       -2 0.71307224E-01 0.18098864E+04</pdfrwt>
<totfact> 0.15157912E+01</totfact>
</mgrwt>
</event>
<event>
 6    1  0.1878398E-004  0.2397811E+04  0.7818608E-02  0.8440323E-01
         -1   -1    0    0    0  501 -0.00000000000E+00  0.00000000000E+00  0.85615972704E+03  0.85615972704E+03  0.00000000000E+00 0. -1.
          1   -1    0    0  501    0  0.00000000000E+00 -0.00000000000E+00 -0.16788626834E+04  0.16788626834E+04  0.00000000000E+00 0.  1.
         23    2    1    2    0    0  0.10088160383E+04 -0.58027100961E+03 -0.70713119515E+03  0.13655006810E+04  0.10066448708E+03 0.  0.
         11    1    3    3    0    0  0.42469385447E+03 -0.27286334715E+03 -0.25608492276E+03  0.56603777604E+03  0.00000000000E+00 0.  1.
        -11    1    3    3    0    0  0.58412218380E+03 -0.30740766247E+03 -0.45104627239E+03  0.79946290495E+03  0.00000000000E+00 0. -1.
         22    1    1    2    0    0 -0.10088160383E+04  0.58027100961E+03 -0.11557176121E+03  0.11695217295E+04  0.00000000000E+00 0. -1.
<mgrwt>
<rscale>  0 0.23978112E+04</rscale>
<asrwt>0</asrwt>
<pdfrwt beam="1">  1        1 0.25828657E+00 0.23978112E+04</pdfrwt>
<pdfrwt beam="2">  1       -1 0.13171688E+00 0.23978112E+04</pdfrwt>
<totfact> 0.21662423E+00</totfact>
</mgrwt>
</event>
<event>
 6    1  0.1878398E-004  0.1341451E+04  0.7818608E-02  0.8997325E-01
          2   -1    0    0  501    0  0.00000000000E+00  0.00000000000E+00  0.19551710749E+04  0.19551710749E+04  0.00000000000E+00 0.  1.
         -2   -1    0    0    0  501 -0.00000000000E+00 -0.00000000000E+00 -0.23009372541E+03  0.23009372541E+03  0.00000000000E+00 0. -1.
         23    2    1    2    0    0  0.41908960972E+03 -0.97413543775E+02  0.16981679602E+04  0.17541620113E+04  0.90467901772E+02 0.  0.
         13    1    3    3    0    0  0.15675926799E+03 -0.78316683548E+02  0.61127460752E+03  0.63589591666E+03  0.00000000000E+00 0. -1.
        -13    1    3    3    0    0  0.26233034174E+03 -0.19096860227E+02  0.10868933527E+04  0.11182660947E+04  0.00000000000E+00 0.  1.
         22    1    1    2    0    0 -0.41908960972E+03  0.97413543775E+02  0.26909389285E+02  0.43110278904E+03  0.00000000000E+00 0. -1.
<mgrwt>
<rscale>  0 0.13414509E+04</rscale>
<asrwt>0</asrwt>
<pdfrwt beam="1">  1        2 0.30079554E+00 0.13414509E+04</pdfrwt>
<pdfrwt beam="2">  1       -2 0.35399036E-01 0.13414509E+04</pdfrwt>
<totfact> 0.51871628E+01</totfact>
</mgrwt>
</event>
<event>
 6    1  0.1878398E-004  0.1325497E+04  0.7818608E-02  0.9009587E-01
          2   -1    0    0  501    0  0.00000000000E+00  0.00000000000E+00  0.47255090386E+03  0.47255090386E+03  0.00000000000E+00 0.  1.
         -2   -1    0    0    0  501 -0.00000000000E+00 -0.00000000000E+00 -0.92949905836E+03  0.92949905836E+03  0.00000000000E+00 0. -1.
         23    2    1    2    0    0  0.10671141247E+03 -0.16205387633E+03 -0.89635424309E+03  0.92170998358E+03  0.91921598918E+02 0.  0.
         11    1    3    3    0    0  0.46695968495E+02 -0.14347017055E+03 -0.59059220874E+03  0.60955997271E+03  0.00000000000E+00 0.  1.
        -11    1    3    3    0    0  0.60015443970E+02 -0.18583705781E+02 -0.30576203435E+03  0.31215001087E+03  0.00000000000E+00 0. -1.
         22    1    1    2    0    0 -0.10671141247E+03  0.16205387633E+03  0.43940608859E+03  0.48033997863E+03  0.00000000000E+00 0.  1.
<mgrwt>
<rscale>  0 0.13254971E+04</rscale>
<asrwt>0</asrwt>
<pdfrwt beam="1">  1        2 0.72700140E-01 0.13254971E+04</pdfrwt>
<pdfrwt beam="2">  1       -2 0.14299985E+00 0.13254971E+04</pdfrwt>
<totfact> 0.21843036E+01</totfact>
</mgrwt>
</event>
<event>
 6    1  0.1878398E-004  0.4987895E+04  0.7818608E-02  0.7830377E-01
         -2   -1    0    0    0  501 -0.00000000000E+00  0.00000000000E+00  0.14292357443E+04  0.14292357443E+04  0.00000000000E+00 0. -1.
          2   -1    0    0  501    0  0.00000000000E+00 -0.00000000000E+00 -0.43518183679E+04  0.43518183679E+04  0.00000000000E+00 0.  1.
         23    2    1    2    0    0  0.62883366824E+03 -0.50567806246E+03  0.12722060763E+04  0.15093572219E+04  0.92243360188E+02 0.  0.
         13    1    3    3    0    0  0.36210511157E+03 -0.32283783335E+03  0.69182668876E+03  0.84496659445E+03  0.00000000000E+00 0.  1.
        -13    1    3    3    0    0  0.26672855668E+03 -0.18284022911E+03  0.58037938757E+03  0.66439062745E+03  0.00000000000E+00 0. -1.
         22    1    1    2    0    0 -0.62883366824E+03  0.50567806246E+03 -0.41947887000E+04  0.42716968903E+04  0.00000000000E+00 0.  1.
<mgrwt>
<rscale>  0 0.49878951E+04</rscale>
<asrwt>0</asrwt>
<pdfrwt beam="1">  1        2 0.66951051E+00 0.49878951E+04</pdfrwt>
<pdfrwt beam="2">  1       -2 0.21988243E+00 0.49878951E+04</pdfrwt>
<totfact> 0.12178689E-02</totfact>
</mgrwt>
</event>
<event>
 6    1  0.1878398E-004  0.2035324E+04  0.7818608E-02  0.8590281E-01
         -1   -1    0    0    0  501 -0.00000000000E+00  0.00000000000E+00  0.78940635156E+03  0.78940635156E+03  0.00000000000E+00 0. -1.
          1   -1    0    0  501    0  0.00000000000E+00 -0.00000000000E+00 -0.13119173793E+04  0.13119173793E+04  0.00000000000E+00 0.  1.
         23    2    1    2    0    0  0.55248419206E+03  0.83345613740E+03 -0.77794218024E+02  0.10069467591E+04  0.89453451002E+02 0.  0.
         13    1    3    3    0    0  0.36386315743E+03  0.61271845390E+03 -0.75339186447E+02  0.71658655730E+03  0.00000000000E+00 0. -1.
        -13    1    3    3    0    0  0.18862103463E+03  0.22073768350E+03 -0.24550315766E+01  0.29036020182E+03  0.00000000000E+00 0.  1.
         22    1    1    2    0    0 -0.55248419206E+03 -0.83345613740E+03 -0.44471680974E+03  0.10943769718E+04  0.00000000000E+00 0. -1.
<mgrwt>
<rscale>  0 0.20353240E+04</rscale>
<asrwt>0</asrwt>
<pdfrwt beam="1">  1        1 0.20183344E+00 0.20353240E+04</pdfrwt>
<pdfrwt beam="2">  1       -1 0.12144713E+00 0.20353240E+04</pdfrwt>
<totfact> 0.49311822E+00</totfact>
</mgrwt>
</event>
<event>
 6    1  0.1878398E-004  0.1139784E+04  0.7818608E-02  0.9167260E-01
          2   -1    0    0  501    0  0.00000000000E+00  0.00000000000E+00  0.15145795924E+04  0.15145795924E+04  0.00000000000E+00 0.  1.
         -2   -1    0    0    0  501 -0.00000000000E+00 -0.00000000000E+00 -0.21443378810E+03  0.21443378810E+03  0.00000000000E+00 0. -1.
         23    2    1    2    0    0  0.12603298676E+03  0.42458595323E+03  0.11901473982E+03  0.46757446525E+03  0.91125335814E+02 0.  0.
         11    1    3    3    0    0  0.80441479237E+02  0.27153237819E+03  0.30103636507E+02  0.28479271921E+03  0.00000000000E+00 0. -1.
        -11    1    3    3    0    0  0.45591507524E+02  0.15305357504E+03  0.88911103314E+02  0.18278174603E+03  0.00000000000E+00 0.  1.
         22    1    1    2    0    0 -0.12603298676E+03 -0.42458595323E+03  0.11811310645E+04  0.12614389153E+04  0.00000000000E+00 0.  1.
<mgrwt>
<rscale>  0 0.11397843E+04</rscale>
<asrwt>0</asrwt>
<pdfrwt beam="1">  1        2 0.23301224E+00 0.11397843E+04</pdfrwt>
<pdfrwt beam="2">  1       -2 0.32989815E-01 0.11397843E+04</pdfrwt>
<totfact> 0.10572193E+02</totfact>
</mgrwt>
</event>
<event>
 6    1  0.1878398E-004  0.1202036E+04  0.7818608E-02  0.9111076E-01
          1   -1    0    0  501    0  0.00000000000E+00  0.00000000000E+00  0.31147994052E+04  0.31147994052E+04  0.00000000000E+00 0.  1.
         -1   -1    0    0    0  501 -0.00000000000E+00 -0.00000000000E+00 -0.11596982635E+03  0.11596982635E+03  0.00000000000E+00 0. -1.
         23    2    1    2    0    0 -0.11450183816E+03 -0.57014821266E+03  0.18759751945E+04  0.19662607801E+04  0.93374887218E+02 0.  0.
         11    1    3    3    0    0 -0.11766632500E+03 -0.52084663477E+03  0.16254310303E+04  0.17108923447E+04  0.00000000000E+00 0. -1.
        -11    1    3    3    0    0  0.31644868423E+01 -0.49301577898E+02  0.25054416421E+03  0.25536843537E+03  0.00000000000E+00 0.  1.
         22    1    1    2    0    0  0.11450183816E+03  0.57014821266E+03  0.11228543843E+04  0.12645084514E+04  0.00000000000E+00 0. -1.
<mgrwt>
<rscale>  0 0.12020362E+04</rscale>
<asrwt>0</asrwt>
<pdfrwt beam="1">  1        1 0.47919984E+00 0.12020362E+04</pdfrwt>
<pdfrwt beam="2">  1       -1 0.17841514E-01 0.12020362E+04</pdfrwt>
<totfact> 0.12230518E+01</totfact>
</mgrwt>
</event>
<event>
 6    1  0.1878398E-004  0.3048494E+04  0.7818608E-02  0.8230017E-01
          1   -1    0    0  501    0  0.00000000000E+00  0.00000000000E+00  0.16790511498E+04  0.16790511498E+04  0.00000000000E+00 0. -1.
         -1   -1    0    0    0  501 -0.00000000000E+00 -0.00000000000E+00 -0.13837152474E+04  0.13837152474E+04  0.00000000000E+00 0.  1.
         23    2    1    2    0    0  0.14333290622E+04  0.26742583644E+02 -0.36838641628E+03  0.14829959447E+04  0.91766301991E+02 0.  0.
         13    1    3    3    0    0  0.99282103629E+03 -0.17416264898E+02 -0.27788962161E+03  0.10311253940E+04  0.00000000000E+00 0. -1.
        -13    1    3    3    0    0  0.44050802589E+03  0.44158848542E+02 -0.90496794669E+02  0.45187055074E+03  0.00000000000E+00 0.  1.
         22    1    1    2    0    0 -0.14333290622E+04 -0.26742583644E+02  0.66372231858E+03  0.15797704525E+04  0.00000000000E+00 0.  1.
<mgrwt>
<rscale>  0 0.30484938E+04</rscale>
<asrwt>0</asrwt>
<pdfrwt beam="1">  1        1 0.25831556E+00 0.30484938E+04</pdfrwt>
<pdfrwt beam="2">  1       -1 0.21287927E+00 0.30484938E+04</pdfrwt>
<totfact> 0.51312349E-01</totfact>
</mgrwt>
</event>
<event>
 6    1  0.1878398E-004  0.4935990E+04  0.7818608E-02  0.7838458E-01
          2   -1    0    0  501    0  0.00000000000E+00  0.00000000000E+00  0.15240895893E+04  0.15240895893E+04  0.00000000000E+00 0.  1.
         -2   -1    0    0    0  501 -0.00000000000E+00 -0.00000000000E+00 -0.39964836101E+04  0.39964836101E+04  0.00000000000E+00 0. -1.
         23    2    1    2    0    0  0.57316405004E+03  0.10171979665E+04  0.11941588946E+04  0.16726102303E+04  0.91655799146E+02 0.  0.
         11    1    3    3    0    0  0.20675657939E+03  0.45202372159E+03  0.53218098492E+03  0.72821036020E+03  0.00000000000E+00 0. -1.
        -11    1    3    3    0    0  0.36640747065E+03  0.56517424496E+03  0.66197790963E+03  0.94439987006E+03  0.00000000000E+00 0.  1.
         22    1    1    2    0    0 -0.57316405004E+03 -0.10171979665E+04 -0.36665529153E+04  0.38479629691E+04  0.00000000000E+00 0. -1.
<mgrwt>
<rscale>  0 0.49359899E+04</rscale>
<asrwt>0</asrwt>
<pdfrwt beam="1">  1        2 0.23447533E+00 0.49359899E+04</pdfrwt>
<pdfrwt beam="2">  1       -2 0.61484362E+00 0.49359899E+04</pdfrwt>
<totfact> 0.40513886E-03</totfact>
</mgrwt>
</event>
<event>
 6    1  0.1878398E-004  0.3474015E+04  0.7818608E-02  0.8119976E-01
         -2   -1    0    0    0  501 -0.00000000000E+00  0.00000000000E+00  0.13204430159E+04  0.13204430159E+04  0.00000000000E+00 0. -1.
          2   -1    0    0  501    0  0.00000000000E+00 -0.00000000000E+00 -0.22849873528E+04  0.22849873528E+04  0.00000000000E+00 0.  1.
         23    2    1    2    0    0 -0.66708511886E+03 -0.15805512752E+04 -0.20768841606E+03  0.17303368312E+04  0.88239343747E+02 0.  0.
         13    1    3    3    0    0 -0.32244824828E+03 -0.66594893866E+03 -0.67984756861E+02  0.74302273780E+03  0.00000000000E+00 0. -1.
        -13    1    3    3    0    0 -0.34463687059E+03 -0.91460233659E+03 -0.13970365920E+03  0.98731409341E+03  0.00000000000E+00 0.  1.
         22    1    1    2    0    0  0.66708511886E+03  0.15805512752E+04 -0.75685592089E+03  0.18750935375E+04  0.00000000000E+00 0.  1.
<mgrwt>
<rscale>  0 0.34740153E+04</rscale>
<asrwt>0</asrwt>
<pdfrwt beam="1">  1        2 0.35153651E+00 0.34740153E+04</pdfrwt>
<pdfrwt beam="2">  1       -2 0.20314508E+00 0.34740153E+04</pdfrwt>
<totfact> 0.48289777E-01</totfact>
</mgrwt>
</event>
<event>
 6    1  0.1878398E-004  0.2004339E+04  0.7818608E-02  0.8604595E-01
          2   -1    0    0  501    0  0.00000000000E+00  0.00000000000E+00  0.69219702933E+03  0.69219702933E+03  0.00000000000E+00 0.  1.
         -2   -1    0    0    0  501 -0.00000000000E+00 -0.00000000000E+00 -0.14509504143E+04  0.14509504143E+04  0.00000000000E+00 0. -1.
         23    2    1    2    0    0 -0.54488739314E+03 -0.20623038558E+03  0.48900017716E+03  0.76607729475E+03  0.91214062156E+02 0.  0.
         11    1    3    3    0    0 -0.29177511519E+03 -0.14181441214E+03  0.22563850285E+03  0.39516677403E+03  0.00000000000E+00 0. -1.
        -11    1    3    3    0    0 -0.25311227795E+03 -0.64415973444E+02  0.26336167431E+03  0.37091052072E+03  0.00000000000E+00 0.  1.
         22    1    1    2    0    0  0.54488739314E+03  0.20623038558E+03 -0.12477535621E+04  0.13770701489E+04  0.00000000000E+00 0. -1.
<mgrwt>
<rscale>  0 0.20043389E+04</rscale>
<asrwt>0</asrwt>
<pdfrwt beam="1">  1        2 0.10649185E+00 0.20043389E+04</pdfrwt>
<pdfrwt beam="2">  1       -2 0.22322314E+00 0.20043389E+04</pdfrwt>
<totfact> 0.36379790E+00</totfact>
</mgrwt>
</event>
<event>
 6    1  0.1878398E-004  0.2348301E+04  0.7818608E-02  0.8459117E-01
          2   -1    0    0  501    0  0.00000000000E+00  0.00000000000E+00  0.11102070991E+04  0.11102070991E+04  0.00000000000E+00 0.  1.
         -2   -1    0    0    0  501 -0.00000000000E+00 -0.00000000000E+00 -0.12417765695E+04  0.12417765695E+04  0.00000000000E+00 0. -1.
         23    2    1    2    0    0  0.31557728865E+03  0.33680104718E+03 -0.11455058855E+04  0.12379410193E+04  0.85383038191E+02 0.  0.
         11    1    3    3    0    0  0.28469983067E+03  0.26901660696E+03 -0.10103439523E+04  0.10836137828E+04  0.00000000000E+00 0. -1.
        -11    1    3    3    0    0  0.30877457983E+02  0.67784440222E+02 -0.13516193320E+03  0.15432723652E+03  0.00000000000E+00 0.  1.
         22    1    1    2    0    0 -0.31557728865E+03 -0.33680104718E+03  0.10139364151E+04  0.11140426492E+04  0.00000000000E+00 0.  1.
<mgrwt>
<rscale>  0 0.23483008E+04</rscale>
<asrwt>0</asrwt>
<pdfrwt beam="1">  1        2 0.17080109E+00 0.23483008E+04</pdfrwt>
<pdfrwt beam="2">  1       -2 0.19104255E+00 0.23483008E+04</pdfrwt>
<totfact> 0.29572707E+00</totfact>
</mgrwt>
</event>
<event>
 6    1  0.1878398E-004  0.1591377E+04  0.7818608E-02  0.8825863E-01
          2   -1    0    0  501    0  0.00000000000E+00  0.00000000000E+00  0.90675534836E+03  0.90675534836E+03  0.00000000000E+00 0.  1.
         -2   -1    0    0    0  501 -0.00000000000E+00 -0.00000000000E+00 -0.69822614625E+03  0.69822614625E+03  0.00000000000E+00 0. -1.
         23    2    1    2    0    0  0.36975268034E+03 -0.68787641835E+03  0.24404441319E+03  0.82321916387E+03  0.90780529931E+02 0.  0.
         11    1    3    3    0    0  0.30952752093E+03 -0.60013122979E+03  0.17931386012E+03  0.69865459249E+03  0.00000000000E+00 0. -1.
        -11    1    3    3    0    0  0.60225159413E+02 -0.87745188562E+02  0.64730553073E+02  0.12456457138E+03  0.00000000000E+00 0.  1.
         22    1    1    2    0    0 -0.36975268034E+03  0.68787641835E+03 -0.35515211083E+02  0.78176233074E+03  0.00000000000E+00 0. -1.
<mgrwt>
<rscale>  0 0.15913771E+04</rscale>
<asrwt>0</asrwt>
<pdfrwt beam="1">  1        2 0.13950082E+00 0.15913771E+04</pdfrwt>
<pdfrwt beam="2">  1       -2 0.10741941E+00 0.15913771E+04</pdfrwt>
<totfact> 0.19376022E+01</totfact>
</mgrwt>
</event>
<event>
 6    1  0.1878398E-004  0.2596544E+04  0.7818608E-02  0.8369376E-01
          2   -1    0    0  501    0  0.00000000000E+00  0.00000000000E+00  0.28346040856E+04  0.28346040856E+04  0.00000000000E+00 0.  1.
         -2   -1    0    0    0  501 -0.00000000000E+00 -0.00000000000E+00 -0.59461948304E+03  0.59461948304E+03  0.00000000000E+00 0. -1.
         23    2    1    2    0    0 -0.28956322325E+03  0.96060165128E+03  0.36271204819E+02  0.10078695813E+04  0.88786822678E+02 0.  0.
         11    1    3    3    0    0 -0.17020908227E+02  0.14085254779E+03 -0.13831637469E+02  0.14254987103E+03  0.00000000000E+00 0. -1.
        -11    1    3    3    0    0 -0.27254231502E+03  0.81974910349E+03  0.50102842288E+02  0.86531971025E+03  0.00000000000E+00 0.  1.
         22    1    1    2    0    0  0.28956322325E+03 -0.96060165128E+03  0.22037133978E+04  0.24213539874E+04  0.00000000000E+00 0.  1.
<mgrwt>
<rscale>  0 0.25965445E+04</rscale>
<asrwt>0</asrwt>
<pdfrwt beam="1">  1        2 0.43609293E+00 0.25965445E+04</pdfrwt>
<pdfrwt beam="2">  1       -2 0.91479922E-01 0.25965445E+04</pdfrwt>
<totfact> 0.19834803E+00</totfact>
</mgrwt>
</event>
<event>
 6    1  0.1878398E-004  0.3685180E+04  0.7818608E-02  0.8071254E-01
         -2   -1    0    0    0  501 -0.00000000000E+00  0.00000000000E+00  0.53726582110E+04  0.53726582110E+04  0.00000000000E+00 0. -1.
          2   -1    0    0  501    0  0.00000000000E+00 -0.00000000000E+00 -0.63192888765E+03  0.63192888765E+03  0.00000000000E+00 0.  1.
         23    2    1    2    0    0 -0.20557329307E+03 -0.14173986102E+04  0.42577796728E+04  0.44931243753E+04  0.90552255692E+02 0.  0.
         13    1    3    3    0    0 -0.38408837997E+02 -0.36924385883E+03  0.99173435489E+03  0.10589397040E+04  0.00000000000E+00 0.  1.
        -13    1    3    3    0    0 -0.16716445508E+03 -0.10481547514E+04  0.32660453179E+04  0.34341846713E+04  0.00000000000E+00 0. -1.
         22    1    1    2    0    0  0.20557329307E+03  0.14173986102E+04  0.48294965056E+03  0.15114627233E+04  0.00000000000E+00 0.  1.
<mgrwt>
<rscale>  0 0.36851800E+04</rscale>
<asrwt>0</asrwt>
<pdfrwt beam="1">  1        2 0.97219833E-01 0.36851800E+04</pdfrwt>
<pdfrwt beam="2">  1       -2 0.82656277E+00 0.36851800E+04</pdfrwt>
<totfact> 0.19310497E-03</totfact>
</mgrwt>
</event>
<event>
 6    1  0.1878398E-004  0.2128156E+04  0.7818608E-02  0.8548941E-01
         -2   -1    0    0    0  501 -0.00000000000E+00  0.00000000000E+00  0.90667764677E+03  0.90667764677E+03  0.00000000000E+00 0. -1.
          2   -1    0    0  501    0  0.00000000000E+00 -0.00000000000E+00 -0.12488030612E+04  0.12488030612E+04  0.00000000000E+00 0.  1.
         23    2    1    2    0    0  0.21166430071E+03 -0.82767844234E+03  0.46752713868E+03  0.97845452439E+03  0.94542322696E+02 0.  0.
         13    1    3    3    0    0  0.16264122004E+03 -0.57380643939E+03  0.37142149011E+03  0.70260936491E+03  0.00000000000E+00 0. -1.
        -13    1    3    3    0    0  0.49023080664E+02 -0.25387200295E+03  0.96105648569E+02  0.27584515948E+03  0.00000000000E+00 0.  1.
         22    1    1    2    0    0 -0.21166430071E+03  0.82767844234E+03 -0.80965255311E+03  0.11770261836E+04  0.00000000000E+00 0.  1.
<mgrwt>
<rscale>  0 0.21281558E+04</rscale>
<asrwt>0</asrwt>
<pdfrwt beam="1">  1        2 0.19212355E+00 0.21281558E+04</pdfrwt>
<pdfrwt beam="2">  1       -2 0.13948887E+00 0.21281558E+04</pdfrwt>
<totfact> 0.59071320E+00</totfact>
</mgrwt>
</event>
<event>
 6    1  0.1878398E-004  0.2734386E+04  0.7818608E-02  0.8323933E-01
          2   -1    0    0  501    0  0.00000000000E+00  0.00000000000E+00  0.24331865153E+04  0.24331865153E+04  0.00000000000E+00 0.  1.
         -2   -1    0    0    0  501 -0.00000000000E+00 -0.00000000000E+00 -0.76821771722E+03  0.76821771722E+03  0.00000000000E+00 0. -1.
         23    2    1    2    0    0  0.29338267953E+03 -0.63566638981E+03  0.22062986817E+04  0.23164278494E+04  0.89100801291E+02 0.  0.
         11    1    3    3    0    0  0.21120018980E+03 -0.53873757845E+03  0.18147156697E+04  0.19047405757E+04  0.00000000000E+00 0.  1.
        -11    1    3    3    0    0  0.82182489727E+02 -0.96928811363E+02  0.39158301200E+03  0.41168727376E+03  0.00000000000E+00 0. -1.
         22    1    1    2    0    0 -0.29338267953E+03  0.63566638981E+03 -0.54132988363E+03  0.88497638313E+03  0.00000000000E+00 0. -1.
<mgrwt>
<rscale>  0 0.27343862E+04</rscale>
<asrwt>0</asrwt>
<pdfrwt beam="1">  1        2 0.37433638E+00 0.27343862E+04</pdfrwt>
<pdfrwt beam="2">  1       -2 0.11818734E+00 0.27343862E+04</pdfrwt>
<totfact> 0.18351152E+00</totfact>
</mgrwt>
</event>
<event>
 6    1  0.1878398E-004  0.4868872E+03  0.7818608E-02  0.1017259E+00
          2   -1    0    0  501    0  0.00000000000E+00  0.00000000000E+00  0.18168108064E+04  0.18168108064E+04  0.00000000000E+00 0.  1.
         -2   -1    0    0    0  501 -0.00000000000E+00 -0.00000000000E+00 -0.32620233214E+02  0.32620233214E+02  0.00000000000E+00 0. -1.
         23    2    1    2    0    0 -0.15407078983E+03 -0.15234242344E+03  0.12640866128E+04  0.12860003412E+04  0.94529840593E+02 0.  0.
         13    1    3    3    0    0 -0.33111070998E+02 -0.13475632996E+02  0.44652371872E+03  0.44795241610E+03  0.00000000000E+00 0. -1.
        -13    1    3    3    0    0 -0.12095971883E+03 -0.13886679044E+03  0.81756289406E+03  0.83804792513E+03  0.00000000000E+00 0.  1.
         22    1    1    2    0    0  0.15407078983E+03  0.15234242344E+03  0.52010396039E+03  0.56343069837E+03  0.00000000000E+00 0.  1.
<mgrwt>
<rscale>  0 0.48688722E+03</rscale>
<asrwt>0</asrwt>
<pdfrwt beam="1">  1        2 0.27950928E+00 0.48688722E+03</pdfrwt>
<pdfrwt beam="2">  1       -2 0.50184988E-02 0.48688722E+03</pdfrwt>
<totfact> 0.17856846E+03</totfact>
</mgrwt>
</event>
<event>
 6    1  0.1878398E-004  0.2043328E+04  0.7818608E-02  0.8586627E-01
          1   -1    0    0  501    0  0.00000000000E+00  0.00000000000E+00  0.35002155605E+04  0.35002155605E+04  0.00000000000E+00 0.  1.
         -1   -1    0    0    0  501 -0.00000000000E+00 -0.00000000000E+00 -0.29820957170E+03  0.29820957170E+03  0.00000000000E+00 0. -1.
         23    2    1    2    0    0  0.54547760692E+03  0.70443689468E+03  0.68222153308E+03  0.11257689887E+04  0.90290849027E+02 0.  0.
         13    1    3    3    0    0  0.18905160188E+03  0.30712962189E+03  0.24787760826E+03  0.43762132203E+03  0.00000000000E+00 0.  1.
        -13    1    3    3    0    0  0.35642600504E+03  0.39730727279E+03  0.43434392482E+03  0.68814766664E+03  0.00000000000E+00 0. -1.
         22    1    1    2    0    0 -0.54547760692E+03 -0.70443689468E+03  0.25197844557E+04  0.26726561435E+04  0.00000000000E+00 0.  1.
<mgrwt>
<rscale>  0 0.20433284E+04</rscale>
<asrwt>0</asrwt>
<pdfrwt beam="1">  1        1 0.53849467E+00 0.20433284E+04</pdfrwt>
<pdfrwt beam="2">  1       -1 0.45878398E-01 0.20433284E+04</pdfrwt>
<totfact> 0.10948176E+00</totfact>
</mgrwt>
</event>
<event>
 6    1  0.1878398E-004  0.1888753E+04  0.7818608E-02  0.8660475E-01
         -2   -1    0    0    0  501 -0.00000000000E+00  0.00000000000E+00  0.79721184695E+03  0.79721184695E+03  0.00000000000E+00 0. -1.
          2   -1    0    0  501    0  0.00000000000E+00 -0.00000000000E+00 -0.11187070545E+04  0.11187070545E+04  0.00000000000E+00 0.  1.
         23    2    1    2    0    0  0.91872561131E+03  0.26317616541E+02  0.50010185212E+02  0.92457354151E+03  0.87096780819E+02 0.  0.
         13    1    3    3    0    0  0.41635129314E+03  0.37663141003E+01  0.65316928074E+02  0.42146041987E+03  0.00000000000E+00 0. -1.
        -13    1    3    3    0    0  0.50237431817E+03  0.22551302441E+02 -0.15306742862E+02  0.50311312164E+03  0.00000000000E+00 0.  1.
         22    1    1    2    0    0 -0.91872561131E+03 -0.26317616541E+02 -0.37150539276E+03  0.99134535994E+03  0.00000000000E+00 0.  1.
<mgrwt>
<rscale>  0 0.18887525E+04</rscale>
<asrwt>0</asrwt>
<pdfrwt beam="1">  1        2 0.17210878E+00 0.18887525E+04</pdfrwt>
<pdfrwt beam="2">  1       -2 0.12264798E+00 0.18887525E+04</pdfrwt>
<totfact> 0.10002051E+01</totfact>
</mgrwt>
</event>
<event>
 6    1  0.1878398E-004  0.3572130E+04  0.7818608E-02  0.8096906E-01
          1   -1    0    0  501    0  0.00000000000E+00  0.00000000000E+00  0.18148413204E+04  0.18148413204E+04  0.00000000000E+00 0.  1.
         -1   -1    0    0    0  501 -0.00000000000E+00 -0.00000000000E+00 -0.17577453900E+04  0.17577453900E+04  0.00000000000E+00 0. -1.
         23    2    1    2    0    0 -0.11389648848E+04  0.51884859273E+03 -0.12442005001E+04  0.17670903047E+04  0.90157582023E+02 0.  0.
         11    1    3    3    0    0 -0.78891489874E+03  0.40167125680E+03 -0.89811483625E+03  0.12610855542E+04  0.00000000000E+00 0. -1.
        -11    1    3    3    0    0 -0.35004998606E+03  0.11717733593E+03 -0.34608566388E+03  0.50600475051E+03  0.00000000000E+00 0.  1.
         22    1    1    2    0    0  0.11389648848E+04 -0.51884859273E+03  0.13012964305E+04  0.18054964057E+04  0.00000000000E+00 0.  1.
<mgrwt>
<rscale>  0 0.35721304E+04</rscale>
<asrwt>0</asrwt>
<pdfrwt beam="1">  1        1 0.27920636E+00 0.35721304E+04</pdfrwt>
<pdfrwt beam="2">  1       -1 0.27042237E+00 0.35721304E+04</pdfrwt>
<totfact> 0.16573549E-01</totfact>
</mgrwt>
</event>
<event>
 6    1  0.1878398E-004  0.1403014E+04  0.7818608E-02  0.8951640E-01
          2   -1    0    0  501    0  0.00000000000E+00  0.00000000000E+00  0.22963583261E+04  0.22963583261E+04  0.00000000000E+00 0.  1.
         -2   -1    0    0    0  501 -0.00000000000E+00 -0.00000000000E+00 -0.21430116715E+03  0.21430116715E+03  0.00000000000E+00 0. -1.
         23    2    1    2    0    0  0.37977677192E+03 -0.98652911054E+02  0.20795951202E+04  0.21182708403E+04  0.91611655297E+02 0.  0.
         11    1    3    3    0    0  0.25119497405E+03 -0.22301744374E+02  0.13831455230E+04  0.14059473036E+04  0.00000000000E+00 0.  1.
        -11    1    3    3    0    0  0.12858179786E+03 -0.76351166680E+02  0.69644959724E+03  0.71232353667E+03  0.00000000000E+00 0. -1.
         22    1    1    2    0    0 -0.37977677192E+03  0.98652911054E+02  0.24620387214E+01  0.39238865297E+03  0.00000000000E+00 0. -1.
<mgrwt>
<rscale>  0 0.14030143E+04</rscale>
<asrwt>0</asrwt>
<pdfrwt beam="1">  1        2 0.35328588E+00 0.14030143E+04</pdfrwt>
<pdfrwt beam="2">  1       -2 0.32969412E-01 0.14030143E+04</pdfrwt>
<totfact> 0.38136295E+01</totfact>
</mgrwt>
</event>
<event>
 6    1  0.1878398E-004  0.2618118E+04  0.7818608E-02  0.8362073E-01
         -2   -1    0    0    0  501 -0.00000000000E+00  0.00000000000E+00  0.15121190340E+04  0.15121190340E+04  0.00000000000E+00 0. -1.
          2   -1    0    0  501    0  0.00000000000E+00 -0.00000000000E+00 -0.11332671415E+04  0.11332671415E+04  0.00000000000E+00 0.  1.
         23    2    1    2    0    0  0.97513067638E+03 -0.53229514244E+03  0.88613637319E+03  0.14240936229E+04  0.92666175962E+02 0.  0.
         13    1    3    3    0    0  0.45223780761E+03 -0.19444526195E+03  0.39052665389E+03  0.62836220599E+03  0.00000000000E+00 0.  1.
        -13    1    3    3    0    0  0.52289286878E+03 -0.33784988049E+03  0.49560971930E+03  0.79573141689E+03  0.00000000000E+00 0. -1.
         22    1    1    2    0    0 -0.97513067638E+03  0.53229514244E+03 -0.50728448075E+03  0.12212925526E+04  0.00000000000E+00 0. -1.
<mgrwt>
<rscale>  0 0.26181175E+04</rscale>
<asrwt>0</asrwt>
<pdfrwt beam="1">  1        2 0.17434879E+00 0.26181175E+04</pdfrwt>
<pdfrwt beam="2">  1       -2 0.23263370E+00 0.26181175E+04</pdfrwt>
<totfact> 0.15110548E+00</totfact>
</mgrwt>
</event>
<event>
 6    1  0.1878398E-004  0.3666947E+04  0.7818608E-02  0.8075327E-01
          2   -1    0    0  501    0  0.00000000000E+00  0.00000000000E+00  0.11350948916E+04  0.11350948916E+04  0.00000000000E+00 0.  1.
         -2   -1    0    0    0  501 -0.00000000000E+00 -0.00000000000E+00 -0.29615364194E+04  0.29615364194E+04  0.00000000000E+00 0. -1.
         23    2    1    2    0    0  0.81774247439E+03 -0.16062935908E+04 -0.12820393001E+04  0.22137463863E+04  0.90368364498E+02 0.  0.
         11    1    3    3    0    0  0.40091521860E+03 -0.86692884787E+03 -0.64549532494E+03  0.11528065121E+04  0.00000000000E+00 0. -1.
        -11    1    3    3    0    0  0.41682725579E+03 -0.73936474292E+03 -0.63654397520E+03  0.10609398742E+04  0.00000000000E+00 0.  1.
         22    1    1    2    0    0 -0.81774247439E+03  0.16062935908E+04 -0.54440222762E+03  0.18828849247E+04  0.00000000000E+00 0. -1.
<mgrwt>
<rscale>  0 0.36669469E+04</rscale>
<asrwt>0</asrwt>
<pdfrwt beam="1">  1        2 0.17462998E+00 0.36669469E+04</pdfrwt>
<pdfrwt beam="2">  1       -2 0.45562099E+00 0.36669469E+04</pdfrwt>
<totfact> 0.53506358E-02</totfact>
</mgrwt>
</event>
<event>
 6    1  0.1878398E-004  0.1731791E+04  0.7818608E-02  0.8743438E-01
         -2   -1    0    0    0  501 -0.00000000000E+00  0.00000000000E+00  0.21242666709E+04  0.21242666709E+04  0.00000000000E+00 0. -1.
          2   -1    0    0  501    0  0.00000000000E+00 -0.00000000000E+00 -0.35295715986E+03  0.35295715986E+03  0.00000000000E+00 0.  1.
         23    2    1    2    0    0  0.39339969069E+03 -0.59665786077E+03  0.15815157159E+04  0.17377743030E+04  0.88902469053E+02 0.  0.
         11    1    3    3    0    0  0.24430725780E+03 -0.44244220476E+03  0.11319026959E+04  0.12396148005E+04  0.00000000000E+00 0. -1.
        -11    1    3    3    0    0  0.14909243289E+03 -0.15421565601E+03  0.44961302005E+03  0.49815950247E+03  0.00000000000E+00 0.  1.
         22    1    1    2    0    0 -0.39339969069E+03  0.59665786077E+03  0.18979379515E+03  0.73944952778E+03  0.00000000000E+00 0.  1.
<mgrwt>
<rscale>  0 0.17317911E+04</rscale>
<asrwt>0</asrwt>
<pdfrwt beam="1">  1        2 0.54301103E-01 0.17317911E+04</pdfrwt>
<pdfrwt beam="2">  1       -2 0.32681025E+00 0.17317911E+04</pdfrwt>
<totfact> 0.18942121E+00</totfact>
</mgrwt>
</event>
<event>
 6    1  0.1878398E-004  0.1780982E+04  0.7818608E-02  0.8716479E-01
         -2   -1    0    0    0  501 -0.00000000000E+00  0.00000000000E+00  0.31021602170E+03  0.31021602170E+03  0.00000000000E+00 0. -1.
          2   -1    0    0  501    0  0.00000000000E+00 -0.00000000000E+00 -0.25562014768E+04  0.25562014768E+04  0.00000000000E+00 0.  1.
         23    2    1    2    0    0 -0.86679177341E+03 -0.13093017355E+03 -0.13566435441E+04  0.16176582249E+04  0.88688995629E+02 0.  0.
         13    1    3    3    0    0 -0.43273201081E+03 -0.10817247668E+03 -0.66283602525E+03  0.79894297310E+03  0.00000000000E+00 0. -1.
        -13    1    3    3    0    0 -0.43405976260E+03 -0.22757696870E+02 -0.69380751883E+03  0.81871525176E+03  0.00000000000E+00 0.  1.
         22    1    1    2    0    0  0.86679177341E+03  0.13093017355E+03 -0.88934191097E+03  0.12487592736E+04  0.00000000000E+00 0. -1.
<mgrwt>
<rscale>  0 0.17809825E+04</rscale>
<asrwt>0</asrwt>
<pdfrwt beam="1">  1        2 0.39326177E+00 0.17809825E+04</pdfrwt>
<pdfrwt beam="2">  1       -2 0.47725541E-01 0.17809825E+04</pdfrwt>
<totfact> 0.12717964E+01</totfact>
</mgrwt>
</event>
<event>
 6    1  0.1878398E-004  0.2898157E+04  0.7818608E-02  0.8273426E-01
         -2   -1    0    0    0  501 -0.00000000000E+00  0.00000000000E+00  0.16232591060E+04  0.16232591060E+04  0.00000000000E+00 0. -1.
          2   -1    0    0  501    0  0.00000000000E+00 -0.00000000000E+00 -0.12935884376E+04  0.12935884376E+04  0.00000000000E+00 0.  1.
         23    2    1    2    0    0  0.94213201001E+03 -0.38668334141E+02 -0.94046183057E+03  0.13349674819E+04  0.92529771990E+02 0.  0.
         11    1    3    3    0    0  0.26099778417E+03 -0.42698395985E+02 -0.30118133736E+03  0.40081566129E+03  0.00000000000E+00 0. -1.
        -11    1    3    3    0    0  0.68113422584E+03  0.40300618442E+01 -0.63928049321E+03  0.93415182064E+03  0.00000000000E+00 0.  1.
         22    1    1    2    0    0 -0.94213201001E+03  0.38668334141E+02  0.12701324991E+04  0.15818800617E+04  0.00000000000E+00 0. -1.
<mgrwt>
<rscale>  0 0.28981575E+04</rscale>
<asrwt>0</asrwt>
<pdfrwt beam="1">  1        2 0.19901361E+00 0.28981575E+04</pdfrwt>
<pdfrwt beam="2">  1       -2 0.24973217E+00 0.28981575E+04</pdfrwt>
<totfact> 0.92846757E-01</totfact>
</mgrwt>
</event>
<event>
 6    1  0.1878398E-004  0.7955931E+03  0.7818608E-02  0.9566418E-01
         -2   -1    0    0    0  501 -0.00000000000E+00  0.00000000000E+00  0.47215230653E+03  0.47215230653E+03  0.00000000000E+00 0. -1.
          2   -1    0    0  501    0  0.00000000000E+00 -0.00000000000E+00 -0.33515055063E+03  0.33515055063E+03  0.00000000000E+00 0.  1.
         23    2    1    2    0    0  0.27849907573E+03 -0.18818480542E+03  0.27574118197E+03  0.44367683428E+03  0.88547601183E+02 0.  0.
         13    1    3    3    0    0  0.13144404381E+03 -0.51738806327E+02  0.75227663309E+02  0.16004262576E+03  0.00000000000E+00 0. -1.
        -13    1    3    3    0    0  0.14705503192E+03 -0.13644599909E+03  0.20051351866E+03  0.28363420853E+03  0.00000000000E+00 0.  1.
         22    1    1    2    0    0 -0.27849907573E+03  0.18818480542E+03 -0.13873942607E+03  0.36362602288E+03  0.00000000000E+00 0.  1.
<mgrwt>
<rscale>  0 0.79559313E+03</rscale>
<asrwt>0</asrwt>
<pdfrwt beam="1">  1        2 0.51561623E-01 0.79559313E+03</pdfrwt>
<pdfrwt beam="2">  1       -2 0.72638816E-01 0.79559313E+03</pdfrwt>
<totfact> 0.16756437E+02</totfact>
</mgrwt>
</event>
<event>
 6    1  0.1878398E-004  0.4009396E+04  0.7818608E-02  0.8002654E-01
         -2   -1    0    0    0  501 -0.00000000000E+00  0.00000000000E+00  0.96621766777E+03  0.96621766777E+03  0.00000000000E+00 0. -1.
          2   -1    0    0  501    0  0.00000000000E+00 -0.00000000000E+00 -0.41593263189E+04  0.41593263189E+04  0.00000000000E+00 0.  1.
         23    2    1    2    0    0  0.10551842568E+03 -0.12199845810E+04  0.43022173036E+03  0.13008845810E+04  0.87826189970E+02 0.  0.
         13    1    3    3    0    0  0.63246349935E+02 -0.70845991122E+03  0.20384161758E+03  0.73991009700E+03  0.00000000000E+00 0. -1.
        -13    1    3    3    0    0  0.42272075744E+02 -0.51152466982E+03  0.22638011278E+03  0.56097448398E+03  0.00000000000E+00 0.  1.
         22    1    1    2    0    0 -0.10551842568E+03  0.12199845810E+04 -0.36233303815E+04  0.38246594057E+04  0.00000000000E+00 0.  1.
<mgrwt>
<rscale>  0 0.40093963E+04</rscale>
<asrwt>0</asrwt>
<pdfrwt beam="1">  1        2 0.63989637E+00 0.40093963E+04</pdfrwt>
<pdfrwt beam="2">  1       -2 0.14864887E+00 0.40093963E+04</pdfrwt>
<totfact> 0.60704228E-02</totfact>
</mgrwt>
</event>
<event>
 6    1  0.1878398E-004  0.2168797E+04  0.7818608E-02  0.8531529E-01
          1   -1    0    0  501    0  0.00000000000E+00  0.00000000000E+00  0.30950263985E+04  0.30950263985E+04  0.00000000000E+00 0.  1.
         -1   -1    0    0    0  501 -0.00000000000E+00 -0.00000000000E+00 -0.37993852940E+03  0.37993852940E+03  0.00000000000E+00 0. -1.
         23    2    1    2    0    0 -0.45817557301E+03  0.34354731832E+03 -0.11229447487E+03  0.59017021515E+03  0.87984192517E+02 0.  0.
         13    1    3    3    0    0 -0.10432585715E+03  0.12565383112E+03 -0.42910728937E+02  0.16886118678E+03  0.00000000000E+00 0.  1.
        -13    1    3    3    0    0 -0.35384971587E+03  0.21789348721E+03 -0.69383745937E+02  0.42130902837E+03  0.00000000000E+00 0. -1.
         22    1    1    2    0    0  0.45817557301E+03 -0.34354731832E+03  0.28273823440E+04  0.28847947127E+04  0.00000000000E+00 0.  1.
<mgrwt>
<rscale>  0 0.21687967E+04</rscale>
<asrwt>0</asrwt>
<pdfrwt beam="1">  1        1 0.47615789E+00 0.21687967E+04</pdfrwt>
<pdfrwt beam="2">  1       -1 0.58452083E-01 0.21687967E+04</pdfrwt>
<totfact> 0.13818370E+00</totfact>
</mgrwt>
</event>
<event>
 6    1  0.1878398E-004  0.3492642E+04  0.7818608E-02  0.8115536E-01
         -2   -1    0    0    0  501 -0.00000000000E+00  0.00000000000E+00  0.21606310179E+04  0.21606310179E+04  0.00000000000E+00 0. -1.
          2   -1    0    0  501    0  0.00000000000E+00 -0.00000000000E+00 -0.14114565166E+04  0.14114565166E+04  0.00000000000E+00 0.  1.
         23    2    1    2    0    0  0.11192580521E+04  0.12842643411E+04  0.76293991582E+03  0.18684845960E+04  0.84165820214E+02 0.  0.
         13    1    3    3    0    0  0.94224130863E+03  0.10320721521E+04  0.62801087322E+03  0.15321192081E+04  0.00000000000E+00 0.  1.
        -13    1    3    3    0    0  0.17701674352E+03  0.25219218902E+03  0.13492904261E+03  0.33636538797E+03  0.00000000000E+00 0. -1.
         22    1    1    2    0    0 -0.11192580521E+04 -0.12842643411E+04 -0.13765414497E+02  0.17036029384E+04  0.00000000000E+00 0.  1.
<mgrwt>
<rscale>  0 0.34926418E+04</rscale>
<asrwt>0</asrwt>
<pdfrwt beam="1">  1        2 0.21714716E+00 0.34926418E+04</pdfrwt>
<pdfrwt beam="2">  1       -2 0.33240477E+00 0.34926418E+04</pdfrwt>
<totfact> 0.23497100E-01</totfact>
</mgrwt>
</event>
<event>
 6    1  0.1878398E-004  0.1770170E+04  0.7818608E-02  0.8722325E-01
          2   -1    0    0  501    0  0.00000000000E+00  0.00000000000E+00  0.11873652034E+04  0.11873652034E+04  0.00000000000E+00 0.  1.
         -2   -1    0    0    0  501 -0.00000000000E+00 -0.00000000000E+00 -0.65975964059E+03  0.65975964059E+03  0.00000000000E+00 0. -1.
         23    2    1    2    0    0 -0.32539633076E+03  0.25895854350E+03  0.10770514351E+04  0.11580435238E+04  0.89903893325E+02 0.  0.
         11    1    3    3    0    0 -0.16947689861E+03  0.14594187648E+03  0.69673823703E+03  0.73175516494E+03  0.00000000000E+00 0. -1.
        -11    1    3    3    0    0 -0.15591943214E+03  0.11301666702E+03  0.38031319803E+03  0.42628835891E+03  0.00000000000E+00 0.  1.
         22    1    1    2    0    0  0.32539633076E+03 -0.25895854350E+03 -0.54944587222E+03  0.68908132018E+03  0.00000000000E+00 0. -1.
<mgrwt>
<rscale>  0 0.17701702E+04</rscale>
<asrwt>0</asrwt>
<pdfrwt beam="1">  1        2 0.18267157E+00 0.17701702E+04</pdfrwt>
<pdfrwt beam="2">  1       -2 0.10150148E+00 0.17701702E+04</pdfrwt>
<totfact> 0.14543165E+01</totfact>
</mgrwt>
</event>
<event>
 6    1  0.1878398E-004  0.2651494E+04  0.7818608E-02  0.8350917E-01
          1   -1    0    0  501    0  0.00000000000E+00  0.00000000000E+00  0.30712382053E+04  0.30712382053E+04  0.00000000000E+00 0. -1.
         -1   -1    0    0    0  501 -0.00000000000E+00 -0.00000000000E+00 -0.57227902535E+03  0.57227902535E+03  0.00000000000E+00 0.  1.
         23    2    1    2    0    0  0.16139008262E+02 -0.12258638833E+04  0.19389235973E+04  0.22956883907E+04  0.88078048989E+02 0.  0.
         13    1    3    3    0    0  0.17263757788E+02 -0.11444767154E+04  0.17648603781E+04  0.21035344408E+04  0.00000000000E+00 0.  1.
        -13    1    3    3    0    0 -0.11247495259E+01 -0.81387167982E+02  0.17406321920E+03  0.19215394987E+03  0.00000000000E+00 0. -1.
         22    1    1    2    0    0 -0.16139008262E+02  0.12258638833E+04  0.56003558261E+03  0.13478288400E+04  0.00000000000E+00 0.  1.
<mgrwt>
<rscale>  0 0.26514941E+04</rscale>
<asrwt>0</asrwt>
<pdfrwt beam="1">  1        1 0.47249818E+00 0.26514941E+04</pdfrwt>
<pdfrwt beam="2">  1       -1 0.88042928E-01 0.26514941E+04</pdfrwt>
<totfact> 0.58896384E-01</totfact>
</mgrwt>
</event>
<event>
 6    1  0.1878398E-004  0.2436127E+04  0.7818608E-02  0.8426101E-01
         -2   -1    0    0    0  501 -0.00000000000E+00  0.00000000000E+00  0.66921424565E+03  0.66921424565E+03  0.00000000000E+00 0. -1.
          2   -1    0    0  501    0  0.00000000000E+00 -0.00000000000E+00 -0.22170466512E+04  0.22170466512E+04  0.00000000000E+00 0.  1.
         23    2    1    2    0    0  0.59895833697E+03  0.66681795098E+03  0.19966252823E+03  0.92230167813E+03  0.85895233497E+02 0.  0.
         13    1    3    3    0    0  0.39596218841E+03  0.45830988232E+03  0.95133920543E+02  0.61309417361E+03  0.00000000000E+00 0.  1.
        -13    1    3    3    0    0  0.20299614856E+03  0.20850806866E+03  0.10452860769E+03  0.30920750452E+03  0.00000000000E+00 0. -1.
         22    1    1    2    0    0 -0.59895833697E+03 -0.66681795098E+03 -0.17474949338E+04  0.19639592187E+04  0.00000000000E+00 0.  1.
<mgrwt>
<rscale>  0 0.24361274E+04</rscale>
<asrwt>0</asrwt>
<pdfrwt beam="1">  1        2 0.34108410E+00 0.24361274E+04</pdfrwt>
<pdfrwt beam="2">  1       -2 0.10295604E+00 0.24361274E+04</pdfrwt>
<totfact> 0.34890283E+00</totfact>
</mgrwt>
</event>
<event>
 6    1  0.1878398E-004  0.1478009E+04  0.7818608E-02  0.8899210E-01
         -2   -1    0    0    0  501 -0.00000000000E+00  0.00000000000E+00  0.11920390127E+04  0.11920390127E+04  0.00000000000E+00 0. -1.
          2   -1    0    0  501    0  0.00000000000E+00 -0.00000000000E+00 -0.45814554306E+03  0.45814554306E+03  0.00000000000E+00 0.  1.
         23    2    1    2    0    0 -0.42646620728E+02  0.24049311617E+03 -0.40707704700E+03  0.48336434980E+03  0.90959877284E+02 0.  0.
         13    1    3    3    0    0 -0.65913498877E+02  0.19639450222E+03 -0.29270654852E+03  0.35859798296E+03  0.00000000000E+00 0.  1.
        -13    1    3    3    0    0  0.23266878149E+02  0.44098613953E+02 -0.11437049848E+03  0.12476636684E+03  0.00000000000E+00 0. -1.
         22    1    1    2    0    0  0.42646620728E+02 -0.24049311617E+03  0.11409705166E+04  0.11668202059E+04  0.00000000000E+00 0. -1.
<mgrwt>
<rscale>  0 0.14780086E+04</rscale>
<asrwt>0</asrwt>
<pdfrwt beam="1">  1        2 0.70483930E-01 0.14780086E+04</pdfrwt>
<pdfrwt beam="2">  1       -2 0.18339062E+00 0.14780086E+04</pdfrwt>
<totfact> 0.11318015E+01</totfact>
</mgrwt>
</event>
<event>
 6    1  0.1878398E-004  0.6659421E+03  0.7818608E-02  0.9777316E-01
          1   -1    0    0  501    0  0.00000000000E+00  0.00000000000E+00  0.38280690498E+03  0.38280690498E+03  0.00000000000E+00 0.  1.
         -1   -1    0    0    0  501 -0.00000000000E+00 -0.00000000000E+00 -0.28962310491E+03  0.28962310491E+03  0.00000000000E+00 0. -1.
         23    2    1    2    0    0  0.28062947361E+03 -0.15337671813E+03  0.11580360552E+03  0.35182281296E+03  0.89952751749E+02 0.  0.
         13    1    3    3    0    0  0.71673803722E+02 -0.84077959276E+02  0.55101048634E+02  0.12345996491E+03  0.00000000000E+00 0. -1.
        -13    1    3    3    0    0  0.20895566988E+03 -0.69298758855E+02  0.60702556885E+02  0.22836284805E+03  0.00000000000E+00 0.  1.
         22    1    1    2    0    0 -0.28062947361E+03  0.15337671813E+03 -0.22619805444E+02  0.32060719692E+03  0.00000000000E+00 0. -1.
<mgrwt>
<rscale>  0 0.66594211E+03</rscale>
<asrwt>0</asrwt>
<pdfrwt beam="1">  1        1 0.58893370E-01 0.66594211E+03</pdfrwt>
<pdfrwt beam="2">  1       -1 0.44557401E-01 0.66594211E+03</pdfrwt>
<totfact> 0.32155680E+02</totfact>
</mgrwt>
</event>
<event>
 6    1  0.1878398E-004  0.2615384E+04  0.7818608E-02  0.8362994E-01
          2   -1    0    0  501    0  0.00000000000E+00  0.00000000000E+00  0.11322973806E+04  0.11322973806E+04  0.00000000000E+00 0.  1.
         -2   -1    0    0    0  501 -0.00000000000E+00 -0.00000000000E+00 -0.15102550444E+04  0.15102550444E+04  0.00000000000E+00 0. -1.
         23    2    1    2    0    0 -0.32690173192E+03  0.66541725415E+03  0.89725576724E+03  0.11674883046E+04  0.91193010186E+02 0.  0.
         13    1    3    3    0    0 -0.20787641571E+03  0.32848812391E+03  0.43892100785E+03  0.58631791964E+03  0.00000000000E+00 0.  1.
        -13    1    3    3    0    0 -0.11902531621E+03  0.33692913024E+03  0.45833475939E+03  0.58117038497E+03  0.00000000000E+00 0. -1.
         22    1    1    2    0    0  0.32690173192E+03 -0.66541725415E+03 -0.12752134310E+04  0.14750641204E+04  0.00000000000E+00 0. -1.
<mgrwt>
<rscale>  0 0.26153836E+04</rscale>
<asrwt>0</asrwt>
<pdfrwt beam="1">  1        2 0.17419960E+00 0.26153836E+04</pdfrwt>
<pdfrwt beam="2">  1       -2 0.23234693E+00 0.26153836E+04</pdfrwt>
<totfact> 0.15197121E+00</totfact>
</mgrwt>
</event>
<event>
 6    1  0.1878398E-004  0.5271638E+04  0.7818608E-02  0.7787918E-01
          2   -1    0    0  501    0  0.00000000000E+00  0.00000000000E+00  0.44290814174E+04  0.44290814174E+04  0.00000000000E+00 0.  1.
         -2   -1    0    0    0  501 -0.00000000000E+00 -0.00000000000E+00 -0.15686189946E+04  0.15686189946E+04  0.00000000000E+00 0. -1.
         23    2    1    2    0    0 -0.22223004680E+04  0.34323250782E+03 -0.13220330074E+03  0.22543762133E+04  0.91139858657E+02 0.  0.
         11    1    3    3    0    0 -0.72270777223E+03  0.14642548295E+03 -0.17863764844E+02  0.73760833794E+03  0.00000000000E+00 0.  1.
        -11    1    3    3    0    0 -0.14995926957E+04  0.19680702487E+03 -0.11433953589E+03  0.15167678753E+04  0.00000000000E+00 0. -1.
         22    1    1    2    0    0  0.22223004680E+04 -0.34323250782E+03  0.29926657236E+04  0.37433241988E+04  0.00000000000E+00 0.  1.
<mgrwt>
<rscale>  0 0.52716378E+04</rscale>
<asrwt>0</asrwt>
<pdfrwt beam="1">  1        2 0.68139714E+00 0.52716378E+04</pdfrwt>
<pdfrwt beam="2">  1       -2 0.24132600E+00 0.52716378E+04</pdfrwt>
<totfact> 0.73922910E-03</totfact>
</mgrwt>
</event>
<event>
 6    1  0.1878398E-004  0.1618369E+04  0.7818608E-02  0.8809342E-01
         -1   -1    0    0    0  501 -0.00000000000E+00  0.00000000000E+00  0.10684877752E+04  0.10684877752E+04  0.00000000000E+00 0. -1.
          1   -1    0    0  501    0  0.00000000000E+00 -0.00000000000E+00 -0.61280931114E+03  0.61280931114E+03  0.00000000000E+00 0.  1.
         23    2    1    2    0    0  0.17861294915E+03  0.57551984931E+02  0.10435403594E+04  0.10642100385E+04  0.91387678491E+02 0.  0.
         11    1    3    3    0    0  0.11982204072E+03  0.80656156127E+02  0.67316644480E+03  0.68848805317E+03  0.00000000000E+00 0. -1.
        -11    1    3    3    0    0  0.58790908431E+02 -0.23104171196E+02  0.37037391461E+03  0.37572198534E+03  0.00000000000E+00 0.  1.
         22    1    1    2    0    0 -0.17861294915E+03 -0.57551984931E+02 -0.58786189536E+03  0.61708704782E+03  0.00000000000E+00 0.  1.
<mgrwt>
<rscale>  0 0.16183686E+04</rscale>
<asrwt>0</asrwt>
<pdfrwt beam="1">  1        1 0.94278355E-01 0.16183686E+04</pdfrwt>
<pdfrwt beam="2">  1       -1 0.16438274E+00 0.16183686E+04</pdfrwt>
<totfact> 0.86183843E+00</totfact>
</mgrwt>
</event>
<event>
 6    1  0.1878398E-004  0.4867775E+04  0.7818608E-02  0.7849234E-01
         -2   -1    0    0    0  501 -0.00000000000E+00  0.00000000000E+00  0.12982983915E+04  0.12982983915E+04  0.00000000000E+00 0. -1.
          2   -1    0    0  501    0  0.00000000000E+00 -0.00000000000E+00 -0.45627484512E+04  0.45627484512E+04  0.00000000000E+00 0.  1.
         23    2    1    2    0    0  0.86452821775E+03  0.15778864994E+04 -0.36047848641E+04  0.40299371728E+04  0.93727562675E+02 0.  0.
         13    1    3    3    0    0  0.28852819747E+03  0.54721818114E+03 -0.13379039152E+04  0.14740024236E+04  0.00000000000E+00 0.  1.
        -13    1    3    3    0    0  0.57600002028E+03  0.10306683183E+04 -0.22668809489E+04  0.25559347492E+04  0.00000000000E+00 0. -1.
         22    1    1    2    0    0 -0.86452821775E+03 -0.15778864994E+04  0.34033480431E+03  0.18311096699E+04  0.00000000000E+00 0. -1.
<mgrwt>
<rscale>  0 0.48677753E+04</rscale>
<asrwt>0</asrwt>
<pdfrwt beam="1">  1        2 0.70196130E+00 0.48677753E+04</pdfrwt>
<pdfrwt beam="2">  1       -2 0.19973821E+00 0.48677753E+04</pdfrwt>
<totfact> 0.10367048E-02</totfact>
</mgrwt>
</event>
<event>
 6    1  0.1878398E-004  0.3086330E+04  0.7818608E-02  0.8219500E-01
          2   -1    0    0  501    0  0.00000000000E+00  0.00000000000E+00  0.20044597716E+04  0.20044597716E+04  0.00000000000E+00 0.  1.
         -2   -1    0    0    0  501 -0.00000000000E+00 -0.00000000000E+00 -0.11880298554E+04  0.11880298554E+04  0.00000000000E+00 0. -1.
         23    2    1    2    0    0 -0.88600542054E+03 -0.10893587018E+04 -0.25027898320E+03  0.14290906754E+04  0.89177366247E+02 0.  0.
         13    1    3    3    0    0 -0.22452667549E+03 -0.26576123892E+03 -0.23686402168E+02  0.34871522732E+03  0.00000000000E+00 0.  1.
        -13    1    3    3    0    0 -0.66147874505E+03 -0.82359746286E+03 -0.22659258103E+03  0.10803754481E+04  0.00000000000E+00 0. -1.
         22    1    1    2    0    0  0.88600542054E+03  0.10893587018E+04  0.10667088994E+04  0.17633989516E+04  0.00000000000E+00 0. -1.
<mgrwt>
<rscale>  0 0.30863299E+04</rscale>
<asrwt>0</asrwt>
<pdfrwt beam="1">  1        2 0.30837843E+00 0.30863299E+04</pdfrwt>
<pdfrwt beam="2">  1       -2 0.18277382E+00 0.30863299E+04</pdfrwt>
<totfact> 0.97988588E-01</totfact>
</mgrwt>
</event>
<event>
 6    1  0.1878398E-004  0.1686565E+04  0.7818608E-02  0.8769064E-01
          1   -1    0    0  501    0  0.00000000000E+00  0.00000000000E+00  0.12553744078E+04  0.12553744078E+04  0.00000000000E+00 0.  1.
         -1   -1    0    0    0  501 -0.00000000000E+00 -0.00000000000E+00 -0.56646496337E+03  0.56646496337E+03  0.00000000000E+00 0. -1.
         23    2    1    2    0    0 -0.15539817149E+03 -0.12632853176E+03  0.12275908960E+04  0.12471349290E+04  0.90877025057E+02 0.  0.
         13    1    3    3    0    0 -0.83323687267E+02 -0.11690441530E+03  0.70082791982E+03  0.71538049482E+03  0.00000000000E+00 0.  1.
        -13    1    3    3    0    0 -0.72074484226E+02 -0.94241164548E+01  0.52676297615E+03  0.53175443420E+03  0.00000000000E+00 0. -1.
         22    1    1    2    0    0  0.15539817149E+03  0.12632853176E+03 -0.53868145152E+03  0.57470444217E+03  0.00000000000E+00 0. -1.
<mgrwt>
<rscale>  0 0.16865653E+04</rscale>
<asrwt>0</asrwt>
<pdfrwt beam="1">  1        1 0.19313452E+00 0.16865653E+04</pdfrwt>
<pdfrwt beam="2">  1       -1 0.87148457E-01 0.16865653E+04</pdfrwt>
<totfact> 0.12031104E+01</totfact>
</mgrwt>
</event>
<event>
 6    1  0.1878398E-004  0.1638698E+04  0.7818608E-02  0.8797121E-01
          1   -1    0    0  501    0  0.00000000000E+00  0.00000000000E+00  0.18842319407E+04  0.18842319407E+04  0.00000000000E+00 0.  1.
         -1   -1    0    0    0  501 -0.00000000000E+00 -0.00000000000E+00 -0.35628977381E+03  0.35628977381E+03  0.00000000000E+00 0. -1.
         23    2    1    2    0    0  0.47120928485E+03  0.66630336392E+03  0.83320729760E+03  0.11687685239E+04  0.76072983622E+02 0.  0.
         11    1    3    3    0    0  0.12584811021E+03  0.19653270222E+03  0.19295121419E+03  0.30280855493E+03  0.00000000000E+00 0. -1.
        -11    1    3    3    0    0  0.34536117464E+03  0.46977066170E+03  0.64025608341E+03  0.86595996899E+03  0.00000000000E+00 0.  1.
         22    1    1    2    0    0 -0.47120928485E+03 -0.66630336392E+03  0.69473486926E+03  0.10717531906E+04  0.00000000000E+00 0.  1.
<mgrwt>
<rscale>  0 0.16386977E+04</rscale>
<asrwt>0</asrwt>
<pdfrwt beam="1">  1        1 0.28988183E+00 0.16386977E+04</pdfrwt>
<pdfrwt beam="2">  1       -1 0.54813812E-01 0.16386977E+04</pdfrwt>
<totfact> 0.11489431E+01</totfact>
</mgrwt>
</event>
<event>
 6    1  0.1878398E-004  0.2850639E+04  0.7818608E-02  0.8287717E-01
         -2   -1    0    0    0  501 -0.00000000000E+00  0.00000000000E+00  0.64332029127E+03  0.64332029127E+03  0.00000000000E+00 0. -1.
          2   -1    0    0  501    0  0.00000000000E+00 -0.00000000000E+00 -0.31578908918E+04  0.31578908918E+04  0.00000000000E+00 0.  1.
         23    2    1    2    0    0  0.98258883902E+03  0.39981324825E+03  0.71005311542E+01  0.10654924920E+04  0.99460409283E+02 0.  0.
         11    1    3    3    0    0  0.59470097386E+03  0.27863385838E+03 -0.30019318766E+02  0.65742469899E+03  0.00000000000E+00 0.  1.
        -11    1    3    3    0    0  0.38788786516E+03  0.12117938987E+03  0.37119849920E+02  0.40806779305E+03  0.00000000000E+00 0. -1.
         22    1    1    2    0    0 -0.98258883902E+03 -0.39981324825E+03 -0.25216711317E+04  0.27357186911E+04  0.00000000000E+00 0.  1.
<mgrwt>
<rscale>  0 0.28506387E+04</rscale>
<asrwt>0</asrwt>
<pdfrwt beam="1">  1        2 0.48582937E+00 0.28506387E+04</pdfrwt>
<pdfrwt beam="2">  1       -2 0.98972352E-01 0.28506387E+04</pdfrwt>
<totfact> 0.10125874E+00</totfact>
</mgrwt>
</event>
<event>
 6    1  0.1878398E-004  0.2719249E+04  0.7818608E-02  0.8328786E-01
         -2   -1    0    0    0  501 -0.00000000000E+00  0.00000000000E+00  0.97601343118E+03  0.97601343118E+03  0.00000000000E+00 0. -1.
          2   -1    0    0  501    0  0.00000000000E+00 -0.00000000000E+00 -0.18940093342E+04  0.18940093342E+04  0.00000000000E+00 0.  1.
         23    2    1    2    0    0  0.73076485906E+03  0.10939750002E+04 -0.81526168810E+03  0.15504194541E+04  0.91379885089E+02 0.  0.
         13    1    3    3    0    0  0.42433987911E+03  0.65551009092E+03 -0.53456766225E+03  0.94631939525E+03  0.00000000000E+00 0. -1.
        -13    1    3    3    0    0  0.30642497995E+03  0.43846490924E+03 -0.28069402585E+03  0.60410005886E+03  0.00000000000E+00 0.  1.
         22    1    1    2    0    0 -0.73076485906E+03 -0.10939750002E+04 -0.10273421494E+03  0.13196033113E+04  0.00000000000E+00 0. -1.
<mgrwt>
<rscale>  0 0.27192488E+04</rscale>
<asrwt>0</asrwt>
<pdfrwt beam="1">  1        2 0.29138605E+00 0.27192488E+04</pdfrwt>
<pdfrwt beam="2">  1       -2 0.15015592E+00 0.27192488E+04</pdfrwt>
<totfact> 0.20028493E+00</totfact>
</mgrwt>
</event>
<event>
 6    1  0.1878398E-004  0.1044655E+04  0.7818608E-02  0.9260879E-01
          1   -1    0    0  501    0  0.00000000000E+00  0.00000000000E+00  0.63786023777E+03  0.63786023777E+03  0.00000000000E+00 0.  1.
         -1   -1    0    0    0  501 -0.00000000000E+00 -0.00000000000E+00 -0.42772096588E+03  0.42772096588E+03  0.00000000000E+00 0. -1.
         23    2    1    2    0    0 -0.44038838867E+03 -0.27315846232E+03  0.92911938895E+02  0.53426234833E+03  0.90808314850E+02 0.  0.
         13    1    3    3    0    0 -0.11444701050E+03 -0.35788502880E+02  0.45563579276E+02  0.12827694613E+03  0.00000000000E+00 0. -1.
        -13    1    3    3    0    0 -0.32594137817E+03 -0.23736995944E+03  0.47348359619E+02  0.40598540221E+03  0.00000000000E+00 0.  1.
         22    1    1    2    0    0  0.44038838867E+03  0.27315846232E+03  0.11722733300E+03  0.53131885532E+03  0.00000000000E+00 0. -1.
<mgrwt>
<rscale>  0 0.10446553E+04</rscale>
<asrwt>0</asrwt>
<pdfrwt beam="1">  1        1 0.98132344E-01 0.10446553E+04</pdfrwt>
<pdfrwt beam="2">  1       -1 0.65803226E-01 0.10446553E+04</pdfrwt>
<totfact> 0.73330866E+01</totfact>
</mgrwt>
</event>
<event>
 6    1  0.1878398E-004  0.2097686E+04  0.7818608E-02  0.8562264E-01
         -2   -1    0    0    0  501 -0.00000000000E+00  0.00000000000E+00  0.13697312566E+04  0.13697312566E+04  0.00000000000E+00 0. -1.
          2   -1    0    0  501    0  0.00000000000E+00 -0.00000000000E+00 -0.80312926877E+03  0.80312926877E+03  0.00000000000E+00 0.  1.
         23    2    1    2    0    0 -0.64218224050E+03 -0.52964301073E+03 -0.37359803864E+03  0.91711539255E+03  0.92765294964E+02 0.  0.
         11    1    3    3    0    0 -0.27661716421E+03 -0.21243976883E+03 -0.10848029912E+03  0.36526112059E+03  0.00000000000E+00 0. -1.
        -11    1    3    3    0    0 -0.36556507629E+03 -0.31720324190E+03 -0.26511773952E+03  0.55185427196E+03  0.00000000000E+00 0.  1.
         22    1    1    2    0    0  0.64218224050E+03  0.52964301073E+03  0.94020002649E+03  0.12557451328E+04  0.00000000000E+00 0. -1.
<mgrwt>
<rscale>  0 0.20976856E+04</rscale>
<asrwt>0</asrwt>
<pdfrwt beam="1">  1        2 0.12355835E+00 0.20976856E+04</pdfrwt>
<pdfrwt beam="2">  1       -2 0.21072789E+00 0.20976856E+04</pdfrwt>
<totfact> 0.35762822E+00</totfact>
</mgrwt>
</event>
<event>
 6    1  0.1878398E-004  0.5742991E+04  0.7818608E-02  0.7723111E-01
          3   -1    0    0  501    0  0.00000000000E+00  0.00000000000E+00  0.36225550521E+04  0.36225550521E+04  0.00000000000E+00 0.  1.
         -3   -1    0    0    0  501 -0.00000000000E+00 -0.00000000000E+00 -0.22761525004E+04  0.22761525004E+04  0.00000000000E+00 0. -1.
         23    2    1    2    0    0  0.19539353288E+04 -0.18827534468E+04  0.16361869583E+04  0.31698618601E+04  0.91063928613E+02 0.  0.
         13    1    3    3    0    0  0.71555465421E+03 -0.65974101061E+03  0.63144586385E+03  0.11601726351E+04  0.00000000000E+00 0.  1.
        -13    1    3    3    0    0  0.12383806746E+04 -0.12230124362E+04  0.10047410944E+04  0.20096892250E+04  0.00000000000E+00 0. -1.
         22    1    1    2    0    0 -0.19539353288E+04  0.18827534468E+04 -0.28978440651E+03  0.27288456924E+04  0.00000000000E+00 0.  1.
<mgrwt>
<rscale>  0 0.57429915E+04</rscale>
<asrwt>0</asrwt>
<pdfrwt beam="1">  1        3 0.55731616E+00 0.57429915E+04</pdfrwt>
<pdfrwt beam="2">  1       -3 0.35017731E+00 0.57429915E+04</pdfrwt>
<totfact> 0.63679830E-05</totfact>
</mgrwt>
</event>
<event>
 6    1  0.3125632E-004  0.4242951E+04  0.7818608E-02  0.7957252E-01
         -1   -1    0    0    0  501 -0.00000000000E+00  0.00000000000E+00  0.14281496762E+04  0.14281496762E+04  0.00000000000E+00 0.  1.
          1   -1    0    0  501    0  0.00000000000E+00 -0.00000000000E+00 -0.31513912994E+04  0.31513912994E+04  0.00000000000E+00 0. -1.
         23    2    1    2    0    0  0.43752810056E+03  0.92699327259E+03  0.11416528126E+04  0.15367844139E+04  0.87108117176E+02 0.  0.
         13    1    3    3    0    0  0.12883024328E+03  0.26414801843E+03  0.38765990290E+03  0.48646850622E+03  0.00000000000E+00 0.  1.
        -13    1    3    3    0    0  0.30869785728E+03  0.66284525416E+03  0.75399290967E+03  0.10503159077E+04  0.00000000000E+00 0. -1.
         22    1    1    2    0    0 -0.43752810056E+03 -0.92699327259E+03 -0.28648944358E+04  0.30427565618E+04  0.00000000000E+00 0. -1.
<mgrwt>
<rscale>  0 0.42429511E+04</rscale>
<asrwt>0</asrwt>
<pdfrwt beam="1">  1        1 0.48482943E+00 0.42429511E+04</pdfrwt>
<pdfrwt beam="2">  1       -1 0.21971534E+00 0.42429511E+04</pdfrwt>
<totfact> 0.39175672E-02</totfact>
</mgrwt>
</event>
<event>
 6    1  0.1878398E-004  0.4472880E+04  0.7818608E-02  0.7915402E-01
          2   -1    0    0  501    0  0.00000000000E+00  0.00000000000E+00  0.32933253600E+04  0.32933253600E+04  0.00000000000E+00 0.  1.
         -2   -1    0    0    0  501 -0.00000000000E+00 -0.00000000000E+00 -0.15187273114E+04  0.15187273114E+04  0.00000000000E+00 0. -1.
         23    2    1    2    0    0 -0.15731833667E+03  0.76356502292E+03  0.31416879039E+04  0.32382943431E+04  0.92556810760E+02 0.  0.
         13    1    3    3    0    0 -0.42380995926E+01  0.21343885386E+03  0.80105871234E+03  0.82901698803E+03  0.00000000000E+00 0. -1.
        -13    1    3    3    0    0 -0.15308023708E+03  0.55012616906E+03  0.23406291916E+04  0.24092773550E+04  0.00000000000E+00 0.  1.
         22    1    1    2    0    0  0.15731833667E+03 -0.76356502292E+03 -0.13670898553E+04  0.15737583283E+04  0.00000000000E+00 0. -1.
<mgrwt>
<rscale>  0 0.44728797E+04</rscale>
<asrwt>0</asrwt>
<pdfrwt beam="1">  1        2 0.50666544E+00 0.44728797E+04</pdfrwt>
<pdfrwt beam="2">  1       -2 0.23365036E+00 0.44728797E+04</pdfrwt>
<totfact> 0.69237576E-02</totfact>
</mgrwt>
</event>
<event>
 6    1  0.1878398E-004  0.9706806E+03  0.7818608E-02  0.9341299E-01
          2   -1    0    0  501    0  0.00000000000E+00  0.00000000000E+00  0.18022656496E+04  0.18022656496E+04  0.00000000000E+00 0.  1.
         -2   -1    0    0    0  501 -0.00000000000E+00 -0.00000000000E+00 -0.13069950050E+03  0.13069950050E+03  0.00000000000E+00 0. -1.
         23    2    1    2    0    0  0.39064726154E+03 -0.27724514044E+03  0.75381623247E+03  0.89771877348E+03  0.90498249016E+02 0.  0.
         11    1    3    3    0    0  0.16248552326E+03 -0.10042185453E+03  0.22412002956E+03  0.29447560474E+03  0.00000000000E+00 0.  1.
        -11    1    3    3    0    0  0.22816173828E+03 -0.17682328591E+03  0.52969620291E+03  0.60324316874E+03  0.00000000000E+00 0. -1.
         22    1    1    2    0    0 -0.39064726154E+03  0.27724514044E+03  0.91774991668E+03  0.10352463767E+04  0.00000000000E+00 0.  1.
<mgrwt>
<rscale>  0 0.97068063E+03</rscale>
<asrwt>0</asrwt>
<pdfrwt beam="1">  1        2 0.27727162E+00 0.97068063E+03</pdfrwt>
<pdfrwt beam="2">  1       -2 0.20107617E-01 0.97068063E+03</pdfrwt>
<totfact> 0.18247536E+02</totfact>
</mgrwt>
</event>
<event>
 6    1  0.2094599E-004  0.2457626E+04  0.7818608E-02  0.8418239E-01
         -2   -1    0    0    0  501 -0.00000000000E+00  0.00000000000E+00  0.67567643216E+03  0.67567643216E+03  0.00000000000E+00 0. -1.
          2   -1    0    0  501    0  0.00000000000E+00 -0.00000000000E+00 -0.22347690544E+04  0.22347690544E+04  0.00000000000E+00 0.  1.
         23    2    1    2    0    0 -0.64737948130E+03  0.63533053907E+02  0.45170697957E+03  0.79704735076E+03  0.90047999562E+02 0.  0.
         13    1    3    3    0    0 -0.37967145033E+03  0.37515525119E+02  0.21035958651E+03  0.43567072482E+03  0.00000000000E+00 0.  1.
        -13    1    3    3    0    0 -0.26770803096E+03  0.26017528787E+02  0.24134739306E+03  0.36137662595E+03  0.00000000000E+00 0. -1.
         22    1    1    2    0    0  0.64737948130E+03 -0.63533053907E+02 -0.20107996018E+04  0.21133981358E+04  0.00000000000E+00 0.  1.
<mgrwt>
<rscale>  0 0.24576255E+04</rscale>
<asrwt>0</asrwt>
<pdfrwt beam="1">  1        2 0.34381062E+00 0.24576255E+04</pdfrwt>
<pdfrwt beam="2">  1       -2 0.10395022E+00 0.24576255E+04</pdfrwt>
<totfact> 0.33261433E+00</totfact>
</mgrwt>
</event>
<event>
 6    1  0.1878398E-004  0.3267292E+04  0.7818608E-02  0.8171268E-01
          2   -1    0    0  501    0  0.00000000000E+00  0.00000000000E+00  0.20574295774E+04  0.20574295774E+04  0.00000000000E+00 0.  1.
         -2   -1    0    0    0  501 -0.00000000000E+00 -0.00000000000E+00 -0.12971518363E+04  0.12971518363E+04  0.00000000000E+00 0. -1.
         23    2    1    2    0    0  0.72921544711E+03 -0.11813139866E+04 -0.50133186319E+03  0.14787038333E+04  0.89294379113E+02 0.  0.
         13    1    3    3    0    0  0.53467473414E+03 -0.92478903747E+03 -0.40808447112E+03  0.11435229647E+04  0.00000000000E+00 0. -1.
        -13    1    3    3    0    0  0.19454071296E+03 -0.25652494917E+03 -0.93247392071E+02  0.33518086860E+03  0.00000000000E+00 0.  1.
         22    1    1    2    0    0 -0.72921544711E+03  0.11813139866E+04  0.12616096043E+04  0.18758775805E+04  0.00000000000E+00 0.  1.
<mgrwt>
<rscale>  0 0.32672916E+04</rscale>
<asrwt>0</asrwt>
<pdfrwt beam="1">  1        2 0.31652763E+00 0.32672916E+04</pdfrwt>
<pdfrwt beam="2">  1       -2 0.19956182E+00 0.32672916E+04</pdfrwt>
<totfact> 0.69592245E-01</totfact>
</mgrwt>
</event>
<event>
 6    1  0.1878398E-004  0.1672182E+04  0.7818608E-02  0.8777391E-01
         -1   -1    0    0    0  501 -0.00000000000E+00  0.00000000000E+00  0.40167866109E+03  0.40167866109E+03  0.00000000000E+00 0. -1.
          1   -1    0    0  501    0  0.00000000000E+00 -0.00000000000E+00 -0.17403165497E+04  0.17403165497E+04  0.00000000000E+00 0.  1.
         23    2    1    2    0    0 -0.74378211085E+03 -0.13947774615E+03 -0.11193375008E+04  0.13541129035E+04  0.89662949725E+02 0.  0.
         11    1    3    3    0    0 -0.58478143632E+03 -0.13825398005E+03 -0.84206666501E+03  0.10344852631E+04  0.00000000000E+00 0. -1.
        -11    1    3    3    0    0 -0.15900067454E+03 -0.12237660981E+01 -0.27727083578E+03  0.31962764036E+03  0.00000000000E+00 0.  1.
         22    1    1    2    0    0  0.74378211085E+03  0.13947774615E+03 -0.21930038782E+03  0.78788230732E+03  0.00000000000E+00 0.  1.
<mgrwt>
<rscale>  0 0.16721818E+04</rscale>
<asrwt>0</asrwt>
<pdfrwt beam="1">  1        1 0.26774101E+00 0.16721818E+04</pdfrwt>
<pdfrwt beam="2">  1       -1 0.61796717E-01 0.16721818E+04</pdfrwt>
<totfact> 0.11333117E+01</totfact>
</mgrwt>
</event>
<event>
 6    1  0.1878398E-004  0.1644658E+04  0.7818608E-02  0.8793573E-01
          2   -1    0    0  501    0  0.00000000000E+00  0.00000000000E+00  0.23809329573E+04  0.23809329573E+04  0.00000000000E+00 0.  1.
         -2   -1    0    0    0  501 -0.00000000000E+00 -0.00000000000E+00 -0.28401681806E+03  0.28401681806E+03  0.00000000000E+00 0. -1.
         23    2    1    2    0    0 -0.25669997849E+03 -0.56422634673E+02  0.23099230514E+04  0.23266446804E+04  0.91937875427E+02 0.  0.
         11    1    3    3    0    0 -0.42079474873E+02 -0.37496698474E+02  0.71785152674E+03  0.72006076066E+03  0.00000000000E+00 0.  1.
        -11    1    3    3    0    0 -0.21462050362E+03 -0.18925936199E+02  0.15920715247E+04  0.16065839198E+04  0.00000000000E+00 0. -1.
         22    1    1    2    0    0  0.25669997849E+03  0.56422634673E+02 -0.21300691213E+03  0.33830509496E+03  0.00000000000E+00 0. -1.
<mgrwt>
<rscale>  0 0.16446580E+04</rscale>
<asrwt>0</asrwt>
<pdfrwt beam="1">  1        2 0.36629736E+00 0.16446580E+04</pdfrwt>
<pdfrwt beam="2">  1       -2 0.43694897E-01 0.16446580E+04</pdfrwt>
<totfact> 0.19376059E+01</totfact>
</mgrwt>
</event>
<event>
 6    1  0.1878398E-004  0.2459127E+04  0.7818608E-02  0.8417693E-01
          2   -1    0    0  501    0  0.00000000000E+00  0.00000000000E+00  0.30794960111E+04  0.30794960111E+04  0.00000000000E+00 0.  1.
         -2   -1    0    0    0  501 -0.00000000000E+00 -0.00000000000E+00 -0.49093299971E+03  0.49093299971E+03  0.00000000000E+00 0. -1.
         23    2    1    2    0    0 -0.27596187931E+03  0.30426789118E+03  0.29760231020E+04  0.30057527936E+04  0.95406729372E+02 0.  0.
         13    1    3    3    0    0 -0.18024921432E+03  0.13149307192E+03  0.14709693804E+04  0.14877940467E+04  0.00000000000E+00 0.  1.
        -13    1    3    3    0    0 -0.95712664992E+02  0.17277481926E+03  0.15050537216E+04  0.15179587469E+04  0.00000000000E+00 0. -1.
         22    1    1    2    0    0  0.27596187931E+03 -0.30426789118E+03 -0.38746009064E+03  0.56467621720E+03  0.00000000000E+00 0. -1.
<mgrwt>
<rscale>  0 0.24591268E+04</rscale>
<asrwt>0</asrwt>
<pdfrwt beam="1">  1        2 0.47376861E+00 0.24591268E+04</pdfrwt>
<pdfrwt beam="2">  1       -2 0.75528156E-01 0.24591268E+04</pdfrwt>
<totfact> 0.21828073E+00</totfact>
</mgrwt>
</event>
<event>
 6    1  0.1878398E-004  0.1828069E+04  0.7818608E-02  0.8691513E-01
         -3   -1    0    0    0  501 -0.00000000000E+00  0.00000000000E+00  0.85685105152E+03  0.85685105152E+03  0.00000000000E+00 0. -1.
          3   -1    0    0  501    0  0.00000000000E+00 -0.00000000000E+00 -0.97503445314E+03  0.97503445314E+03  0.00000000000E+00 0.  1.
         23    2    1    2    0    0 -0.67848429655E+03  0.49654799516E+03 -0.41321806329E+03  0.94084885909E+03  0.86870913796E+02 0.  0.
         13    1    3    3    0    0 -0.60229173414E+02  0.58536724267E+02 -0.16538429426E+02  0.85601524904E+02  0.00000000000E+00 0.  1.
        -13    1    3    3    0    0 -0.61825512314E+03  0.43801127089E+03 -0.39667963387E+03  0.85524733419E+03  0.00000000000E+00 0. -1.
         22    1    1    2    0    0  0.67848429655E+03 -0.49654799516E+03  0.29503466168E+03  0.89103664557E+03  0.00000000000E+00 0. -1.
<mgrwt>
<rscale>  0 0.18280693E+04</rscale>
<asrwt>0</asrwt>
<pdfrwt beam="1">  1        3 0.15000530E+00 0.18280693E+04</pdfrwt>
<pdfrwt beam="2">  1       -3 0.13182324E+00 0.18280693E+04</pdfrwt>
<totfact> 0.35725059E-01</totfact>
</mgrwt>
</event>
<event>
 6    1  0.1878398E-004  0.1278096E+04  0.7818608E-02  0.9047118E-01
          1   -1    0    0  501    0  0.00000000000E+00  0.00000000000E+00  0.36423211041E+03  0.36423211041E+03  0.00000000000E+00 0.  1.
         -1   -1    0    0    0  501 -0.00000000000E+00 -0.00000000000E+00 -0.11212143444E+04  0.11212143444E+04  0.00000000000E+00 0. -1.
         23    2    1    2    0    0  0.78256278857E+02  0.61184478794E+03 -0.20250679329E+03  0.65603636081E+03  0.94321872703E+02 0.  0.
         13    1    3    3    0    0  0.24987327573E+02  0.41763905758E+03 -0.10046054928E+03  0.43027789964E+03  0.00000000000E+00 0. -1.
        -13    1    3    3    0    0  0.53268951284E+02  0.19420573036E+03 -0.10204624401E+03  0.22575846117E+03  0.00000000000E+00 0.  1.
         22    1    1    2    0    0 -0.78256278857E+02 -0.61184478794E+03 -0.55447544073E+03  0.82941009403E+03  0.00000000000E+00 0. -1.
<mgrwt>
<rscale>  0 0.12780959E+04</rscale>
<asrwt>0</asrwt>
<pdfrwt beam="1">  1        1 0.56035710E-01 0.12780959E+04</pdfrwt>
<pdfrwt beam="2">  1       -1 0.17249451E+00 0.12780959E+04</pdfrwt>
<totfact> 0.15773990E+01</totfact>
</mgrwt>
</event>
<event>
 6    1  0.1878398E-004  0.2032007E+04  0.7818608E-02  0.8591801E-01
          1   -1    0    0  501    0  0.00000000000E+00  0.00000000000E+00  0.11881866082E+04  0.11881866082E+04  0.00000000000E+00 0.  1.
         -1   -1    0    0    0  501 -0.00000000000E+00 -0.00000000000E+00 -0.86877174126E+03  0.86877174126E+03  0.00000000000E+00 0. -1.
         23    2    1    2    0    0 -0.73189740362E+03  0.11705221462E+03  0.86045071343E+03  0.11393011054E+04  0.90865549318E+02 0.  0.
         11    1    3    3    0    0 -0.42837413927E+03  0.23479345965E+02  0.50408759024E+03  0.66193653889E+03  0.00000000000E+00 0.  1.
        -11    1    3    3    0    0 -0.30352326435E+03  0.93572868651E+02  0.35636312319E+03  0.47736456646E+03  0.00000000000E+00 0. -1.
         22    1    1    2    0    0  0.73189740362E+03 -0.11705221462E+03 -0.54103584653E+03  0.91765724407E+03  0.00000000000E+00 0. -1.
<mgrwt>
<rscale>  0 0.20320068E+04</rscale>
<asrwt>0</asrwt>
<pdfrwt beam="1">  1        1 0.18279794E+00 0.20320068E+04</pdfrwt>
<pdfrwt beam="2">  1       -1 0.13365719E+00 0.20320068E+04</pdfrwt>
<totfact> 0.47662976E+00</totfact>
</mgrwt>
</event>
<event>
 6    1  0.1878398E-004  0.1442278E+04  0.7818608E-02  0.8923771E-01
          2   -1    0    0  501    0  0.00000000000E+00  0.00000000000E+00  0.10909044922E+04  0.10909044922E+04  0.00000000000E+00 0.  1.
         -2   -1    0    0    0  501 -0.00000000000E+00 -0.00000000000E+00 -0.47670684919E+03  0.47670684919E+03  0.00000000000E+00 0. -1.
         23    2    1    2    0    0  0.54712785525E+03  0.23237343919E+03 -0.13253959737E+03  0.61316762310E+03  0.71144106714E+02 0.  0.
         11    1    3    3    0    0  0.20628940097E+03  0.59109315218E+02 -0.70118152420E+02  0.22575602627E+03  0.00000000000E+00 0.  1.
        -11    1    3    3    0    0  0.34083845428E+03  0.17326412398E+03 -0.62421444947E+02  0.38741159684E+03  0.00000000000E+00 0. -1.
         22    1    1    2    0    0 -0.54712785525E+03 -0.23237343919E+03  0.74673724040E+03  0.95444371831E+03  0.00000000000E+00 0.  1.
<mgrwt>
<rscale>  0 0.14422783E+04</rscale>
<asrwt>0</asrwt>
<pdfrwt beam="1">  1        2 0.16783146E+00 0.14422783E+04</pdfrwt>
<pdfrwt beam="2">  1       -2 0.73339516E-01 0.14422783E+04</pdfrwt>
<totfact> 0.35940823E+01</totfact>
</mgrwt>
</event>
<event>
 6    1  0.1878398E-004  0.3351146E+04  0.7818608E-02  0.8150002E-01
          1   -1    0    0  501    0  0.00000000000E+00  0.00000000000E+00  0.24682631568E+04  0.24682631568E+04  0.00000000000E+00 0.  1.
         -1   -1    0    0    0  501 -0.00000000000E+00 -0.00000000000E+00 -0.11374574910E+04  0.11374574910E+04  0.00000000000E+00 0. -1.
         23    2    1    2    0    0 -0.42742194634E+03 -0.15674322212E+04  0.23036073469E+03  0.16434484102E+04  0.91232235803E+02 0.  0.
         11    1    3    3    0    0 -0.86488948040E+02 -0.19949002296E+03  0.29524549679E+02  0.21942722353E+03  0.00000000000E+00 0.  1.
        -11    1    3    3    0    0 -0.34093299830E+03 -0.13679421982E+04  0.20083618501E+03  0.14240211867E+04  0.00000000000E+00 0. -1.
         22    1    1    2    0    0  0.42742194634E+03  0.15674322212E+04  0.11004449310E+04  0.19622722376E+04  0.00000000000E+00 0. -1.
<mgrwt>
<rscale>  0 0.33511457E+04</rscale>
<asrwt>0</asrwt>
<pdfrwt beam="1">  1        1 0.37973279E+00 0.33511457E+04</pdfrwt>
<pdfrwt beam="2">  1       -1 0.17499346E+00 0.33511457E+04</pdfrwt>
<totfact> 0.26626137E-01</totfact>
</mgrwt>
</event>
<event>
 6    1  0.1878398E-004  0.3524580E+04  0.7818608E-02  0.8107989E-01
         -2   -1    0    0    0  501 -0.00000000000E+00  0.00000000000E+00  0.13329529827E+04  0.13329529827E+04  0.00000000000E+00 0. -1.
          2   -1    0    0  501    0  0.00000000000E+00 -0.00000000000E+00 -0.23299137078E+04  0.23299137078E+04  0.00000000000E+00 0.  1.
         23    2    1    2    0    0  0.94080836137E+03 -0.74913021967E+03 -0.18357560334E+04  0.21966149973E+04  0.93812437980E+02 0.  0.
         13    1    3    3    0    0  0.50607941898E+03 -0.35374602857E+03 -0.98926780550E+03  0.11661489708E+04  0.00000000000E+00 0.  1.
        -13    1    3    3    0    0  0.43472894239E+03 -0.39538419110E+03 -0.84648822785E+03  0.10304660265E+04  0.00000000000E+00 0. -1.
         22    1    1    2    0    0 -0.94080836137E+03  0.74913021967E+03  0.83879530826E+03  0.14662516933E+04  0.00000000000E+00 0. -1.
<mgrwt>
<rscale>  0 0.35245796E+04</rscale>
<asrwt>0</asrwt>
<pdfrwt beam="1">  1        2 0.35844826E+00 0.35245796E+04</pdfrwt>
<pdfrwt beam="2">  1       -2 0.20506969E+00 0.35245796E+04</pdfrwt>
<totfact> 0.44055623E-01</totfact>
</mgrwt>
</event>
<event>
 6    1  0.2806756E-004  0.4286296E+04  0.7818608E-02  0.7949157E-01
         -2   -1    0    0    0  501 -0.00000000000E+00  0.00000000000E+00  0.14884053884E+04  0.14884053884E+04  0.00000000000E+00 0. -1.
          2   -1    0    0  501    0  0.00000000000E+00 -0.00000000000E+00 -0.30859094581E+04  0.30859094581E+04  0.00000000000E+00 0.  1.
         23    2    1    2    0    0 -0.97884443615E+03  0.17391789619E+04 -0.16299387542E+04  0.25783359136E+04  0.90751578342E+02 0.  0.
         13    1    3    3    0    0 -0.43118159002E+03  0.85854592917E+03 -0.78471356712E+03  0.12404813818E+04  0.00000000000E+00 0. -1.
        -13    1    3    3    0    0 -0.54766284614E+03  0.88063303274E+03 -0.84522518707E+03  0.13378545318E+04  0.00000000000E+00 0.  1.
         22    1    1    2    0    0  0.97884443615E+03 -0.17391789619E+04  0.32434684478E+02  0.19959789329E+04  0.00000000000E+00 0. -1.
<mgrwt>
<rscale>  0 0.42862964E+04</rscale>
<asrwt>0</asrwt>
<pdfrwt beam="1">  1        2 0.47475530E+00 0.42862964E+04</pdfrwt>
<pdfrwt beam="2">  1       -2 0.22898545E+00 0.42862964E+04</pdfrwt>
<totfact> 0.10268009E-01</totfact>
</mgrwt>
</event>
<event>
 6    1  0.1878398E-004  0.3225383E+04  0.7818608E-02  0.8182146E-01
         -1   -1    0    0    0  501 -0.00000000000E+00  0.00000000000E+00  0.81673893282E+03  0.81673893282E+03  0.00000000000E+00 0. -1.
          1   -1    0    0  501    0  0.00000000000E+00 -0.00000000000E+00 -0.31843397632E+04  0.31843397632E+04  0.00000000000E+00 0.  1.
         23    2    1    2    0    0 -0.15028579047E+04 -0.39588245422E+03 -0.65663302238E+03  0.16896471830E+04  0.91847035524E+02 0.  0.
         11    1    3    3    0    0 -0.12219133051E+04 -0.30612838689E+03 -0.49603076873E+03  0.13538217157E+04  0.00000000000E+00 0. -1.
        -11    1    3    3    0    0 -0.28094459956E+03 -0.89754067336E+02 -0.16060225364E+03  0.33582546732E+03  0.00000000000E+00 0.  1.
         22    1    1    2    0    0  0.15028579047E+04  0.39588245422E+03 -0.17109678080E+04  0.23114315130E+04  0.00000000000E+00 0.  1.
<mgrwt>
<rscale>  0 0.32253832E+04</rscale>
<asrwt>0</asrwt>
<pdfrwt beam="1">  1        1 0.48989843E+00 0.32253832E+04</pdfrwt>
<pdfrwt beam="2">  1       -1 0.12565214E+00 0.32253832E+04</pdfrwt>
<totfact> 0.20120144E-01</totfact>
</mgrwt>
</event>
<event>
 6    1  0.1878398E-004  0.5936176E+03  0.7818608E-02  0.9918737E-01
          2   -1    0    0  501    0  0.00000000000E+00  0.00000000000E+00  0.70146838632E+03  0.70146838632E+03  0.00000000000E+00 0.  1.
         -2   -1    0    0    0  501 -0.00000000000E+00 -0.00000000000E+00 -0.12558721215E+03  0.12558721215E+03  0.00000000000E+00 0. -1.
         23    2    1    2    0    0  0.14681760570E+02 -0.20147674441E+03  0.46148859276E+01  0.22112358520E+03  0.89810412146E+02 0.  0.
         13    1    3    3    0    0  0.46890186676E+02 -0.11263571001E+03 -0.19601814280E+02  0.12357072428E+03  0.00000000000E+00 0. -1.
        -13    1    3    3    0    0 -0.32208426107E+02 -0.88841034400E+02  0.24216700208E+02  0.97552860924E+02  0.00000000000E+00 0.  1.
         22    1    1    2    0    0 -0.14681760570E+02  0.20147674441E+03  0.57126628823E+03  0.60593201327E+03  0.00000000000E+00 0.  1.
<mgrwt>
<rscale>  0 0.59361758E+03</rscale>
<asrwt>0</asrwt>
<pdfrwt beam="1">  1        2 0.10791821E+00 0.59361758E+03</pdfrwt>
<pdfrwt beam="2">  1       -2 0.19321110E-01 0.59361758E+03</pdfrwt>
<totfact> 0.93072471E+02</totfact>
</mgrwt>
</event>
<event>
 6    1  0.1878398E-004  0.4191152E+03  0.7818608E-02  0.1037355E+00
          2   -1    0    0  501    0  0.00000000000E+00  0.00000000000E+00  0.13049511551E+03  0.13049511551E+03  0.00000000000E+00 0.  1.
         -2   -1    0    0    0  501 -0.00000000000E+00 -0.00000000000E+00 -0.33652137396E+03  0.33652137396E+03  0.00000000000E+00 0. -1.
         23    2    1    2    0    0 -0.18214802550E+03 -0.75002915674E+02 -0.78344252739E+02  0.23226974267E+03  0.94910857481E+02 0.  0.
         11    1    3    3    0    0 -0.15317594941E+03 -0.19617040827E+02 -0.42298149670E+02  0.16011506249E+03  0.00000000000E+00 0. -1.
        -11    1    3    3    0    0 -0.28972076086E+02 -0.55385874847E+02 -0.36046103069E+02  0.72154680180E+02  0.00000000000E+00 0.  1.
         22    1    1    2    0    0  0.18214802550E+03  0.75002915674E+02 -0.12768200571E+03  0.23474674680E+03  0.00000000000E+00 0.  1.
<mgrwt>
<rscale>  0 0.41911524E+03</rscale>
<asrwt>0</asrwt>
<pdfrwt beam="1">  1        2 0.20076172E-01 0.41911524E+03</pdfrwt>
<pdfrwt beam="2">  1       -2 0.51772519E-01 0.41911524E+03</pdfrwt>
<totfact> 0.99706469E+02</totfact>
</mgrwt>
</event>
<event>
 6    1  0.1878398E-004  0.2558277E+04  0.7818608E-02  0.8382513E-01
         -1   -1    0    0    0  501 -0.00000000000E+00  0.00000000000E+00  0.90353827016E+03  0.90353827016E+03  0.00000000000E+00 0. -1.
          1   -1    0    0  501    0  0.00000000000E+00 -0.00000000000E+00 -0.18108754813E+04  0.18108754813E+04  0.00000000000E+00 0.  1.
         23    2    1    2    0    0 -0.42227325943E+03  0.11289802552E+04 -0.90325769087E+03  0.15090392185E+04  0.91726685163E+02 0.  0.
         13    1    3    3    0    0 -0.30145335093E+03  0.90038284403E+03 -0.73189306548E+03  0.11988456314E+04  0.00000000000E+00 0.  1.
        -13    1    3    3    0    0 -0.12081990850E+03  0.22859741113E+03 -0.17136462539E+03  0.31019358714E+03  0.00000000000E+00 0. -1.
         22    1    1    2    0    0  0.42227325943E+03 -0.11289802552E+04 -0.40795202663E+01  0.12053745329E+04  0.00000000000E+00 0. -1.
<mgrwt>
<rscale>  0 0.25582770E+04</rscale>
<asrwt>0</asrwt>
<pdfrwt beam="1">  1        1 0.27859623E+00 0.25582770E+04</pdfrwt>
<pdfrwt beam="2">  1       -1 0.13900589E+00 0.25582770E+04</pdfrwt>
<totfact> 0.15118007E+00</totfact>
</mgrwt>
</event>
<event>
 6    1  0.1878398E-004  0.2857636E+04  0.7818608E-02  0.8285595E-01
         -2   -1    0    0    0  501 -0.00000000000E+00  0.00000000000E+00  0.13017386854E+04  0.13017386854E+04  0.00000000000E+00 0. -1.
          2   -1    0    0  501    0  0.00000000000E+00 -0.00000000000E+00 -0.15683033688E+04  0.15683033688E+04  0.00000000000E+00 0.  1.
         23    2    1    2    0    0  0.47922742913E+03  0.75549808140E+03  0.98350670665E+03  0.13327994708E+04  0.92912364569E+02 0.  0.
         11    1    3    3    0    0  0.21510291766E+03  0.42044444084E+03  0.49305021282E+03  0.68274541769E+03  0.00000000000E+00 0.  1.
        -11    1    3    3    0    0  0.26412451147E+03  0.33505364056E+03  0.49045649383E+03  0.65005405310E+03  0.00000000000E+00 0. -1.
         22    1    1    2    0    0 -0.47922742913E+03 -0.75549808140E+03 -0.12500713901E+04  0.15372425834E+04  0.00000000000E+00 0.  1.
<mgrwt>
<rscale>  0 0.28576362E+04</rscale>
<asrwt>0</asrwt>
<pdfrwt beam="1">  1        2 0.24127744E+00 0.28576362E+04</pdfrwt>
<pdfrwt beam="2">  1       -2 0.20026749E+00 0.28576362E+04</pdfrwt>
<totfact> 0.13329464E+00</totfact>
</mgrwt>
</event>
<event>
 6    1  0.1878398E-004  0.2177979E+04  0.7818608E-02  0.8527650E-01
          2   -1    0    0  501    0  0.00000000000E+00  0.00000000000E+00  0.19815390531E+04  0.19815390531E+04  0.00000000000E+00 0. -1.
         -2   -1    0    0    0  501 -0.00000000000E+00 -0.00000000000E+00 -0.59847306011E+03  0.59847306011E+03  0.00000000000E+00 0.  1.
         23    2    1    2    0    0 -0.52046906731E+03  0.92848191325E+03  0.43079690955E+03  0.11518023525E+04  0.89977601185E+02 0.  0.
         11    1    3    3    0    0 -0.31396983868E+03  0.63964849155E+03  0.26930572896E+03  0.76174328221E+03  0.00000000000E+00 0.  1.
        -11    1    3    3    0    0 -0.20649922863E+03  0.28883342170E+03  0.16149118059E+03  0.39005907030E+03  0.00000000000E+00 0. -1.
         22    1    1    2    0    0  0.52046906731E+03 -0.92848191325E+03  0.95226908339E+03  0.14282097607E+04  0.00000000000E+00 0. -1.
<mgrwt>
<rscale>  0 0.21779786E+04</rscale>
<asrwt>0</asrwt>
<pdfrwt beam="1">  1        2 0.30485216E+00 0.21779786E+04</pdfrwt>
<pdfrwt beam="2">  1       -2 0.92072780E-01 0.21779786E+04</pdfrwt>
<totfact> 0.62797115E+00</totfact>
</mgrwt>
</event>
<event>
 6    1  0.1878398E-004  0.2080034E+04  0.7818608E-02  0.8570090E-01
         -1   -1    0    0    0  501 -0.00000000000E+00  0.00000000000E+00  0.62899336063E+03  0.62899336063E+03  0.00000000000E+00 0. -1.
          1   -1    0    0  501    0  0.00000000000E+00 -0.00000000000E+00 -0.17196293921E+04  0.17196293921E+04  0.00000000000E+00 0.  1.
         23    2    1    2    0    0  0.10202621631E+04 -0.11117092118E+03 -0.72217027174E+03  0.12581820751E+04  0.90544892588E+02 0.  0.
         11    1    3    3    0    0  0.55009271120E+03 -0.14508560052E+02 -0.38516604377E+03  0.67168844750E+03  0.00000000000E+00 0. -1.
        -11    1    3    3    0    0  0.47016945193E+03 -0.96662361132E+02 -0.33700422797E+03  0.58649362763E+03  0.00000000000E+00 0.  1.
         22    1    1    2    0    0 -0.10202621631E+04  0.11117092118E+03 -0.36846575971E+03  0.10904406776E+04  0.00000000000E+00 0. -1.
<mgrwt>
<rscale>  0 0.20800341E+04</rscale>
<asrwt>0</asrwt>
<pdfrwt beam="1">  1        1 0.26455837E+00 0.20800341E+04</pdfrwt>
<pdfrwt beam="2">  1       -1 0.96768210E-01 0.20800341E+04</pdfrwt>
<totfact> 0.43723903E+00</totfact>
</mgrwt>
</event>
<event>
 6    1  0.1878398E-004  0.3251878E+04  0.7818608E-02  0.8175249E-01
         -1   -1    0    0    0  501 -0.00000000000E+00  0.00000000000E+00  0.16588185756E+04  0.16588185756E+04  0.00000000000E+00 0. -1.
          1   -1    0    0  501    0  0.00000000000E+00 -0.00000000000E+00 -0.15937108902E+04  0.15937108902E+04  0.00000000000E+00 0.  1.
         23    2    1    2    0    0 -0.13621450574E+04  0.96397980671E+02  0.91288681317E+03  0.16452145690E+04  0.92935010844E+02 0.  0.
         13    1    3    3    0    0 -0.15303078043E+03 -0.17724205386E+02  0.94682134766E+02  0.18082387524E+03  0.00000000000E+00 0. -1.
        -13    1    3    3    0    0 -0.12091142770E+04  0.11412218606E+03  0.81820467840E+03  0.14643906937E+04  0.00000000000E+00 0.  1.
         22    1    1    2    0    0  0.13621450574E+04 -0.96397980671E+02 -0.84777912782E+03  0.16073148969E+04  0.00000000000E+00 0.  1.
<mgrwt>
<rscale>  0 0.32518778E+04</rscale>
<asrwt>0</asrwt>
<pdfrwt beam="1">  1        1 0.24518629E+00 0.32518778E+04</pdfrwt>
<pdfrwt beam="2">  1       -1 0.25520286E+00 0.32518778E+04</pdfrwt>
<totfact> 0.30268495E-01</totfact>
</mgrwt>
</event>
<event>
 6    1  0.1878398E-004  0.2913129E+04  0.7818608E-02  0.8268982E-01
          2   -1    0    0  501    0  0.00000000000E+00  0.00000000000E+00  0.33630498969E+04  0.33630498969E+04  0.00000000000E+00 0.  1.
         -2   -1    0    0    0  501 -0.00000000000E+00 -0.00000000000E+00 -0.63085009452E+03  0.63085009452E+03  0.00000000000E+00 0. -1.
         23    2    1    2    0    0  0.31358988783E+03  0.10363294382E+03  0.33103767425E+04  0.33280419142E+04  0.90500829412E+02 0.  0.
         13    1    3    3    0    0  0.21401747097E+03  0.24829023596E+02  0.20946068742E+04  0.21056585468E+04  0.00000000000E+00 0. -1.
        -13    1    3    3    0    0  0.99572416864E+02  0.78803920227E+02  0.12157698684E+04  0.12223833674E+04  0.00000000000E+00 0.  1.
         22    1    1    2    0    0 -0.31358988783E+03 -0.10363294382E+03 -0.57817694020E+03  0.66585807720E+03  0.00000000000E+00 0. -1.
<mgrwt>
<rscale>  0 0.29131291E+04</rscale>
<asrwt>0</asrwt>
<pdfrwt beam="1">  1        2 0.51739228E+00 0.29131291E+04</pdfrwt>
<pdfrwt beam="2">  1       -2 0.97053862E-01 0.29131291E+04</pdfrwt>
<totfact> 0.77157874E-01</totfact>
</mgrwt>
</event>
<event>
 6    1  0.1878398E-004  0.2479676E+04  0.7818608E-02  0.8410262E-01
          2   -1    0    0  501    0  0.00000000000E+00  0.00000000000E+00  0.67422753920E+03  0.67422753920E+03  0.00000000000E+00 0.  1.
         -2   -1    0    0    0  501 -0.00000000000E+00 -0.00000000000E+00 -0.22799389904E+04  0.22799389904E+04  0.00000000000E+00 0. -1.
         23    2    1    2    0    0  0.41634514964E+03 -0.28259242672E+03 -0.21516730505E+04  0.22116870139E+04  0.93063245429E+02 0.  0.
         13    1    3    3    0    0  0.19592432353E+03 -0.16349397556E+03 -0.12544074229E+04  0.12800994505E+04  0.00000000000E+00 0. -1.
        -13    1    3    3    0    0  0.22042082611E+03 -0.11909845116E+03 -0.89726562767E+03  0.93158756339E+03  0.00000000000E+00 0.  1.
         22    1    1    2    0    0 -0.41634514964E+03  0.28259242672E+03  0.54596159936E+03  0.74247951570E+03  0.00000000000E+00 0.  1.
<mgrwt>
<rscale>  0 0.24796755E+04</rscale>
<asrwt>0</asrwt>
<pdfrwt beam="1">  1        2 0.10372731E+00 0.24796755E+04</pdfrwt>
<pdfrwt beam="2">  1       -2 0.35075985E+00 0.24796755E+04</pdfrwt>
<totfact> 0.59084870E-01</totfact>
</mgrwt>
</event>
<event>
 6    1  0.1878398E-004  0.4324793E+03  0.7818608E-02  0.1033080E+00
         -2   -1    0    0    0  501 -0.00000000000E+00  0.00000000000E+00  0.93599643698E+02  0.93599643698E+02  0.00000000000E+00 0. -1.
          2   -1    0    0  501    0  0.00000000000E+00 -0.00000000000E+00 -0.49957006007E+03  0.49957006007E+03  0.00000000000E+00 0.  1.
         23    2    1    2    0    0  0.10671912889E+03 -0.64499995068E+02 -0.43926356283E+03  0.46410516396E+03  0.83017490602E+02 0.  0.
         13    1    3    3    0    0  0.64175786641E+02 -0.67492005294E+02 -0.19442757329E+03  0.21558242884E+03  0.00000000000E+00 0.  1.
        -13    1    3    3    0    0  0.42543342250E+02  0.29920102260E+01 -0.24483598955E+03  0.24852273512E+03  0.00000000000E+00 0. -1.
         22    1    1    2    0    0 -0.10671912889E+03  0.64499995068E+02  0.33293146460E+02  0.12906453981E+03  0.00000000000E+00 0. -1.
<mgrwt>
<rscale>  0 0.43247927E+03</rscale>
<asrwt>0</asrwt>
<pdfrwt beam="1">  1        2 0.76856934E-01 0.43247927E+03</pdfrwt>
<pdfrwt beam="2">  1       -2 0.14399945E-01 0.43247927E+03</pdfrwt>
<totfact> 0.22971142E+03</totfact>
</mgrwt>
</event>
<event>
 6    1  0.1878398E-004  0.2188197E+04  0.7818608E-02  0.8523357E-01
         -2   -1    0    0    0  501 -0.00000000000E+00  0.00000000000E+00  0.81326953204E+03  0.81326953204E+03  0.00000000000E+00 0. -1.
          2   -1    0    0  501    0  0.00000000000E+00 -0.00000000000E+00 -0.14718998128E+04  0.14718998128E+04  0.00000000000E+00 0.  1.
         23    2    1    2    0    0 -0.82555446075E+03 -0.59855001993E+03 -0.73794108864E+03  0.12623827110E+04  0.96180895717E+02 0.  0.
         13    1    3    3    0    0 -0.27194232583E+03 -0.15122990887E+03 -0.19533148772E+03  0.36739284697E+03  0.00000000000E+00 0.  1.
        -13    1    3    3    0    0 -0.55361213492E+03 -0.44732011106E+03 -0.54260960093E+03  0.89498986403E+03  0.00000000000E+00 0. -1.
         22    1    1    2    0    0  0.82555446075E+03  0.59855001993E+03  0.79310807915E+02  0.10227866338E+04  0.00000000000E+00 0. -1.
<mgrwt>
<rscale>  0 0.21881968E+04</rscale>
<asrwt>0</asrwt>
<pdfrwt beam="1">  1        2 0.22644612E+00 0.21881968E+04</pdfrwt>
<pdfrwt beam="2">  1       -2 0.12511839E+00 0.21881968E+04</pdfrwt>
<totfact> 0.57637474E+00</totfact>
</mgrwt>
</event>
<event>
 6    1  0.2171890E-004  0.3910653E+04  0.7818608E-02  0.8022817E-01
         -2   -1    0    0    0  501 -0.00000000000E+00  0.00000000000E+00  0.14717278377E+04  0.14717278377E+04  0.00000000000E+00 0. -1.
          2   -1    0    0  501    0  0.00000000000E+00 -0.00000000000E+00 -0.25978315434E+04  0.25978315434E+04  0.00000000000E+00 0.  1.
         23    2    1    2    0    0  0.13986644458E+04  0.68104945447E+03  0.66752869329E+03  0.16952789061E+04  0.91024293173E+02 0.  0.
         13    1    3    3    0    0  0.62875885515E+03  0.32210630613E+03  0.34995366377E+03  0.78838933096E+03  0.00000000000E+00 0.  1.
        -13    1    3    3    0    0  0.76990559060E+03  0.35894314833E+03  0.31757502953E+03  0.90688957517E+03  0.00000000000E+00 0. -1.
         22    1    1    2    0    0 -0.13986644458E+04 -0.68104945447E+03 -0.17936323990E+04  0.23742804750E+04  0.00000000000E+00 0.  1.
<mgrwt>
<rscale>  0 0.39106526E+04</rscale>
<asrwt>0</asrwt>
<pdfrwt beam="1">  1        2 0.39966639E+00 0.39106526E+04</pdfrwt>
<pdfrwt beam="2">  1       -2 0.22641967E+00 0.39106526E+04</pdfrwt>
<totfact> 0.21833567E-01</totfact>
</mgrwt>
</event>
<event>
 6    1  0.1878398E-004  0.2531546E+04  0.7818608E-02  0.8391833E-01
         -1   -1    0    0    0  501 -0.00000000000E+00  0.00000000000E+00  0.56770209367E+03  0.56770209367E+03  0.00000000000E+00 0. -1.
          1   -1    0    0  501    0  0.00000000000E+00 -0.00000000000E+00 -0.28222209896E+04  0.28222209896E+04  0.00000000000E+00 0.  1.
         23    2    1    2    0    0 -0.55308334055E+03  0.42243099578E+02  0.39212794379E+03  0.68577346551E+03  0.93996067184E+02 0.  0.
         11    1    3    3    0    0 -0.24377292272E+03  0.46161662905E+02  0.22098633277E+03  0.33225155567E+03  0.00000000000E+00 0.  1.
        -11    1    3    3    0    0 -0.30931041784E+03 -0.39185633270E+01  0.17114161101E+03  0.35352190985E+03  0.00000000000E+00 0. -1.
         22    1    1    2    0    0  0.55308334055E+03 -0.42243099578E+02 -0.26466468398E+04  0.27041496178E+04  0.00000000000E+00 0.  1.
<mgrwt>
<rscale>  0 0.25315456E+04</rscale>
<asrwt>0</asrwt>
<pdfrwt beam="1">  1        1 0.43418786E+00 0.25315456E+04</pdfrwt>
<pdfrwt beam="2">  1       -1 0.87338781E-01 0.25315456E+04</pdfrwt>
<totfact> 0.91836859E-01</totfact>
</mgrwt>
</event>
<event>
 6    1  0.1878398E-004  0.1881106E+04  0.7818608E-02  0.8664319E-01
         -1   -1    0    0    0  501 -0.00000000000E+00  0.00000000000E+00  0.47462751971E+03  0.47462751971E+03  0.00000000000E+00 0.  1.
          1   -1    0    0  501    0  0.00000000000E+00 -0.00000000000E+00 -0.18638616666E+04  0.18638616666E+04  0.00000000000E+00 0. -1.
         23    2    1    2    0    0 -0.30532527712E+03  0.20155061951E+01  0.40682308605E+03  0.51666340674E+03  0.90600581727E+02 0.  0.
         11    1    3    3    0    0 -0.21635401400E+03  0.41660732098E+02  0.26530938068E+03  0.34486771877E+03  0.00000000000E+00 0. -1.
        -11    1    3    3    0    0 -0.88971263118E+02 -0.39645225903E+02  0.14151370537E+03  0.17179568797E+03  0.00000000000E+00 0.  1.
         22    1    1    2    0    0  0.30532527712E+03 -0.20155061951E+01 -0.17960572330E+04  0.18218257796E+04  0.00000000000E+00 0. -1.
<mgrwt>
<rscale>  0 0.18811061E+04</rscale>
<asrwt>0</asrwt>
<pdfrwt beam="1">  1        1 0.28674795E+00 0.18811061E+04</pdfrwt>
<pdfrwt beam="2">  1       -1 0.73019617E-01 0.18811061E+04</pdfrwt>
<totfact> 0.65313327E+00</totfact>
</mgrwt>
</event>
<event>
 6    1  0.1878398E-004  0.2844678E+04  0.7818608E-02  0.8289530E-01
         -2   -1    0    0    0  501 -0.00000000000E+00  0.00000000000E+00  0.63495343788E+03  0.63495343788E+03  0.00000000000E+00 0. -1.
          2   -1    0    0  501    0  0.00000000000E+00 -0.00000000000E+00 -0.31861356705E+04  0.31861356705E+04  0.00000000000E+00 0.  1.
         23    2    1    2    0    0  0.78501866222E+03  0.39616386641E+03 -0.27760945685E+04  0.29134627162E+04  0.91454012015E+02 0.  0.
         13    1    3    3    0    0  0.61218749069E+03  0.26837173734E+03 -0.20502055540E+04  0.21564182634E+04  0.00000000000E+00 0.  1.
        -13    1    3    3    0    0  0.17283117153E+03  0.12779212906E+03 -0.72588901444E+03  0.75704445272E+03  0.00000000000E+00 0. -1.
         22    1    1    2    0    0 -0.78501866222E+03 -0.39616386641E+03  0.22491233583E+03  0.90762639224E+03  0.00000000000E+00 0. -1.
<mgrwt>
<rscale>  0 0.28446777E+04</rscale>
<asrwt>0</asrwt>
<pdfrwt beam="1">  1        2 0.49017472E+00 0.28446777E+04</pdfrwt>
<pdfrwt beam="2">  1       -2 0.97685144E-01 0.28446777E+04</pdfrwt>
<totfact> 0.10016614E+00</totfact>
</mgrwt>
</event>
<event>
 6    1  0.1878398E-004  0.3707626E+04  0.7818608E-02  0.8066274E-01
         -2   -1    0    0    0  501 -0.00000000000E+00  0.00000000000E+00  0.12893327588E+04  0.12893327588E+04  0.00000000000E+00 0. -1.
          2   -1    0    0  501    0  0.00000000000E+00 -0.00000000000E+00 -0.26654274544E+04  0.26654274544E+04  0.00000000000E+00 0.  1.
         23    2    1    2    0    0 -0.57553884520E+03 -0.17072734590E+04 -0.11472667048E+04  0.21386132269E+04  0.10685511936E+03 0.  0.
         13    1    3    3    0    0 -0.38747411170E+03 -0.11670429781E+04 -0.72371879937E+03  0.14268477146E+04  0.00000000000E+00 0. -1.
        -13    1    3    3    0    0 -0.18806473350E+03 -0.54023048083E+03 -0.42354790542E+03  0.71176551236E+03  0.00000000000E+00 0.  1.
         22    1    1    2    0    0  0.57553884520E+03  0.17072734590E+04 -0.22882799082E+03  0.18161469862E+04  0.00000000000E+00 0.  1.
<mgrwt>
<rscale>  0 0.37076262E+04</rscale>
<asrwt>0</asrwt>
<pdfrwt beam="1">  1        2 0.41006576E+00 0.37076262E+04</pdfrwt>
<pdfrwt beam="2">  1       -2 0.19835889E+00 0.37076262E+04</pdfrwt>
<totfact> 0.30664207E-01</totfact>
</mgrwt>
</event>
<event>
 6    1  0.1878398E-004  0.5673624E+03  0.7818608E-02  0.9975532E-01
          2   -1    0    0  501    0  0.00000000000E+00  0.00000000000E+00  0.66400347663E+03  0.66400347663E+03  0.00000000000E+00 0.  1.
         -2   -1    0    0    0  501 -0.00000000000E+00 -0.00000000000E+00 -0.12119667784E+03  0.12119667784E+03  0.00000000000E+00 0. -1.
         23    2    1    2    0    0  0.18342552979E+03 -0.34972987098E+02  0.56035830191E+03  0.59764725509E+03  0.91174449254E+02 0.  0.
         11    1    3    3    0    0  0.12553301007E+03 -0.51960764059E+02  0.46805662175E+03  0.48737609583E+03  0.00000000000E+00 0. -1.
        -11    1    3    3    0    0  0.57892519722E+02  0.16987776961E+02  0.92301680152E+02  0.11027115926E+03  0.00000000000E+00 0.  1.
         22    1    1    2    0    0 -0.18342552979E+03  0.34972987098E+02 -0.17551503119E+02  0.18755289938E+03  0.00000000000E+00 0. -1.
<mgrwt>
<rscale>  0 0.56736237E+03</rscale>
<asrwt>0</asrwt>
<pdfrwt beam="1">  1        2 0.10215438E+00 0.56736237E+03</pdfrwt>
<pdfrwt beam="2">  1       -2 0.18645643E-01 0.56736237E+03</pdfrwt>
<totfact> 0.10600672E+03</totfact>
</mgrwt>
</event>
<event>
 6    1  0.1878398E-004  0.2316205E+04  0.7818608E-02  0.8471559E-01
          2   -1    0    0  501    0  0.00000000000E+00  0.00000000000E+00  0.10562695065E+04  0.10562695065E+04  0.00000000000E+00 0.  1.
         -2   -1    0    0    0  501 -0.00000000000E+00 -0.00000000000E+00 -0.12697527576E+04  0.12697527576E+04  0.00000000000E+00 0. -1.
         23    2    1    2    0    0  0.30673503237E+03  0.77240919231E+03 -0.91432701555E+03  0.12388772312E+04  0.90114162410E+02 0.  0.
         13    1    3    3    0    0  0.10913766962E+03  0.38960734300E+03 -0.42020585698E+03  0.58333341657E+03  0.00000000000E+00 0.  1.
        -13    1    3    3    0    0  0.19759736274E+03  0.38280184931E+03 -0.49412115857E+03  0.65554381466E+03  0.00000000000E+00 0. -1.
         22    1    1    2    0    0 -0.30673503237E+03 -0.77240919231E+03  0.70084376447E+03  0.10871450329E+04  0.00000000000E+00 0.  1.
<mgrwt>
<rscale>  0 0.23162048E+04</rscale>
<asrwt>0</asrwt>
<pdfrwt beam="1">  1        2 0.16250300E+00 0.23162048E+04</pdfrwt>
<pdfrwt beam="2">  1       -2 0.19534658E+00 0.23162048E+04</pdfrwt>
<totfact> 0.29978334E+00</totfact>
</mgrwt>
</event>
<event>
 6    1  0.1878398E-004  0.3376023E+04  0.7818608E-02  0.8143816E-01
          2   -1    0    0  501    0  0.00000000000E+00  0.00000000000E+00  0.33466234867E+04  0.33466234867E+04  0.00000000000E+00 0.  1.
         -2   -1    0    0    0  501 -0.00000000000E+00 -0.00000000000E+00 -0.85142025794E+03  0.85142025794E+03  0.00000000000E+00 0. -1.
         23    2    1    2    0    0  0.11109234523E+04  0.70644721648E+02  0.28244426740E+04  0.30372077502E+04  0.89514835068E+02 0.  0.
         13    1    3    3    0    0  0.42481305631E+03  0.50791624737E+02  0.98671594839E+03  0.10754786306E+04  0.00000000000E+00 0.  1.
        -13    1    3    3    0    0  0.68611039599E+03  0.19853096911E+02  0.18377267256E+04  0.19617291196E+04  0.00000000000E+00 0. -1.
         22    1    1    2    0    0 -0.11109234523E+04 -0.70644721648E+02 -0.32923944526E+03  0.11608359944E+04  0.00000000000E+00 0. -1.
<mgrwt>
<rscale>  0 0.33760231E+04</rscale>
<asrwt>0</asrwt>
<pdfrwt beam="1">  1        2 0.51486515E+00 0.33760231E+04</pdfrwt>
<pdfrwt beam="2">  1       -2 0.13098773E+00 0.33760231E+04</pdfrwt>
<totfact> 0.36605333E-01</totfact>
</mgrwt>
</event>
<event>
 6    1  0.1878398E-004  0.1294029E+04  0.7818608E-02  0.9034314E-01
          1   -1    0    0  501    0  0.00000000000E+00  0.00000000000E+00  0.44950039677E+03  0.44950039677E+03  0.00000000000E+00 0.  1.
         -1   -1    0    0    0  501 -0.00000000000E+00 -0.00000000000E+00 -0.93131735817E+03  0.93131735817E+03  0.00000000000E+00 0. -1.
         23    2    1    2    0    0  0.14849733412E+03  0.33353951084E+03 -0.80781667994E+03  0.89135286342E+03  0.92962762432E+02 0.  0.
         13    1    3    3    0    0  0.91583438862E+02  0.25739496235E+03 -0.50770873975E+03  0.57654822637E+03  0.00000000000E+00 0. -1.
        -13    1    3    3    0    0  0.56913895254E+02  0.76144548494E+02 -0.30010794020E+03  0.31480463705E+03  0.00000000000E+00 0.  1.
         22    1    1    2    0    0 -0.14849733412E+03 -0.33353951084E+03  0.32599971855E+03  0.48946489152E+03  0.00000000000E+00 0.  1.
<mgrwt>
<rscale>  0 0.12940286E+04</rscale>
<asrwt>0</asrwt>
<pdfrwt beam="1">  1        1 0.69153908E-01 0.12940286E+04</pdfrwt>
<pdfrwt beam="2">  1       -1 0.14327959E+00 0.12940286E+04</pdfrwt>
<totfact> 0.19882062E+01</totfact>
</mgrwt>
</event>
<event>
 6    1  0.1878398E-004  0.2839771E+04  0.7818608E-02  0.8291026E-01
         -2   -1    0    0    0  501 -0.00000000000E+00  0.00000000000E+00  0.12149124353E+04  0.12149124353E+04  0.00000000000E+00 0. -1.
          2   -1    0    0  501    0  0.00000000000E+00 -0.00000000000E+00 -0.16594404083E+04  0.16594404083E+04  0.00000000000E+00 0.  1.
         23    2    1    2    0    0  0.11933803669E+04  0.76052678613E+03 -0.32102173114E+03  0.14538559290E+04  0.89913390424E+02 0.  0.
         11    1    3    3    0    0  0.69281849884E+03  0.41909773399E+03 -0.22483086859E+03  0.84035070205E+03  0.00000000000E+00 0. -1.
        -11    1    3    3    0    0  0.50056186811E+03  0.34142905215E+03 -0.96190862550E+02  0.61350522695E+03  0.00000000000E+00 0.  1.
         22    1    1    2    0    0 -0.11933803669E+04 -0.76052678613E+03 -0.12350624193E+03  0.14204969146E+04  0.00000000000E+00 0.  1.
<mgrwt>
<rscale>  0 0.28397710E+04</rscale>
<asrwt>0</asrwt>
<pdfrwt beam="1">  1        2 0.25529852E+00 0.28397710E+04</pdfrwt>
<pdfrwt beam="2">  1       -2 0.18690961E+00 0.28397710E+04</pdfrwt>
<totfact> 0.14573244E+00</totfact>
</mgrwt>
</event>
<event>
 6    1  0.1878398E-004  0.1340959E+04  0.7818608E-02  0.8997700E-01
         -1   -1    0    0    0  501 -0.00000000000E+00  0.00000000000E+00  0.71750382359E+03  0.71750382359E+03  0.00000000000E+00 0. -1.
          1   -1    0    0  501    0  0.00000000000E+00 -0.00000000000E+00 -0.62653720646E+03  0.62653720646E+03  0.00000000000E+00 0.  1.
         23    2    1    2    0    0 -0.16600416629E+03  0.32495581636E+03 -0.51433462018E+03  0.63725729105E+03  0.91668356926E+02 0.  0.
         13    1    3    3    0    0 -0.92288000485E+02  0.12859468785E+03 -0.15716631894E+03  0.22305811034E+03  0.00000000000E+00 0. -1.
        -13    1    3    3    0    0 -0.73716165810E+02  0.19636112851E+03 -0.35716830124E+03  0.41419918071E+03  0.00000000000E+00 0.  1.
         22    1    1    2    0    0  0.16600416629E+03 -0.32495581636E+03  0.60530123731E+03  0.70678373899E+03  0.00000000000E+00 0. -1.
<mgrwt>
<rscale>  0 0.13409591E+04</rscale>
<asrwt>0</asrwt>
<pdfrwt beam="1">  1        1 0.96390340E-01 0.13409591E+04</pdfrwt>
<pdfrwt beam="2">  1       -1 0.11038520E+00 0.13409591E+04</pdfrwt>
<totfact> 0.23849302E+01</totfact>
</mgrwt>
</event>
<event>
 6    1  0.1878398E-004  0.1688836E+04  0.7818608E-02  0.8767757E-01
          2   -1    0    0  501    0  0.00000000000E+00  0.00000000000E+00  0.10411640793E+04  0.10411640793E+04  0.00000000000E+00 0.  1.
         -2   -1    0    0    0  501 -0.00000000000E+00 -0.00000000000E+00 -0.68485044663E+03  0.68485044663E+03  0.00000000000E+00 0. -1.
         23    2    1    2    0    0 -0.65277123280E+03 -0.49086161857E+03  0.38759623422E+03  0.90868104924E+03  0.91733295473E+02 0.  0.
         13    1    3    3    0    0 -0.42093910421E+03 -0.31688628227E+03  0.20078607235E+03  0.56384545063E+03  0.00000000000E+00 0. -1.
        -13    1    3    3    0    0 -0.23183212859E+03 -0.17397533630E+03  0.18681016188E+03  0.34483559861E+03  0.00000000000E+00 0.  1.
         22    1    1    2    0    0  0.65277123280E+03  0.49086161857E+03 -0.31282601549E+02  0.81733347669E+03  0.00000000000E+00 0.  1.
<mgrwt>
<rscale>  0 0.16888359E+04</rscale>
<asrwt>0</asrwt>
<pdfrwt beam="1">  1        2 0.16017909E+00 0.16888359E+04</pdfrwt>
<pdfrwt beam="2">  1       -2 0.10536161E+00 0.16888359E+04</pdfrwt>
<totfact> 0.16465596E+01</totfact>
</mgrwt>
</event>
<event>
 6    1  0.1878398E-004  0.3598718E+04  0.7818608E-02  0.8090785E-01
         -1   -1    0    0    0  501 -0.00000000000E+00  0.00000000000E+00  0.16877505537E+04  0.16877505537E+04  0.00000000000E+00 0. -1.
          1   -1    0    0  501    0  0.00000000000E+00 -0.00000000000E+00 -0.19183483932E+04  0.19183483932E+04  0.00000000000E+00 0.  1.
         23    2    1    2    0    0 -0.83144652022E+03 -0.10189998980E+04 -0.13442794018E+04  0.18827444476E+04  0.89305300797E+02 0.  0.
         13    1    3    3    0    0 -0.23405654188E+03 -0.34033386835E+03 -0.38773523578E+03  0.56652292081E+03  0.00000000000E+00 0. -1.
        -13    1    3    3    0    0 -0.59738997834E+03 -0.67866602964E+03 -0.95654416604E+03  0.13162215268E+04  0.00000000000E+00 0.  1.
         22    1    1    2    0    0  0.83144652022E+03  0.10189998980E+04  0.11136815623E+04  0.17233544993E+04  0.00000000000E+00 0. -1.
<mgrwt>
<rscale>  0 0.35987184E+04</rscale>
<asrwt>0</asrwt>
<pdfrwt beam="1">  1        1 0.29513052E+00 0.35987184E+04</pdfrwt>
<pdfrwt beam="2">  1       -1 0.25965393E+00 0.35987184E+04</pdfrwt>
<totfact> 0.16523248E-01</totfact>
</mgrwt>
</event>
<event>
 6    1  0.1878398E-004  0.3772698E+04  0.7818608E-02  0.8052039E-01
         -1   -1    0    0    0  501 -0.00000000000E+00  0.00000000000E+00  0.11974431064E+04  0.11974431064E+04  0.00000000000E+00 0.  1.
          1   -1    0    0  501    0  0.00000000000E+00 -0.00000000000E+00 -0.29715928488E+04  0.29715928488E+04  0.00000000000E+00 0. -1.
         23    2    1    2    0    0  0.47336594060E+03 -0.18174163268E+04 -0.70239286727E+03  0.20066899565E+04  0.79821192104E+02 0.  0.
         11    1    3    3    0    0  0.36289329552E+03 -0.13020093474E+04 -0.53453358071E+03  0.14534944216E+04  0.00000000000E+00 0.  1.
        -11    1    3    3    0    0  0.11047264508E+03 -0.51540697941E+03 -0.16785928657E+03  0.55319553489E+03  0.00000000000E+00 0. -1.
         22    1    1    2    0    0 -0.47336594060E+03  0.18174163268E+04 -0.10717568751E+04  0.21623459987E+04  0.00000000000E+00 0. -1.
<mgrwt>
<rscale>  0 0.37726984E+04</rscale>
<asrwt>0</asrwt>
<pdfrwt beam="1">  1        1 0.45716812E+00 0.37726984E+04</pdfrwt>
<pdfrwt beam="2">  1       -1 0.18422202E+00 0.37726984E+04</pdfrwt>
<totfact> 0.97001676E-02</totfact>
</mgrwt>
</event>
<event>
 6    1  0.1878398E-004  0.2008978E+04  0.7818608E-02  0.8602435E-01
          2   -1    0    0  501    0  0.00000000000E+00  0.00000000000E+00  0.76635556367E+03  0.76635556367E+03  0.00000000000E+00 0.  1.
         -2   -1    0    0    0  501 -0.00000000000E+00 -0.00000000000E+00 -0.13166191421E+04  0.13166191421E+04  0.00000000000E+00 0. -1.
         23    2    1    2    0    0  0.39285015265E+03  0.48267872397E+02 -0.12305824559E+04  0.12958947830E+04  0.91373288106E+02 0.  0.
         13    1    3    3    0    0  0.19984376197E+03  0.68753568004E+02 -0.60117106719E+03  0.63723718844E+03  0.00000000000E+00 0. -1.
        -13    1    3    3    0    0  0.19300639068E+03 -0.20485695606E+02 -0.62941138871E+03  0.65865759451E+03  0.00000000000E+00 0.  1.
         22    1    1    2    0    0 -0.39285015265E+03 -0.48267872397E+02  0.68031887744E+03  0.78707992284E+03  0.00000000000E+00 0.  1.
<mgrwt>
<rscale>  0 0.20089783E+04</rscale>
<asrwt>0</asrwt>
<pdfrwt beam="1">  1        2 0.11790086E+00 0.20089783E+04</pdfrwt>
<pdfrwt beam="2">  1       -2 0.20255679E+00 0.20089783E+04</pdfrwt>
<totfact> 0.43290251E+00</totfact>
</mgrwt>
</event>
<event>
 6    1  0.1878398E-004  0.2344658E+04  0.7818608E-02  0.8460518E-01
         -2   -1    0    0    0  501 -0.00000000000E+00  0.00000000000E+00  0.17689137331E+04  0.17689137331E+04  0.00000000000E+00 0. -1.
          2   -1    0    0  501    0  0.00000000000E+00 -0.00000000000E+00 -0.77694857240E+03  0.77694857240E+03  0.00000000000E+00 0.  1.
         23    2    1    2    0    0 -0.10963228973E+04  0.13676810793E+03  0.91671060845E+03  0.14384813150E+04  0.90778540575E+02 0.  0.
         11    1    3    3    0    0 -0.80325526591E+03  0.12412536207E+03  0.63074984654E+03  0.10288204394E+04  0.00000000000E+00 0. -1.
        -11    1    3    3    0    0 -0.29306763137E+03  0.12642745860E+02  0.28596076192E+03  0.40966087553E+03  0.00000000000E+00 0.  1.
         22    1    1    2    0    0  0.10963228973E+04 -0.13676810793E+03  0.75254552196E+02  0.11073809905E+04  0.00000000000E+00 0.  1.
<mgrwt>
<rscale>  0 0.23446578E+04</rscale>
<asrwt>0</asrwt>
<pdfrwt beam="1">  1        2 0.11953055E+00 0.23446578E+04</pdfrwt>
<pdfrwt beam="2">  1       -2 0.27214057E+00 0.23446578E+04</pdfrwt>
<totfact> 0.15212017E+00</totfact>
</mgrwt>
</event>
<event>
 6    1  0.1878398E-004  0.2118539E+04  0.7818608E-02  0.8553121E-01
         -2   -1    0    0    0  501 -0.00000000000E+00  0.00000000000E+00  0.29054541578E+03  0.29054541578E+03  0.00000000000E+00 0. -1.
          2   -1    0    0  501    0  0.00000000000E+00 -0.00000000000E+00 -0.38618808597E+04  0.38618808597E+04  0.00000000000E+00 0.  1.
         23    2    1    2    0    0 -0.28654989093E+03  0.62457285430E+03 -0.33633787718E+04  0.34344791550E+04  0.10549034799E+03 0.  0.
         13    1    3    3    0    0 -0.16328833495E+03  0.39310141769E+03 -0.18314562831E+04  0.18802722999E+04  0.00000000000E+00 0. -1.
        -13    1    3    3    0    0 -0.12326155598E+03  0.23147143661E+03 -0.15319224887E+04  0.15542068551E+04  0.00000000000E+00 0.  1.
         22    1    1    2    0    0  0.28654989093E+03 -0.62457285430E+03 -0.20795667218E+03  0.71794712049E+03  0.00000000000E+00 0. -1.
<mgrwt>
<rscale>  0 0.21185389E+04</rscale>
<asrwt>0</asrwt>
<pdfrwt beam="1">  1        2 0.59413549E+00 0.21185389E+04</pdfrwt>
<pdfrwt beam="2">  1       -2 0.44699297E-01 0.21185389E+04</pdfrwt>
<totfact> 0.19364615E+00</totfact>
</mgrwt>
</event>
<event>
 6    1  0.1878398E-004  0.1001928E+04  0.7818608E-02  0.9306433E-01
         -2   -1    0    0    0  501 -0.00000000000E+00  0.00000000000E+00  0.18451931754E+03  0.18451931754E+03  0.00000000000E+00 0. -1.
          2   -1    0    0  501    0  0.00000000000E+00 -0.00000000000E+00 -0.13601005741E+04  0.13601005741E+04  0.00000000000E+00 0.  1.
         23    2    1    2    0    0  0.33346325683E+03 -0.28765031343E+03 -0.94729750900E+03  0.10485816714E+04  0.90611835139E+02 0.  0.
         13    1    3    3    0    0  0.18347100303E+03 -0.11927239990E+03 -0.54683824928E+03  0.58899879899E+03  0.00000000000E+00 0.  1.
        -13    1    3    3    0    0  0.14999225381E+03 -0.16837791354E+03 -0.40045925972E+03  0.45958287246E+03  0.00000000000E+00 0. -1.
         22    1    1    2    0    0 -0.33346325683E+03  0.28765031343E+03 -0.22828374752E+03  0.49603822016E+03  0.00000000000E+00 0. -1.
<mgrwt>
<rscale>  0 0.10019278E+04</rscale>
<asrwt>0</asrwt>
<pdfrwt beam="1">  1        2 0.20924624E+00 0.10019278E+04</pdfrwt>
<pdfrwt beam="2">  1       -2 0.28387588E-01 0.10019278E+04</pdfrwt>
<totfact> 0.17284762E+02</totfact>
</mgrwt>
</event>
<event>
 6    1  0.1878398E-004  0.2449133E+04  0.7818608E-02  0.8421334E-01
          2   -1    0    0  501    0  0.00000000000E+00  0.00000000000E+00  0.21324616304E+04  0.21324616304E+04  0.00000000000E+00 0.  1.
         -2   -1    0    0    0  501 -0.00000000000E+00 -0.00000000000E+00 -0.70320780258E+03  0.70320780258E+03  0.00000000000E+00 0. -1.
         23    2    1    2    0    0  0.92268762339E+03 -0.24623907788E+03  0.16000041589E+04  0.18655447970E+04  0.90873246881E+02 0.  0.
         13    1    3    3    0    0  0.43645366304E+03 -0.14717460555E+03  0.83722848795E+03  0.95556460040E+03  0.00000000000E+00 0. -1.
        -13    1    3    3    0    0  0.48623396036E+03 -0.99064472338E+02  0.76277567098E+03  0.90998019656E+03  0.00000000000E+00 0.  1.
         22    1    1    2    0    0 -0.92268762339E+03  0.24623907788E+03 -0.17075033111E+03  0.97012463602E+03  0.00000000000E+00 0. -1.
<mgrwt>
<rscale>  0 0.24491334E+04</rscale>
<asrwt>0</asrwt>
<pdfrwt beam="1">  1        2 0.32807102E+00 0.24491334E+04</pdfrwt>
<pdfrwt beam="2">  1       -2 0.10818582E+00 0.24491334E+04</pdfrwt>
<totfact> 0.34517410E+00</totfact>
</mgrwt>
</event>
<event>
 6    1  0.1878398E-004  0.2551388E+04  0.7818608E-02  0.8384904E-01
          2   -1    0    0  501    0  0.00000000000E+00  0.00000000000E+00  0.28886756860E+04  0.28886756860E+04  0.00000000000E+00 0.  1.
         -2   -1    0    0    0  501 -0.00000000000E+00 -0.00000000000E+00 -0.56337073633E+03  0.56337073633E+03  0.00000000000E+00 0. -1.
         23    2    1    2    0    0 -0.12367499890E+04  0.20035268156E+03  0.85117068746E+03  0.15174240935E+04  0.91611177843E+02 0.  0.
         13    1    3    3    0    0 -0.21415881107E+02  0.13806123466E+02  0.27375257594E+02  0.37398579346E+02  0.00000000000E+00 0.  1.
        -13    1    3    3    0    0 -0.12153341079E+04  0.18654655809E+03  0.82379542987E+03  0.14800255141E+04  0.00000000000E+00 0. -1.
         22    1    1    2    0    0  0.12367499890E+04 -0.20035268156E+03  0.14741342622E+04  0.19346223288E+04  0.00000000000E+00 0.  1.
<mgrwt>
<rscale>  0 0.25513881E+04</rscale>
<asrwt>0</asrwt>
<pdfrwt beam="1">  1        2 0.44441164E+00 0.25513881E+04</pdfrwt>
<pdfrwt beam="2">  1       -2 0.86672422E-01 0.25513881E+04</pdfrwt>
<totfact> 0.20894037E+00</totfact>
</mgrwt>
</event>
<event>
 6    1  0.1878398E-004  0.2833433E+04  0.7818608E-02  0.8292963E-01
         -2   -1    0    0    0  501 -0.00000000000E+00  0.00000000000E+00  0.24703280255E+04  0.24703280255E+04  0.00000000000E+00 0. -1.
          2   -1    0    0  501    0  0.00000000000E+00 -0.00000000000E+00 -0.81247754909E+03  0.81247754909E+03  0.00000000000E+00 0.  1.
         23    2    1    2    0    0  0.97465684482E+03 -0.10002003735E+04  0.55998979501E+03  0.15063892867E+04  0.72549018563E+02 0.  0.
         11    1    3    3    0    0  0.44989001295E+03 -0.51272666418E+03  0.28046052548E+03  0.73752814337E+03  0.00000000000E+00 0.  1.
        -11    1    3    3    0    0  0.52476683188E+03 -0.48747370934E+03  0.27952926953E+03  0.76886114329E+03  0.00000000000E+00 0. -1.
         22    1    1    2    0    0 -0.97465684482E+03  0.10002003735E+04  0.10978606814E+04  0.17764162880E+04  0.00000000000E+00 0.  1.
<mgrwt>
<rscale>  0 0.28334333E+04</rscale>
<asrwt>0</asrwt>
<pdfrwt beam="1">  1        2 0.12499655E+00 0.28334333E+04</pdfrwt>
<pdfrwt beam="2">  1       -2 0.38005046E+00 0.28334333E+04</pdfrwt>
<totfact> 0.29285198E-01</totfact>
</mgrwt>
</event>
<event>
 6    1  0.1878398E-004  0.1901963E+04  0.7818608E-02  0.8653880E-01
          1   -1    0    0  501    0  0.00000000000E+00  0.00000000000E+00  0.10740892402E+04  0.10740892402E+04  0.00000000000E+00 0. -1.
         -1   -1    0    0    0  501 -0.00000000000E+00 -0.00000000000E+00 -0.84198410393E+03  0.84198410393E+03  0.00000000000E+00 0.  1.
         23    2    1    2    0    0 -0.25237490011E+03  0.10565929316E+03  0.10316368366E+04  0.10710242827E+04  0.89227098582E+02 0.  0.
         13    1    3    3    0    0 -0.65506460513E+02  0.53441376060E+02  0.45017574351E+03  0.45804506011E+03  0.00000000000E+00 0. -1.
        -13    1    3    3    0    0 -0.18686843960E+03  0.52217917102E+02  0.58146109307E+03  0.61297922260E+03  0.00000000000E+00 0.  1.
         22    1    1    2    0    0  0.25237490011E+03 -0.10565929316E+03 -0.79953170030E+03  0.84504906143E+03  0.00000000000E+00 0.  1.
<mgrwt>
<rscale>  0 0.19019633E+04</rscale>
<asrwt>0</asrwt>
<pdfrwt beam="1">  1        1 0.16524450E+00 0.19019633E+04</pdfrwt>
<pdfrwt beam="2">  1       -1 0.12953602E+00 0.19019633E+04</pdfrwt>
<totfact> 0.63509639E+00</totfact>
</mgrwt>
</event>
<event>
 6    1  0.1878398E-004  0.8033649E+03  0.7818608E-02  0.9555159E-01
          1   -1    0    0  501    0  0.00000000000E+00  0.00000000000E+00  0.25602538253E+03  0.25602538253E+03  0.00000000000E+00 0.  1.
         -1   -1    0    0    0  501 -0.00000000000E+00 -0.00000000000E+00 -0.63020625001E+03  0.63020625001E+03  0.00000000000E+00 0. -1.
         23    2    1    2    0    0 -0.11235671703E+03 -0.21468334958E+03  0.15709572819E+03  0.30230715664E+03  0.89429171361E+02 0.  0.
         13    1    3    3    0    0 -0.74237735950E+01 -0.50183298144E+02  0.75171995652E+02  0.90687952658E+02  0.00000000000E+00 0. -1.
        -13    1    3    3    0    0 -0.10493294343E+03 -0.16450005143E+03  0.81923732539E+02  0.21161920398E+03  0.00000000000E+00 0.  1.
         22    1    1    2    0    0  0.11235671703E+03  0.21468334958E+03 -0.53127659567E+03  0.58392447590E+03  0.00000000000E+00 0. -1.
<mgrwt>
<rscale>  0 0.80336491E+03</rscale>
<asrwt>0</asrwt>
<pdfrwt beam="1">  1        1 0.39388521E-01 0.80336491E+03</pdfrwt>
<pdfrwt beam="2">  1       -1 0.96954807E-01 0.80336491E+03</pdfrwt>
<totfact> 0.11163509E+02</totfact>
</mgrwt>
</event>
<event>
 6    1  0.1878398E-004  0.7003647E+03  0.7818608E-02  0.9716609E-01
          1   -1    0    0  501    0  0.00000000000E+00  0.00000000000E+00  0.15276435913E+04  0.15276435913E+04  0.00000000000E+00 0.  1.
         -1   -1    0    0    0  501 -0.00000000000E+00 -0.00000000000E+00 -0.80272439302E+02  0.80272439302E+02  0.00000000000E+00 0. -1.
         23    2    1    2    0    0 -0.29642834950E+03 -0.71042607565E+02  0.11027878243E+04  0.11478568081E+04  0.92290021192E+02 0.  0.
         11    1    3    3    0    0 -0.10924315045E+03 -0.47535876386E+02  0.57900332526E+03  0.59113329810E+03  0.00000000000E+00 0. -1.
        -11    1    3    3    0    0 -0.18718519905E+03 -0.23506731179E+02  0.52378449903E+03  0.55672350999E+03  0.00000000000E+00 0.  1.
         22    1    1    2    0    0  0.29642834950E+03  0.71042607565E+02  0.34458332768E+03  0.46005922248E+03  0.00000000000E+00 0. -1.
<mgrwt>
<rscale>  0 0.70036470E+03</rscale>
<asrwt>0</asrwt>
<pdfrwt beam="1">  1        1 0.23502207E+00 0.70036470E+03</pdfrwt>
<pdfrwt beam="2">  1       -1 0.12349607E-01 0.70036470E+03</pdfrwt>
<totfact> 0.28825307E+02</totfact>
</mgrwt>
</event>
<event>
 6    1  0.1878398E-004  0.1086527E+04  0.7818608E-02  0.9218424E-01
         -1   -1    0    0    0  501 -0.00000000000E+00  0.00000000000E+00  0.27060974746E+03  0.27060974746E+03  0.00000000000E+00 0. -1.
          1   -1    0    0  501    0  0.00000000000E+00 -0.00000000000E+00 -0.10906298129E+04  0.10906298129E+04  0.00000000000E+00 0.  1.
         23    2    1    2    0    0 -0.52639464813E+03  0.30589156695E+02 -0.55459341795E+03  0.77091903106E+03  0.93355616472E+02 0.  0.
         13    1    3    3    0    0 -0.36567784153E+03 -0.15336762464E+02 -0.41320038145E+03  0.55198736878E+03  0.00000000000E+00 0. -1.
        -13    1    3    3    0    0 -0.16071680661E+03  0.45925919159E+02 -0.14139303650E+03  0.21893166228E+03  0.00000000000E+00 0.  1.
         22    1    1    2    0    0  0.52639464813E+03 -0.30589156695E+02 -0.26542664746E+03  0.59032052927E+03  0.00000000000E+00 0. -1.
<mgrwt>
<rscale>  0 0.10865267E+04</rscale>
<asrwt>0</asrwt>
<pdfrwt beam="1">  1        1 0.16778920E+00 0.10865267E+04</pdfrwt>
<pdfrwt beam="2">  1       -1 0.41632268E-01 0.10865267E+04</pdfrwt>
<totfact> 0.72681312E+01</totfact>
</mgrwt>
</event>
<event>
 6    1  0.1878398E-004  0.4489404E+04  0.7818608E-02  0.7912495E-01
          2   -1    0    0  501    0  0.00000000000E+00  0.00000000000E+00  0.22963267786E+04  0.22963267786E+04  0.00000000000E+00 0.  1.
         -2   -1    0    0    0  501 -0.00000000000E+00 -0.00000000000E+00 -0.21942374244E+04  0.21942374244E+04  0.00000000000E+00 0. -1.
         23    2    1    2    0    0  0.96682922341E+02 -0.20889673298E+04  0.86463771060E+03  0.22646684084E+04  0.89400989665E+02 0.  0.
         13    1    3    3    0    0  0.80975085190E+02 -0.10501346762E+04  0.46866041982E+03  0.11528149859E+04  0.00000000000E+00 0. -1.
        -13    1    3    3    0    0  0.15707837151E+02 -0.10388326536E+04  0.39597729077E+03  0.11118534225E+04  0.00000000000E+00 0.  1.
         22    1    1    2    0    0 -0.96682922341E+02  0.20889673298E+04 -0.76254835642E+03  0.22258957946E+04  0.00000000000E+00 0.  1.
<mgrwt>
<rscale>  0 0.44894036E+04</rscale>
<asrwt>0</asrwt>
<pdfrwt beam="1">  1        2 0.35328104E+00 0.44894036E+04</pdfrwt>
<pdfrwt beam="2">  1       -2 0.33757499E+00 0.44894036E+04</pdfrwt>
<totfact> 0.64325298E-02</totfact>
</mgrwt>
</event>
<event>
 6    1  0.1878398E-004  0.6309291E+04  0.7818608E-02  0.7653193E-01
          1   -1    0    0  501    0  0.00000000000E+00  0.00000000000E+00  0.29117577884E+04  0.29117577884E+04  0.00000000000E+00 0.  1.
         -1   -1    0    0    0  501 -0.00000000000E+00 -0.00000000000E+00 -0.34177938441E+04  0.34177938441E+04  0.00000000000E+00 0. -1.
         23    2    1    2    0    0 -0.32990893789E+02 -0.86684331011E+03  0.27890107556E+04  0.29222302193E+04  0.91338580578E+02 0.  0.
         11    1    3    3    0    0 -0.29566834795E+02 -0.16360552812E+03  0.63032834472E+03  0.65188556412E+03  0.00000000000E+00 0. -1.
        -11    1    3    3    0    0 -0.34240589939E+01 -0.70323778199E+03  0.21586824109E+04  0.22703446552E+04  0.00000000000E+00 0.  1.
         22    1    1    2    0    0  0.32990893789E+02  0.86684331011E+03 -0.32950468114E+04  0.34073214131E+04  0.00000000000E+00 0. -1.
<mgrwt>
<rscale>  0 0.63092909E+04</rscale>
<asrwt>0</asrwt>
<pdfrwt beam="1">  1        1 0.44796274E+00 0.63092909E+04</pdfrwt>
<pdfrwt beam="2">  1       -1 0.52581443E+00 0.63092909E+04</pdfrwt>
<totfact> 0.47248019E-04</totfact>
</mgrwt>
</event>
<event>
 6    1  0.1878398E-004  0.1213054E+04  0.7818608E-02  0.9101507E-01
         -2   -1    0    0    0  501 -0.00000000000E+00  0.00000000000E+00  0.19061330786E+03  0.19061330786E+03  0.00000000000E+00 0. -1.
          2   -1    0    0  501    0  0.00000000000E+00 -0.00000000000E+00 -0.19299541232E+04  0.19299541232E+04  0.00000000000E+00 0.  1.
         23    2    1    2    0    0  0.46599181774E+03  0.24858122272E+03 -0.13836173614E+04  0.14837941793E+04  0.91143651822E+02 0.  0.
         13    1    3    3    0    0  0.34750793149E+03  0.16787906161E+03 -0.89703212603E+03  0.97653047925E+03  0.00000000000E+00 0. -1.
        -13    1    3    3    0    0  0.11848388626E+03  0.80702161110E+02 -0.48658523537E+03  0.50726370005E+03  0.00000000000E+00 0.  1.
         22    1    1    2    0    0 -0.46599181774E+03 -0.24858122272E+03 -0.35572345396E+03  0.63677325179E+03  0.00000000000E+00 0. -1.
<mgrwt>
<rscale>  0 0.12130539E+04</rscale>
<asrwt>0</asrwt>
<pdfrwt beam="1">  1        2 0.29691601E+00 0.12130539E+04</pdfrwt>
<pdfrwt beam="2">  1       -2 0.29325125E-01 0.12130539E+04</pdfrwt>
<totfact> 0.77152391E+01</totfact>
</mgrwt>
</event>
<event>
 6    1  0.1878398E-004  0.1610198E+04  0.7818608E-02  0.8814307E-01
          2   -1    0    0  501    0  0.00000000000E+00  0.00000000000E+00  0.20416839290E+04  0.20416839290E+04  0.00000000000E+00 0.  1.
         -2   -1    0    0    0  501 -0.00000000000E+00 -0.00000000000E+00 -0.31747539777E+03  0.31747539777E+03  0.00000000000E+00 0. -1.
         23    2    1    2    0    0 -0.35066905411E+03  0.69259614265E+03  0.56670916350E+03  0.96543661811E+03  0.90831631454E+02 0.  0.
         13    1    3    3    0    0 -0.21995972778E+03  0.52376711929E+03  0.40940244464E+03  0.70023184645E+03  0.00000000000E+00 0. -1.
        -13    1    3    3    0    0 -0.13070932632E+03  0.16882902336E+03  0.15730671886E+03  0.26520477167E+03  0.00000000000E+00 0.  1.
         22    1    1    2    0    0  0.35066905411E+03 -0.69259614265E+03  0.11574993677E+04  0.13937227087E+04  0.00000000000E+00 0. -1.
<mgrwt>
<rscale>  0 0.16101980E+04</rscale>
<asrwt>0</asrwt>
<pdfrwt beam="1">  1        2 0.31410521E+00 0.16101980E+04</pdfrwt>
<pdfrwt beam="2">  1       -2 0.48842370E-01 0.16101980E+04</pdfrwt>
<totfact> 0.24095367E+01</totfact>
</mgrwt>
</event>
<event>
 6    1  0.1878398E-004  0.1662166E+04  0.7818608E-02  0.8783242E-01
         -2   -1    0    0    0  501 -0.00000000000E+00  0.00000000000E+00  0.50409219198E+03  0.50409219198E+03  0.00000000000E+00 0. -1.
          2   -1    0    0  501    0  0.00000000000E+00 -0.00000000000E+00 -0.13701832776E+04  0.13701832776E+04  0.00000000000E+00 0.  1.
         23    2    1    2    0    0 -0.11297684455E+03 -0.48420413176E+03 -0.11817549247E+04  0.12853263479E+04  0.91113719040E+02 0.  0.
         13    1    3    3    0    0 -0.11563184579E+03 -0.40677748467E+03 -0.92391888763E+03  0.10161027294E+04  0.00000000000E+00 0. -1.
        -13    1    3    3    0    0  0.26550012382E+01 -0.77426647087E+02 -0.25783603710E+03  0.26922361846E+03  0.00000000000E+00 0.  1.
         22    1    1    2    0    0  0.11297684455E+03  0.48420413176E+03  0.31566383911E+03  0.58894912169E+03  0.00000000000E+00 0. -1.
<mgrwt>
<rscale>  0 0.16621657E+04</rscale>
<asrwt>0</asrwt>
<pdfrwt beam="1">  1        2 0.21079743E+00 0.16621657E+04</pdfrwt>
<pdfrwt beam="2">  1       -2 0.77552645E-01 0.16621657E+04</pdfrwt>
<totfact> 0.21291887E+01</totfact>
</mgrwt>
</event>
<event>
 6    1  0.1878398E-004  0.2019398E+04  0.7818608E-02  0.8597605E-01
         -2   -1    0    0    0  501 -0.00000000000E+00  0.00000000000E+00  0.10064895253E+04  0.10064895253E+04  0.00000000000E+00 0. -1.
          2   -1    0    0  501    0  0.00000000000E+00 -0.00000000000E+00 -0.10129190387E+04  0.10129190387E+04  0.00000000000E+00 0.  1.
         23    2    1    2    0    0 -0.21499888551E+03 -0.37129730326E+03 -0.91493682990E+03  0.10146838493E+04  0.91584404775E+02 0.  0.
         13    1    3    3    0    0 -0.84208418645E+02 -0.83833146897E+02 -0.31560903916E+03  0.33723600028E+03  0.00000000000E+00 0. -1.
        -13    1    3    3    0    0 -0.13079046686E+03 -0.28746415637E+03 -0.59932779074E+03  0.67744784904E+03  0.00000000000E+00 0.  1.
         22    1    1    2    0    0  0.21499888551E+03  0.37129730326E+03  0.90850731647E+03  0.10047247147E+04  0.00000000000E+00 0. -1.
<mgrwt>
<rscale>  0 0.20193983E+04</rscale>
<asrwt>0</asrwt>
<pdfrwt beam="1">  1        2 0.15583370E+00 0.20193983E+04</pdfrwt>
<pdfrwt beam="2">  1       -2 0.15484454E+00 0.20193983E+04</pdfrwt>
<totfact> 0.63091741E+00</totfact>
</mgrwt>
</event>
<event>
 6    1  0.1878398E-004  0.2288844E+04  0.7818608E-02  0.8482333E-01
          1   -1    0    0  501    0  0.00000000000E+00  0.00000000000E+00  0.59389146309E+03  0.59389146309E+03  0.00000000000E+00 0.  1.
         -1   -1    0    0    0  501 -0.00000000000E+00 -0.00000000000E+00 -0.22052873422E+04  0.22052873422E+04  0.00000000000E+00 0. -1.
         23    2    1    2    0    0  0.44014163211E+02  0.31018133737E+03 -0.21508027691E+04  0.21753923822E+04  0.90718004842E+02 0.  0.
         13    1    3    3    0    0 -0.12791691078E+02  0.21405110671E+03 -0.14349280540E+04  0.14508618211E+04  0.00000000000E+00 0.  1.
        -13    1    3    3    0    0  0.56805854289E+02  0.96130230656E+02 -0.71587471503E+03  0.72453056109E+03  0.00000000000E+00 0. -1.
         22    1    1    2    0    0 -0.44014163211E+02 -0.31018133737E+03  0.53940689000E+03  0.62378642306E+03  0.00000000000E+00 0.  1.
<mgrwt>
<rscale>  0 0.22888437E+04</rscale>
<asrwt>0</asrwt>
<pdfrwt beam="1">  1        1 0.91367918E-01 0.22888437E+04</pdfrwt>
<pdfrwt beam="2">  1       -1 0.33927497E+00 0.22888437E+04</pdfrwt>
<totfact> 0.57568120E-01</totfact>
</mgrwt>
</event>
<event>
 6    1  0.1878398E-004  0.1737123E+04  0.7818608E-02  0.8740471E-01
          2   -1    0    0  501    0  0.00000000000E+00  0.00000000000E+00  0.57411417578E+03  0.57411417578E+03  0.00000000000E+00 0.  1.
         -2   -1    0    0    0  501 -0.00000000000E+00 -0.00000000000E+00 -0.13140223810E+04  0.13140223810E+04  0.00000000000E+00 0. -1.
         23    2    1    2    0    0  0.12922212355E+03 -0.85481613374E+03 -0.42841872147E+03  0.96920528718E+03  0.91691374090E+02 0.  0.
         13    1    3    3    0    0  0.70639375175E+01 -0.31101537141E+03 -0.13212058878E+03  0.33798862473E+03  0.00000000000E+00 0.  1.
        -13    1    3    3    0    0  0.12215818604E+03 -0.54380076233E+03 -0.29629813269E+03  0.63121666246E+03  0.00000000000E+00 0. -1.
         22    1    1    2    0    0 -0.12922212355E+03  0.85481613374E+03 -0.31148948372E+03  0.91893126956E+03  0.00000000000E+00 0.  1.
<mgrwt>
<rscale>  0 0.17371228E+04</rscale>
<asrwt>0</asrwt>
<pdfrwt beam="1">  1        2 0.88325259E-01 0.17371228E+04</pdfrwt>
<pdfrwt beam="2">  1       -2 0.20215729E+00 0.17371228E+04</pdfrwt>
<totfact> 0.63831277E+00</totfact>
</mgrwt>
</event>
<event>
 6    1  0.1878398E-004  0.1488973E+04  0.7818608E-02  0.8891819E-01
         -1   -1    0    0    0  501 -0.00000000000E+00  0.00000000000E+00  0.95839140022E+03  0.95839140022E+03  0.00000000000E+00 0. -1.
          1   -1    0    0  501    0  0.00000000000E+00 -0.00000000000E+00 -0.57832316922E+03  0.57832316922E+03  0.00000000000E+00 0.  1.
         23    2    1    2    0    0  0.35004790106E+03 -0.32346333284E+03 -0.39417374425E+03  0.62753213617E+03  0.10612059432E+03 0.  0.
         11    1    3    3    0    0  0.59748948766E+02 -0.83999227496E+02 -0.39424939836E+02  0.11036363975E+03  0.00000000000E+00 0. -1.
        -11    1    3    3    0    0  0.29029895230E+03 -0.23946410534E+03 -0.35474880441E+03  0.51716849642E+03  0.00000000000E+00 0.  1.
         22    1    1    2    0    0 -0.35004790106E+03  0.32346333284E+03  0.77424197525E+03  0.90918243327E+03  0.00000000000E+00 0. -1.
<mgrwt>
<rscale>  0 0.14889727E+04</rscale>
<asrwt>0</asrwt>
<pdfrwt beam="1">  1        1 0.88972795E-01 0.14889727E+04</pdfrwt>
<pdfrwt beam="2">  1       -1 0.14744483E+00 0.14889727E+04</pdfrwt>
<totfact> 0.12777661E+01</totfact>
</mgrwt>
</event>
<event>
 6    1  0.1878398E-004  0.6750527E+04  0.7818608E-02  0.7603725E-01
          1   -1    0    0  501    0  0.00000000000E+00  0.00000000000E+00  0.24404396327E+04  0.24404396327E+04  0.00000000000E+00 0. -1.
         -1   -1    0    0    0  501 -0.00000000000E+00 -0.00000000000E+00 -0.46681764717E+04  0.46681764717E+04  0.00000000000E+00 0.  1.
         23    2    1    2    0    0 -0.67186146854E+03  0.28708704238E+04 -0.28428434693E+04  0.40966979465E+04  0.88770778240E+02 0.  0.
         11    1    3    3    0    0 -0.91897140392E+02  0.31910138017E+03 -0.28950577492E+03  0.44055007542E+03  0.00000000000E+00 0. -1.
        -11    1    3    3    0    0 -0.57996432815E+03  0.25517690436E+04 -0.25533376944E+04  0.36561478711E+04  0.00000000000E+00 0.  1.
         22    1    1    2    0    0  0.67186146854E+03 -0.28708704238E+04  0.61510663033E+03  0.30119181579E+04  0.00000000000E+00 0.  1.
<mgrwt>
<rscale>  0 0.67505268E+04</rscale>
<asrwt>0</asrwt>
<pdfrwt beam="1">  1        1 0.37545225E+00 0.67505268E+04</pdfrwt>
<pdfrwt beam="2">  1       -1 0.71818099E+00 0.67505268E+04</pdfrwt>
<totfact> 0.16533043E-04</totfact>
</mgrwt>
</event>
<event>
 6    1  0.1878398E-004  0.9915474E+03  0.7818608E-02  0.9317864E-01
          1   -1    0    0  501    0  0.00000000000E+00  0.00000000000E+00  0.17270566548E+03  0.17270566548E+03  0.00000000000E+00 0.  1.
         -1   -1    0    0    0  501 -0.00000000000E+00 -0.00000000000E+00 -0.14231817162E+04  0.14231817162E+04  0.00000000000E+00 0. -1.
         23    2    1    2    0    0 -0.60471755000E+02  0.48039542381E+03 -0.76659187328E+03  0.91135798600E+03  0.92052605044E+02 0.  0.
         13    1    3    3    0    0 -0.18114216300E+02  0.20084187002E+03 -0.40422791019E+03  0.45173641093E+03  0.00000000000E+00 0. -1.
        -13    1    3    3    0    0 -0.42357538701E+02  0.27955355379E+03 -0.36236396309E+03  0.45962157507E+03  0.00000000000E+00 0.  1.
         22    1    1    2    0    0  0.60471755000E+02 -0.48039542381E+03 -0.48388417743E+03  0.68452939567E+03  0.00000000000E+00 0.  1.
<mgrwt>
<rscale>  0 0.99154737E+03</rscale>
<asrwt>0</asrwt>
<pdfrwt beam="1">  1        1 0.26570104E-01 0.99154737E+03</pdfrwt>
<pdfrwt beam="2">  1       -1 0.21895102E+00 0.99154737E+03</pdfrwt>
<totfact> 0.20297114E+01</totfact>
</mgrwt>
</event>
<event>
 6    1  0.1878398E-004  0.1558210E+04  0.7818608E-02  0.8846641E-01
          1   -1    0    0  501    0  0.00000000000E+00  0.00000000000E+00  0.11683749165E+04  0.11683749165E+04  0.00000000000E+00 0.  1.
         -1   -1    0    0    0  501 -0.00000000000E+00 -0.00000000000E+00 -0.51952879002E+03  0.51952879002E+03  0.00000000000E+00 0. -1.
         23    2    1    2    0    0  0.32220936774E+03 -0.28471532454E+01  0.10907929719E+04  0.11409631273E+04  0.90225092950E+02 0.  0.
         11    1    3    3    0    0  0.57285910775E+02 -0.31553738876E+02  0.27858426765E+03  0.28615818736E+03  0.00000000000E+00 0. -1.
        -11    1    3    3    0    0  0.26492345697E+03  0.28706585630E+02  0.81220870427E+03  0.85480493998E+03  0.00000000000E+00 0.  1.
         22    1    1    2    0    0 -0.32220936774E+03  0.28471532454E+01 -0.44194684546E+03  0.54694057918E+03  0.00000000000E+00 0. -1.
<mgrwt>
<rscale>  0 0.15582098E+04</rscale>
<asrwt>0</asrwt>
<pdfrwt beam="1">  1        1 0.17974999E+00 0.15582098E+04</pdfrwt>
<pdfrwt beam="2">  1       -1 0.79927506E-01 0.15582098E+04</pdfrwt>
<totfact> 0.16966091E+01</totfact>
</mgrwt>
</event>
<event>
 6    1  0.1878398E-004  0.1185682E+04  0.7818608E-02  0.9125482E-01
         -1   -1    0    0    0  501 -0.00000000000E+00  0.00000000000E+00  0.30964314370E+03  0.30964314370E+03  0.00000000000E+00 0. -1.
          1   -1    0    0  501    0  0.00000000000E+00 -0.00000000000E+00 -0.11350492963E+04  0.11350492963E+04  0.00000000000E+00 0.  1.
         23    2    1    2    0    0  0.10896668608E+03 -0.15461992821E+03  0.26470184954E+03  0.33829444778E+03  0.92709241004E+02 0.  0.
         13    1    3    3    0    0  0.20072702532E+02 -0.10465368708E+03  0.15913850399E+03  0.19152120263E+03  0.00000000000E+00 0.  1.
        -13    1    3    3    0    0  0.88893983552E+02 -0.49966241129E+02  0.10556334556E+03  0.14677324514E+03  0.00000000000E+00 0. -1.
         22    1    1    2    0    0 -0.10896668608E+03  0.15461992821E+03 -0.10901080021E+04  0.11063979922E+04  0.00000000000E+00 0.  1.
<mgrwt>
<rscale>  0 0.11856816E+04</rscale>
<asrwt>0</asrwt>
<pdfrwt beam="1">  1        1 0.17462297E+00 0.11856816E+04</pdfrwt>
<pdfrwt beam="2">  1       -1 0.47637406E-01 0.11856816E+04</pdfrwt>
<totfact> 0.52005668E+01</totfact>
</mgrwt>
</event>
<event>
 6    1  0.1878398E-004  0.2834479E+04  0.7818608E-02  0.8292643E-01
          2   -1    0    0  501    0  0.00000000000E+00  0.00000000000E+00  0.39055931853E+04  0.39055931853E+04  0.00000000000E+00 0.  1.
         -2   -1    0    0    0  501 -0.00000000000E+00 -0.00000000000E+00 -0.51427967261E+03  0.51427967261E+03  0.00000000000E+00 0. -1.
         23    2    1    2    0    0  0.11675262186E+04 -0.38444731499E+03  0.27928100742E+04  0.30527139151E+04  0.91416234671E+02 0.  0.
         13    1    3    3    0    0  0.47212819999E+03 -0.20164926962E+03  0.11379313155E+04  0.12483810091E+04  0.00000000000E+00 0. -1.
        -13    1    3    3    0    0  0.69539801857E+03 -0.18279804536E+03  0.16548787587E+04  0.18043329059E+04  0.00000000000E+00 0.  1.
         22    1    1    2    0    0 -0.11675262186E+04  0.38444731499E+03  0.59850343853E+03  0.13671589428E+04  0.00000000000E+00 0.  1.
<mgrwt>
<rscale>  0 0.28344786E+04</rscale>
<asrwt>0</asrwt>
<pdfrwt beam="1">  1        2 0.60086047E+00 0.28344786E+04</pdfrwt>
<pdfrwt beam="2">  1       -2 0.79119952E-01 0.28344786E+04</pdfrwt>
<totfact> 0.50052387E-01</totfact>
</mgrwt>
</event>
<event>
 6    1  0.1878398E-004  0.3370438E+04  0.7818608E-02  0.8145200E-01
          1   -1    0    0  501    0  0.00000000000E+00  0.00000000000E+00  0.27182526411E+04  0.27182526411E+04  0.00000000000E+00 0.  1.
         -1   -1    0    0    0  501 -0.00000000000E+00 -0.00000000000E+00 -0.10447751699E+04  0.10447751699E+04  0.00000000000E+00 0. -1.
         23    2    1    2    0    0 -0.13923961138E+04 -0.68586766540E+03  0.15661169878E+04  0.22071654567E+04  0.98364330977E+02 0.  0.
         13    1    3    3    0    0 -0.69476005314E+03 -0.38733138956E+03  0.84111937478E+03  0.11576696158E+04  0.00000000000E+00 0. -1.
        -13    1    3    3    0    0 -0.69763606066E+03 -0.29853627584E+03  0.72499761301E+03  0.10494958409E+04  0.00000000000E+00 0.  1.
         22    1    1    2    0    0  0.13923961138E+04  0.68586766540E+03  0.10736048345E+03  0.15558623543E+04  0.00000000000E+00 0. -1.
<mgrwt>
<rscale>  0 0.33704379E+04</rscale>
<asrwt>0</asrwt>
<pdfrwt beam="1">  1        1 0.41819271E+00 0.33704379E+04</pdfrwt>
<pdfrwt beam="2">  1       -1 0.16073464E+00 0.33704379E+04</pdfrwt>
<totfact> 0.22657986E-01</totfact>
</mgrwt>
</event>
<event>
 6    1  0.1878398E-004  0.3661862E+04  0.7818608E-02  0.8076467E-01
         -2   -1    0    0    0  501 -0.00000000000E+00  0.00000000000E+00  0.30322165482E+04  0.30322165482E+04  0.00000000000E+00 0. -1.
          2   -1    0    0  501    0  0.00000000000E+00 -0.00000000000E+00 -0.11055635572E+04  0.11055635572E+04  0.00000000000E+00 0.  1.
         23    2    1    2    0    0  0.10182209317E+04  0.23473171826E+03 -0.73348438629E+03  0.12797731580E+04  0.89146765707E+02 0.  0.
         13    1    3    3    0    0  0.20849288371E+03  0.78475613517E+02 -0.18243101675E+03  0.28793884828E+03  0.00000000000E+00 0. -1.
        -13    1    3    3    0    0  0.80972804796E+03  0.15625610474E+03 -0.55105336954E+03  0.99183430976E+03  0.00000000000E+00 0.  1.
         22    1    1    2    0    0 -0.10182209317E+04 -0.23473171826E+03  0.26601373773E+04  0.28580069474E+04  0.00000000000E+00 0. -1.
<mgrwt>
<rscale>  0 0.36618619E+04</rscale>
<asrwt>0</asrwt>
<pdfrwt beam="1">  1        2 0.17008670E+00 0.36618619E+04</pdfrwt>
<pdfrwt beam="2">  1       -2 0.46649485E+00 0.36618619E+04</pdfrwt>
<totfact> 0.47343877E-02</totfact>
</mgrwt>
</event>
<event>
 6    1  0.1878398E-004  0.4238347E+03  0.7818608E-02  0.1035825E+00
         -2   -1    0    0    0  501 -0.00000000000E+00  0.00000000000E+00  0.11082719095E+03  0.11082719095E+03  0.00000000000E+00 0. -1.
          2   -1    0    0  501    0  0.00000000000E+00 -0.00000000000E+00 -0.40521618722E+03  0.40521618722E+03  0.00000000000E+00 0.  1.
         23    2    1    2    0    0 -0.16607313276E+03  0.11526497302E+03 -0.13796337564E+03  0.26043572137E+03  0.89031300762E+02 0.  0.
         11    1    3    3    0    0 -0.13948277552E+03  0.49285744459E+02 -0.77121838678E+02  0.16683017495E+03  0.00000000000E+00 0.  1.
        -11    1    3    3    0    0 -0.26590357241E+02  0.65979228560E+02 -0.60841536964E+02  0.93605546415E+02  0.00000000000E+00 0. -1.
         22    1    1    2    0    0  0.16607313276E+03 -0.11526497302E+03 -0.15642562063E+03  0.25560765681E+03  0.00000000000E+00 0.  1.
<mgrwt>
<rscale>  0 0.42383474E+03</rscale>
<asrwt>0</asrwt>
<pdfrwt beam="1">  1        2 0.62340951E-01 0.42383474E+03</pdfrwt>
<pdfrwt beam="2">  1       -2 0.17050337E-01 0.42383474E+03</pdfrwt>
<totfact> 0.21869529E+03</totfact>
</mgrwt>
</event>
<event>
 6    1  0.1878398E-004  0.4158884E+04  0.7818608E-02  0.7973240E-01
          2   -1    0    0  501    0  0.00000000000E+00  0.00000000000E+00  0.21830910026E+04  0.21830910026E+04  0.00000000000E+00 0.  1.
         -2   -1    0    0    0  501 -0.00000000000E+00 -0.00000000000E+00 -0.19807137588E+04  0.19807137588E+04  0.00000000000E+00 0. -1.
         23    2    1    2    0    0 -0.84873462461E+03 -0.13052246275E+04  0.14795656630E+04  0.21500589855E+04  0.98373262302E+02 0.  0.
         13    1    3    3    0    0 -0.78016433133E+02 -0.98040949842E+02  0.15410044671E+03  0.19860901127E+03  0.00000000000E+00 0.  1.
        -13    1    3    3    0    0 -0.77071819147E+03 -0.12071836777E+04  0.13254652163E+04  0.19514499743E+04  0.00000000000E+00 0. -1.
         22    1    1    2    0    0  0.84873462461E+03  0.13052246275E+04 -0.12771884192E+04  0.20137457758E+04  0.00000000000E+00 0. -1.
<mgrwt>
<rscale>  0 0.41588837E+04</rscale>
<asrwt>0</asrwt>
<pdfrwt beam="1">  1        2 0.33586015E+00 0.41588837E+04</pdfrwt>
<pdfrwt beam="2">  1       -2 0.30472519E+00 0.41588837E+04</pdfrwt>
<totfact> 0.12223154E-01</totfact>
</mgrwt>
</event>
<event>
 6    1  0.1878398E-004  0.3626309E+03  0.7818608E-02  0.1057547E+00
          2   -1    0    0  501    0  0.00000000000E+00  0.00000000000E+00  0.17218159705E+04  0.17218159705E+04  0.00000000000E+00 0.  1.
         -2   -1    0    0    0  501 -0.00000000000E+00 -0.00000000000E+00 -0.19093382382E+02  0.19093382382E+02  0.00000000000E+00 0. -1.
         23    2    1    2    0    0 -0.13654073948E+03 -0.96946978526E+02  0.10738723569E+04  0.10901446462E+04  0.84684239952E+02 0.  0.
         13    1    3    3    0    0 -0.44640623320E+02 -0.19338942652E+01  0.46205560979E+03  0.46421106378E+03  0.00000000000E+00 0.  1.
        -13    1    3    3    0    0 -0.91900116165E+02 -0.95013084260E+02  0.61181674715E+03  0.62593358244E+03  0.00000000000E+00 0. -1.
         22    1    1    2    0    0  0.13654073948E+03  0.96946978526E+02  0.62885023116E+03  0.65076470664E+03  0.00000000000E+00 0.  1.
<mgrwt>
<rscale>  0 0.36263089E+03</rscale>
<asrwt>0</asrwt>
<pdfrwt beam="1">  1        2 0.26489464E+00 0.36263089E+03</pdfrwt>
<pdfrwt beam="2">  1       -2 0.29374448E-02 0.36263089E+03</pdfrwt>
<totfact> 0.45500572E+03</totfact>
</mgrwt>
</event>
<event>
 6    1  0.1878398E-004  0.3718158E+04  0.7818608E-02  0.8063950E-01
          2   -1    0    0  501    0  0.00000000000E+00  0.00000000000E+00  0.42714759799E+04  0.42714759799E+04  0.00000000000E+00 0.  1.
         -2   -1    0    0    0  501 -0.00000000000E+00 -0.00000000000E+00 -0.80912896564E+03  0.80912896564E+03  0.00000000000E+00 0. -1.
         23    2    1    2    0    0 -0.12527139354E+03 -0.18267857944E+04  0.13018678133E+04  0.22485545155E+04  0.91095252226E+02 0.  0.
         11    1    3    3    0    0 -0.11413652445E+03 -0.11385335618E+04  0.84404563867E+03  0.14218645708E+04  0.00000000000E+00 0. -1.
        -11    1    3    3    0    0 -0.11134869086E+02 -0.68825223260E+03  0.45782217463E+03  0.82668994464E+03  0.00000000000E+00 0.  1.
         22    1    1    2    0    0  0.12527139354E+03  0.18267857944E+04  0.21604792010E+04  0.28320504301E+04  0.00000000000E+00 0.  1.
<mgrwt>
<rscale>  0 0.37181581E+04</rscale>
<asrwt>0</asrwt>
<pdfrwt beam="1">  1        2 0.65715014E+00 0.37181581E+04</pdfrwt>
<pdfrwt beam="2">  1       -2 0.12448138E+00 0.37181581E+04</pdfrwt>
<totfact> 0.78328551E-02</totfact>
</mgrwt>
</event>
<event>
 6    1  0.1878398E-004  0.2506097E+04  0.7818608E-02  0.8400817E-01
         -2   -1    0    0    0  501 -0.00000000000E+00  0.00000000000E+00  0.69061885355E+03  0.69061885355E+03  0.00000000000E+00 0.  1.
          2   -1    0    0  501    0  0.00000000000E+00 -0.00000000000E+00 -0.22735129215E+04  0.22735129215E+04  0.00000000000E+00 0. -1.
         23    2    1    2    0    0  0.87671165369E+03  0.59005025386E+03  0.24785715551E+00  0.10606820172E+04  0.90904643946E+02 0.  0.
         13    1    3    3    0    0  0.77284394024E+02  0.73072228139E+02 -0.21034371890E+02  0.10841989156E+03  0.00000000000E+00 0. -1.
        -13    1    3    3    0    0  0.79942725966E+03  0.51697802572E+03  0.21282229045E+02  0.95226212560E+03  0.00000000000E+00 0.  1.
         22    1    1    2    0    0 -0.87671165369E+03 -0.59005025386E+03 -0.15831419251E+04  0.19034497579E+04  0.00000000000E+00 0. -1.
<mgrwt>
<rscale>  0 0.25060973E+04</rscale>
<asrwt>0</asrwt>
<pdfrwt beam="1">  1        2 0.34977122E+00 0.25060973E+04</pdfrwt>
<pdfrwt beam="2">  1       -2 0.10624906E+00 0.25060973E+04</pdfrwt>
<totfact> 0.29886138E+00</totfact>
</mgrwt>
</event>
<event>
 6    1  0.1878398E-004  0.1670495E+04  0.7818608E-02  0.8778374E-01
          2   -1    0    0  501    0  0.00000000000E+00  0.00000000000E+00  0.13401178132E+04  0.13401178132E+04  0.00000000000E+00 0.  1.
         -2   -1    0    0    0  501 -0.00000000000E+00 -0.00000000000E+00 -0.52057958867E+03  0.52057958867E+03  0.00000000000E+00 0. -1.
         23    2    1    2    0    0  0.46062042317E+03  0.69383970766E+03  0.41954853153E+03  0.93680537970E+03  0.89435087925E+02 0.  0.
         13    1    3    3    0    0  0.29462792966E+03  0.43319635758E+03  0.31118043753E+03  0.60934224033E+03  0.00000000000E+00 0.  1.
        -13    1    3    3    0    0  0.16599249352E+03  0.26064335008E+03  0.10836809400E+03  0.32746313937E+03  0.00000000000E+00 0. -1.
         22    1    1    2    0    0 -0.46062042317E+03 -0.69383970766E+03  0.39998969305E+03  0.92389202222E+03  0.00000000000E+00 0.  1.
<mgrwt>
<rscale>  0 0.16704945E+04</rscale>
<asrwt>0</asrwt>
<pdfrwt beam="1">  1        2 0.20617197E+00 0.16704945E+04</pdfrwt>
<pdfrwt beam="2">  1       -2 0.80089168E-01 0.16704945E+04</pdfrwt>
<totfact> 0.20603892E+01</totfact>
</mgrwt>
</event>
<event>
 6    1  0.1878398E-004  0.8055601E+03  0.7818608E-02  0.9552004E-01
          3   -1    0    0  501    0  0.00000000000E+00  0.00000000000E+00  0.40306666258E+03  0.40306666258E+03  0.00000000000E+00 0.  1.
         -3   -1    0    0    0  501 -0.00000000000E+00 -0.00000000000E+00 -0.40249368053E+03  0.40249368053E+03  0.00000000000E+00 0. -1.
         23    2    1    2    0    0 -0.12956814797E+03  0.37342938031E+03 -0.41055565105E+02  0.40810551173E+03  0.92882410776E+02 0.  0.
         13    1    3    3    0    0 -0.41599945210E+02  0.19302456841E+03  0.19610807425E+02  0.19842787914E+03  0.00000000000E+00 0. -1.
        -13    1    3    3    0    0 -0.87968202760E+02  0.18040481190E+03 -0.60666372530E+02  0.20967763259E+03  0.00000000000E+00 0.  1.
         22    1    1    2    0    0  0.12956814797E+03 -0.37342938031E+03  0.41628547149E+02  0.39745483138E+03  0.00000000000E+00 0.  1.
<mgrwt>
<rscale>  0 0.80556014E+03</rscale>
<asrwt>0</asrwt>
<pdfrwt beam="1">  1        3 0.62010256E-01 0.80556014E+03</pdfrwt>
<pdfrwt beam="2">  1       -3 0.61922105E-01 0.80556014E+03</pdfrwt>
<totfact> 0.16943151E+01</totfact>
</mgrwt>
</event>
<event>
 6    1  0.1878398E-004  0.2162765E+04  0.7818608E-02  0.8534088E-01
          2   -1    0    0  501    0  0.00000000000E+00  0.00000000000E+00  0.98754380506E+03  0.98754380506E+03  0.00000000000E+00 0.  1.
         -2   -1    0    0    0  501 -0.00000000000E+00 -0.00000000000E+00 -0.11841376461E+04  0.11841376461E+04  0.00000000000E+00 0. -1.
         23    2    1    2    0    0 -0.92755184886E+03  0.51442208573E+03  0.10125414827E+03  0.10700027596E+04  0.98341184119E+02 0.  0.
         13    1    3    3    0    0 -0.65334910468E+03  0.31037035524E+03  0.62506173198E+02  0.72601779019E+03  0.00000000000E+00 0. -1.
        -13    1    3    3    0    0 -0.27420274418E+03  0.20405173049E+03  0.38747975076E+02  0.34398496945E+03  0.00000000000E+00 0.  1.
         22    1    1    2    0    0  0.92755184886E+03 -0.51442208573E+03 -0.29784798932E+03  0.11016786915E+04  0.00000000000E+00 0. -1.
<mgrwt>
<rscale>  0 0.21627647E+04</rscale>
<asrwt>0</asrwt>
<pdfrwt beam="1">  1        2 0.15192982E+00 0.21627647E+04</pdfrwt>
<pdfrwt beam="2">  1       -2 0.18217502E+00 0.21627647E+04</pdfrwt>
<totfact> 0.41200932E+00</totfact>
</mgrwt>
</event>
<event>
 6    1  0.1878398E-004  0.1655643E+04  0.7818608E-02  0.8787075E-01
          2   -1    0    0  501    0  0.00000000000E+00  0.00000000000E+00  0.37450800007E+04  0.37450800007E+04  0.00000000000E+00 0.  1.
         -2   -1    0    0    0  501 -0.00000000000E+00 -0.00000000000E+00 -0.18298362862E+03  0.18298362862E+03  0.00000000000E+00 0. -1.
         23    2    1    2    0    0 -0.37261468486E+03 -0.70411718603E+03  0.12789187270E+04  0.15098984418E+04  0.97660018951E+02 0.  0.
         13    1    3    3    0    0 -0.23425872727E+03 -0.35088923113E+03  0.71679786638E+03  0.83174490384E+03  0.00000000000E+00 0. -1.
        -13    1    3    3    0    0 -0.13835595759E+03 -0.35322795490E+03  0.56212086064E+03  0.67815353799E+03  0.00000000000E+00 0.  1.
         22    1    1    2    0    0  0.37261468486E+03  0.70411718603E+03  0.22831776451E+04  0.24181651875E+04  0.00000000000E+00 0.  1.
<mgrwt>
<rscale>  0 0.16556429E+04</rscale>
<asrwt>0</asrwt>
<pdfrwt beam="1">  1        2 0.57616609E+00 0.16556429E+04</pdfrwt>
<pdfrwt beam="2">  1       -2 0.28151330E-01 0.16556429E+04</pdfrwt>
<totfact> 0.60400247E+00</totfact>
</mgrwt>
</event>
<event>
 6    1  0.1878398E-004  0.4745224E+04  0.7818608E-02  0.7869057E-01
         -1   -1    0    0    0  501 -0.00000000000E+00  0.00000000000E+00  0.16502179074E+04  0.16502179074E+04  0.00000000000E+00 0. -1.
          1   -1    0    0  501    0  0.00000000000E+00 -0.00000000000E+00 -0.34112395365E+04  0.34112395365E+04  0.00000000000E+00 0.  1.
         23    2    1    2    0    0 -0.34875894483E+03 -0.12096058090E+04 -0.30248983553E+04  0.32775955115E+04  0.88562194809E+02 0.  0.
         13    1    3    3    0    0 -0.12863362383E+03 -0.31293283903E+03 -0.77716349778E+03  0.84761823553E+03  0.00000000000E+00 0. -1.
        -13    1    3    3    0    0 -0.22012532100E+03 -0.89667296999E+03 -0.22477348576E+04  0.24299772760E+04  0.00000000000E+00 0.  1.
         22    1    1    2    0    0  0.34875894483E+03  0.12096058090E+04  0.12638767261E+04  0.17838619324E+04  0.00000000000E+00 0. -1.
<mgrwt>
<rscale>  0 0.47452244E+04</rscale>
<asrwt>0</asrwt>
<pdfrwt beam="1">  1        1 0.52480608E+00 0.47452244E+04</pdfrwt>
<pdfrwt beam="2">  1       -1 0.25387968E+00 0.47452244E+04</pdfrwt>
<totfact> 0.14193939E-02</totfact>
</mgrwt>
</event>
<event>
 6    1  0.1878398E-004  0.3399867E+04  0.7818608E-02  0.8137939E-01
          2   -1    0    0  501    0  0.00000000000E+00  0.00000000000E+00  0.14181157543E+04  0.14181157543E+04  0.00000000000E+00 0.  1.
         -2   -1    0    0    0  501 -0.00000000000E+00 -0.00000000000E+00 -0.20377555114E+04  0.20377555114E+04  0.00000000000E+00 0. -1.
         23    2    1    2    0    0  0.10354734116E+04  0.12887820722E+04 -0.70700302135E+03  0.18003360787E+04  0.90511371244E+02 0.  0.
         13    1    3    3    0    0  0.41731775914E+03  0.55536277622E+03 -0.25514067886E+03  0.74005316790E+03  0.00000000000E+00 0.  1.
        -13    1    3    3    0    0  0.61815565241E+03  0.73341929594E+03 -0.45186234250E+03  0.10602829108E+04  0.00000000000E+00 0. -1.
         22    1    1    2    0    0 -0.10354734116E+04 -0.12887820722E+04  0.87363264292E+02  0.16555351870E+04  0.00000000000E+00 0.  1.
<mgrwt>
<rscale>  0 0.33998666E+04</rscale>
<asrwt>0</asrwt>
<pdfrwt beam="1">  1        2 0.21817166E+00 0.33998666E+04</pdfrwt>
<pdfrwt beam="2">  1       -2 0.31350085E+00 0.33998666E+04</pdfrwt>
<totfact> 0.30732390E-01</totfact>
</mgrwt>
</event>
<event>
 6    1  0.1878398E-004  0.3380046E+04  0.7818608E-02  0.8142821E-01
         -2   -1    0    0    0  501 -0.00000000000E+00  0.00000000000E+00  0.90447030794E+03  0.90447030794E+03  0.00000000000E+00 0. -1.
          2   -1    0    0  501    0  0.00000000000E+00 -0.00000000000E+00 -0.31578456259E+04  0.31578456259E+04  0.00000000000E+00 0.  1.
         23    2    1    2    0    0  0.61158797310E+03  0.15713361033E+04 -0.12400772462E+04  0.20951072564E+04  0.92443717645E+02 0.  0.
         13    1    3    3    0    0  0.36449801107E+03  0.10281562340E+04 -0.83747195592E+03  0.13752539106E+04  0.00000000000E+00 0. -1.
        -13    1    3    3    0    0  0.24708996203E+03  0.54317986929E+03 -0.40260529023E+03  0.71985334580E+03  0.00000000000E+00 0.  1.
         22    1    1    2    0    0 -0.61158797310E+03 -0.15713361033E+04 -0.10132980718E+04  0.19672086775E+04  0.00000000000E+00 0. -1.
<mgrwt>
<rscale>  0 0.33800459E+04</rscale>
<asrwt>0</asrwt>
<pdfrwt beam="1">  1        2 0.48582240E+00 0.33800459E+04</pdfrwt>
<pdfrwt beam="2">  1       -2 0.13914928E+00 0.33800459E+04</pdfrwt>
<totfact> 0.41781949E-01</totfact>
</mgrwt>
</event>
<event>
 6    1  0.1878398E-004  0.2147750E+04  0.7818608E-02  0.8540496E-01
          1   -1    0    0  501    0  0.00000000000E+00  0.00000000000E+00  0.90834265296E+03  0.90834265296E+03  0.00000000000E+00 0.  1.
         -1   -1    0    0    0  501 -0.00000000000E+00 -0.00000000000E+00 -0.12695727743E+04  0.12695727743E+04  0.00000000000E+00 0. -1.
         23    2    1    2    0    0 -0.95966169554E+03 -0.33298715192E+03 -0.52910996772E+03  0.11483452956E+04  0.83117668610E+02 0.  0.
         13    1    3    3    0    0 -0.51537062721E+03 -0.21792915601E+03 -0.26971125255E+03  0.62116355349E+03  0.00000000000E+00 0. -1.
        -13    1    3    3    0    0 -0.44429106833E+03 -0.11505799591E+03 -0.25939871517E+03  0.52718174214E+03  0.00000000000E+00 0.  1.
         22    1    1    2    0    0  0.95966169554E+03  0.33298715192E+03  0.16787984634E+03  0.10295701317E+04  0.00000000000E+00 0. -1.
<mgrwt>
<rscale>  0 0.21477496E+04</rscale>
<asrwt>0</asrwt>
<pdfrwt beam="1">  1        1 0.13974502E+00 0.21477496E+04</pdfrwt>
<pdfrwt beam="2">  1       -1 0.19531889E+00 0.21477496E+04</pdfrwt>
<totfact> 0.26606043E+00</totfact>
</mgrwt>
</event>
<event>
 6    1  0.1878398E-004  0.3309751E+04  0.7818608E-02  0.8160419E-01
          2   -1    0    0  501    0  0.00000000000E+00  0.00000000000E+00  0.24535683814E+04  0.24535683814E+04  0.00000000000E+00 0.  1.
         -2   -1    0    0    0  501 -0.00000000000E+00 -0.00000000000E+00 -0.11161752217E+04  0.11161752217E+04  0.00000000000E+00 0. -1.
         23    2    1    2    0    0 -0.13475512072E+04 -0.83427025037E+03  0.11782734890E+04  0.19768782050E+04  0.88418980588E+02 0.  0.
         13    1    3    3    0    0 -0.12182436304E+04 -0.74147140515E+03  0.10284777079E+04  0.17583127661E+04  0.00000000000E+00 0.  1.
        -13    1    3    3    0    0 -0.12930757677E+03 -0.92798845212E+02  0.14979578106E+03  0.21856543896E+03  0.00000000000E+00 0. -1.
         22    1    1    2    0    0  0.13475512072E+04  0.83427025037E+03  0.15911967073E+03  0.15928653980E+04  0.00000000000E+00 0. -1.
<mgrwt>
<rscale>  0 0.33097506E+04</rscale>
<asrwt>0</asrwt>
<pdfrwt beam="1">  1        2 0.37747206E+00 0.33097506E+04</pdfrwt>
<pdfrwt beam="2">  1       -2 0.17171927E+00 0.33097506E+04</pdfrwt>
<totfact> 0.64035323E-01</totfact>
</mgrwt>
</event>
<event>
 6    1  0.1878398E-004  0.2066064E+04  0.7818608E-02  0.8576341E-01
         -2   -1    0    0    0  501 -0.00000000000E+00  0.00000000000E+00  0.56121371502E+03  0.56121371502E+03  0.00000000000E+00 0. -1.
          2   -1    0    0  501    0  0.00000000000E+00 -0.00000000000E+00 -0.19015136873E+04  0.19015136873E+04  0.00000000000E+00 0.  1.
         23    2    1    2    0    0  0.70742224142E+03 -0.32647682006E+03 -0.14762940775E+04  0.16718242867E+04  0.92297891989E+02 0.  0.
         11    1    3    3    0    0  0.24802835198E+03 -0.80359599715E+02 -0.55908501944E+03  0.61688879680E+03  0.00000000000E+00 0. -1.
        -11    1    3    3    0    0  0.45939388944E+03 -0.24611722035E+03 -0.91720905801E+03  0.10549354899E+04  0.00000000000E+00 0.  1.
         22    1    1    2    0    0 -0.70742224142E+03  0.32647682006E+03  0.13599410513E+03  0.79090311564E+03  0.00000000000E+00 0. -1.
<mgrwt>
<rscale>  0 0.20660644E+04</rscale>
<asrwt>0</asrwt>
<pdfrwt beam="1">  1        2 0.29254057E+00 0.20660644E+04</pdfrwt>
<pdfrwt beam="2">  1       -2 0.86340572E-01 0.20660644E+04</pdfrwt>
<totfact> 0.81418050E+00</totfact>
</mgrwt>
</event>
<event>
 6    1  0.1878398E-004  0.2308383E+04  0.7818608E-02  0.8474623E-01
          2   -1    0    0  501    0  0.00000000000E+00  0.00000000000E+00  0.21572147278E+04  0.21572147278E+04  0.00000000000E+00 0.  1.
         -2   -1    0    0    0  501 -0.00000000000E+00 -0.00000000000E+00 -0.61753600693E+03  0.61753600693E+03  0.00000000000E+00 0. -1.
         23    2    1    2    0    0  0.80319892087E+03 -0.12257810547E+03  0.17533680381E+04  0.19346215645E+04  0.91143963601E+02 0.  0.
         13    1    3    3    0    0  0.10433035169E+03  0.14436984040E+02  0.21605916379E+03  0.24036391379E+03  0.00000000000E+00 0. -1.
        -13    1    3    3    0    0  0.69886856918E+03 -0.13701508951E+03  0.15373088743E+04  0.16942576507E+04  0.00000000000E+00 0.  1.
         22    1    1    2    0    0 -0.80319892087E+03  0.12257810547E+03 -0.21368931726E+03  0.84012917027E+03  0.00000000000E+00 0. -1.
<mgrwt>
<rscale>  0 0.23083828E+04</rscale>
<asrwt>0</asrwt>
<pdfrwt beam="1">  1        2 0.33187919E+00 0.23083828E+04</pdfrwt>
<pdfrwt beam="2">  1       -2 0.95005541E-01 0.23083828E+04</pdfrwt>
<totfact> 0.46073680E+00</totfact>
</mgrwt>
</event>
<event>
 6    1  0.1878398E-004  0.4078118E+04  0.7818608E-02  0.7988971E-01
         -2   -1    0    0    0  501 -0.00000000000E+00  0.00000000000E+00  0.14294830939E+04  0.14294830939E+04  0.00000000000E+00 0. -1.
          2   -1    0    0  501    0  0.00000000000E+00 -0.00000000000E+00 -0.29085766311E+04  0.29085766311E+04  0.00000000000E+00 0.  1.
         23    2    1    2    0    0 -0.47403376706E+03  0.17322977371E+04 -0.17647634679E+04  0.25194968937E+04  0.88944011184E+02 0.  0.
         13    1    3    3    0    0 -0.17590383203E+03  0.63664126256E+03 -0.58952775760E+03  0.88532323605E+03  0.00000000000E+00 0. -1.
        -13    1    3    3    0    0 -0.29812993503E+03  0.10956564745E+04 -0.11752357103E+04  0.16341736576E+04  0.00000000000E+00 0.  1.
         22    1    1    2    0    0  0.47403376706E+03 -0.17322977371E+04  0.28566993074E+03  0.18185628314E+04  0.00000000000E+00 0. -1.
<mgrwt>
<rscale>  0 0.40781178E+04</rscale>
<asrwt>0</asrwt>
<pdfrwt beam="1">  1        2 0.44747333E+00 0.40781178E+04</pdfrwt>
<pdfrwt beam="2">  1       -2 0.21992048E+00 0.40781178E+04</pdfrwt>
<totfact> 0.15389138E-01</totfact>
</mgrwt>
</event>
<event>
 6    1  0.1878398E-004  0.3917009E+04  0.7818608E-02  0.8021501E-01
          2   -1    0    0  501    0  0.00000000000E+00  0.00000000000E+00  0.26283789025E+04  0.26283789025E+04  0.00000000000E+00 0.  1.
         -2   -1    0    0    0  501 -0.00000000000E+00 -0.00000000000E+00 -0.14593554801E+04  0.14593554801E+04  0.00000000000E+00 0. -1.
         23    2    1    2    0    0  0.10246114305E+04  0.10295122976E+04 -0.78433709153E+03  0.16535319564E+04  0.96224234191E+02 0.  0.
         11    1    3    3    0    0  0.58913863504E+03  0.63560161142E+03 -0.42669641552E+03  0.96599356663E+03  0.00000000000E+00 0.  1.
        -11    1    3    3    0    0  0.43547279543E+03  0.39391068614E+03 -0.35764067601E+03  0.68753838973E+03  0.00000000000E+00 0. -1.
         22    1    1    2    0    0 -0.10246114305E+04 -0.10295122976E+04  0.19533605140E+04  0.24342024263E+04  0.00000000000E+00 0.  1.
<mgrwt>
<rscale>  0 0.39170086E+04</rscale>
<asrwt>0</asrwt>
<pdfrwt beam="1">  1        2 0.40436598E+00 0.39170086E+04</pdfrwt>
<pdfrwt beam="2">  1       -2 0.22451623E+00 0.39170086E+04</pdfrwt>
<totfact> 0.21521619E-01</totfact>
</mgrwt>
</event>
<event>
 6    1  0.1878398E-004  0.1575549E+04  0.7818608E-02  0.8835712E-01
          1   -1    0    0  501    0  0.00000000000E+00  0.00000000000E+00  0.81183508786E+03  0.81183508786E+03  0.00000000000E+00 0.  1.
         -1   -1    0    0    0  501 -0.00000000000E+00 -0.00000000000E+00 -0.76442699300E+03  0.76442699300E+03  0.00000000000E+00 0. -1.
         23    2    1    2    0    0 -0.62028894264E+03 -0.31319843527E+03  0.38948544287E+03  0.80175027059E+03  0.90845770262E+02 0.  0.
         11    1    3    3    0    0 -0.45693584560E+03 -0.27382858506E+03  0.29177903602E+03  0.60737753239E+03  0.00000000000E+00 0.  1.
        -11    1    3    3    0    0 -0.16335309704E+03 -0.39369850207E+02  0.97706406845E+02  0.19437273820E+03  0.00000000000E+00 0. -1.
         22    1    1    2    0    0  0.62028894264E+03  0.31319843527E+03 -0.34207734801E+03  0.77451181026E+03  0.00000000000E+00 0.  1.
<mgrwt>
<rscale>  0 0.15755490E+04</rscale>
<asrwt>0</asrwt>
<pdfrwt beam="1">  1        1 0.12489771E+00 0.15755490E+04</pdfrwt>
<pdfrwt beam="2">  1       -1 0.11760415E+00 0.15755490E+04</pdfrwt>
<totfact> 0.13503756E+01</totfact>
</mgrwt>
</event>
<event>
 6    1  0.1878398E-004  0.2445642E+04  0.7818608E-02  0.8422611E-01
          2   -1    0    0  501    0  0.00000000000E+00  0.00000000000E+00  0.80770863049E+03  0.80770863049E+03  0.00000000000E+00 0.  1.
         -2   -1    0    0    0  501 -0.00000000000E+00 -0.00000000000E+00 -0.18512755152E+04  0.18512755152E+04  0.00000000000E+00 0. -1.
         23    2    1    2    0    0 -0.48901814817E+03  0.44382913589E+03  0.59422452901E+03  0.89306122383E+03  0.91282569656E+02 0.  0.
         13    1    3    3    0    0 -0.81629521057E+02  0.12469940587E+03  0.14030432489E+03  0.20469153406E+03  0.00000000000E+00 0. -1.
        -13    1    3    3    0    0 -0.40738862711E+03  0.31912973001E+03  0.45392020412E+03  0.68836968976E+03  0.00000000000E+00 0.  1.
         22    1    1    2    0    0  0.48901814817E+03 -0.44382913589E+03 -0.16377914138E+04  0.17659229219E+04  0.00000000000E+00 0. -1.
<mgrwt>
<rscale>  0 0.24456420E+04</rscale>
<asrwt>0</asrwt>
<pdfrwt beam="1">  1        2 0.12426287E+00 0.24456420E+04</pdfrwt>
<pdfrwt beam="2">  1       -2 0.28481162E+00 0.24456420E+04</pdfrwt>
<totfact> 0.11992628E+00</totfact>
</mgrwt>
</event>
<event>
 6    1  0.1878398E-004  0.2691412E+04  0.7818608E-02  0.8337797E-01
          1   -1    0    0  501    0  0.00000000000E+00  0.00000000000E+00  0.20236928404E+04  0.20236928404E+04  0.00000000000E+00 0.  1.
         -1   -1    0    0    0  501 -0.00000000000E+00 -0.00000000000E+00 -0.89486130036E+03  0.89486130036E+03  0.00000000000E+00 0. -1.
         23    2    1    2    0    0  0.12907228595E+04  0.19525288678E+03  0.91235769723E+03  0.15953194245E+04  0.92511128059E+02 0.  0.
         11    1    3    3    0    0  0.84494883055E+03  0.95638411628E+02  0.63044468788E+03  0.10585583293E+04  0.00000000000E+00 0.  1.
        -11    1    3    3    0    0  0.44577402891E+03  0.99614475151E+02  0.28191300934E+03  0.53676109522E+03  0.00000000000E+00 0. -1.
         22    1    1    2    0    0 -0.12907228595E+04 -0.19525288678E+03  0.21647384284E+03  0.13232347163E+04  0.00000000000E+00 0.  1.
<mgrwt>
<rscale>  0 0.26914118E+04</rscale>
<asrwt>0</asrwt>
<pdfrwt beam="1">  1        1 0.31133736E+00 0.26914118E+04</pdfrwt>
<pdfrwt beam="2">  1       -1 0.13767097E+00 0.26914118E+04</pdfrwt>
<totfact> 0.10986759E+00</totfact>
</mgrwt>
</event>
<event>
 6    1  0.1878398E-004  0.1697413E+04  0.7818608E-02  0.8762841E-01
         -2   -1    0    0    0  501 -0.00000000000E+00  0.00000000000E+00  0.44191150090E+03  0.44191150090E+03  0.00000000000E+00 0. -1.
          2   -1    0    0  501    0  0.00000000000E+00 -0.00000000000E+00 -0.16299702372E+04  0.16299702372E+04  0.00000000000E+00 0.  1.
         23    2    1    2    0    0  0.67678030442E+03 -0.36216703477E+03 -0.16127869872E+03  0.78990132206E+03  0.93470521540E+02 0.  0.
         11    1    3    3    0    0  0.37462895138E+03 -0.24161723856E+03 -0.64007432011E+02  0.45035840453E+03  0.00000000000E+00 0.  1.
        -11    1    3    3    0    0  0.30215135305E+03 -0.12054979621E+03 -0.97271266714E+02  0.33954291752E+03  0.00000000000E+00 0. -1.
         22    1    1    2    0    0 -0.67678030442E+03  0.36216703477E+03 -0.10267800375E+04  0.12819804160E+04  0.00000000000E+00 0.  1.
<mgrwt>
<rscale>  0 0.16974128E+04</rscale>
<asrwt>0</asrwt>
<pdfrwt beam="1">  1        2 0.25076465E+00 0.16974128E+04</pdfrwt>
<pdfrwt beam="2">  1       -2 0.67986385E-01 0.16974128E+04</pdfrwt>
<totfact> 0.20227973E+01</totfact>
</mgrwt>
</event>
<event>
 6    1  0.1878398E-004  0.3445790E+04  0.7818608E-02  0.8126758E-01
         -1   -1    0    0    0  501 -0.00000000000E+00  0.00000000000E+00  0.14050803222E+04  0.14050803222E+04  0.00000000000E+00 0. -1.
          1   -1    0    0  501    0  0.00000000000E+00 -0.00000000000E+00 -0.21125965571E+04  0.21125965571E+04  0.00000000000E+00 0.  1.
         23    2    1    2    0    0  0.96365276143E+03 -0.82873551380E+03  0.83152614385E+03  0.15216606869E+04  0.92662407188E+02 0.  0.
         13    1    3    3    0    0  0.52127244113E+03 -0.49130318606E+03  0.42919517556E+03  0.83505226018E+03  0.00000000000E+00 0. -1.
        -13    1    3    3    0    0  0.44238032030E+03 -0.33743232774E+03  0.40233096829E+03  0.68660842671E+03  0.00000000000E+00 0.  1.
         22    1    1    2    0    0 -0.96365276143E+03  0.82873551380E+03 -0.15390423788E+04  0.19960161924E+04  0.00000000000E+00 0.  1.
<mgrwt>
<rscale>  0 0.34457904E+04</rscale>
<asrwt>0</asrwt>
<pdfrwt beam="1">  1        1 0.32501485E+00 0.34457904E+04</pdfrwt>
<pdfrwt beam="2">  1       -1 0.21616620E+00 0.34457904E+04</pdfrwt>
<totfact> 0.23915137E-01</totfact>
</mgrwt>
</event>
<event>
 6    1  0.1878398E-004  0.1782100E+04  0.7818608E-02  0.8715877E-01
          2   -1    0    0  501    0  0.00000000000E+00  0.00000000000E+00  0.22567614611E+04  0.22567614611E+04  0.00000000000E+00 0.  1.
         -2   -1    0    0    0  501 -0.00000000000E+00 -0.00000000000E+00 -0.35181827746E+03  0.35181827746E+03  0.00000000000E+00 0. -1.
         23    2    1    2    0    0 -0.53329982968E+03  0.12345185589E+03 -0.69357473114E+02  0.55979664796E+03  0.94407409308E+02 0.  0.
         13    1    3    3    0    0 -0.37338756104E+03  0.41877355709E+02 -0.54585373084E+02  0.37967294691E+03  0.00000000000E+00 0.  1.
        -13    1    3    3    0    0 -0.15991226865E+03  0.81574500179E+02 -0.14772100030E+02  0.18012370106E+03  0.00000000000E+00 0. -1.
         22    1    1    2    0    0  0.53329982968E+03 -0.12345185589E+03  0.19743006567E+04  0.20487830906E+04  0.00000000000E+00 0.  1.
<mgrwt>
<rscale>  0 0.17820998E+04</rscale>
<asrwt>0</asrwt>
<pdfrwt beam="1">  1        2 0.34719406E+00 0.17820998E+04</pdfrwt>
<pdfrwt beam="2">  1       -2 0.54125890E-01 0.17820998E+04</pdfrwt>
<totfact> 0.14582966E+01</totfact>
</mgrwt>
</event>
<event>
 6    1  0.1878398E-004  0.2112215E+04  0.7818608E-02  0.8555882E-01
          2   -1    0    0  501    0  0.00000000000E+00  0.00000000000E+00  0.55710928495E+03  0.55710928495E+03  0.00000000000E+00 0.  1.
         -2   -1    0    0    0  501 -0.00000000000E+00 -0.00000000000E+00 -0.20020545973E+04  0.20020545973E+04  0.00000000000E+00 0. -1.
         23    2    1    2    0    0  0.30572892637E+02 -0.99394470143E+03 -0.30023946723E+03  0.10428485314E+04  0.92350152032E+02 0.  0.
         13    1    3    3    0    0 -0.28101960307E+02 -0.46268095647E+03 -0.12046679837E+03  0.47893176671E+03  0.00000000000E+00 0.  1.
        -13    1    3    3    0    0  0.58674852944E+02 -0.53126374495E+03 -0.17977266886E+03  0.56391676473E+03  0.00000000000E+00 0. -1.
         22    1    1    2    0    0 -0.30572892637E+02  0.99394470143E+03 -0.11447058451E+04  0.15163153508E+04  0.00000000000E+00 0.  1.
<mgrwt>
<rscale>  0 0.21122151E+04</rscale>
<asrwt>0</asrwt>
<pdfrwt beam="1">  1        2 0.85709120E-01 0.21122151E+04</pdfrwt>
<pdfrwt beam="2">  1       -2 0.30800840E+00 0.21122151E+04</pdfrwt>
<totfact> 0.14180980E+00</totfact>
</mgrwt>
</event>
<event>
 6    1  0.1878398E-004  0.2426831E+04  0.7818608E-02  0.8429526E-01
         -1   -1    0    0    0  501 -0.00000000000E+00  0.00000000000E+00  0.59024335492E+03  0.59024335492E+03  0.00000000000E+00 0. -1.
          1   -1    0    0  501    0  0.00000000000E+00 -0.00000000000E+00 -0.24945257736E+04  0.24945257736E+04  0.00000000000E+00 0.  1.
         23    2    1    2    0    0  0.29210086002E+03 -0.56132573765E+03 -0.22670150852E+04  0.23553964642E+04  0.90142171704E+02 0.  0.
         11    1    3    3    0    0  0.16484897945E+03 -0.22332370246E+03 -0.10281210956E+04  0.10649326971E+04  0.00000000000E+00 0.  1.
        -11    1    3    3    0    0  0.12725188057E+03 -0.33800203520E+03 -0.12388939895E+04  0.12904637671E+04  0.00000000000E+00 0. -1.
         22    1    1    2    0    0 -0.29210086002E+03  0.56132573765E+03  0.36273266644E+03  0.72937266433E+03  0.00000000000E+00 0. -1.
<mgrwt>
<rscale>  0 0.24268311E+04</rscale>
<asrwt>0</asrwt>
<pdfrwt beam="1">  1        1 0.38377319E+00 0.24268311E+04</pdfrwt>
<pdfrwt beam="2">  1       -1 0.90806672E-01 0.24268311E+04</pdfrwt>
<totfact> 0.14466865E+00</totfact>
</mgrwt>
</event>
<event>
 6    1  0.1878398E-004  0.5315296E+04  0.7818608E-02  0.7781629E-01
         -2   -1    0    0    0  501 -0.00000000000E+00  0.00000000000E+00  0.52325440226E+04  0.52325440226E+04  0.00000000000E+00 0. -1.
          2   -1    0    0  501    0  0.00000000000E+00 -0.00000000000E+00 -0.13498389609E+04  0.13498389609E+04  0.00000000000E+00 0.  1.
         23    2    1    2    0    0  0.17690817265E+04 -0.18246545476E+04  0.98307827837E+03  0.27266275640E+04  0.95082061273E+02 0.  0.
         11    1    3    3    0    0  0.10178858203E+04 -0.11146122127E+04  0.59659723577E+03  0.16230773825E+04  0.00000000000E+00 0. -1.
        -11    1    3    3    0    0  0.75119590619E+03 -0.71004233490E+03  0.38648104261E+03  0.11035501815E+04  0.00000000000E+00 0.  1.
         22    1    1    2    0    0 -0.17690817265E+04  0.18246545476E+04  0.28996267833E+04  0.38557554196E+04  0.00000000000E+00 0. -1.
<mgrwt>
<rscale>  0 0.53152956E+04</rscale>
<asrwt>0</asrwt>
<pdfrwt beam="1">  1        2 0.20766753E+00 0.53152956E+04</pdfrwt>
<pdfrwt beam="2">  1       -2 0.80500677E+00 0.53152956E+04</pdfrwt>
<totfact> 0.79965122E-04</totfact>
</mgrwt>
</event>
<event>
 6    1  0.1878398E-004  0.2875418E+04  0.7818608E-02  0.8280229E-01
         -2   -1    0    0    0  501 -0.00000000000E+00  0.00000000000E+00  0.69818917054E+03  0.69818917054E+03  0.00000000000E+00 0. -1.
          2   -1    0    0  501    0  0.00000000000E+00 -0.00000000000E+00 -0.29605258161E+04  0.29605258161E+04  0.00000000000E+00 0.  1.
         23    2    1    2    0    0 -0.11168625521E+04 -0.86418868272E+03 -0.79938654227E+03  0.16253859320E+04  0.93040553202E+02 0.  0.
         13    1    3    3    0    0 -0.40901303736E+03 -0.26591783172E+03 -0.29744342819E+03  0.57138126582E+03  0.00000000000E+00 0. -1.
        -13    1    3    3    0    0 -0.70784951472E+03 -0.59827085101E+03 -0.50194311408E+03  0.10540046662E+04  0.00000000000E+00 0.  1.
         22    1    1    2    0    0  0.11168625521E+04  0.86418868272E+03 -0.14629501033E+04  0.20333290546E+04  0.00000000000E+00 0.  1.
<mgrwt>
<rscale>  0 0.28754179E+04</rscale>
<asrwt>0</asrwt>
<pdfrwt beam="1">  1        2 0.45546552E+00 0.28754179E+04</pdfrwt>
<pdfrwt beam="2">  1       -2 0.10741372E+00 0.28754179E+04</pdfrwt>
<totfact> 0.11086204E+00</totfact>
</mgrwt>
</event>
<event>
 6    1  0.1878398E-004  0.4573555E+04  0.7818608E-02  0.7897885E-01
         -2   -1    0    0    0  501 -0.00000000000E+00  0.00000000000E+00  0.11453230352E+04  0.11453230352E+04  0.00000000000E+00 0. -1.
          2   -1    0    0  501    0  0.00000000000E+00 -0.00000000000E+00 -0.45658311018E+04  0.45658311018E+04  0.00000000000E+00 0.  1.
         23    2    1    2    0    0  0.98416893241E+03  0.12105789717E+04  0.37526894833E+03  0.16072519597E+04  0.91335338323E+02 0.  0.
         13    1    3    3    0    0  0.48115900284E+03  0.54603331881E+03  0.13873662970E+03  0.74088745683E+03  0.00000000000E+00 0.  1.
        -13    1    3    3    0    0  0.50300992957E+03  0.66454565293E+03  0.23653231863E+03  0.86636450287E+03  0.00000000000E+00 0. -1.
         22    1    1    2    0    0 -0.98416893241E+03 -0.12105789717E+04 -0.37957770149E+04  0.41039021774E+04  0.00000000000E+00 0.  1.
<mgrwt>
<rscale>  0 0.45735551E+04</rscale>
<asrwt>0</asrwt>
<pdfrwt beam="1">  1        2 0.70243555E+00 0.45735551E+04</pdfrwt>
<pdfrwt beam="2">  1       -2 0.17620355E+00 0.45735551E+04</pdfrwt>
<totfact> 0.15218958E-02</totfact>
</mgrwt>
</event>
<event>
 6    1  0.1878398E-004  0.2768334E+04  0.7818608E-02  0.8313167E-01
         -2   -1    0    0    0  501 -0.00000000000E+00  0.00000000000E+00  0.18751922563E+04  0.18751922563E+04  0.00000000000E+00 0. -1.
          2   -1    0    0  501    0  0.00000000000E+00 -0.00000000000E+00 -0.10217185249E+04  0.10217185249E+04  0.00000000000E+00 0.  1.
         23    2    1    2    0    0 -0.11900156823E+04  0.67697575609E+03  0.22498250481E+03  0.13904464702E+04  0.91053612774E+02 0.  0.
         13    1    3    3    0    0 -0.43976535159E+03  0.28929299981E+03  0.11518362050E+03  0.53884252860E+03  0.00000000000E+00 0.  1.
        -13    1    3    3    0    0 -0.75025033073E+03  0.38768275628E+03  0.10979888431E+03  0.85160394156E+03  0.00000000000E+00 0. -1.
         22    1    1    2    0    0  0.11900156823E+04 -0.67697575609E+03  0.62849122654E+03  0.15064643110E+04  0.00000000000E+00 0. -1.
<mgrwt>
<rscale>  0 0.27683343E+04</rscale>
<asrwt>0</asrwt>
<pdfrwt beam="1">  1        2 0.15718747E+00 0.27683343E+04</pdfrwt>
<pdfrwt beam="2">  1       -2 0.28849111E+00 0.27683343E+04</pdfrwt>
<totfact> 0.79539709E-01</totfact>
</mgrwt>
</event>
<event>
 6    1  0.1878398E-004  0.1245588E+04  0.7818608E-02  0.9073864E-01
          2   -1    0    0  501    0  0.00000000000E+00  0.00000000000E+00  0.41422015145E+03  0.41422015145E+03  0.00000000000E+00 0.  1.
         -2   -1    0    0    0  501 -0.00000000000E+00 -0.00000000000E+00 -0.93639122830E+03  0.93639122830E+03  0.00000000000E+00 0. -1.
         23    2    1    2    0    0  0.51736630526E+03 -0.28178399585E+02  0.10550225206E+03  0.53670983542E+03  0.92004381606E+02 0.  0.
         13    1    3    3    0    0  0.30815305549E+03  0.26366476967E+01  0.20664568684E+02  0.30885640987E+03  0.00000000000E+00 0. -1.
        -13    1    3    3    0    0  0.20921324977E+03 -0.30815047281E+02  0.84837683375E+02  0.22785342556E+03  0.00000000000E+00 0.  1.
         22    1    1    2    0    0 -0.51736630526E+03  0.28178399585E+02 -0.62767332891E+03  0.81390154432E+03  0.00000000000E+00 0. -1.
<mgrwt>
<rscale>  0 0.12455876E+04</rscale>
<asrwt>0</asrwt>
<pdfrwt beam="1">  1        2 0.63726179E-01 0.12455876E+04</pdfrwt>
<pdfrwt beam="2">  1       -2 0.14406019E+00 0.12455876E+04</pdfrwt>
<totfact> 0.25041089E+01</totfact>
</mgrwt>
</event>
<event>
 6    1  0.1878398E-004  0.8634936E+03  0.7818608E-02  0.9472403E-01
         -1   -1    0    0    0  501 -0.00000000000E+00  0.00000000000E+00  0.29950537292E+03  0.29950537292E+03  0.00000000000E+00 0. -1.
          1   -1    0    0  501    0  0.00000000000E+00 -0.00000000000E+00 -0.62237712846E+03  0.62237712846E+03  0.00000000000E+00 0.  1.
         23    2    1    2    0    0  0.26476991002E+03  0.12556819509E+03  0.16752942926E+03  0.35059991025E+03  0.94782437867E+02 0.  0.
         13    1    3    3    0    0  0.13722745541E+03  0.29207216559E+02  0.39381942151E+02  0.14572361986E+03  0.00000000000E+00 0. -1.
        -13    1    3    3    0    0  0.12754245461E+03  0.96360978529E+02  0.12814748711E+03  0.20487629039E+03  0.00000000000E+00 0.  1.
         22    1    1    2    0    0 -0.26476991002E+03 -0.12556819509E+03 -0.49040118480E+03  0.57128259113E+03  0.00000000000E+00 0.  1.
<mgrwt>
<rscale>  0 0.86349359E+03</rscale>
<asrwt>0</asrwt>
<pdfrwt beam="1">  1        1 0.95750327E-01 0.86349359E+03</pdfrwt>
<pdfrwt beam="2">  1       -1 0.46077750E-01 0.86349359E+03</pdfrwt>
<totfact> 0.15346871E+02</totfact>
</mgrwt>
</event>
<event>
 6    1  0.1878398E-004  0.2652269E+04  0.7818608E-02  0.8350660E-01
         -1   -1    0    0    0  501 -0.00000000000E+00  0.00000000000E+00  0.13082073331E+04  0.13082073331E+04  0.00000000000E+00 0.  1.
          1   -1    0    0  501    0  0.00000000000E+00 -0.00000000000E+00 -0.13443072756E+04  0.13443072756E+04  0.00000000000E+00 0. -1.
         23    2    1    2    0    0 -0.70539679520E+03  0.11200238454E+04 -0.67035217942E+02  0.13285074168E+04  0.91652512823E+02 0.  0.
         13    1    3    3    0    0 -0.16911855129E+03  0.26691710347E+03 -0.55233469851E+02  0.32077493778E+03  0.00000000000E+00 0.  1.
        -13    1    3    3    0    0 -0.53627824390E+03  0.85310674192E+03 -0.11801748091E+02  0.10077324790E+04  0.00000000000E+00 0. -1.
         22    1    1    2    0    0  0.70539679520E+03 -0.11200238454E+04  0.30935275478E+02  0.13240071919E+04  0.00000000000E+00 0. -1.
<mgrwt>
<rscale>  0 0.26522689E+04</rscale>
<asrwt>0</asrwt>
<pdfrwt beam="1">  1        1 0.20681650E+00 0.26522689E+04</pdfrwt>
<pdfrwt beam="2">  1       -1 0.20126267E+00 0.26522689E+04</pdfrwt>
<totfact> 0.10879289E+00</totfact>
</mgrwt>
</event>
<event>
 6    1  0.1878398E-004  0.1370165E+04  0.7818608E-02  0.8975702E-01
         -1   -1    0    0    0  501 -0.00000000000E+00  0.00000000000E+00  0.27363356724E+03  0.27363356724E+03  0.00000000000E+00 0. -1.
          1   -1    0    0  501    0  0.00000000000E+00 -0.00000000000E+00 -0.17152067336E+04  0.17152067336E+04  0.00000000000E+00 0.  1.
         23    2    1    2    0    0  0.58240563280E+03 -0.35474751258E+03 -0.72838663814E+03  0.10020895001E+04  0.92704653186E+02 0.  0.
         11    1    3    3    0    0  0.31497604126E+03 -0.22485433867E+03 -0.35853782830E+03  0.52755924265E+03  0.00000000000E+00 0. -1.
        -11    1    3    3    0    0  0.26742959154E+03 -0.12989317391E+03 -0.36984880985E+03  0.47453025741E+03  0.00000000000E+00 0.  1.
         22    1    1    2    0    0 -0.58240563280E+03  0.35474751258E+03 -0.71318652823E+03  0.98675080078E+03  0.00000000000E+00 0. -1.
<mgrwt>
<rscale>  0 0.13701652E+04</rscale>
<asrwt>0</asrwt>
<pdfrwt beam="1">  1        1 0.26387796E+00 0.13701652E+04</pdfrwt>
<pdfrwt beam="2">  1       -1 0.42097472E-01 0.13701652E+04</pdfrwt>
<totfact> 0.25217609E+01</totfact>
</mgrwt>
</event>
<event>
 6    1  0.1878398E-004  0.1445538E+04  0.7818608E-02  0.8921499E-01
         -2   -1    0    0    0  501 -0.00000000000E+00  0.00000000000E+00  0.31131791034E+03  0.31131791034E+03  0.00000000000E+00 0. -1.
          2   -1    0    0  501    0  0.00000000000E+00 -0.00000000000E+00 -0.16780126092E+04  0.16780126092E+04  0.00000000000E+00 0.  1.
         23    2    1    2    0    0  0.45793196892E+03  0.28442641319E+03 -0.13427444936E+04  0.14497254000E+04  0.90226867968E+02 0.  0.
         13    1    3    3    0    0  0.16025669929E+03  0.15115342865E+03 -0.55689743048E+03  0.59888589626E+03  0.00000000000E+00 0. -1.
        -13    1    3    3    0    0  0.29767526963E+03  0.13327298454E+03 -0.78584706314E+03  0.85083950379E+03  0.00000000000E+00 0.  1.
         22    1    1    2    0    0 -0.45793196892E+03 -0.28442641319E+03 -0.23950205263E+02  0.53960511952E+03  0.00000000000E+00 0. -1.
<mgrwt>
<rscale>  0 0.14455385E+04</rscale>
<asrwt>0</asrwt>
<pdfrwt beam="1">  1        2 0.25815579E+00 0.14455385E+04</pdfrwt>
<pdfrwt beam="2">  1       -2 0.47895063E-01 0.14455385E+04</pdfrwt>
<totfact> 0.40412901E+01</totfact>
</mgrwt>
</event>
<event>
 6    1  0.1878398E-004  0.4750048E+04  0.7818608E-02  0.7868266E-01
          2   -1    0    0  501    0  0.00000000000E+00  0.00000000000E+00  0.53682772022E+04  0.53682772022E+04  0.00000000000E+00 0.  1.
         -2   -1    0    0    0  501 -0.00000000000E+00 -0.00000000000E+00 -0.10507540745E+04  0.10507540745E+04  0.00000000000E+00 0. -1.
         23    2    1    2    0    0  0.20408552874E+04 -0.94903425466E+03  0.11385718741E+04  0.25239719199E+04  0.91279894773E+02 0.  0.
         11    1    3    3    0    0  0.64233831023E+03 -0.28520980738E+03  0.40120468343E+03  0.80926407125E+03  0.00000000000E+00 0. -1.
        -11    1    3    3    0    0  0.13985169772E+04 -0.66382444728E+03  0.73736719064E+03  0.17147078486E+04  0.00000000000E+00 0.  1.
         22    1    1    2    0    0 -0.20408552874E+04  0.94903425466E+03  0.31789512536E+04  0.38950593568E+04  0.00000000000E+00 0.  1.
<mgrwt>
<rscale>  0 0.47500481E+04</rscale>
<asrwt>0</asrwt>
<pdfrwt beam="1">  1        2 0.82588879E+00 0.47500481E+04</pdfrwt>
<pdfrwt beam="2">  1       -2 0.16165448E+00 0.47500481E+04</pdfrwt>
<totfact> 0.18018255E-03</totfact>
</mgrwt>
</event>
<event>
 6    1  0.1878398E-004  0.2391308E+04  0.7818608E-02  0.8442765E-01
         -2   -1    0    0    0  501 -0.00000000000E+00  0.00000000000E+00  0.12579793109E+04  0.12579793109E+04  0.00000000000E+00 0. -1.
          2   -1    0    0  501    0  0.00000000000E+00 -0.00000000000E+00 -0.11364163067E+04  0.11364163067E+04  0.00000000000E+00 0.  1.
         23    2    1    2    0    0 -0.18730764057E+03  0.10322285929E+04 -0.51011333911E+03  0.11698160886E+04  0.87601610705E+02 0.  0.
         13    1    3    3    0    0 -0.13994085584E+03  0.80994609310E+03 -0.43807028870E+03  0.93139771027E+03  0.00000000000E+00 0. -1.
        -13    1    3    3    0    0 -0.47366784730E+02  0.22228249976E+03 -0.72043050406E+02  0.23841837829E+03  0.00000000000E+00 0.  1.
         22    1    1    2    0    0  0.18730764057E+03 -0.10322285929E+04  0.63167634340E+03  0.12245795290E+04  0.00000000000E+00 0. -1.
<mgrwt>
<rscale>  0 0.23913078E+04</rscale>
<asrwt>0</asrwt>
<pdfrwt beam="1">  1        2 0.17483328E+00 0.23913078E+04</pdfrwt>
<pdfrwt beam="2">  1       -2 0.19353528E+00 0.23913078E+04</pdfrwt>
<totfact> 0.27329483E+00</totfact>
</mgrwt>
</event>
<event>
 6    1  0.1878398E-004  0.3383950E+04  0.7818608E-02  0.8141857E-01
         -2   -1    0    0    0  501 -0.00000000000E+00  0.00000000000E+00  0.20948193380E+04  0.20948193380E+04  0.00000000000E+00 0. -1.
          2   -1    0    0  501    0  0.00000000000E+00 -0.00000000000E+00 -0.13665993612E+04  0.13665993612E+04  0.00000000000E+00 0.  1.
         23    2    1    2    0    0 -0.85722483855E+03  0.13147849612E+04 -0.27848186834E+03  0.15967625585E+04  0.92760977874E+02 0.  0.
         13    1    3    3    0    0 -0.48656022728E+03  0.68850486745E+03 -0.11509252274E+03  0.85089723002E+03  0.00000000000E+00 0. -1.
        -13    1    3    3    0    0 -0.37066461127E+03  0.62628009377E+03 -0.16338934560E+03  0.74586532843E+03  0.00000000000E+00 0.  1.
         22    1    1    2    0    0  0.85722483855E+03 -0.13147849612E+04  0.10067018452E+04  0.18646561407E+04  0.00000000000E+00 0. -1.
<mgrwt>
<rscale>  0 0.33839496E+04</rscale>
<asrwt>0</asrwt>
<pdfrwt beam="1">  1        2 0.21024606E+00 0.33839496E+04</pdfrwt>
<pdfrwt beam="2">  1       -2 0.32227990E+00 0.33839496E+04</pdfrwt>
<totfact> 0.29074070E-01</totfact>
</mgrwt>
</event>
<event>
 6    1  0.1878398E-004  0.1275260E+04  0.7818608E-02  0.9049418E-01
          1   -1    0    0  501    0  0.00000000000E+00  0.00000000000E+00  0.14039792486E+04  0.14039792486E+04  0.00000000000E+00 0.  1.
         -1   -1    0    0    0  501 -0.00000000000E+00 -0.00000000000E+00 -0.28958531865E+03  0.28958531865E+03  0.00000000000E+00 0. -1.
         23    2    1    2    0    0  0.56525292399E+03  0.28793878811E+03  0.55754583330E+03  0.84946776208E+03  0.91205859498E+02 0.  0.
         13    1    3    3    0    0  0.37665707389E+03  0.19676356904E+03  0.42818701733E+03  0.60326658719E+03  0.00000000000E+00 0.  1.
        -13    1    3    3    0    0  0.18859585010E+03  0.91175219074E+02  0.12935881597E+03  0.24620117489E+03  0.00000000000E+00 0. -1.
         22    1    1    2    0    0 -0.56525292399E+03 -0.28793878811E+03  0.55684809666E+03  0.84409680519E+03  0.00000000000E+00 0.  1.
<mgrwt>
<rscale>  0 0.12752596E+04</rscale>
<asrwt>0</asrwt>
<pdfrwt beam="1">  1        1 0.21599680E+00 0.12752596E+04</pdfrwt>
<pdfrwt beam="2">  1       -1 0.44551588E-01 0.12752596E+04</pdfrwt>
<totfact> 0.37484611E+01</totfact>
</mgrwt>
</event>
<event>
 6    1  0.1878398E-004  0.9152141E+03  0.7818608E-02  0.9406760E-01
          3   -1    0    0  501    0  0.00000000000E+00  0.00000000000E+00  0.16072615991E+04  0.16072615991E+04  0.00000000000E+00 0. -1.
         -3   -1    0    0    0  501 -0.00000000000E+00 -0.00000000000E+00 -0.13028633769E+03  0.13028633769E+03  0.00000000000E+00 0.  1.
         23    2    1    2    0    0 -0.38349304864E+03  0.32558672606E+02  0.11997612477E+04  0.12632330678E+04  0.90574536376E+02 0.  0.
         13    1    3    3    0    0 -0.19938622920E+03  0.52350179074E+02  0.72170014976E+03  0.75056413171E+03  0.00000000000E+00 0. -1.
        -13    1    3    3    0    0 -0.18410681944E+03 -0.19791506469E+02  0.47806109795E+03  0.51266893612E+03  0.00000000000E+00 0.  1.
         22    1    1    2    0    0  0.38349304864E+03 -0.32558672606E+02  0.27721401367E+03  0.47431486894E+03  0.00000000000E+00 0.  1.
<mgrwt>
<rscale>  0 0.91521413E+03</rscale>
<asrwt>0</asrwt>
<pdfrwt beam="1">  1        3 0.24727100E+00 0.91521413E+03</pdfrwt>
<pdfrwt beam="2">  1       -3 0.20044053E-01 0.91521413E+03</pdfrwt>
<totfact> 0.46506374E+00</totfact>
</mgrwt>
</event>
<event>
 6    1  0.1878398E-004  0.2498799E+04  0.7818608E-02  0.8403413E-01
          1   -1    0    0  501    0  0.00000000000E+00  0.00000000000E+00  0.17925568667E+04  0.17925568667E+04  0.00000000000E+00 0.  1.
         -1   -1    0    0    0  501 -0.00000000000E+00 -0.00000000000E+00 -0.87082291180E+03  0.87082291180E+03  0.00000000000E+00 0. -1.
         23    2    1    2    0    0  0.79147221008E+03 -0.29355240940E+03  0.14409031986E+04  0.16723510302E+04  0.89188923307E+02 0.  0.
         11    1    3    3    0    0  0.45127232035E+03 -0.15181053625E+03  0.72903595194E+03  0.87073909137E+03  0.00000000000E+00 0. -1.
        -11    1    3    3    0    0  0.34019988974E+03 -0.14174187315E+03  0.71186724669E+03  0.80161193884E+03  0.00000000000E+00 0.  1.
         22    1    1    2    0    0 -0.79147221008E+03  0.29355240940E+03 -0.51916924370E+03  0.99102874832E+03  0.00000000000E+00 0. -1.
<mgrwt>
<rscale>  0 0.24987994E+04</rscale>
<asrwt>0</asrwt>
<pdfrwt beam="1">  1        1 0.27577798E+00 0.24987994E+04</pdfrwt>
<pdfrwt beam="2">  1       -1 0.13397276E+00 0.24987994E+04</pdfrwt>
<totfact> 0.17202006E+00</totfact>
</mgrwt>
</event>
<event>
 6    1  0.1878398E-004  0.1191818E+04  0.7818608E-02  0.9120048E-01
         -2   -1    0    0    0  501 -0.00000000000E+00  0.00000000000E+00  0.12796194640E+03  0.12796194640E+03  0.00000000000E+00 0. -1.
          2   -1    0    0  501    0  0.00000000000E+00 -0.00000000000E+00 -0.27751035814E+04  0.27751035814E+04  0.00000000000E+00 0.  1.
         23    2    1    2    0    0 -0.22395664466E+03  0.48534749073E+03 -0.19541634988E+04  0.20278869959E+04  0.88611075245E+02 0.  0.
         11    1    3    3    0    0 -0.11091380154E+03  0.19060779569E+03 -0.95065609966E+03  0.97589969924E+03  0.00000000000E+00 0. -1.
        -11    1    3    3    0    0 -0.11304284312E+03  0.29473969504E+03 -0.10035073991E+04  0.10519872966E+04  0.00000000000E+00 0.  1.
         22    1    1    2    0    0  0.22395664466E+03 -0.48534749073E+03 -0.69297813617E+03  0.87517853187E+03  0.00000000000E+00 0. -1.
<mgrwt>
<rscale>  0 0.11918182E+04</rscale>
<asrwt>0</asrwt>
<pdfrwt beam="1">  1        2 0.42693899E+00 0.11918182E+04</pdfrwt>
<pdfrwt beam="2">  1       -2 0.19686454E-01 0.11918182E+04</pdfrwt>
<totfact> 0.52502492E+01</totfact>
</mgrwt>
</event>
<event>
 6    1  0.1878398E-004  0.1198068E+04  0.7818608E-02  0.9114550E-01
         -2   -1    0    0    0  501 -0.00000000000E+00  0.00000000000E+00  0.18806345111E+03  0.18806345111E+03  0.00000000000E+00 0. -1.
          2   -1    0    0  501    0  0.00000000000E+00 -0.00000000000E+00 -0.19080872396E+04  0.19080872396E+04  0.00000000000E+00 0.  1.
         23    2    1    2    0    0  0.40256421425E+02  0.21214541005E+03 -0.18360576638E+04  0.18510178396E+04  0.92374473098E+02 0.  0.
         13    1    3    3    0    0 -0.18500411746E+02  0.97756316438E+01 -0.27605642650E+03  0.27684829568E+03  0.00000000000E+00 0.  1.
        -13    1    3    3    0    0  0.58756833171E+02  0.20236977840E+03 -0.15600012373E+04  0.15741695439E+04  0.00000000000E+00 0. -1.
         22    1    1    2    0    0 -0.40256421425E+02 -0.21214541005E+03  0.11603387531E+03  0.24513285110E+03  0.00000000000E+00 0. -1.
<mgrwt>
<rscale>  0 0.11980676E+04</rscale>
<asrwt>0</asrwt>
<pdfrwt beam="1">  1        2 0.29355188E+00 0.11980676E+04</pdfrwt>
<pdfrwt beam="2">  1       -2 0.28932839E-01 0.11980676E+04</pdfrwt>
<totfact> 0.81426657E+01</totfact>
</mgrwt>
</event>
<event>
 6    1  0.1878398E-004  0.9471300E+03  0.7818608E-02  0.9368511E-01
         -2   -1    0    0    0  501 -0.00000000000E+00  0.00000000000E+00  0.30412828895E+03  0.30412828895E+03  0.00000000000E+00 0. -1.
          2   -1    0    0  501    0  0.00000000000E+00 -0.00000000000E+00 -0.73739878223E+03  0.73739878223E+03  0.00000000000E+00 0.  1.
         23    2    1    2    0    0 -0.44718866642E+03 -0.12120784239E+03 -0.13761062780E+03  0.49190556462E+03  0.91462315678E+02 0.  0.
         13    1    3    3    0    0 -0.29308412264E+03 -0.70411880501E+02 -0.44111057236E+02  0.30463407759E+03  0.00000000000E+00 0. -1.
        -13    1    3    3    0    0 -0.15410454377E+03 -0.50795961886E+02 -0.93499570566E+02  0.18727148702E+03  0.00000000000E+00 0.  1.
         22    1    1    2    0    0  0.44718866642E+03  0.12120784239E+03 -0.29565986548E+03  0.54962150657E+03  0.00000000000E+00 0. -1.
<mgrwt>
<rscale>  0 0.94713004E+03</rscale>
<asrwt>0</asrwt>
<pdfrwt beam="1">  1        2 0.11344597E+00 0.94713004E+03</pdfrwt>
<pdfrwt beam="2">  1       -2 0.46788968E-01 0.94713004E+03</pdfrwt>
<totfact> 0.16612691E+02</totfact>
</mgrwt>
</event>
<event>
 6    1  0.1878398E-004  0.1796314E+04  0.7818608E-02  0.8708262E-01
         -2   -1    0    0    0  501 -0.00000000000E+00  0.00000000000E+00  0.11220418499E+04  0.11220418499E+04  0.00000000000E+00 0. -1.
          2   -1    0    0  501    0  0.00000000000E+00 -0.00000000000E+00 -0.71894457888E+03  0.71894457888E+03  0.00000000000E+00 0.  1.
         23    2    1    2    0    0 -0.79321510540E+03 -0.36098839662E+03 -0.96900992718E+01  0.87667515175E+03  0.94670997421E+02 0.  0.
         11    1    3    3    0    0 -0.58945837905E+03 -0.30189924538E+03 -0.33945075584E+02  0.66314146541E+03  0.00000000000E+00 0.  1.
        -11    1    3    3    0    0 -0.20375672635E+03 -0.59089151237E+02  0.24254976312E+02  0.21353368634E+03  0.00000000000E+00 0. -1.
         22    1    1    2    0    0  0.79321510540E+03  0.36098839662E+03  0.41278737029E+03  0.96431127702E+03  0.00000000000E+00 0. -1.
<mgrwt>
<rscale>  0 0.17963139E+04</rscale>
<asrwt>0</asrwt>
<pdfrwt beam="1">  1        2 0.11060686E+00 0.17963139E+04</pdfrwt>
<pdfrwt beam="2">  1       -2 0.17262182E+00 0.17963139E+04</pdfrwt>
<totfact> 0.76318207E+00</totfact>
</mgrwt>
</event>
<event>
 6    1  0.1878398E-004  0.3542730E+04  0.7818608E-02  0.8103737E-01
          1   -1    0    0  501    0  0.00000000000E+00  0.00000000000E+00  0.18551149514E+04  0.18551149514E+04  0.00000000000E+00 0.  1.
         -1   -1    0    0    0  501 -0.00000000000E+00 -0.00000000000E+00 -0.16913964228E+04  0.16913964228E+04  0.00000000000E+00 0. -1.
         23    2    1    2    0    0 -0.28849374842E+02 -0.56166873389E+03  0.17621252474E+04  0.18520474201E+04  0.93221272944E+02 0.  0.
         13    1    3    3    0    0 -0.33984453362E+02 -0.13878777360E+03  0.55021941697E+03  0.56847022436E+03  0.00000000000E+00 0. -1.
        -13    1    3    3    0    0  0.51350785198E+01 -0.42288096029E+03  0.12119058305E+04  0.12835771958E+04  0.00000000000E+00 0.  1.
         22    1    1    2    0    0  0.28849374842E+02  0.56166873389E+03 -0.15984067188E+04  0.16944639541E+04  0.00000000000E+00 0. -1.
<mgrwt>
<rscale>  0 0.35427305E+04</rscale>
<asrwt>0</asrwt>
<pdfrwt beam="1">  1        1 0.28540230E+00 0.35427305E+04</pdfrwt>
<pdfrwt beam="2">  1       -1 0.26021483E+00 0.35427305E+04</pdfrwt>
<totfact> 0.18172114E-01</totfact>
</mgrwt>
</event>
<event>
 6    1  0.1878398E-004  0.1219942E+04  0.7818608E-02  0.9095578E-01
         -2   -1    0    0    0  501 -0.00000000000E+00  0.00000000000E+00  0.29104797877E+03  0.29104797877E+03  0.00000000000E+00 0. -1.
          2   -1    0    0  501    0  0.00000000000E+00 -0.00000000000E+00 -0.12783627846E+04  0.12783627846E+04  0.00000000000E+00 0.  1.
         23    2    1    2    0    0 -0.60420862520E+03 -0.18901163019E+02 -0.55862144246E+03  0.82832823319E+03  0.92975422613E+02 0.  0.
         13    1    3    3    0    0 -0.45644355180E+03  0.17759531746E+02 -0.38485711945E+03  0.59730320554E+03  0.00000000000E+00 0. -1.
        -13    1    3    3    0    0 -0.14776507339E+03 -0.36660694765E+02 -0.17376432300E+03  0.23102502766E+03  0.00000000000E+00 0.  1.
         22    1    1    2    0    0  0.60420862520E+03  0.18901163019E+02 -0.42869336336E+03  0.74108253017E+03  0.00000000000E+00 0.  1.
<mgrwt>
<rscale>  0 0.12199425E+04</rscale>
<asrwt>0</asrwt>
<pdfrwt beam="1">  1        2 0.19667120E+00 0.12199425E+04</pdfrwt>
<pdfrwt beam="2">  1       -2 0.44776612E-01 0.12199425E+04</pdfrwt>
<totfact> 0.79301278E+01</totfact>
</mgrwt>
</event>
<event>
 6    1  0.1878398E-004  0.2237344E+04  0.7818608E-02  0.8503044E-01
         -1   -1    0    0    0  501 -0.00000000000E+00  0.00000000000E+00  0.64173867403E+03  0.64173867403E+03  0.00000000000E+00 0. -1.
          1   -1    0    0  501    0  0.00000000000E+00 -0.00000000000E+00 -0.19500564027E+04  0.19500564027E+04  0.00000000000E+00 0.  1.
         23    2    1    2    0    0  0.92090693381E+03  0.50548821244E+03 -0.10944006960E+04  0.15197183955E+04  0.90792094440E+02 0.  0.
         13    1    3    3    0    0  0.49406807121E+03  0.32129995912E+03 -0.59717863996E+03  0.83902279513E+03  0.00000000000E+00 0.  1.
        -13    1    3    3    0    0  0.42683886259E+03  0.18418825332E+03 -0.49722205605E+03  0.68069560032E+03  0.00000000000E+00 0. -1.
         22    1    1    2    0    0 -0.92090693381E+03 -0.50548821244E+03 -0.21391703265E+03  0.10720766813E+04  0.00000000000E+00 0. -1.
<mgrwt>
<rscale>  0 0.22373436E+04</rscale>
<asrwt>0</asrwt>
<pdfrwt beam="1">  1        1 0.30000868E+00 0.22373436E+04</pdfrwt>
<pdfrwt beam="2">  1       -1 0.98729027E-01 0.22373436E+04</pdfrwt>
<totfact> 0.28729945E+00</totfact>
</mgrwt>
</event>
<event>
 6    1  0.1878398E-004  0.1970069E+04  0.7818608E-02  0.8620744E-01
         -2   -1    0    0    0  501 -0.00000000000E+00  0.00000000000E+00  0.30369048546E+03  0.30369048546E+03  0.00000000000E+00 0. -1.
          2   -1    0    0  501    0  0.00000000000E+00 -0.00000000000E+00 -0.31950055187E+04  0.31950055187E+04  0.00000000000E+00 0.  1.
         23    2    1    2    0    0  0.23231139542E+03  0.38554819527E+03 -0.30005867314E+04  0.30354937812E+04  0.89920899572E+02 0.  0.
         11    1    3    3    0    0  0.16389427689E+03  0.28113265229E+03 -0.18777736962E+04  0.19057625655E+04  0.00000000000E+00 0. -1.
        -11    1    3    3    0    0  0.68417118531E+02  0.10441554298E+03 -0.11228130352E+04  0.11297312157E+04  0.00000000000E+00 0.  1.
         22    1    1    2    0    0 -0.23231139542E+03 -0.38554819527E+03  0.10927169812E+03  0.46320222293E+03  0.00000000000E+00 0. -1.
<mgrwt>
<rscale>  0 0.19700688E+04</rscale>
<asrwt>0</asrwt>
<pdfrwt beam="1">  1        2 0.49153930E+00 0.19700688E+04</pdfrwt>
<pdfrwt beam="2">  1       -2 0.46721614E-01 0.19700688E+04</pdfrwt>
<totfact> 0.53040071E+00</totfact>
</mgrwt>
</event>
<event>
 6    1  0.1878398E-004  0.1818847E+04  0.7818608E-02  0.8696340E-01
         -2   -1    0    0    0  501 -0.00000000000E+00  0.00000000000E+00  0.10305929851E+04  0.10305929851E+04  0.00000000000E+00 0. -1.
          2   -1    0    0  501    0  0.00000000000E+00 -0.00000000000E+00 -0.80250065588E+03  0.80250065588E+03  0.00000000000E+00 0.  1.
         23    2    1    2    0    0 -0.42546660225E+03 -0.50064239664E+03 -0.51602906283E+03  0.84042990887E+03  0.91497535983E+02 0.  0.
         13    1    3    3    0    0 -0.13105154111E+03 -0.94395591461E+02 -0.13285864828E+03  0.20913262428E+03  0.00000000000E+00 0. -1.
        -13    1    3    3    0    0 -0.29441506114E+03 -0.40624680518E+03 -0.38317041454E+03  0.63129728459E+03  0.00000000000E+00 0.  1.
         22    1    1    2    0    0  0.42546660225E+03  0.50064239664E+03  0.74412139201E+03  0.99266373208E+03  0.00000000000E+00 0. -1.
<mgrwt>
<rscale>  0 0.18188475E+04</rscale>
<asrwt>0</asrwt>
<pdfrwt beam="1">  1        2 0.12346164E+00 0.18188475E+04</pdfrwt>
<pdfrwt beam="2">  1       -2 0.15855277E+00 0.18188475E+04</pdfrwt>
<totfact> 0.83453391E+00</totfact>
</mgrwt>
</event>
<event>
 6    1  0.1878398E-004  0.2199368E+04  0.7818608E-02  0.8518691E-01
          2   -1    0    0  501    0  0.00000000000E+00  0.00000000000E+00  0.20886141574E+04  0.20886141574E+04  0.00000000000E+00 0. -1.
         -2   -1    0    0    0  501 -0.00000000000E+00 -0.00000000000E+00 -0.57899876451E+03  0.57899876451E+03  0.00000000000E+00 0.  1.
         23    2    1    2    0    0  0.85571073667E+03  0.67509060475E+03  0.91483497304E+03  0.14259398823E+04  0.91615121625E+02 0.  0.
         11    1    3    3    0    0  0.25150738591E+03  0.19822029255E+03  0.32454636356E+03  0.45593595126E+03  0.00000000000E+00 0. -1.
        -11    1    3    3    0    0  0.60420335076E+03  0.47687031220E+03  0.59028860948E+03  0.97000393103E+03  0.00000000000E+00 0.  1.
         22    1    1    2    0    0 -0.85571073667E+03 -0.67509060475E+03  0.59478041984E+03  0.12416730396E+04  0.00000000000E+00 0.  1.
<mgrwt>
<rscale>  0 0.21993681E+04</rscale>
<asrwt>0</asrwt>
<pdfrwt beam="1">  1        2 0.32132525E+00 0.21993681E+04</pdfrwt>
<pdfrwt beam="2">  1       -2 0.89076734E-01 0.21993681E+04</pdfrwt>
<totfact> 0.58979853E+00</totfact>
</mgrwt>
</event>
<event>
 6    1  0.1878398E-004  0.9379415E+03  0.7818608E-02  0.9379357E-01
         -1   -1    0    0    0  501 -0.00000000000E+00  0.00000000000E+00  0.10066873894E+03  0.10066873894E+03  0.00000000000E+00 0. -1.
          1   -1    0    0  501    0  0.00000000000E+00 -0.00000000000E+00 -0.21847257440E+04  0.21847257440E+04  0.00000000000E+00 0.  1.
         23    2    1    2    0    0  0.93258379606E+02 -0.21784811214E+03 -0.20254786386E+04  0.20412913278E+04  0.90286456115E+02 0.  0.
         13    1    3    3    0    0  0.19346662156E+02 -0.15456380076E+03 -0.11825215614E+04  0.11927369806E+04  0.00000000000E+00 0.  1.
        -13    1    3    3    0    0  0.73911717449E+02 -0.63284311375E+02 -0.84295707728E+03  0.84855434722E+03  0.00000000000E+00 0. -1.
         22    1    1    2    0    0 -0.93258379606E+02  0.21784811214E+03 -0.58578366440E+02  0.24410315513E+03  0.00000000000E+00 0. -1.
<mgrwt>
<rscale>  0 0.93794155E+03</rscale>
<asrwt>0</asrwt>
<pdfrwt beam="1">  1        1 0.33611164E+00 0.93794155E+03</pdfrwt>
<pdfrwt beam="2">  1       -1 0.15487499E-01 0.93794155E+03</pdfrwt>
<totfact> 0.70788604E+01</totfact>
</mgrwt>
</event>
<event>
 6    1  0.1878398E-004  0.2421165E+04  0.7818608E-02  0.8431622E-01
          4   -1    0    0  501    0  0.00000000000E+00  0.00000000000E+00  0.17715347325E+04  0.17715347325E+04  0.00000000000E+00 0.  1.
         -4   -1    0    0    0  501 -0.00000000000E+00 -0.00000000000E+00 -0.82725448224E+03  0.82725448224E+03  0.00000000000E+00 0. -1.
         23    2    1    2    0    0  0.10920968174E+04 -0.38922566745E+01 -0.83449569529E+02  0.10991495278E+04  0.92061096315E+02 0.  0.
         13    1    3    3    0    0  0.24695284113E+03 -0.33567047803E+02  0.15048685286E+01  0.24922824293E+03  0.00000000000E+00 0. -1.
        -13    1    3    3    0    0  0.84514397628E+03  0.29674791129E+02 -0.84954438057E+02  0.84992128483E+03  0.00000000000E+00 0.  1.
         22    1    1    2    0    0 -0.10920968174E+04  0.38922566745E+01  0.10277298197E+04  0.14996396869E+04  0.00000000000E+00 0.  1.
<mgrwt>
<rscale>  0 0.24211650E+04</rscale>
<asrwt>0</asrwt>
<pdfrwt beam="1">  1        4 0.27254380E+00 0.24211650E+04</pdfrwt>
<pdfrwt beam="2">  1       -4 0.12726992E+00 0.24211650E+04</pdfrwt>
<totfact> 0.37434102E-02</totfact>
</mgrwt>
</event>
<event>
 6    1  0.1878398E-004  0.3825551E+04  0.7818608E-02  0.8040694E-01
         -1   -1    0    0    0  501 -0.00000000000E+00  0.00000000000E+00  0.24578640996E+04  0.24578640996E+04  0.00000000000E+00 0. -1.
          1   -1    0    0  501    0  0.00000000000E+00 -0.00000000000E+00 -0.14885729570E+04  0.14885729570E+04  0.00000000000E+00 0.  1.
         23    2    1    2    0    0 -0.11295804884E+04  0.15167915717E+04  0.19663401355E+03  0.19034960905E+04  0.89574994304E+02 0.  0.
         13    1    3    3    0    0 -0.98691618292E+03  0.13457856009E+04  0.14704652084E+03  0.16753402983E+04  0.00000000000E+00 0.  1.
        -13    1    3    3    0    0 -0.14266430546E+03  0.17100597076E+03  0.49587492717E+02  0.22815579222E+03  0.00000000000E+00 0. -1.
         22    1    1    2    0    0  0.11295804884E+04 -0.15167915717E+04  0.77265712901E+03  0.20429409660E+04  0.00000000000E+00 0. -1.
<mgrwt>
<rscale>  0 0.38255510E+04</rscale>
<asrwt>0</asrwt>
<pdfrwt beam="1">  1        1 0.22901122E+00 0.38255510E+04</pdfrwt>
<pdfrwt beam="2">  1       -1 0.37813294E+00 0.38255510E+04</pdfrwt>
<totfact> 0.53245670E-02</totfact>
</mgrwt>
</event>
<event>
 6    1  0.1878398E-004  0.1178678E+04  0.7818608E-02  0.9131727E-01
          1   -1    0    0  501    0  0.00000000000E+00  0.00000000000E+00  0.97517181504E+03  0.97517181504E+03  0.00000000000E+00 0.  1.
         -1   -1    0    0    0  501 -0.00000000000E+00 -0.00000000000E+00 -0.35616316400E+03  0.35616316400E+03  0.00000000000E+00 0. -1.
         23    2    1    2    0    0  0.43774063636E+03 -0.31185795593E+03  0.57447252271E+03  0.79202457109E+03  0.91716914818E+02 0.  0.
         13    1    3    3    0    0  0.21781343204E+03 -0.19577305611E+03  0.26451574276E+03  0.39463699630E+03  0.00000000000E+00 0.  1.
        -13    1    3    3    0    0  0.21992720431E+03 -0.11608489982E+03  0.30995677994E+03  0.39738757479E+03  0.00000000000E+00 0. -1.
         22    1    1    2    0    0 -0.43774063636E+03  0.31185795593E+03  0.44536128333E+02  0.53931040795E+03  0.00000000000E+00 0. -1.
<mgrwt>
<rscale>  0 0.11786777E+04</rscale>
<asrwt>0</asrwt>
<pdfrwt beam="1">  1        1 0.15002643E+00 0.11786777E+04</pdfrwt>
<pdfrwt beam="2">  1       -1 0.54794333E-01 0.11786777E+04</pdfrwt>
<totfact> 0.52791164E+01</totfact>
</mgrwt>
</event>
<event>
 6    1  0.1939600E-004  0.1985877E+04  0.7818608E-02  0.8613252E-01
         -3   -1    0    0    0  501 -0.00000000000E+00  0.00000000000E+00  0.14169988597E+04  0.14169988597E+04  0.00000000000E+00 0. -1.
          3   -1    0    0  501    0  0.00000000000E+00 -0.00000000000E+00 -0.69578515091E+03  0.69578515091E+03  0.00000000000E+00 0.  1.
         23    2    1    2    0    0  0.12214989085E+03  0.26855184136E+03  0.13677478189E+04  0.14021173920E+04  0.90323848662E+02 0.  0.
         11    1    3    3    0    0  0.24443172268E+02  0.13004282307E+03  0.45879437440E+03  0.47749437953E+03  0.00000000000E+00 0. -1.
        -11    1    3    3    0    0  0.97706718577E+02  0.13850901829E+03  0.90895344448E+03  0.92462301249E+03  0.00000000000E+00 0.  1.
         22    1    1    2    0    0 -0.12214989085E+03 -0.26855184136E+03 -0.64653411007E+03  0.71066661861E+03  0.00000000000E+00 0.  1.
<mgrwt>
<rscale>  0 0.19858769E+04</rscale>
<asrwt>0</asrwt>
<pdfrwt beam="1">  1        3 0.10704387E+00 0.19858769E+04</pdfrwt>
<pdfrwt beam="2">  1       -3 0.21799982E+00 0.19858769E+04</pdfrwt>
<totfact> 0.20502543E-01</totfact>
</mgrwt>
</event>
<event>
 6    1  0.1878398E-004  0.3203555E+04  0.7818608E-02  0.8187879E-01
          2   -1    0    0  501    0  0.00000000000E+00  0.00000000000E+00  0.11602473796E+04  0.11602473796E+04  0.00000000000E+00 0. -1.
         -2   -1    0    0    0  501 -0.00000000000E+00 -0.00000000000E+00 -0.22113312685E+04  0.22113312685E+04  0.00000000000E+00 0.  1.
         23    2    1    2    0    0  0.78747317650E+03 -0.13913026661E+04 -0.44653422847E+03  0.16623924661E+04  0.91207356100E+02 0.  0.
         11    1    3    3    0    0  0.42502352214E+03 -0.80717707059E+03 -0.21756737222E+03  0.93782481260E+03  0.00000000000E+00 0.  1.
        -11    1    3    3    0    0  0.36244965436E+03 -0.58412559552E+03 -0.22896685625E+03  0.72456765353E+03  0.00000000000E+00 0. -1.
         22    1    1    2    0    0 -0.78747317650E+03  0.13913026661E+04 -0.60454966042E+03  0.17091861819E+04  0.00000000000E+00 0.  1.
<mgrwt>
<rscale>  0 0.32035551E+04</rscale>
<asrwt>0</asrwt>
<pdfrwt beam="1">  1        2 0.17849960E+00 0.32035551E+04</pdfrwt>
<pdfrwt beam="2">  1       -2 0.34020481E+00 0.32035551E+04</pdfrwt>
<totfact> 0.30194932E-01</totfact>
</mgrwt>
</event>
<event>
 6    1  0.1878398E-004  0.1220548E+04  0.7818608E-02  0.9095058E-01
         -2   -1    0    0    0  501 -0.00000000000E+00  0.00000000000E+00  0.24277522576E+03  0.24277522576E+03  0.00000000000E+00 0. -1.
          2   -1    0    0  501    0  0.00000000000E+00 -0.00000000000E+00 -0.15340715427E+04  0.15340715427E+04  0.00000000000E+00 0.  1.
         23    2    1    2    0    0  0.41236437208E+03  0.42294731417E+03 -0.44647991181E+03  0.74600072549E+03  0.90796282226E+02 0.  0.
         13    1    3    3    0    0  0.90684211598E+02  0.44707182093E+02 -0.76250500147E+02  0.12663529183E+03  0.00000000000E+00 0. -1.
        -13    1    3    3    0    0  0.32168016048E+03  0.37824013208E+03 -0.37022941166E+03  0.61936543366E+03  0.00000000000E+00 0.  1.
         22    1    1    2    0    0 -0.41236437208E+03 -0.42294731417E+03 -0.84481640514E+03  0.10308460430E+04  0.00000000000E+00 0.  1.
<mgrwt>
<rscale>  0 0.12205483E+04</rscale>
<asrwt>0</asrwt>
<pdfrwt beam="1">  1        2 0.23601101E+00 0.12205483E+04</pdfrwt>
<pdfrwt beam="2">  1       -2 0.37350034E-01 0.12205483E+04</pdfrwt>
<totfact> 0.80851127E+01</totfact>
</mgrwt>
</event>
<event>
 6    1  0.1878398E-004  0.4889056E+04  0.7818608E-02  0.7845853E-01
          2   -1    0    0  501    0  0.00000000000E+00  0.00000000000E+00  0.50084989927E+04  0.50084989927E+04  0.00000000000E+00 0.  1.
         -2   -1    0    0    0  501 -0.00000000000E+00 -0.00000000000E+00 -0.11931153911E+04  0.11931153911E+04  0.00000000000E+00 0. -1.
         23    2    1    2    0    0 -0.68148469767E+03 -0.20467433465E+04  0.33647800884E+04  0.39978396118E+04  0.86004642985E+02 0.  0.
         13    1    3    3    0    0 -0.30903988148E+03 -0.90205841660E+03  0.14099405948E+04  0.17021009124E+04  0.00000000000E+00 0. -1.
        -13    1    3    3    0    0 -0.37244481619E+03 -0.11446849299E+04  0.19548394936E+04  0.22957386994E+04  0.00000000000E+00 0.  1.
         22    1    1    2    0    0  0.68148469767E+03  0.20467433465E+04  0.45060351324E+03  0.22037747720E+04  0.00000000000E+00 0. -1.
<mgrwt>
<rscale>  0 0.48890560E+04</rscale>
<asrwt>0</asrwt>
<pdfrwt beam="1">  1        2 0.77053829E+00 0.48890560E+04</pdfrwt>
<pdfrwt beam="2">  1       -2 0.18355622E+00 0.48890560E+04</pdfrwt>
<totfact> 0.41446171E-03</totfact>
</mgrwt>
</event>
<event>
 6    1  0.1878398E-004  0.8533516E+03  0.7818608E-02  0.9485850E-01
         -1   -1    0    0    0  501 -0.00000000000E+00  0.00000000000E+00  0.19468402841E+03  0.19468402841E+03  0.00000000000E+00 0.  1.
          1   -1    0    0  501    0  0.00000000000E+00 -0.00000000000E+00 -0.93511649675E+03  0.93511649675E+03  0.00000000000E+00 0. -1.
         23    2    1    2    0    0  0.37031421150E+03 -0.30386426619E+02 -0.10994319973E+03  0.39797222017E+03  0.90765801362E+02 0.  0.
         11    1    3    3    0    0  0.17422004914E+03 -0.22204533954E+02 -0.56550223648E+01  0.17572036345E+03  0.00000000000E+00 0. -1.
        -11    1    3    3    0    0  0.19609416236E+03 -0.81818926650E+01 -0.10428817737E+03  0.22225185672E+03  0.00000000000E+00 0.  1.
         22    1    1    2    0    0 -0.37031421150E+03  0.30386426619E+02 -0.63048926860E+03  0.73182830499E+03  0.00000000000E+00 0.  1.
<mgrwt>
<rscale>  0 0.85335162E+03</rscale>
<asrwt>0</asrwt>
<pdfrwt beam="1">  1        1 0.14386408E+00 0.85335162E+03</pdfrwt>
<pdfrwt beam="2">  1       -1 0.29951389E-01 0.85335162E+03</pdfrwt>
<totfact> 0.17574117E+02</totfact>
</mgrwt>
</event>
<event>
 6    1  0.1878398E-004  0.1225464E+04  0.7818608E-02  0.9090856E-01
          1   -1    0    0  501    0  0.00000000000E+00  0.00000000000E+00  0.15640950361E+04  0.15640950361E+04  0.00000000000E+00 0.  1.
         -1   -1    0    0    0  501 -0.00000000000E+00 -0.00000000000E+00 -0.24003681059E+03  0.24003681059E+03  0.00000000000E+00 0. -1.
         23    2    1    2    0    0  0.35452116994E+03  0.28403897789E+03  0.67763361686E+02  0.46822758898E+03  0.91004400959E+02 0.  0.
         11    1    3    3    0    0  0.25811096900E+02  0.33900726469E+02  0.32644628268E+02  0.53676286506E+02  0.00000000000E+00 0. -1.
        -11    1    3    3    0    0  0.32871007304E+03  0.25013825142E+03  0.35118733418E+02  0.41455130247E+03  0.00000000000E+00 0.  1.
         22    1    1    2    0    0 -0.35452116994E+03 -0.28403897789E+03  0.12562948638E+04  0.13359042577E+04  0.00000000000E+00 0. -1.
<mgrwt>
<rscale>  0 0.12254638E+04</rscale>
<asrwt>0</asrwt>
<pdfrwt beam="1">  1        1 0.24063000E+00 0.12254638E+04</pdfrwt>
<pdfrwt beam="2">  1       -1 0.36928741E-01 0.12254638E+04</pdfrwt>
<totfact> 0.41105899E+01</totfact>
</mgrwt>
</event>
<event>
 6    1  0.1878398E-004  0.2239433E+04  0.7818608E-02  0.8502192E-01
          2   -1    0    0  501    0  0.00000000000E+00  0.00000000000E+00  0.54872702031E+03  0.54872702031E+03  0.00000000000E+00 0.  1.
         -2   -1    0    0    0  501 -0.00000000000E+00 -0.00000000000E+00 -0.22848603426E+04  0.22848603426E+04  0.00000000000E+00 0. -1.
         23    2    1    2    0    0  0.64417084008E+03  0.71629483187E+03 -0.15180819748E+03  0.97937042348E+03  0.89924080198E+02 0.  0.
         11    1    3    3    0    0  0.28525916512E+03  0.33598030751E+03 -0.11301118864E+03  0.45500229348E+03  0.00000000000E+00 0. -1.
        -11    1    3    3    0    0  0.35891167497E+03  0.38031452436E+03 -0.38797008838E+02  0.52436813000E+03  0.00000000000E+00 0.  1.
         22    1    1    2    0    0 -0.64417084008E+03 -0.71629483187E+03 -0.15843251248E+04  0.18542169394E+04  0.00000000000E+00 0. -1.
<mgrwt>
<rscale>  0 0.22394326E+04</rscale>
<asrwt>0</asrwt>
<pdfrwt beam="1">  1        2 0.84419540E-01 0.22394326E+04</pdfrwt>
<pdfrwt beam="2">  1       -2 0.35151698E+00 0.22394326E+04</pdfrwt>
<totfact> 0.76642386E-01</totfact>
</mgrwt>
</event>
<event>
 6    1  0.1878398E-004  0.3406786E+04  0.7818608E-02  0.8136243E-01
          1   -1    0    0  501    0  0.00000000000E+00  0.00000000000E+00  0.16359573065E+04  0.16359573065E+04  0.00000000000E+00 0.  1.
         -1   -1    0    0    0  501 -0.00000000000E+00 -0.00000000000E+00 -0.17736085493E+04  0.17736085493E+04  0.00000000000E+00 0. -1.
         23    2    1    2    0    0  0.13454738475E+04 -0.83025868320E+03 -0.69996270046E+03  0.17315242797E+04  0.92731838063E+02 0.  0.
         13    1    3    3    0    0  0.18256171953E+03 -0.13717322398E+03 -0.12891291916E+03  0.26222855592E+03  0.00000000000E+00 0. -1.
        -13    1    3    3    0    0  0.11629121280E+04 -0.69308545922E+03 -0.57104978130E+03  0.14692957238E+04  0.00000000000E+00 0.  1.
         22    1    1    2    0    0 -0.13454738475E+04  0.83025868320E+03  0.56231145765E+03  0.16780415760E+04  0.00000000000E+00 0.  1.
<mgrwt>
<rscale>  0 0.34067861E+04</rscale>
<asrwt>0</asrwt>
<pdfrwt beam="1">  1        1 0.25168574E+00 0.34067861E+04</pdfrwt>
<pdfrwt beam="2">  1       -1 0.27286285E+00 0.34067861E+04</pdfrwt>
<totfact> 0.21458892E-01</totfact>
</mgrwt>
</event>
<event>
 6    1  0.1878398E-004  0.1181342E+04  0.7818608E-02  0.9129346E-01
          2   -1    0    0  501    0  0.00000000000E+00  0.00000000000E+00  0.16021544423E+04  0.16021544423E+04  0.00000000000E+00 0.  1.
         -2   -1    0    0    0  501 -0.00000000000E+00 -0.00000000000E+00 -0.21776442814E+03  0.21776442814E+03  0.00000000000E+00 0. -1.
         23    2    1    2    0    0  0.16533347903E+03 -0.47526954819E+03  0.23074427479E+03  0.56130264827E+03  0.92743947940E+02 0.  0.
         13    1    3    3    0    0  0.10068706251E+03 -0.34223314105E+03  0.20414312327E+03  0.41101803144E+03  0.00000000000E+00 0. -1.
        -13    1    3    3    0    0  0.64646416519E+02 -0.13303640715E+03  0.26601151524E+02  0.15028461684E+03  0.00000000000E+00 0.  1.
         22    1    1    2    0    0 -0.16533347903E+03  0.47526954819E+03  0.11536457393E+04  0.12586162221E+04  0.00000000000E+00 0.  1.
<mgrwt>
<rscale>  0 0.11813420E+04</rscale>
<asrwt>0</asrwt>
<pdfrwt beam="1">  1        2 0.24648529E+00 0.11813420E+04</pdfrwt>
<pdfrwt beam="2">  1       -2 0.33502221E-01 0.11813420E+04</pdfrwt>
<totfact> 0.91455742E+01</totfact>
</mgrwt>
</event>
<event>
 6    1  0.1878398E-004  0.3096570E+04  0.7818608E-02  0.8216680E-01
          1   -1    0    0  501    0  0.00000000000E+00  0.00000000000E+00  0.14279392374E+04  0.14279392374E+04  0.00000000000E+00 0.  1.
         -1   -1    0    0    0  501 -0.00000000000E+00 -0.00000000000E+00 -0.16787739625E+04  0.16787739625E+04  0.00000000000E+00 0. -1.
         23    2    1    2    0    0  0.27348215127E+03  0.45049227430E+03 -0.15846815709E+04  0.16725293957E+04  0.91668544276E+02 0.  0.
         11    1    3    3    0    0  0.61905872219E+02  0.12942848601E+03 -0.32007525856E+03  0.35075952039E+03  0.00000000000E+00 0.  1.
        -11    1    3    3    0    0  0.21157627905E+03  0.32106378829E+03 -0.12646063123E+04  0.13217698753E+04  0.00000000000E+00 0. -1.
         22    1    1    2    0    0 -0.27348215127E+03 -0.45049227430E+03  0.13338468458E+04  0.14341838042E+04  0.00000000000E+00 0.  1.
<mgrwt>
<rscale>  0 0.30965705E+04</rscale>
<asrwt>0</asrwt>
<pdfrwt beam="1">  1        1 0.21968296E+00 0.30965705E+04</pdfrwt>
<pdfrwt beam="2">  1       -1 0.25827292E+00 0.30965705E+04</pdfrwt>
<totfact> 0.38166323E-01</totfact>
</mgrwt>
</event>
<event>
 6    1  0.1878398E-004  0.4444167E+04  0.7818608E-02  0.7920485E-01
         -2   -1    0    0    0  501 -0.00000000000E+00  0.00000000000E+00  0.18243002062E+04  0.18243002062E+04  0.00000000000E+00 0.  1.
          2   -1    0    0  501    0  0.00000000000E+00 -0.00000000000E+00 -0.27066017490E+04  0.27066017490E+04  0.00000000000E+00 0. -1.
         23    2    1    2    0    0 -0.93177403889E+02 -0.58566407543E+03 -0.26236297320E+04  0.26913617136E+04  0.91161750420E+02 0.  0.
         11    1    3    3    0    0 -0.94035763286E+02 -0.39732066360E+03 -0.19222076614E+04  0.19650925495E+04  0.00000000000E+00 0. -1.
        -11    1    3    3    0    0  0.85835939739E+00 -0.18834341183E+03 -0.70142207060E+03  0.72626916407E+03  0.00000000000E+00 0.  1.
         22    1    1    2    0    0  0.93177403889E+02  0.58566407543E+03  0.17413281892E+04  0.18395402416E+04  0.00000000000E+00 0.  1.
<mgrwt>
<rscale>  0 0.44441666E+04</rscale>
<asrwt>0</asrwt>
<pdfrwt beam="1">  1        2 0.41640027E+00 0.44441666E+04</pdfrwt>
<pdfrwt beam="2">  1       -2 0.28066157E+00 0.44441666E+04</pdfrwt>
<totfact> 0.83558602E-02</totfact>
</mgrwt>
</event>
<event>
 6    1  0.1878398E-004  0.2067505E+04  0.7818608E-02  0.8575695E-01
          1   -1    0    0  501    0  0.00000000000E+00  0.00000000000E+00  0.10083330652E+04  0.10083330652E+04  0.00000000000E+00 0.  1.
         -1   -1    0    0    0  501 -0.00000000000E+00 -0.00000000000E+00 -0.10598123095E+04  0.10598123095E+04  0.00000000000E+00 0. -1.
         23    2    1    2    0    0  0.42697621062E+03 -0.36475176450E+02  0.91281124934E+03  0.10129225172E+04  0.95647927273E+02 0.  0.
         13    1    3    3    0    0  0.76566650269E+02 -0.35283804686E+02  0.23916612861E+03  0.25358989704E+03  0.00000000000E+00 0. -1.
        -13    1    3    3    0    0  0.35040956035E+03 -0.11913717641E+01  0.67364512074E+03  0.75933262016E+03  0.00000000000E+00 0.  1.
         22    1    1    2    0    0 -0.42697621062E+03  0.36475176450E+02 -0.96429049358E+03  0.10552228575E+04  0.00000000000E+00 0. -1.
<mgrwt>
<rscale>  0 0.20675046E+04</rscale>
<asrwt>0</asrwt>
<pdfrwt beam="1">  1        1 0.15512817E+00 0.20675046E+04</pdfrwt>
<pdfrwt beam="2">  1       -1 0.16304805E+00 0.20675046E+04</pdfrwt>
<totfact> 0.38103650E+00</totfact>
</mgrwt>
</event>
<event>
 6    1  0.1878398E-004  0.2199220E+04  0.7818608E-02  0.8518753E-01
          2   -1    0    0  501    0  0.00000000000E+00  0.00000000000E+00  0.12380405406E+04  0.12380405406E+04  0.00000000000E+00 0.  1.
         -2   -1    0    0    0  501 -0.00000000000E+00 -0.00000000000E+00 -0.97665759756E+03  0.97665759756E+03  0.00000000000E+00 0. -1.
         23    2    1    2    0    0  0.89333389388E+03 -0.61470467631E+02  0.77030193096E+03  0.11847357114E+04  0.91703743964E+02 0.  0.
         11    1    3    3    0    0  0.44282009416E+03  0.85488013252E+01  0.34770980658E+03  0.56308509782E+03  0.00000000000E+00 0. -1.
        -11    1    3    3    0    0  0.45051379972E+03 -0.70019268957E+02  0.42259212438E+03  0.62165061357E+03  0.00000000000E+00 0.  1.
         22    1    1    2    0    0 -0.89333389388E+03  0.61470467631E+02 -0.50891898790E+03  0.10299624268E+04  0.00000000000E+00 0. -1.
<mgrwt>
<rscale>  0 0.21992196E+04</rscale>
<asrwt>0</asrwt>
<pdfrwt beam="1">  1        2 0.19046778E+00 0.21992196E+04</pdfrwt>
<pdfrwt beam="2">  1       -2 0.15025501E+00 0.21992196E+04</pdfrwt>
<totfact> 0.49022538E+00</totfact>
</mgrwt>
</event>
<event>
 6    1  0.1878398E-004  0.1242682E+04  0.7818608E-02  0.9076296E-01
          2   -1    0    0  501    0  0.00000000000E+00  0.00000000000E+00  0.19941189021E+04  0.19941189021E+04  0.00000000000E+00 0.  1.
         -2   -1    0    0    0  501 -0.00000000000E+00 -0.00000000000E+00 -0.19360168367E+03  0.19360168367E+03  0.00000000000E+00 0. -1.
         23    2    1    2    0    0  0.30740992003E+03 -0.53505892322E+03  0.96497717505E+03  0.11490117361E+04  0.90874150093E+02 0.  0.
         11    1    3    3    0    0  0.14958566033E+03 -0.17877654890E+03  0.39239872748E+03  0.45641394100E+03  0.00000000000E+00 0. -1.
        -11    1    3    3    0    0  0.15782425971E+03 -0.35628237432E+03  0.57257844758E+03  0.69259779514E+03  0.00000000000E+00 0.  1.
         22    1    1    2    0    0 -0.30740992003E+03  0.53505892322E+03  0.83554004342E+03  0.10387088497E+04  0.00000000000E+00 0. -1.
<mgrwt>
<rscale>  0 0.12426822E+04</rscale>
<asrwt>0</asrwt>
<pdfrwt beam="1">  1        2 0.30678751E+00 0.12426822E+04</pdfrwt>
<pdfrwt beam="2">  1       -2 0.29784876E-01 0.12426822E+04</pdfrwt>
<totfact> 0.68918682E+01</totfact>
</mgrwt>
</event>
<event>
 6    1  0.1878398E-004  0.1378848E+04  0.7818608E-02  0.8969273E-01
          2   -1    0    0  501    0  0.00000000000E+00  0.00000000000E+00  0.20865962562E+04  0.20865962562E+04  0.00000000000E+00 0.  1.
         -2   -1    0    0    0  501 -0.00000000000E+00 -0.00000000000E+00 -0.22778983143E+03  0.22778983143E+03  0.00000000000E+00 0. -1.
         23    2    1    2    0    0  0.23248433063E+03 -0.44348589958E+03  0.17212119800E+04  0.17950972101E+04  0.95260727936E+02 0.  0.
         11    1    3    3    0    0  0.17236352871E+03 -0.39985930309E+03  0.14697551002E+04  0.15328981385E+04  0.00000000000E+00 0.  1.
        -11    1    3    3    0    0  0.60120801921E+02 -0.43626596489E+02  0.25145687981E+03  0.26219907160E+03  0.00000000000E+00 0. -1.
         22    1    1    2    0    0 -0.23248433063E+03  0.44348589958E+03  0.13759444470E+03  0.51928887753E+03  0.00000000000E+00 0. -1.
<mgrwt>
<rscale>  0 0.13788479E+04</rscale>
<asrwt>0</asrwt>
<pdfrwt beam="1">  1        2 0.32101480E+00 0.13788479E+04</pdfrwt>
<pdfrwt beam="2">  1       -2 0.35044591E-01 0.13788479E+04</pdfrwt>
<totfact> 0.44580128E+01</totfact>
</mgrwt>
</event>
<event>
 6    1  0.1878398E-004  0.1233737E+04  0.7818608E-02  0.9083828E-01
          1   -1    0    0  501    0  0.00000000000E+00  0.00000000000E+00  0.20740989385E+03  0.20740989385E+03  0.00000000000E+00 0.  1.
         -1   -1    0    0    0  501 -0.00000000000E+00 -0.00000000000E+00 -0.18346611400E+04  0.18346611400E+04  0.00000000000E+00 0. -1.
         23    2    1    2    0    0  0.14623600256E+03  0.17287629006E+02 -0.18038624280E+04  0.18121246486E+04  0.90511060739E+02 0.  0.
         13    1    3    3    0    0  0.58200007286E+02  0.51906391781E+02 -0.86527803284E+03  0.86878512215E+03  0.00000000000E+00 0. -1.
        -13    1    3    3    0    0  0.88035995271E+02 -0.34618762775E+02 -0.93858439521E+03  0.94333952643E+03  0.00000000000E+00 0.  1.
         22    1    1    2    0    0 -0.14623600256E+03 -0.17287629006E+02  0.17661118186E+03  0.22994638531E+03  0.00000000000E+00 0.  1.
<mgrwt>
<rscale>  0 0.12337372E+04</rscale>
<asrwt>0</asrwt>
<pdfrwt beam="1">  1        1 0.31909214E-01 0.12337372E+04</pdfrwt>
<pdfrwt beam="2">  1       -1 0.28225557E+00 0.12337372E+04</pdfrwt>
<totfact> 0.60546164E+00</totfact>
</mgrwt>
</event>
<event>
 6    1  0.1878398E-004  0.1005548E+04  0.7818608E-02  0.9302481E-01
          2   -1    0    0  501    0  0.00000000000E+00  0.00000000000E+00  0.40961291667E+03  0.40961291667E+03  0.00000000000E+00 0.  1.
         -2   -1    0    0    0  501 -0.00000000000E+00 -0.00000000000E+00 -0.61712351711E+03  0.61712351711E+03  0.00000000000E+00 0. -1.
         23    2    1    2    0    0 -0.36307810386E+03 -0.20510339933E+03 -0.38394453211E+03  0.57394283161E+03  0.90021421319E+02 0.  0.
         13    1    3    3    0    0 -0.33638372657E+03 -0.15621487865E+03 -0.33577967573E+03  0.50030499742E+03  0.00000000000E+00 0.  1.
        -13    1    3    3    0    0 -0.26694377294E+02 -0.48888520684E+02 -0.48164856376E+02  0.73637834186E+02  0.00000000000E+00 0. -1.
         22    1    1    2    0    0  0.36307810386E+03  0.20510339933E+03  0.17643393167E+03  0.45279360217E+03  0.00000000000E+00 0.  1.
<mgrwt>
<rscale>  0 0.10055481E+04</rscale>
<asrwt>0</asrwt>
<pdfrwt beam="1">  1        2 0.63017372E-01 0.10055481E+04</pdfrwt>
<pdfrwt beam="2">  1       -2 0.94942079E-01 0.10055481E+04</pdfrwt>
<totfact> 0.72142734E+01</totfact>
</mgrwt>
</event>
<event>
 6    1  0.1878398E-004  0.1316532E+04  0.7818608E-02  0.9016557E-01
          2   -1    0    0  501    0  0.00000000000E+00  0.00000000000E+00  0.15646716010E+04  0.15646716010E+04  0.00000000000E+00 0. -1.
         -2   -1    0    0    0  501 -0.00000000000E+00 -0.00000000000E+00 -0.27693602589E+03  0.27693602589E+03  0.00000000000E+00 0.  1.
         23    2    1    2    0    0 -0.57066569235E+02  0.55601357882E+03  0.11253722020E+04  0.12595684889E+04  0.87421348391E+02 0.  0.
         13    1    3    3    0    0 -0.72812677503E+02  0.45474383070E+03  0.86946299192E+03  0.98390016358E+03  0.00000000000E+00 0. -1.
        -13    1    3    3    0    0  0.15746108268E+02  0.10126974813E+03  0.25590921005E+03  0.27566832534E+03  0.00000000000E+00 0.  1.
         22    1    1    2    0    0  0.57066569235E+02 -0.55601357882E+03  0.16236337312E+03  0.58203913794E+03  0.00000000000E+00 0.  1.
<mgrwt>
<rscale>  0 0.13165317E+04</rscale>
<asrwt>0</asrwt>
<pdfrwt beam="1">  1        2 0.24071870E+00 0.13165317E+04</pdfrwt>
<pdfrwt beam="2">  1       -2 0.42605543E-01 0.13165317E+04</pdfrwt>
<totfact> 0.59661596E+01</totfact>
</mgrwt>
</event>
<event>
 6    1  0.1878398E-004  0.1586779E+04  0.7818608E-02  0.8828711E-01
          2   -1    0    0  501    0  0.00000000000E+00  0.00000000000E+00  0.14816561913E+04  0.14816561913E+04  0.00000000000E+00 0.  1.
         -2   -1    0    0    0  501 -0.00000000000E+00 -0.00000000000E+00 -0.42484012741E+03  0.42484012741E+03  0.00000000000E+00 0. -1.
         23    2    1    2    0    0  0.25129732019E+03  0.52565723129E+03 -0.11103463266E+03  0.60137520656E+03  0.99285353769E+02 0.  0.
         11    1    3    3    0    0  0.78394891063E+02  0.22870310246E+03 -0.86884602113E+02  0.25690426642E+03  0.00000000000E+00 0. -1.
        -11    1    3    3    0    0  0.17290242913E+03  0.29695412884E+03 -0.24150030552E+02  0.34447094015E+03  0.00000000000E+00 0.  1.
         22    1    1    2    0    0 -0.25129732019E+03 -0.52565723129E+03  0.11678506966E+04  0.13051211122E+04  0.00000000000E+00 0.  1.
<mgrwt>
<rscale>  0 0.15867791E+04</rscale>
<asrwt>0</asrwt>
<pdfrwt beam="1">  1        2 0.22794710E+00 0.15867791E+04</pdfrwt>
<pdfrwt beam="2">  1       -2 0.65360021E-01 0.15867791E+04</pdfrwt>
<totfact> 0.26920068E+01</totfact>
</mgrwt>
</event>
<event>
 6    1  0.1878398E-004  0.1278146E+04  0.7818608E-02  0.9047077E-01
          2   -1    0    0  501    0  0.00000000000E+00  0.00000000000E+00  0.13641741036E+04  0.13641741036E+04  0.00000000000E+00 0.  1.
         -2   -1    0    0    0  501 -0.00000000000E+00 -0.00000000000E+00 -0.29938581802E+03  0.29938581802E+03  0.00000000000E+00 0. -1.
         23    2    1    2    0    0  0.36543968120E+03  0.32790188485E+03  0.92195323433E+01  0.49939017476E+03  0.90773014647E+02 0.  0.
         13    1    3    3    0    0  0.16292406661E+03  0.19224373611E+03 -0.25057328405E+02  0.25323857380E+03  0.00000000000E+00 0. -1.
        -13    1    3    3    0    0  0.20251561459E+03  0.13565814873E+03  0.34276860748E+02  0.24615160095E+03  0.00000000000E+00 0.  1.
         22    1    1    2    0    0 -0.36543968120E+03 -0.32790188485E+03  0.10555687532E+04  0.11641697469E+04  0.00000000000E+00 0.  1.
<mgrwt>
<rscale>  0 0.12781461E+04</rscale>
<asrwt>0</asrwt>
<pdfrwt beam="1">  1        2 0.20987294E+00 0.12781461E+04</pdfrwt>
<pdfrwt beam="2">  1       -2 0.46059357E-01 0.12781461E+04</pdfrwt>
<totfact> 0.66545696E+01</totfact>
</mgrwt>
</event>
<event>
 6    1  0.1878398E-004  0.7511069E+03  0.7818608E-02  0.9633615E-01
          2   -1    0    0  501    0  0.00000000000E+00  0.00000000000E+00  0.48757806882E+03  0.48757806882E+03  0.00000000000E+00 0.  1.
         -2   -1    0    0    0  501 -0.00000000000E+00 -0.00000000000E+00 -0.28926732296E+03  0.28926732296E+03  0.00000000000E+00 0. -1.
         23    2    1    2    0    0  0.36206676804E+03  0.66680864301E+02  0.13791145061E+03  0.40376797750E+03  0.92034391735E+02 0.  0.
         11    1    3    3    0    0  0.20605491638E+03  0.31778583666E+02  0.12565850904E+03  0.24343082763E+03  0.00000000000E+00 0.  1.
        -11    1    3    3    0    0  0.15601185166E+03  0.34902280635E+02  0.12252941562E+02  0.16033714987E+03  0.00000000000E+00 0. -1.
         22    1    1    2    0    0 -0.36206676804E+03 -0.66680864301E+02  0.60399295252E+02  0.37307741428E+03  0.00000000000E+00 0. -1.
<mgrwt>
<rscale>  0 0.75110692E+03</rscale>
<asrwt>0</asrwt>
<pdfrwt beam="1">  1        2 0.75012011E-01 0.75110692E+03</pdfrwt>
<pdfrwt beam="2">  1       -2 0.44502665E-01 0.75110692E+03</pdfrwt>
<totfact> 0.30599194E+02</totfact>
</mgrwt>
</event>
<event>
 6    1  0.1878398E-004  0.2942683E+04  0.7818608E-02  0.8260290E-01
          1   -1    0    0  501    0  0.00000000000E+00  0.00000000000E+00  0.19004057724E+04  0.19004057724E+04  0.00000000000E+00 0.  1.
         -1   -1    0    0    0  501 -0.00000000000E+00 -0.00000000000E+00 -0.11391494587E+04  0.11391494587E+04  0.00000000000E+00 0. -1.
         23    2    1    2    0    0  0.72118448849E+03 -0.34639311734E+03  0.16549522638E+04  0.18400604586E+04  0.82826551440E+02 0.  0.
         13    1    3    3    0    0  0.38375751761E+03 -0.22041247756E+03  0.85423663353E+03  0.96206637955E+03  0.00000000000E+00 0. -1.
        -13    1    3    3    0    0  0.33742697088E+03 -0.12598063978E+03  0.80071563027E+03  0.87799407904E+03  0.00000000000E+00 0.  1.
         22    1    1    2    0    0 -0.72118448849E+03  0.34639311734E+03 -0.89369595012E+03  0.11994947726E+04  0.00000000000E+00 0. -1.
<mgrwt>
<rscale>  0 0.29426833E+04</rscale>
<asrwt>0</asrwt>
<pdfrwt beam="1">  1        1 0.29237012E+00 0.29426833E+04</pdfrwt>
<pdfrwt beam="2">  1       -1 0.17525376E+00 0.29426833E+04</pdfrwt>
<totfact> 0.67069783E-01</totfact>
</mgrwt>
</event>
<event>
 6    1  0.1878398E-004  0.3658742E+03  0.7818608E-02  0.1056282E+00
          2   -1    0    0  501    0  0.00000000000E+00  0.00000000000E+00  0.87450447399E+03  0.87450447399E+03  0.00000000000E+00 0.  1.
         -2   -1    0    0    0  501 -0.00000000000E+00 -0.00000000000E+00 -0.38268508755E+02  0.38268508755E+02  0.00000000000E+00 0. -1.
         23    2    1    2    0    0  0.68788391750E+02  0.15549819194E+03  0.37848125316E+03  0.42445863014E+03  0.89473678650E+02 0.  0.
         13    1    3    3    0    0  0.88125350433E+02  0.10168999986E+03  0.25278955642E+03  0.28637299680E+03  0.00000000000E+00 0. -1.
        -13    1    3    3    0    0 -0.19336958683E+02  0.53808192071E+02  0.12569169675E+03  0.13808563334E+03  0.00000000000E+00 0.  1.
         22    1    1    2    0    0 -0.68788391750E+02 -0.15549819194E+03  0.45775471207E+03  0.48831435261E+03  0.00000000000E+00 0.  1.
<mgrwt>
<rscale>  0 0.36587420E+03</rscale>
<asrwt>0</asrwt>
<pdfrwt beam="1">  1        2 0.13453913E+00 0.36587420E+03</pdfrwt>
<pdfrwt beam="2">  1       -2 0.58874636E-02 0.36587420E+03</pdfrwt>
<totfact> 0.48338109E+03</totfact>
</mgrwt>
</event>
<event>
 6    1  0.1878398E-004  0.2902515E+04  0.7818608E-02  0.8272129E-01
          1   -1    0    0  501    0  0.00000000000E+00  0.00000000000E+00  0.13178735657E+04  0.13178735657E+04  0.00000000000E+00 0. -1.
         -1   -1    0    0    0  501 -0.00000000000E+00 -0.00000000000E+00 -0.15981418689E+04  0.15981418689E+04  0.00000000000E+00 0.  1.
         23    2    1    2    0    0  0.54838306630E+02  0.35419353757E+03  0.12710558618E+04  0.13238260718E+04  0.92044351939E+02 0.  0.
         11    1    3    3    0    0 -0.36399751331E+01  0.21418600984E+03  0.64483886377E+03  0.67948955582E+03  0.00000000000E+00 0.  1.
        -11    1    3    3    0    0  0.58478281764E+02  0.14000752773E+03  0.62621699799E+03  0.64433651599E+03  0.00000000000E+00 0. -1.
         22    1    1    2    0    0 -0.54838306630E+02 -0.35419353757E+03 -0.15513241650E+04  0.15921893627E+04  0.00000000000E+00 0.  1.
<mgrwt>
<rscale>  0 0.29025154E+04</rscale>
<asrwt>0</asrwt>
<pdfrwt beam="1">  1        1 0.20274978E+00 0.29025154E+04</pdfrwt>
<pdfrwt beam="2">  1       -1 0.24586798E+00 0.29025154E+04</pdfrwt>
<totfact> 0.55927563E-01</totfact>
</mgrwt>
</event>
<event>
 6    1  0.1878398E-004  0.2438560E+04  0.7818608E-02  0.8425207E-01
         -2   -1    0    0    0  501 -0.00000000000E+00  0.00000000000E+00  0.93882706069E+03  0.93882706069E+03  0.00000000000E+00 0. -1.
          2   -1    0    0  501    0  0.00000000000E+00 -0.00000000000E+00 -0.15835116606E+04  0.15835116606E+04  0.00000000000E+00 0.  1.
         23    2    1    2    0    0  0.12125334367E+04  0.31727352063E+01 -0.20822034132E+03  0.12336384262E+04  0.90888144462E+02 0.  0.
         11    1    3    3    0    0  0.48659054309E+03 -0.41665488259E+02 -0.95713380123E+02  0.49766195421E+03  0.00000000000E+00 0. -1.
        -11    1    3    3    0    0  0.72594289361E+03  0.44838223466E+02 -0.11250696120E+03  0.73597647204E+03  0.00000000000E+00 0.  1.
         22    1    1    2    0    0 -0.12125334367E+04 -0.31727352063E+01 -0.43646425854E+03  0.12887002950E+04  0.00000000000E+00 0.  1.
<mgrwt>
<rscale>  0 0.24385599E+04</rscale>
<asrwt>0</asrwt>
<pdfrwt beam="1">  1        2 0.24361717E+00 0.24385599E+04</pdfrwt>
<pdfrwt beam="2">  1       -2 0.14443493E+00 0.24385599E+04</pdfrwt>
<totfact> 0.33811098E+00</totfact>
</mgrwt>
</event>
<event>
 6    1  0.1878398E-004  0.2738946E+04  0.7818608E-02  0.8322478E-01
          1   -1    0    0  501    0  0.00000000000E+00  0.00000000000E+00  0.22621857795E+04  0.22621857795E+04  0.00000000000E+00 0. -1.
         -1   -1    0    0    0  501 -0.00000000000E+00 -0.00000000000E+00 -0.82904633425E+03  0.82904633425E+03  0.00000000000E+00 0.  1.
         23    2    1    2    0    0 -0.12911032381E+04 -0.44499431208E+03  0.80967174960E+03  0.15900061225E+04  0.87083973633E+02 0.  0.
         13    1    3    3    0    0 -0.57022951278E+03 -0.15750986057E+03  0.37626341390E+03  0.70110285270E+03  0.00000000000E+00 0.  1.
        -13    1    3    3    0    0 -0.72087372529E+03 -0.28748445151E+03  0.43340833569E+03  0.88890326984E+03  0.00000000000E+00 0. -1.
         22    1    1    2    0    0  0.12911032381E+04  0.44499431208E+03  0.62346769565E+03  0.15012259912E+04  0.00000000000E+00 0. -1.
<mgrwt>
<rscale>  0 0.27389464E+04</rscale>
<asrwt>0</asrwt>
<pdfrwt beam="1">  1        1 0.34802858E+00 0.27389464E+04</pdfrwt>
<pdfrwt beam="2">  1       -1 0.12754559E+00 0.27389464E+04</pdfrwt>
<totfact> 0.91451770E-01</totfact>
</mgrwt>
</event>
<event>
 6    1  0.1878398E-004  0.4260242E+04  0.7818608E-02  0.7954011E-01
         -2   -1    0    0    0  501 -0.00000000000E+00  0.00000000000E+00  0.14973312950E+04  0.14973312950E+04  0.00000000000E+00 0. -1.
          2   -1    0    0  501    0  0.00000000000E+00 -0.00000000000E+00 -0.30303354704E+04  0.30303354704E+04  0.00000000000E+00 0.  1.
         23    2    1    2    0    0  0.14791004023E+04 -0.66835204551E+03 -0.22313112043E+04  0.27607301047E+04  0.91916069364E+02 0.  0.
         11    1    3    3    0    0  0.74105662104E+03 -0.30282667571E+03 -0.11601208004E+04  0.14095209053E+04  0.00000000000E+00 0. -1.
        -11    1    3    3    0    0  0.73804378122E+03 -0.36552536981E+03 -0.10711904039E+04  0.13512091993E+04  0.00000000000E+00 0.  1.
         22    1    1    2    0    0 -0.14791004023E+04  0.66835204551E+03  0.69830702888E+03  0.17669366608E+04  0.00000000000E+00 0. -1.
<mgrwt>
<rscale>  0 0.42602423E+04</rscale>
<asrwt>0</asrwt>
<pdfrwt beam="1">  1        2 0.46620546E+00 0.42602423E+04</pdfrwt>
<pdfrwt beam="2">  1       -2 0.23035866E+00 0.42602423E+04</pdfrwt>
<totfact> 0.10942029E-01</totfact>
</mgrwt>
</event>
<event>
 6    1  0.2039508E-004  0.3537628E+04  0.7818608E-02  0.8104930E-01
         -1   -1    0    0    0  501 -0.00000000000E+00  0.00000000000E+00  0.19279582417E+04  0.19279582417E+04  0.00000000000E+00 0. -1.
          1   -1    0    0  501    0  0.00000000000E+00 -0.00000000000E+00 -0.16228066382E+04  0.16228066382E+04  0.00000000000E+00 0.  1.
         23    2    1    2    0    0  0.74451579881E+03  0.15831658573E+04 -0.10133007232E+03  0.17546732177E+04  0.88839241431E+02 0.  0.
         11    1    3    3    0    0  0.27085234196E+03  0.55083495415E+03  0.55147425036E+01  0.61384896370E+03  0.00000000000E+00 0. -1.
        -11    1    3    3    0    0  0.47366345685E+03  0.10323309032E+04 -0.10684481482E+03  0.11408242540E+04  0.00000000000E+00 0.  1.
         22    1    1    2    0    0 -0.74451579881E+03 -0.15831658573E+04  0.40648167585E+03  0.17960916622E+04  0.00000000000E+00 0.  1.
<mgrwt>
<rscale>  0 0.35376283E+04</rscale>
<asrwt>0</asrwt>
<pdfrwt beam="1">  1        1 0.24966256E+00 0.35376283E+04</pdfrwt>
<pdfrwt beam="2">  1       -1 0.29660896E+00 0.35376283E+04</pdfrwt>
<totfact> 0.15205608E-01</totfact>
</mgrwt>
</event>
<event>
 6    1  0.1878398E-004  0.1203858E+04  0.7818608E-02  0.9109486E-01
         -1   -1    0    0    0  501 -0.00000000000E+00  0.00000000000E+00  0.29713172205E+03  0.29713172205E+03  0.00000000000E+00 0. -1.
          1   -1    0    0  501    0  0.00000000000E+00 -0.00000000000E+00 -0.12193869405E+04  0.12193869405E+04  0.00000000000E+00 0.  1.
         23    2    1    2    0    0 -0.49320758598E+03  0.99210395861E+02 -0.87207233251E+03  0.10109350913E+04  0.91559708068E+02 0.  0.
         11    1    3    3    0    0 -0.33609173652E+03  0.96202238105E+02 -0.53586558413E+03  0.63981595027E+03  0.00000000000E+00 0. -1.
        -11    1    3    3    0    0 -0.15711584946E+03  0.30081577565E+01 -0.33620674839E+03  0.37111914101E+03  0.00000000000E+00 0.  1.
         22    1    1    2    0    0  0.49320758598E+03 -0.99210395861E+02 -0.50182885952E+02  0.50558357129E+03  0.00000000000E+00 0. -1.
<mgrwt>
<rscale>  0 0.12038580E+04</rscale>
<asrwt>0</asrwt>
<pdfrwt beam="1">  1        1 0.18759799E+00 0.12038580E+04</pdfrwt>
<pdfrwt beam="2">  1       -1 0.45712572E-01 0.12038580E+04</pdfrwt>
<totfact> 0.48646813E+01</totfact>
</mgrwt>
</event>
<event>
 6    1  0.1878398E-004  0.2766759E+04  0.7818608E-02  0.8313663E-01
          2   -1    0    0  501    0  0.00000000000E+00  0.00000000000E+00  0.18277683737E+04  0.18277683737E+04  0.00000000000E+00 0.  1.
         -2   -1    0    0    0  501 -0.00000000000E+00 -0.00000000000E+00 -0.10470355043E+04  0.10470355043E+04  0.00000000000E+00 0. -1.
         23    2    1    2    0    0  0.96481864950E+02  0.13720905027E+04  0.25260091566E+03  0.14014185046E+04  0.90694568201E+02 0.  0.
         11    1    3    3    0    0  0.11282858877E+03  0.12047886062E+04  0.21207537906E+03  0.12285039041E+04  0.00000000000E+00 0. -1.
        -11    1    3    3    0    0 -0.16346723818E+02  0.16730189646E+03  0.40525536594E+02  0.17291460047E+03  0.00000000000E+00 0.  1.
         22    1    1    2    0    0 -0.96481864950E+02 -0.13720905027E+04  0.52813195372E+03  0.14733853733E+04  0.00000000000E+00 0.  1.
<mgrwt>
<rscale>  0 0.27667587E+04</rscale>
<asrwt>0</asrwt>
<pdfrwt beam="1">  1        2 0.28119513E+00 0.27667587E+04</pdfrwt>
<pdfrwt beam="2">  1       -2 0.16108239E+00 0.27667587E+04</pdfrwt>
<totfact> 0.17971958E+00</totfact>
</mgrwt>
</event>
<event>
 6    1  0.1878398E-004  0.5008380E+04  0.7818608E-02  0.7827216E-01
         -2   -1    0    0    0  501 -0.00000000000E+00  0.00000000000E+00  0.17181810215E+04  0.17181810215E+04  0.00000000000E+00 0. -1.
          2   -1    0    0  501    0  0.00000000000E+00 -0.00000000000E+00 -0.36497718891E+04  0.36497718891E+04  0.00000000000E+00 0.  1.
         23    2    1    2    0    0 -0.13185095310E+04 -0.14748030080E+04 -0.26105045118E+04  0.32764379019E+04  0.82463465091E+02 0.  0.
         13    1    3    3    0    0 -0.79828854525E+03 -0.93835054327E+03 -0.15814804092E+04  0.20047061202E+04  0.00000000000E+00 0.  1.
        -13    1    3    3    0    0 -0.52022098572E+03 -0.53645246473E+03 -0.10290241025E+04  0.12717317817E+04  0.00000000000E+00 0. -1.
         22    1    1    2    0    0  0.13185095310E+04  0.14748030080E+04  0.67891364419E+03  0.20915150088E+04  0.00000000000E+00 0. -1.
<mgrwt>
<rscale>  0 0.50083805E+04</rscale>
<asrwt>0</asrwt>
<pdfrwt beam="1">  1        2 0.56150336E+00 0.50083805E+04</pdfrwt>
<pdfrwt beam="2">  1       -2 0.26433555E+00 0.50083805E+04</pdfrwt>
<totfact> 0.24201051E-02</totfact>
</mgrwt>
</event>
<event>
 6    1  0.1878398E-004  0.2061140E+04  0.7818608E-02  0.8578557E-01
         -1   -1    0    0    0  501 -0.00000000000E+00  0.00000000000E+00  0.97106061556E+03  0.97106061556E+03  0.00000000000E+00 0. -1.
          1   -1    0    0  501    0  0.00000000000E+00 -0.00000000000E+00 -0.10937267378E+04  0.10937267378E+04  0.00000000000E+00 0.  1.
         23    2    1    2    0    0 -0.22834134094E+03 -0.97565209141E+03 -0.29390708232E+03  0.10482440745E+04  0.91637848350E+02 0.  0.
         13    1    3    3    0    0 -0.10780472884E+03 -0.51839345893E+03 -0.10954711471E+03  0.54069788992E+03  0.00000000000E+00 0.  1.
        -13    1    3    3    0    0 -0.12053661210E+03 -0.45725863248E+03 -0.18435996761E+03  0.50754618459E+03  0.00000000000E+00 0. -1.
         22    1    1    2    0    0  0.22834134094E+03  0.97565209141E+03  0.17124096003E+03  0.10165432789E+04  0.00000000000E+00 0.  1.
<mgrwt>
<rscale>  0 0.20611404E+04</rscale>
<asrwt>0</asrwt>
<pdfrwt beam="1">  1        1 0.16826565E+00 0.20611404E+04</pdfrwt>
<pdfrwt beam="2">  1       -1 0.14939394E+00 0.20611404E+04</pdfrwt>
<totfact> 0.41724275E+00</totfact>
</mgrwt>
</event>
<event>
 6    1  0.1878398E-004  0.7251616E+03  0.7818608E-02  0.9675144E-01
         -2   -1    0    0    0  501 -0.00000000000E+00  0.00000000000E+00  0.47414533465E+03  0.47414533465E+03  0.00000000000E+00 0. -1.
          2   -1    0    0  501    0  0.00000000000E+00 -0.00000000000E+00 -0.27726698100E+03  0.27726698100E+03  0.00000000000E+00 0.  1.
         23    2    1    2    0    0 -0.25036580154E+02  0.33317065464E+03  0.22814371340E+03  0.41584259387E+03  0.96156088996E+02 0.  0.
         11    1    3    3    0    0 -0.55837245137E+02  0.23329180552E+03  0.13185945890E+03  0.27373304763E+03  0.00000000000E+00 0. -1.
        -11    1    3    3    0    0  0.30800664983E+02  0.99878849124E+02  0.96284254507E+02  0.14210954624E+03  0.00000000000E+00 0.  1.
         22    1    1    2    0    0  0.25036580154E+02 -0.33317065464E+03 -0.31265359752E+02  0.33556972179E+03  0.00000000000E+00 0. -1.
<mgrwt>
<rscale>  0 0.72516162E+03</rscale>
<asrwt>0</asrwt>
<pdfrwt beam="1">  1        2 0.42656459E-01 0.72516162E+03</pdfrwt>
<pdfrwt beam="2">  1       -2 0.72945436E-01 0.72516162E+03</pdfrwt>
<totfact> 0.20549641E+02</totfact>
</mgrwt>
</event>
<event>
 6    1  0.1878398E-004  0.6539109E+04  0.7818608E-02  0.7626930E-01
          2   -1    0    0  501    0  0.00000000000E+00  0.00000000000E+00  0.29376543814E+04  0.29376543814E+04  0.00000000000E+00 0.  1.
         -2   -1    0    0    0  501 -0.00000000000E+00 -0.00000000000E+00 -0.36389533804E+04  0.36389533804E+04  0.00000000000E+00 0. -1.
         23    2    1    2    0    0 -0.17325628328E+04 -0.26696572510E+04 -0.11013353772E+04  0.33689804593E+04  0.90807014688E+02 0.  0.
         11    1    3    3    0    0 -0.60550412062E+03 -0.85782195463E+03 -0.35038607965E+03  0.11069165058E+04  0.00000000000E+00 0. -1.
        -11    1    3    3    0    0 -0.11270587122E+04 -0.18118352964E+04 -0.75094929759E+03  0.22620639535E+04  0.00000000000E+00 0.  1.
         22    1    1    2    0    0  0.17325628328E+04  0.26696572510E+04  0.40003637829E+03  0.32076273025E+04  0.00000000000E+00 0. -1.
<mgrwt>
<rscale>  0 0.65391092E+04</rscale>
<asrwt>0</asrwt>
<pdfrwt beam="1">  1        2 0.45194683E+00 0.65391092E+04</pdfrwt>
<pdfrwt beam="2">  1       -2 0.55983898E+00 0.65391092E+04</pdfrwt>
<totfact> 0.95841831E-04</totfact>
</mgrwt>
</event>
<event>
 6    1  0.1878398E-004  0.1299569E+04  0.7818608E-02  0.9029907E-01
         -2   -1    0    0    0  501 -0.00000000000E+00  0.00000000000E+00  0.11669409479E+04  0.11669409479E+04  0.00000000000E+00 0. -1.
          2   -1    0    0  501    0  0.00000000000E+00 -0.00000000000E+00 -0.36181769756E+03  0.36181769756E+03  0.00000000000E+00 0.  1.
         23    2    1    2    0    0  0.30505939332E+03  0.11053954047E+02 -0.26583923080E+03  0.41514109020E+03  0.92131453839E+02 0.  0.
         13    1    3    3    0    0  0.15868644922E+03  0.48796310772E+02 -0.16033630763E+03  0.23080338094E+03  0.00000000000E+00 0. -1.
        -13    1    3    3    0    0  0.14637294410E+03 -0.37742356725E+02 -0.10550292317E+03  0.18433770926E+03  0.00000000000E+00 0.  1.
         22    1    1    2    0    0 -0.30505939332E+03 -0.11053954047E+02  0.10709624811E+04  0.11136175553E+04  0.00000000000E+00 0. -1.
<mgrwt>
<rscale>  0 0.12995690E+04</rscale>
<asrwt>0</asrwt>
<pdfrwt beam="1">  1        2 0.55664262E-01 0.12995690E+04</pdfrwt>
<pdfrwt beam="2">  1       -2 0.17952938E+00 0.12995690E+04</pdfrwt>
<totfact> 0.15924230E+01</totfact>
</mgrwt>
</event>
<event>
 6    1  0.1878398E-004  0.4980320E+04  0.7818608E-02  0.7831550E-01
         -2   -1    0    0    0  501 -0.00000000000E+00  0.00000000000E+00  0.22324306891E+04  0.22324306891E+04  0.00000000000E+00 0. -1.
          2   -1    0    0  501    0  0.00000000000E+00 -0.00000000000E+00 -0.27776431006E+04  0.27776431006E+04  0.00000000000E+00 0.  1.
         23    2    1    2    0    0 -0.21259075220E+04 -0.45533218274E+03  0.94686193328E+03  0.23732013925E+04  0.93419162380E+02 0.  0.
         13    1    3    3    0    0 -0.19928517044E+04 -0.44032222838E+03  0.86821667980E+03  0.22179138360E+04  0.00000000000E+00 0. -1.
        -13    1    3    3    0    0 -0.13305581752E+03 -0.15009954368E+02  0.78645253476E+02  0.15528755649E+03  0.00000000000E+00 0.  1.
         22    1    1    2    0    0  0.21259075220E+04  0.45533218274E+03 -0.14920743448E+04  0.26368723972E+04  0.00000000000E+00 0.  1.
<mgrwt>
<rscale>  0 0.49803195E+04</rscale>
<asrwt>0</asrwt>
<pdfrwt beam="1">  1        2 0.42732971E+00 0.49803195E+04</pdfrwt>
<pdfrwt beam="2">  1       -2 0.34345088E+00 0.49803195E+04</pdfrwt>
<totfact> 0.29752971E-02</totfact>
</mgrwt>
</event>
<event>
 6    1  0.1878398E-004  0.1478000E+04  0.7818608E-02  0.8899216E-01
          2   -1    0    0  501    0  0.00000000000E+00  0.00000000000E+00  0.19252657345E+04  0.19252657345E+04  0.00000000000E+00 0.  1.
         -2   -1    0    0    0  501 -0.00000000000E+00 -0.00000000000E+00 -0.28366005521E+03  0.28366005521E+03  0.00000000000E+00 0. -1.
         23    2    1    2    0    0  0.10658890877E+03 -0.70371205175E+03  0.11054685504E+04  0.13178506704E+04  0.89987923235E+02 0.  0.
         11    1    3    3    0    0  0.93267615157E+02 -0.44155513114E+03  0.76117585925E+03  0.88490591058E+03  0.00000000000E+00 0. -1.
        -11    1    3    3    0    0  0.13321293618E+02 -0.26215692061E+03  0.34429269116E+03  0.43294475984E+03  0.00000000000E+00 0.  1.
         22    1    1    2    0    0 -0.10658890877E+03  0.70371205175E+03  0.53613712886E+03  0.89107511928E+03  0.00000000000E+00 0. -1.
<mgrwt>
<rscale>  0 0.14780000E+04</rscale>
<asrwt>0</asrwt>
<pdfrwt beam="1">  1        2 0.29619472E+00 0.14780000E+04</pdfrwt>
<pdfrwt beam="2">  1       -2 0.43640010E-01 0.14780000E+04</pdfrwt>
<totfact> 0.35435717E+01</totfact>
</mgrwt>
</event>
<event>
 6    1  0.1878398E-004  0.1639335E+04  0.7818608E-02  0.8796741E-01
          2   -1    0    0  501    0  0.00000000000E+00  0.00000000000E+00  0.12238763838E+04  0.12238763838E+04  0.00000000000E+00 0.  1.
         -2   -1    0    0    0  501 -0.00000000000E+00 -0.00000000000E+00 -0.54895638271E+03  0.54895638271E+03  0.00000000000E+00 0. -1.
         23    2    1    2    0    0 -0.39006346608E+03  0.31468741846E+03  0.10364504263E+04  0.11548668069E+04  0.91160169344E+02 0.  0.
         11    1    3    3    0    0 -0.26132227568E+03  0.26039851446E+03  0.72275067010E+03  0.81145871689E+03  0.00000000000E+00 0.  1.
        -11    1    3    3    0    0 -0.12874119040E+03  0.54288904000E+02  0.31369975623E+03  0.34340808997E+03  0.00000000000E+00 0. -1.
         22    1    1    2    0    0  0.39006346608E+03 -0.31468741846E+03 -0.36153042523E+03  0.61796595964E+03  0.00000000000E+00 0. -1.
<mgrwt>
<rscale>  0 0.16393349E+04</rscale>
<asrwt>0</asrwt>
<pdfrwt beam="1">  1        2 0.18828867E+00 0.16393349E+04</pdfrwt>
<pdfrwt beam="2">  1       -2 0.84454829E-01 0.16393349E+04</pdfrwt>
<totfact> 0.21429369E+01</totfact>
</mgrwt>
</event>
<event>
 6    1  0.1878398E-004  0.3954269E+04  0.7818608E-02  0.8013836E-01
         -2   -1    0    0    0  501 -0.00000000000E+00  0.00000000000E+00  0.18259571945E+04  0.18259571945E+04  0.00000000000E+00 0. -1.
          2   -1    0    0  501    0  0.00000000000E+00 -0.00000000000E+00 -0.21408283560E+04  0.21408283560E+04  0.00000000000E+00 0.  1.
         23    2    1    2    0    0  0.69682556432E+03  0.10684551650E+04 -0.16715525078E+04  0.21045968968E+04  0.89877723281E+02 0.  0.
         13    1    3    3    0    0  0.40092950146E+03  0.69320843361E+03 -0.10348087735E+04  0.13084768226E+04  0.00000000000E+00 0. -1.
        -13    1    3    3    0    0  0.29589606287E+03  0.37524673140E+03 -0.63674373425E+03  0.79612007420E+03  0.00000000000E+00 0.  1.
         22    1    1    2    0    0 -0.69682556432E+03 -0.10684551650E+04  0.13566813463E+04  0.18621886537E+04  0.00000000000E+00 0. -1.
<mgrwt>
<rscale>  0 0.39542691E+04</rscale>
<asrwt>0</asrwt>
<pdfrwt beam="1">  1        2 0.32935821E+00 0.39542691E+04</pdfrwt>
<pdfrwt beam="2">  1       -2 0.28091649E+00 0.39542691E+04</pdfrwt>
<totfact> 0.18351588E-01</totfact>
</mgrwt>
</event>
<event>
 6    1  0.1878398E-004  0.1828569E+04  0.7818608E-02  0.8691252E-01
          2   -1    0    0  501    0  0.00000000000E+00  0.00000000000E+00  0.56768431284E+03  0.56768431284E+03  0.00000000000E+00 0.  1.
         -2   -1    0    0    0  501 -0.00000000000E+00 -0.00000000000E+00 -0.14725024890E+04  0.14725024890E+04  0.00000000000E+00 0. -1.
         23    2    1    2    0    0 -0.54491300226E+03 -0.68521292035E+03 -0.73885486478E+03  0.11491252175E+04  0.90196053756E+02 0.  0.
         11    1    3    3    0    0 -0.14202515754E+03 -0.24348980118E+03 -0.25215744126E+03  0.37820867763E+03  0.00000000000E+00 0. -1.
        -11    1    3    3    0    0 -0.40288784472E+03 -0.44172311917E+03 -0.48669742352E+03  0.77091653990E+03  0.00000000000E+00 0.  1.
         22    1    1    2    0    0  0.54491300226E+03  0.68521292035E+03 -0.16596331134E+03  0.89106158427E+03  0.00000000000E+00 0.  1.
<mgrwt>
<rscale>  0 0.18285695E+04</rscale>
<asrwt>0</asrwt>
<pdfrwt beam="1">  1        2 0.87336048E-01 0.18285695E+04</pdfrwt>
<pdfrwt beam="2">  1       -2 0.22653885E+00 0.18285695E+04</pdfrwt>
<totfact> 0.44855573E+00</totfact>
</mgrwt>
</event>
<event>
 6    1  0.1878398E-004  0.1627136E+04  0.7818608E-02  0.8804048E-01
          2   -1    0    0  501    0  0.00000000000E+00  0.00000000000E+00  0.21848293959E+04  0.21848293959E+04  0.00000000000E+00 0.  1.
         -2   -1    0    0    0  501 -0.00000000000E+00 -0.00000000000E+00 -0.30294954098E+03  0.30294954098E+03  0.00000000000E+00 0. -1.
         23    2    1    2    0    0 -0.67168089319E+03  0.34258807176E+03  0.14013299027E+04  0.15936592213E+04  0.86616443014E+02 0.  0.
         11    1    3    3    0    0 -0.27190323995E+03  0.16637473869E+03  0.51870319141E+03  0.60882257379E+03  0.00000000000E+00 0.  1.
        -11    1    3    3    0    0 -0.39977765324E+03  0.17621333308E+03  0.88262671129E+03  0.98483664751E+03  0.00000000000E+00 0. -1.
         22    1    1    2    0    0  0.67168089319E+03 -0.34258807176E+03  0.48054995217E+03  0.89411971554E+03  0.00000000000E+00 0. -1.
<mgrwt>
<rscale>  0 0.16271362E+04</rscale>
<asrwt>0</asrwt>
<pdfrwt beam="1">  1        2 0.33612759E+00 0.16271362E+04</pdfrwt>
<pdfrwt beam="2">  1       -2 0.46607623E-01 0.16271362E+04</pdfrwt>
<totfact> 0.22008050E+01</totfact>
</mgrwt>
</event>
<event>
 6    1  0.1878398E-004  0.5891341E+03  0.7818608E-02  0.9928209E-01
         -1   -1    0    0    0  501 -0.00000000000E+00  0.00000000000E+00  0.16291713539E+03  0.16291713539E+03  0.00000000000E+00 0. -1.
          1   -1    0    0  501    0  0.00000000000E+00 -0.00000000000E+00 -0.53260052773E+03  0.53260052773E+03  0.00000000000E+00 0.  1.
         23    2    1    2    0    0 -0.12306679817E+03 -0.21523928127E+03 -0.36087684255E+03  0.44742304341E+03  0.92097227280E+02 0.  0.
         13    1    3    3    0    0 -0.11605992647E+03 -0.14675311736E+03 -0.20804813748E+03  0.27980423781E+03  0.00000000000E+00 0.  1.
        -13    1    3    3    0    0 -0.70068716992E+01 -0.68486163913E+02 -0.15282870507E+03  0.16761880560E+03  0.00000000000E+00 0. -1.
         22    1    1    2    0    0  0.12306679817E+03  0.21523928127E+03 -0.88065497890E+01  0.24809461972E+03  0.00000000000E+00 0. -1.
<mgrwt>
<rscale>  0 0.58913412E+03</rscale>
<asrwt>0</asrwt>
<pdfrwt beam="1">  1        1 0.81938543E-01 0.58913412E+03</pdfrwt>
<pdfrwt beam="2">  1       -1 0.25064174E-01 0.58913412E+03</pdfrwt>
<totfact> 0.57135051E+02</totfact>
</mgrwt>
</event>
<event>
 6    1  0.1878398E-004  0.3128122E+04  0.7818608E-02  0.8208062E-01
         -2   -1    0    0    0  501 -0.00000000000E+00  0.00000000000E+00  0.24539266384E+04  0.24539266384E+04  0.00000000000E+00 0. -1.
          2   -1    0    0  501    0  0.00000000000E+00 -0.00000000000E+00 -0.99688655190E+03  0.99688655190E+03  0.00000000000E+00 0.  1.
         23    2    1    2    0    0 -0.40439244069E+03  0.46509754313E+03 -0.85578767733E+03  0.10572758006E+04  0.74903932869E+02 0.  0.
         11    1    3    3    0    0 -0.24527314573E+03  0.31954027396E+03 -0.51229956330E+03  0.65170219061E+03  0.00000000000E+00 0. -1.
        -11    1    3    3    0    0 -0.15911929496E+03  0.14555726917E+03 -0.34348811403E+03  0.40557360999E+03  0.00000000000E+00 0.  1.
         22    1    1    2    0    0  0.40439244069E+03 -0.46509754313E+03  0.23128277639E+04  0.23935373897E+04  0.00000000000E+00 0. -1.
<mgrwt>
<rscale>  0 0.31281218E+04</rscale>
<asrwt>0</asrwt>
<pdfrwt beam="1">  1        2 0.15336716E+00 0.31281218E+04</pdfrwt>
<pdfrwt beam="2">  1       -2 0.37752717E+00 0.31281218E+04</pdfrwt>
<totfact> 0.22250489E-01</totfact>
</mgrwt>
</event>
<event>
 6    1  0.1878398E-004  0.1396262E+04  0.7818608E-02  0.8956529E-01
          1   -1    0    0  501    0  0.00000000000E+00  0.00000000000E+00  0.11748041672E+04  0.11748041672E+04  0.00000000000E+00 0.  1.
         -1   -1    0    0    0  501 -0.00000000000E+00 -0.00000000000E+00 -0.41486638664E+03  0.41486638664E+03  0.00000000000E+00 0. -1.
         23    2    1    2    0    0  0.32356782557E+03  0.14653321165E+03 -0.30061028098E+03  0.47122059489E+03  0.74257579817E+02 0.  0.
         13    1    3    3    0    0  0.28418270310E+03  0.11132041019E+03 -0.28100675032E+03  0.41486966169E+03  0.00000000000E+00 0. -1.
        -13    1    3    3    0    0  0.39385122464E+02  0.35212801456E+02 -0.19603530661E+02  0.56350933198E+02  0.00000000000E+00 0.  1.
         22    1    1    2    0    0 -0.32356782557E+03 -0.14653321165E+03  0.10605480615E+04  0.11184499590E+04  0.00000000000E+00 0.  1.
<mgrwt>
<rscale>  0 0.13962618E+04</rscale>
<asrwt>0</asrwt>
<pdfrwt beam="1">  1        1 0.18073910E+00 0.13962618E+04</pdfrwt>
<pdfrwt beam="2">  1       -1 0.63825599E-01 0.13962618E+04</pdfrwt>
<totfact> 0.27076471E+01</totfact>
</mgrwt>
</event>
<event>
 6    1  0.3830940E-004  0.3226717E+04  0.7818608E-02  0.8181797E-01
         -1   -1    0    0    0  501 -0.00000000000E+00  0.00000000000E+00  0.14193550950E+04  0.14193550950E+04  0.00000000000E+00 0. -1.
          1   -1    0    0  501    0  0.00000000000E+00 -0.00000000000E+00 -0.18338790566E+04  0.18338790566E+04  0.00000000000E+00 0.  1.
         23    2    1    2    0    0  0.29750641919E+03  0.26460080899E+03  0.13675198538E+04  0.14272539168E+04  0.91758024828E+02 0.  0.
         11    1    3    3    0    0  0.19734993840E+03  0.12446681377E+03  0.69959898775E+03  0.73748066387E+03  0.00000000000E+00 0. -1.
        -11    1    3    3    0    0  0.10015648079E+03  0.14013399523E+03  0.66792086601E+03  0.68977325297E+03  0.00000000000E+00 0.  1.
         22    1    1    2    0    0 -0.29750641919E+03 -0.26460080899E+03 -0.17820438154E+04  0.18259802348E+04  0.00000000000E+00 0.  1.
<mgrwt>
<rscale>  0 0.32267170E+04</rscale>
<asrwt>0</asrwt>
<pdfrwt beam="1">  1        1 0.28213524E+00 0.32267170E+04</pdfrwt>
<pdfrwt beam="2">  1       -1 0.21836232E+00 0.32267170E+04</pdfrwt>
<totfact> 0.36405181E-01</totfact>
</mgrwt>
</event>
<event>
 6    1  0.1878398E-004  0.5246431E+04  0.7818608E-02  0.7791578E-01
          2   -1    0    0  501    0  0.00000000000E+00  0.00000000000E+00  0.17724950601E+04  0.17724950601E+04  0.00000000000E+00 0.  1.
         -2   -1    0    0    0  501 -0.00000000000E+00 -0.00000000000E+00 -0.38822451967E+04  0.38822451967E+04  0.00000000000E+00 0. -1.
         23    2    1    2    0    0 -0.13855458838E+04  0.11242006571E+04  0.10161831450E+04  0.20554315183E+04  0.92768682049E+02 0.  0.
         11    1    3    3    0    0 -0.71480976770E+03  0.52332009135E+03  0.48704701550E+03  0.10109558434E+04  0.00000000000E+00 0. -1.
        -11    1    3    3    0    0 -0.67073611614E+03  0.60088056573E+03  0.52913612954E+03  0.10444756748E+04  0.00000000000E+00 0.  1.
         22    1    1    2    0    0  0.13855458838E+04 -0.11242006571E+04 -0.31259332817E+04  0.35993087385E+04  0.00000000000E+00 0. -1.
<mgrwt>
<rscale>  0 0.52464313E+04</rscale>
<asrwt>0</asrwt>
<pdfrwt beam="1">  1        2 0.27269155E+00 0.52464313E+04</pdfrwt>
<pdfrwt beam="2">  1       -2 0.59726849E+00 0.52464313E+04</pdfrwt>
<totfact> 0.33655363E-03</totfact>
</mgrwt>
</event>
<event>
 6    1  0.1878398E-004  0.3794904E+04  0.7818608E-02  0.8047249E-01
          1   -1    0    0  501    0  0.00000000000E+00  0.00000000000E+00  0.26355140595E+04  0.26355140595E+04  0.00000000000E+00 0.  1.
         -1   -1    0    0    0  501 -0.00000000000E+00 -0.00000000000E+00 -0.13660803360E+04  0.13660803360E+04  0.00000000000E+00 0. -1.
         23    2    1    2    0    0  0.11859692148E+03  0.95965962255E+03  0.23552352515E+04  0.25476422715E+04  0.91302970486E+02 0.  0.
         13    1    3    3    0    0  0.97136856746E+02  0.41793997420E+03  0.10295209212E+04  0.11153576638E+04  0.00000000000E+00 0.  1.
        -13    1    3    3    0    0  0.21460064731E+02  0.54171964835E+03  0.13257143303E+04  0.14322846077E+04  0.00000000000E+00 0. -1.
         22    1    1    2    0    0 -0.11859692148E+03 -0.95965962255E+03 -0.10858015280E+04  0.14539521241E+04  0.00000000000E+00 0. -1.
<mgrwt>
<rscale>  0 0.37949039E+04</rscale>
<asrwt>0</asrwt>
<pdfrwt beam="1">  1        1 0.40546370E+00 0.37949039E+04</pdfrwt>
<pdfrwt beam="2">  1       -1 0.21016621E+00 0.37949039E+04</pdfrwt>
<totfact> 0.11119375E-01</totfact>
</mgrwt>
</event>
<event>
 6    1  0.1878398E-004  0.1570138E+04  0.7818608E-02  0.8839106E-01
         -2   -1    0    0    0  501 -0.00000000000E+00  0.00000000000E+00  0.67463658836E+03  0.67463658836E+03  0.00000000000E+00 0. -1.
          2   -1    0    0  501    0  0.00000000000E+00 -0.00000000000E+00 -0.91357854674E+03  0.91357854674E+03  0.00000000000E+00 0.  1.
         23    2    1    2    0    0  0.28376254767E+03 -0.54802389930E+03  0.36685486547E+03  0.72343703092E+03  0.89035204958E+02 0.  0.
         11    1    3    3    0    0  0.80575797029E+02 -0.18855144245E+03  0.77412344741E+02  0.21917293773E+03  0.00000000000E+00 0. -1.
        -11    1    3    3    0    0  0.20318675064E+03 -0.35947245686E+03  0.28944252073E+03  0.50426409319E+03  0.00000000000E+00 0.  1.
         22    1    1    2    0    0 -0.28376254767E+03  0.54802389930E+03 -0.60579682386E+03  0.86477810418E+03  0.00000000000E+00 0.  1.
<mgrwt>
<rscale>  0 0.15701382E+04</rscale>
<asrwt>0</asrwt>
<pdfrwt beam="1">  1        2 0.14055055E+00 0.15701382E+04</pdfrwt>
<pdfrwt beam="2">  1       -2 0.10379024E+00 0.15701382E+04</pdfrwt>
<totfact> 0.20858541E+01</totfact>
</mgrwt>
</event>
<event>
 6    1  0.1878398E-004  0.4937344E+04  0.7818608E-02  0.7838246E-01
         -2   -1    0    0    0  501 -0.00000000000E+00  0.00000000000E+00  0.22727038755E+04  0.22727038755E+04  0.00000000000E+00 0. -1.
          2   -1    0    0  501    0  0.00000000000E+00 -0.00000000000E+00 -0.26815376466E+04  0.26815376466E+04  0.00000000000E+00 0.  1.
         23    2    1    2    0    0 -0.16841853160E+04 -0.12736114746E+04 -0.14863012208E+04  0.25836925409E+04  0.88371148554E+02 0.  0.
         13    1    3    3    0    0 -0.54414492295E+03 -0.43324654500E+03 -0.44375412624E+03  0.82505393186E+03  0.00000000000E+00 0. -1.
        -13    1    3    3    0    0 -0.11400403931E+04 -0.84036492955E+03 -0.10425470946E+04  0.17586386090E+04  0.00000000000E+00 0.  1.
         22    1    1    2    0    0  0.16841853160E+04  0.12736114746E+04  0.10774674498E+04  0.23705489812E+04  0.00000000000E+00 0. -1.
<mgrwt>
<rscale>  0 0.49373438E+04</rscale>
<asrwt>0</asrwt>
<pdfrwt beam="1">  1        2 0.41254425E+00 0.49373438E+04</pdfrwt>
<pdfrwt beam="2">  1       -2 0.34964675E+00 0.49373438E+04</pdfrwt>
<totfact> 0.31162266E-02</totfact>
</mgrwt>
</event>
<event>
 6    1  0.1878398E-004  0.1701433E+04  0.7818608E-02  0.8760547E-01
          1   -1    0    0  501    0  0.00000000000E+00  0.00000000000E+00  0.24460718079E+04  0.24460718079E+04  0.00000000000E+00 0.  1.
         -1   -1    0    0    0  501 -0.00000000000E+00 -0.00000000000E+00 -0.29586981073E+03  0.29586981073E+03  0.00000000000E+00 0. -1.
         23    2    1    2    0    0  0.26612713214E+03 -0.17090460079E+03  0.23466357963E+04  0.23696268721E+04  0.91651076186E+02 0.  0.
         13    1    3    3    0    0  0.17352705075E+03 -0.15727895153E+03  0.17740251936E+04  0.17894171379E+04  0.00000000000E+00 0.  1.
        -13    1    3    3    0    0  0.92600081387E+02 -0.13625649259E+02  0.57261060269E+03  0.58020973424E+03  0.00000000000E+00 0. -1.
         22    1    1    2    0    0 -0.26612713214E+03  0.17090460079E+03 -0.19643379910E+03  0.37231474650E+03  0.00000000000E+00 0. -1.
<mgrwt>
<rscale>  0 0.17014333E+04</rscale>
<asrwt>0</asrwt>
<pdfrwt beam="1">  1        1 0.37631873E+00 0.17014333E+04</pdfrwt>
<pdfrwt beam="2">  1       -1 0.45518434E-01 0.17014333E+04</pdfrwt>
<totfact> 0.67432507E+00</totfact>
</mgrwt>
</event>
<event>
 6    1  0.1878398E-004  0.3236888E+04  0.7818608E-02  0.8179143E-01
          2   -1    0    0  501    0  0.00000000000E+00  0.00000000000E+00  0.21935458737E+04  0.21935458737E+04  0.00000000000E+00 0.  1.
         -2   -1    0    0    0  501 -0.00000000000E+00 -0.00000000000E+00 -0.11941216922E+04  0.11941216922E+04  0.00000000000E+00 0. -1.
         23    2    1    2    0    0  0.81276973957E+03  0.28527579320E+03  0.19324611656E+04  0.21178112978E+04  0.93496571240E+02 0.  0.
         13    1    3    3    0    0  0.18791589032E+03  0.25139273828E+02  0.41877740453E+03  0.45969433265E+03  0.00000000000E+00 0. -1.
        -13    1    3    3    0    0  0.62485384925E+03  0.26013651937E+03  0.15136837611E+04  0.16581169652E+04  0.00000000000E+00 0.  1.
         22    1    1    2    0    0 -0.81276973957E+03 -0.28527579320E+03 -0.93303698416E+03  0.12698562681E+04  0.00000000000E+00 0. -1.
<mgrwt>
<rscale>  0 0.32368878E+04</rscale>
<asrwt>0</asrwt>
<pdfrwt beam="1">  1        2 0.33746860E+00 0.32368878E+04</pdfrwt>
<pdfrwt beam="2">  1       -2 0.18371103E+00 0.32368878E+04</pdfrwt>
<totfact> 0.74744170E-01</totfact>
</mgrwt>
</event>
<event>
 6    1  0.1878398E-004  0.2104296E+04  0.7818608E-02  0.8559353E-01
         -2   -1    0    0    0  501 -0.00000000000E+00  0.00000000000E+00  0.37459397004E+03  0.37459397004E+03  0.00000000000E+00 0. -1.
          2   -1    0    0  501    0  0.00000000000E+00 -0.00000000000E+00 -0.29552420422E+04  0.29552420422E+04  0.00000000000E+00 0.  1.
         23    2    1    2    0    0 -0.10404105117E+03  0.75749718456E+03 -0.24319380049E+04  0.25509000656E+04  0.90233918143E+02 0.  0.
         11    1    3    3    0    0 -0.88179715002E+02  0.32021118207E+03 -0.10790153641E+04  0.11289752076E+04  0.00000000000E+00 0.  1.
        -11    1    3    3    0    0 -0.15861336171E+02  0.43728600248E+03 -0.13529226407E+04  0.14219248580E+04  0.00000000000E+00 0. -1.
         22    1    1    2    0    0  0.10404105117E+03 -0.75749718456E+03 -0.14871006729E+03  0.77893594670E+03  0.00000000000E+00 0. -1.
<mgrwt>
<rscale>  0 0.21042964E+04</rscale>
<asrwt>0</asrwt>
<pdfrwt beam="1">  1        2 0.45465262E+00 0.21042964E+04</pdfrwt>
<pdfrwt beam="2">  1       -2 0.57629842E-01 0.21042964E+04</pdfrwt>
<totfact> 0.48311367E+00</totfact>
</mgrwt>
</event>
<event>
 6    1  0.1878398E-004  0.2185209E+04  0.7818608E-02  0.8524610E-01
          2   -1    0    0  501    0  0.00000000000E+00  0.00000000000E+00  0.10090336175E+04  0.10090336175E+04  0.00000000000E+00 0.  1.
         -2   -1    0    0    0  501 -0.00000000000E+00 -0.00000000000E+00 -0.11830968631E+04  0.11830968631E+04  0.00000000000E+00 0. -1.
         23    2    1    2    0    0  0.39513770063E+03  0.10136544869E+04 -0.96305016233E+01  0.10918271821E+04  0.91458339274E+02 0.  0.
         13    1    3    3    0    0  0.27262683758E+03  0.59144202626E+03  0.16058160373E+02  0.65144986569E+03  0.00000000000E+00 0.  1.
        -13    1    3    3    0    0  0.12251086305E+03  0.42221246065E+03 -0.25688661996E+02  0.44037731645E+03  0.00000000000E+00 0. -1.
         22    1    1    2    0    0 -0.39513770063E+03 -0.10136544869E+04 -0.16443274402E+03  0.11003032985E+04  0.00000000000E+00 0.  1.
<mgrwt>
<rscale>  0 0.21852089E+04</rscale>
<asrwt>0</asrwt>
<pdfrwt beam="1">  1        2 0.15523594E+00 0.21852089E+04</pdfrwt>
<pdfrwt beam="2">  1       -2 0.18201490E+00 0.21852089E+04</pdfrwt>
<totfact> 0.39937296E+00</totfact>
</mgrwt>
</event>
<event>
 6    1  0.1878398E-004  0.2466679E+04  0.7818608E-02  0.8414953E-01
         -2   -1    0    0    0  501 -0.00000000000E+00  0.00000000000E+00  0.12044766367E+04  0.12044766367E+04  0.00000000000E+00 0. -1.
          2   -1    0    0  501    0  0.00000000000E+00 -0.00000000000E+00 -0.12628937534E+04  0.12628937534E+04  0.00000000000E+00 0.  1.
         23    2    1    2    0    0  0.11611189866E+04 -0.40494594076E+03 -0.77965887545E+02  0.12375083367E+04  0.11475926003E+03 0.  0.
         11    1    3    3    0    0  0.91997304501E+03 -0.29247572960E+03 -0.21969937601E+02  0.96559574052E+03  0.00000000000E+00 0.  1.
        -11    1    3    3    0    0  0.24114594160E+03 -0.11247021116E+03 -0.55995949944E+02  0.27191259618E+03  0.00000000000E+00 0. -1.
         22    1    1    2    0    0 -0.11611189866E+04  0.40494594076E+03  0.19548770776E+02  0.12298620534E+04  0.00000000000E+00 0. -1.
<mgrwt>
<rscale>  0 0.24666788E+04</rscale>
<asrwt>0</asrwt>
<pdfrwt beam="1">  1        2 0.19429135E+00 0.24666788E+04</pdfrwt>
<pdfrwt beam="2">  1       -2 0.18530410E+00 0.24666788E+04</pdfrwt>
<totfact> 0.25921302E+00</totfact>
</mgrwt>
</event>
<event>
 6    1  0.1878398E-004  0.1197989E+04  0.7818608E-02  0.9114619E-01
          2   -1    0    0  501    0  0.00000000000E+00  0.00000000000E+00  0.17346469728E+04  0.17346469728E+04  0.00000000000E+00 0.  1.
         -2   -1    0    0    0  501 -0.00000000000E+00 -0.00000000000E+00 -0.20684002552E+03  0.20684002552E+03  0.00000000000E+00 0. -1.
         23    2    1    2    0    0  0.30530950502E+03  0.40036471374E+03  0.25246526845E+03  0.57035527758E+03  0.89781028207E+02 0.  0.
         11    1    3    3    0    0  0.24668324654E+03  0.36959080138E+03  0.20821265893E+03  0.49071630901E+03  0.00000000000E+00 0.  1.
        -11    1    3    3    0    0  0.58626258482E+02  0.30773912357E+02  0.44252609530E+02  0.79638968574E+02  0.00000000000E+00 0. -1.
         22    1    1    2    0    0 -0.30530950502E+03 -0.40036471374E+03  0.12753416788E+04  0.13711317207E+04  0.00000000000E+00 0.  1.
<mgrwt>
<rscale>  0 0.11979890E+04</rscale>
<asrwt>0</asrwt>
<pdfrwt beam="1">  1        2 0.26686876E+00 0.11979890E+04</pdfrwt>
<pdfrwt beam="2">  1       -2 0.31821544E-01 0.11979890E+04</pdfrwt>
<totfact> 0.84989554E+01</totfact>
</mgrwt>
</event>
<event>
 6    1  0.1878398E-004  0.5494999E+04  0.7818608E-02  0.7756378E-01
          2   -1    0    0  501    0  0.00000000000E+00  0.00000000000E+00  0.27169018545E+04  0.27169018545E+04  0.00000000000E+00 0. -1.
         -2   -1    0    0    0  501 -0.00000000000E+00 -0.00000000000E+00 -0.27784421048E+04  0.27784421048E+04  0.00000000000E+00 0.  1.
         23    2    1    2    0    0  0.11068067324E+04 -0.20978618592E+03  0.24743484199E+04  0.27204993268E+04  0.98412893564E+02 0.  0.
         13    1    3    3    0    0  0.10621125783E+04 -0.20653676783E+03  0.23224911400E+04  0.25621681562E+04  0.00000000000E+00 0. -1.
        -13    1    3    3    0    0  0.44694154116E+02 -0.32494180895E+01  0.15185727991E+03  0.15833117063E+03  0.00000000000E+00 0.  1.
         22    1    1    2    0    0 -0.11068067324E+04  0.20978618592E+03 -0.25358886702E+04  0.27748446324E+04  0.00000000000E+00 0.  1.
<mgrwt>
<rscale>  0 0.54949994E+04</rscale>
<asrwt>0</asrwt>
<pdfrwt beam="1">  1        2 0.41798490E+00 0.54949994E+04</pdfrwt>
<pdfrwt beam="2">  1       -2 0.42745263E+00 0.54949994E+04</pdfrwt>
<totfact> 0.89106962E-03</totfact>
</mgrwt>
</event>
<event>
 6    1  0.1878398E-004  0.2973745E+04  0.7818608E-02  0.8251268E-01
          2   -1    0    0  501    0  0.00000000000E+00  0.00000000000E+00  0.22090688377E+04  0.22090688377E+04  0.00000000000E+00 0.  1.
         -2   -1    0    0    0  501 -0.00000000000E+00 -0.00000000000E+00 -0.10007793359E+04  0.10007793359E+04  0.00000000000E+00 0. -1.
         23    2    1    2    0    0 -0.96506708572E+03  0.94688302726E+03 -0.59614031682E+02  0.13563322396E+04  0.90229508345E+02 0.  0.
         11    1    3    3    0    0 -0.41329612486E+03  0.45913830772E+03 -0.50763218696E+02  0.61983754066E+03  0.00000000000E+00 0.  1.
        -11    1    3    3    0    0 -0.55177096086E+03  0.48774471954E+03 -0.88508129858E+01  0.73649469894E+03  0.00000000000E+00 0. -1.
         22    1    1    2    0    0  0.96506708572E+03 -0.94688302726E+03  0.12679035335E+04  0.18535159340E+04  0.00000000000E+00 0.  1.
<mgrwt>
<rscale>  0 0.29737454E+04</rscale>
<asrwt>0</asrwt>
<pdfrwt beam="1">  1        2 0.33985674E+00 0.29737454E+04</pdfrwt>
<pdfrwt beam="2">  1       -2 0.15396605E+00 0.29737454E+04</pdfrwt>
<totfact> 0.12235944E+00</totfact>
</mgrwt>
</event>
<event>
 6    1  0.1878398E-004  0.3037822E+04  0.7818608E-02  0.8233012E-01
         -2   -1    0    0    0  501 -0.00000000000E+00  0.00000000000E+00  0.98724262733E+03  0.98724262733E+03  0.00000000000E+00 0. -1.
          2   -1    0    0  501    0  0.00000000000E+00 -0.00000000000E+00 -0.23369035345E+04  0.23369035345E+04  0.00000000000E+00 0.  1.
         23    2    1    2    0    0 -0.91286992433E+03  0.12096687025E+04 -0.58883695347E+03  0.16284212557E+04  0.91634926485E+02 0.  0.
         11    1    3    3    0    0 -0.47858006199E+03  0.67309388658E+03 -0.27868092408E+03  0.87164058725E+03  0.00000000000E+00 0.  1.
        -11    1    3    3    0    0 -0.43428986234E+03  0.53657481592E+03 -0.31015602938E+03  0.75678066848E+03  0.00000000000E+00 0. -1.
         22    1    1    2    0    0  0.91286992433E+03 -0.12096687025E+04 -0.76082395366E+03  0.16957249061E+04  0.00000000000E+00 0. -1.
<mgrwt>
<rscale>  0 0.30378221E+04</rscale>
<asrwt>0</asrwt>
<pdfrwt beam="1">  1        2 0.35952362E+00 0.30378221E+04</pdfrwt>
<pdfrwt beam="2">  1       -2 0.15188348E+00 0.30378221E+04</pdfrwt>
<totfact> 0.10683317E+00</totfact>
</mgrwt>
</event>
<event>
 6    1  0.1878398E-004  0.3436650E+04  0.7818608E-02  0.8128969E-01
          2   -1    0    0  501    0  0.00000000000E+00  0.00000000000E+00  0.27504891125E+04  0.27504891125E+04  0.00000000000E+00 0.  1.
         -2   -1    0    0    0  501 -0.00000000000E+00 -0.00000000000E+00 -0.10734964519E+04  0.10734964519E+04  0.00000000000E+00 0. -1.
         23    2    1    2    0    0 -0.52769717127E+03 -0.50208353232E+03  0.25690688822E+04  0.26723119287E+04  0.10287829856E+03 0.  0.
         13    1    3    3    0    0 -0.27754643214E+03 -0.23301785235E+03  0.14439242954E+04  0.14887063889E+04  0.00000000000E+00 0. -1.
        -13    1    3    3    0    0 -0.25015073914E+03 -0.26906567998E+03  0.11251445868E+04  0.11836055397E+04  0.00000000000E+00 0.  1.
         22    1    1    2    0    0  0.52769717127E+03  0.50208353232E+03 -0.89207622168E+03  0.11516736358E+04  0.00000000000E+00 0. -1.
<mgrwt>
<rscale>  0 0.34366497E+04</rscale>
<asrwt>0</asrwt>
<pdfrwt beam="1">  1        2 0.42315217E+00 0.34366497E+04</pdfrwt>
<pdfrwt beam="2">  1       -2 0.16515330E+00 0.34366497E+04</pdfrwt>
<totfact> 0.47228038E-01</totfact>
</mgrwt>
</event>
<event>
 6    1  0.1878398E-004  0.1121139E+04  0.7818608E-02  0.9184830E-01
          1   -1    0    0  501    0  0.00000000000E+00  0.00000000000E+00  0.15047674286E+04  0.15047674286E+04  0.00000000000E+00 0.  1.
         -1   -1    0    0    0  501 -0.00000000000E+00 -0.00000000000E+00 -0.20882824486E+03  0.20882824486E+03  0.00000000000E+00 0. -1.
         23    2    1    2    0    0 -0.46625505467E+03 -0.29836072717E+03  0.74459319359E+03  0.93231768174E+03  0.91566021069E+02 0.  0.
         11    1    3    3    0    0 -0.24092348100E+03 -0.20295334189E+03  0.38671034851E+03  0.49877758202E+03  0.00000000000E+00 0.  1.
        -11    1    3    3    0    0 -0.22533157368E+03 -0.95407385280E+02  0.35788284508E+03  0.43354009972E+03  0.00000000000E+00 0. -1.
         22    1    1    2    0    0  0.46625505467E+03  0.29836072717E+03  0.55134599019E+03  0.78127799177E+03  0.00000000000E+00 0. -1.
<mgrwt>
<rscale>  0 0.11211386E+04</rscale>
<asrwt>0</asrwt>
<pdfrwt beam="1">  1        1 0.23150267E+00 0.11211386E+04</pdfrwt>
<pdfrwt beam="2">  1       -1 0.32127423E-01 0.11211386E+04</pdfrwt>
<totfact> 0.58393558E+01</totfact>
</mgrwt>
</event>
<event>
 6    1  0.1878398E-004  0.4403094E+04  0.7818608E-02  0.7927825E-01
         -2   -1    0    0    0  501 -0.00000000000E+00  0.00000000000E+00  0.20868905638E+04  0.20868905638E+04  0.00000000000E+00 0. -1.
          2   -1    0    0  501    0  0.00000000000E+00 -0.00000000000E+00 -0.23225028344E+04  0.23225028344E+04  0.00000000000E+00 0.  1.
         23    2    1    2    0    0  0.85297755041E+03 -0.98521532133E+03 -0.18931466301E+04  0.23009247397E+04  0.10968392662E+03 0.  0.
         11    1    3    3    0    0  0.62822453570E+03 -0.79072845973E+03 -0.14320731006E+04  0.17523558229E+04  0.00000000000E+00 0. -1.
        -11    1    3    3    0    0  0.22475301471E+03 -0.19448686159E+03 -0.46107352946E+03  0.54856891684E+03  0.00000000000E+00 0.  1.
         22    1    1    2    0    0 -0.85297755041E+03  0.98521532133E+03  0.16575343596E+04  0.21084686585E+04  0.00000000000E+00 0. -1.
<mgrwt>
<rscale>  0 0.44030940E+04</rscale>
<asrwt>0</asrwt>
<pdfrwt beam="1">  1        2 0.35730813E+00 0.44030940E+04</pdfrwt>
<pdfrwt beam="2">  1       -2 0.32106009E+00 0.44030940E+04</pdfrwt>
<totfact> 0.79286932E-02</totfact>
</mgrwt>
</event>
<event>
 6    1  0.1878398E-004  0.1087462E+04  0.7818608E-02  0.9217499E-01
         -2   -1    0    0    0  501 -0.00000000000E+00  0.00000000000E+00  0.18278402780E+03  0.18278402780E+03  0.00000000000E+00 0. -1.
          2   -1    0    0  501    0  0.00000000000E+00 -0.00000000000E+00 -0.16174479889E+04  0.16174479889E+04  0.00000000000E+00 0.  1.
         23    2    1    2    0    0  0.25687449052E+03  0.38816859892E+03 -0.11752296274E+04  0.12673478468E+04  0.91359304039E+02 0.  0.
         11    1    3    3    0    0  0.12107293091E+03  0.24461525103E+03 -0.60115204456E+03  0.66021137245E+03  0.00000000000E+00 0.  1.
        -11    1    3    3    0    0  0.13580155961E+03  0.14355334789E+03 -0.57407758288E+03  0.60713647432E+03  0.00000000000E+00 0. -1.
         22    1    1    2    0    0 -0.25687449052E+03 -0.38816859892E+03 -0.25943433365E+03  0.53288416992E+03  0.00000000000E+00 0. -1.
<mgrwt>
<rscale>  0 0.10874625E+04</rscale>
<asrwt>0</asrwt>
<pdfrwt beam="1">  1        2 0.24883814E+00 0.10874625E+04</pdfrwt>
<pdfrwt beam="2">  1       -2 0.28120621E-01 0.10874625E+04</pdfrwt>
<totfact> 0.12524453E+02</totfact>
</mgrwt>
</event>
<event>
 6    1  0.1878398E-004  0.3227434E+04  0.7818608E-02  0.8181609E-01
         -2   -1    0    0    0  501 -0.00000000000E+00  0.00000000000E+00  0.97379331448E+03  0.97379331448E+03  0.00000000000E+00 0. -1.
          2   -1    0    0  501    0  0.00000000000E+00 -0.00000000000E+00 -0.26741638067E+04  0.26741638067E+04  0.00000000000E+00 0.  1.
         23    2    1    2    0    0  0.30769151687E+03  0.15446580022E+04 -0.12412358076E+04  0.20073940862E+04  0.91226496116E+02 0.  0.
         13    1    3    3    0    0  0.22105027341E+03  0.10770465410E+04 -0.81297383353E+03  0.13674132253E+04  0.00000000000E+00 0. -1.
        -13    1    3    3    0    0  0.86641243466E+02  0.46761146123E+03 -0.42826197411E+03  0.63998086081E+03  0.00000000000E+00 0.  1.
         22    1    1    2    0    0 -0.30769151687E+03 -0.15446580022E+04 -0.45913468461E+03  0.16405630351E+04  0.00000000000E+00 0.  1.
<mgrwt>
<rscale>  0 0.32274342E+04</rscale>
<asrwt>0</asrwt>
<pdfrwt beam="1">  1        2 0.41140981E+00 0.32274342E+04</pdfrwt>
<pdfrwt beam="2">  1       -2 0.14981436E+00 0.32274342E+04</pdfrwt>
<totfact> 0.69458607E-01</totfact>
</mgrwt>
</event>
<event>
 6    1  0.1878398E-004  0.2103567E+04  0.7818608E-02  0.8559674E-01
          2   -1    0    0  501    0  0.00000000000E+00  0.00000000000E+00  0.75139841263E+03  0.75139841263E+03  0.00000000000E+00 0. -1.
         -2   -1    0    0    0  501 -0.00000000000E+00 -0.00000000000E+00 -0.14722532066E+04  0.14722532066E+04  0.00000000000E+00 0.  1.
         23    2    1    2    0    0  0.79165513763E+03 -0.17652370143E+02  0.36754786825E+03  0.87767620407E+03  0.90524143897E+02 0.  0.
         13    1    3    3    0    0  0.78130894643E+03 -0.28749151427E+02  0.36053341927E+03  0.86096139861E+03  0.00000000000E+00 0.  1.
        -13    1    3    3    0    0  0.10346191200E+02  0.11096781284E+02  0.70144489831E+01  0.16714805466E+02  0.00000000000E+00 0. -1.
         22    1    1    2    0    0 -0.79165513763E+03  0.17652370143E+02 -0.10884026623E+04  0.13459754152E+04  0.00000000000E+00 0.  1.
<mgrwt>
<rscale>  0 0.21035672E+04</rscale>
<asrwt>0</asrwt>
<pdfrwt beam="1">  1        2 0.11559976E+00 0.21035672E+04</pdfrwt>
<pdfrwt beam="2">  1       -2 0.22650049E+00 0.21035672E+04</pdfrwt>
<totfact> 0.30980690E+00</totfact>
</mgrwt>
</event>
<event>
 6    1  0.1878398E-004  0.1436814E+04  0.7818608E-02  0.8927594E-01
          1   -1    0    0  501    0  0.00000000000E+00  0.00000000000E+00  0.32085982962E+04  0.32085982962E+04  0.00000000000E+00 0.  1.
         -1   -1    0    0    0  501 -0.00000000000E+00 -0.00000000000E+00 -0.16085172932E+03  0.16085172932E+03  0.00000000000E+00 0. -1.
         23    2    1    2    0    0  0.58089146676E+03  0.49043666809E+02  0.25030578865E+04  0.25716242701E+04  0.90069007909E+02 0.  0.
         13    1    3    3    0    0  0.22276124805E+03 -0.97371732514E+01  0.11014456421E+04  0.11237881867E+04  0.00000000000E+00 0.  1.
        -13    1    3    3    0    0  0.35813021871E+03  0.58780840060E+02  0.14016122444E+04  0.14478360834E+04  0.00000000000E+00 0. -1.
         22    1    1    2    0    0 -0.58089146676E+03 -0.49043666809E+02  0.54468868036E+03  0.79782575537E+03  0.00000000000E+00 0. -1.
<mgrwt>
<rscale>  0 0.14368140E+04</rscale>
<asrwt>0</asrwt>
<pdfrwt beam="1">  1        1 0.49363046E+00 0.14368140E+04</pdfrwt>
<pdfrwt beam="2">  1       -1 0.24746422E-01 0.14368140E+04</pdfrwt>
<totfact> 0.58598551E+00</totfact>
</mgrwt>
</event>
<event>
 6    1  0.1933487E-004  0.2729058E+04  0.7818608E-02  0.8325638E-01
         -2   -1    0    0    0  501 -0.00000000000E+00  0.00000000000E+00  0.73539117010E+03  0.73539117010E+03  0.00000000000E+00 0. -1.
          2   -1    0    0  501    0  0.00000000000E+00 -0.00000000000E+00 -0.25319032424E+04  0.25319032424E+04  0.00000000000E+00 0.  1.
         23    2    1    2    0    0 -0.10395090795E+04  0.65417684684E+03 -0.19132068095E+03  0.12461150844E+04  0.87594105806E+02 0.  0.
         11    1    3    3    0    0 -0.30523099641E+03  0.19208093538E+03 -0.15984831804E+02  0.36099385279E+03  0.00000000000E+00 0. -1.
        -11    1    3    3    0    0 -0.73427808310E+03  0.46209591146E+03 -0.17533584915E+03  0.88512123164E+03  0.00000000000E+00 0.  1.
         22    1    1    2    0    0  0.10395090795E+04 -0.65417684684E+03 -0.16051913913E+04  0.20211793281E+04  0.00000000000E+00 0. -1.
<mgrwt>
<rscale>  0 0.27290579E+04</rscale>
<asrwt>0</asrwt>
<pdfrwt beam="1">  1        2 0.38952358E+00 0.27290579E+04</pdfrwt>
<pdfrwt beam="2">  1       -2 0.11313710E+00 0.27290579E+04</pdfrwt>
<totfact> 0.17909371E+00</totfact>
</mgrwt>
</event>
<event>
 6    1  0.1878398E-004  0.6204965E+03  0.7818608E-02  0.9863772E-01
          2   -1    0    0  501    0  0.00000000000E+00  0.00000000000E+00  0.88137894229E+02  0.88137894229E+02  0.00000000000E+00 0.  1.
         -2   -1    0    0    0  501 -0.00000000000E+00 -0.00000000000E+00 -0.10920837947E+04  0.10920837947E+04  0.00000000000E+00 0. -1.
         23    2    1    2    0    0  0.13199461964E+03  0.99165349507E+02 -0.28267875802E+02  0.19067434090E+03  0.91111389627E+02 0.  0.
         13    1    3    3    0    0  0.98134231519E+02  0.71492629924E+02 -0.61166003243E+02  0.13595147473E+03  0.00000000000E+00 0.  1.
        -13    1    3    3    0    0  0.33860388122E+02  0.27672719583E+02  0.32898127441E+02  0.54722866172E+02  0.00000000000E+00 0. -1.
         22    1    1    2    0    0 -0.13199461964E+03 -0.99165349507E+02 -0.97567802466E+03  0.98954734801E+03  0.00000000000E+00 0. -1.
<mgrwt>
<rscale>  0 0.62049647E+03</rscale>
<asrwt>0</asrwt>
<pdfrwt beam="1">  1        2 0.13559676E-01 0.62049647E+03</pdfrwt>
<pdfrwt beam="2">  1       -2 0.16801289E+00 0.62049647E+03</pdfrwt>
<totfact> 0.10179143E+02</totfact>
</mgrwt>
</event>
<event>
 6    1  0.1878398E-004  0.3139675E+04  0.7818608E-02  0.8204933E-01
          1   -1    0    0  501    0  0.00000000000E+00  0.00000000000E+00  0.12541886349E+04  0.12541886349E+04  0.00000000000E+00 0.  1.
         -1   -1    0    0    0  501 -0.00000000000E+00 -0.00000000000E+00 -0.19649273801E+04  0.19649273801E+04  0.00000000000E+00 0. -1.
         23    2    1    2    0    0 -0.69216628533E+03  0.98943612498E+03  0.67076155864E+03  0.13842805724E+04  0.90739311346E+02 0.  0.
         13    1    3    3    0    0 -0.17795678132E+03  0.32736861200E+03  0.20803908730E+03  0.42675412826E+03  0.00000000000E+00 0. -1.
        -13    1    3    3    0    0 -0.51420950401E+03  0.66206751299E+03  0.46272247134E+03  0.95752644415E+03  0.00000000000E+00 0.  1.
         22    1    1    2    0    0  0.69216628533E+03 -0.98943612498E+03 -0.13815003039E+04  0.18348354426E+04  0.00000000000E+00 0. -1.
<mgrwt>
<rscale>  0 0.31396749E+04</rscale>
<asrwt>0</asrwt>
<pdfrwt beam="1">  1        1 0.19295210E+00 0.31396749E+04</pdfrwt>
<pdfrwt beam="2">  1       -1 0.30229652E+00 0.31396749E+04</pdfrwt>
<totfact> 0.26184682E-01</totfact>
</mgrwt>
</event>
<event>
 6    1  0.1878398E-004  0.1448334E+04  0.7818608E-02  0.8919557E-01
         -1   -1    0    0    0  501 -0.00000000000E+00  0.00000000000E+00  0.13061824807E+04  0.13061824807E+04  0.00000000000E+00 0. -1.
          1   -1    0    0  501    0  0.00000000000E+00 -0.00000000000E+00 -0.40148872540E+03  0.40148872540E+03  0.00000000000E+00 0.  1.
         23    2    1    2    0    0 -0.63031280319E+03  0.11573163366E+03  0.63822178851E+02  0.65043279922E+03  0.91112649476E+02 0.  0.
         13    1    3    3    0    0 -0.13055457230E+03  0.38526195123E+02 -0.20845063645E+02  0.13770722834E+03  0.00000000000E+00 0. -1.
        -13    1    3    3    0    0 -0.49975823089E+03  0.77205438534E+02  0.84667242496E+02  0.51272557088E+03  0.00000000000E+00 0.  1.
         22    1    1    2    0    0  0.63031280319E+03 -0.11573163366E+03  0.84087157648E+03  0.10572384069E+04  0.00000000000E+00 0. -1.
<mgrwt>
<rscale>  0 0.14483336E+04</rscale>
<asrwt>0</asrwt>
<pdfrwt beam="1">  1        1 0.61767497E-01 0.14483336E+04</pdfrwt>
<pdfrwt beam="2">  1       -1 0.20095115E+00 0.14483336E+04</pdfrwt>
<totfact> 0.85958853E+00</totfact>
</mgrwt>
</event>
<event>
 6    1  0.1878398E-004  0.2898286E+03  0.7818608E-02  0.1090439E+00
          2   -1    0    0  501    0  0.00000000000E+00  0.00000000000E+00  0.41207238224E+03  0.41207238224E+03  0.00000000000E+00 0.  1.
         -2   -1    0    0    0  501 -0.00000000000E+00 -0.00000000000E+00 -0.50962282866E+02  0.50962282866E+02  0.00000000000E+00 0. -1.
         23    2    1    2    0    0  0.35631853755E+02  0.46414629901E+02  0.11762938595E+02  0.10882090815E+03  0.90992727489E+02 0.  0.
         11    1    3    3    0    0  0.15742314468E+02 -0.24145383962E+02 -0.12754933701E+02  0.31519967722E+02  0.00000000000E+00 0.  1.
        -11    1    3    3    0    0  0.19889539287E+02  0.70560013863E+02  0.24517872296E+02  0.77300940430E+02  0.00000000000E+00 0. -1.
         22    1    1    2    0    0 -0.35631853755E+02 -0.46414629901E+02  0.34934716078E+03  0.35421375695E+03  0.00000000000E+00 0.  1.
<mgrwt>
<rscale>  0 0.28982857E+03</rscale>
<asrwt>0</asrwt>
<pdfrwt beam="1">  1        2 0.63395749E-01 0.28982857E+03</pdfrwt>
<pdfrwt beam="2">  1       -2 0.78403515E-02 0.28982857E+03</pdfrwt>
<totfact> 0.75117169E+03</totfact>
</mgrwt>
</event>
<event>
 6    1  0.1878398E-004  0.1040799E+04  0.7818608E-02  0.9264896E-01
         -2   -1    0    0    0  501 -0.00000000000E+00  0.00000000000E+00  0.11793348684E+03  0.11793348684E+03  0.00000000000E+00 0. -1.
          2   -1    0    0  501    0  0.00000000000E+00 -0.00000000000E+00 -0.22963414057E+04  0.22963414057E+04  0.00000000000E+00 0.  1.
         23    2    1    2    0    0  0.94003182019E+01 -0.38563618574E+03 -0.30134945133E+03  0.49798886893E+03  0.91530257430E+02 0.  0.
         11    1    3    3    0    0  0.48792755690E+02 -0.18452525185E+03 -0.15970436851E+03  0.24886901554E+03  0.00000000000E+00 0. -1.
        -11    1    3    3    0    0 -0.39392437488E+02 -0.20111093390E+03 -0.14164508282E+03  0.24911985338E+03  0.00000000000E+00 0.  1.
         22    1    1    2    0    0 -0.94003182019E+01  0.38563618574E+03 -0.18770584675E+04  0.19162860236E+04  0.00000000000E+00 0.  1.
<mgrwt>
<rscale>  0 0.10407988E+04</rscale>
<asrwt>0</asrwt>
<pdfrwt beam="1">  1        2 0.35328329E+00 0.10407988E+04</pdfrwt>
<pdfrwt beam="2">  1       -2 0.18143613E-01 0.10407988E+04</pdfrwt>
<totfact> 0.11581870E+02</totfact>
</mgrwt>
</event>
<event>
 6    1  0.1878398E-004  0.2896607E+04  0.7818608E-02  0.8273888E-01
          1   -1    0    0  501    0  0.00000000000E+00  0.00000000000E+00  0.60988901803E+03  0.60988901803E+03  0.00000000000E+00 0.  1.
         -1   -1    0    0    0  501 -0.00000000000E+00 -0.00000000000E+00 -0.34392863061E+04  0.34392863061E+04  0.00000000000E+00 0. -1.
         23    2    1    2    0    0 -0.55446371572E+03 -0.97579249527E+01 -0.32842745568E+04  0.33319316008E+04  0.88224704227E+02 0.  0.
         11    1    3    3    0    0 -0.40977844991E+03 -0.29574629420E+02 -0.22216125033E+04  0.22592819991E+04  0.00000000000E+00 0. -1.
        -11    1    3    3    0    0 -0.14468526581E+03  0.19816704468E+02 -0.10626620535E+04  0.10726496017E+04  0.00000000000E+00 0.  1.
         22    1    1    2    0    0  0.55446371572E+03  0.97579249527E+01  0.45487726872E+03  0.71724372339E+03  0.00000000000E+00 0.  1.
<mgrwt>
<rscale>  0 0.28966069E+04</rscale>
<asrwt>0</asrwt>
<pdfrwt beam="1">  1        1 0.93829078E-01 0.28966069E+04</pdfrwt>
<pdfrwt beam="2">  1       -1 0.52912098E+00 0.28966069E+04</pdfrwt>
<totfact> 0.28093489E-02</totfact>
</mgrwt>
</event>
<event>
 6    1  0.1878398E-004  0.9430820E+03  0.7818608E-02  0.9373273E-01
          2   -1    0    0  501    0  0.00000000000E+00  0.00000000000E+00  0.12441004220E+04  0.12441004220E+04  0.00000000000E+00 0.  1.
         -2   -1    0    0    0  501 -0.00000000000E+00 -0.00000000000E+00 -0.17872424114E+03  0.17872424114E+03  0.00000000000E+00 0. -1.
         23    2    1    2    0    0  0.32214247383E+03  0.65316861377E+02  0.10387581382E+04  0.10930511257E+04  0.87750942043E+02 0.  0.
         11    1    3    3    0    0  0.71325115976E+02  0.52514706636E+02  0.24571478564E+03  0.26119116077E+03  0.00000000000E+00 0.  1.
        -11    1    3    3    0    0  0.25081735786E+03  0.12802154741E+02  0.79304335255E+03  0.83185996489E+03  0.00000000000E+00 0. -1.
         22    1    1    2    0    0 -0.32214247383E+03 -0.65316861377E+02  0.26618042674E+02  0.32977353748E+03  0.00000000000E+00 0. -1.
<mgrwt>
<rscale>  0 0.94308198E+03</rscale>
<asrwt>0</asrwt>
<pdfrwt beam="1">  1        2 0.19140006E+00 0.94308198E+03</pdfrwt>
<pdfrwt beam="2">  1       -2 0.27496038E-01 0.94308198E+03</pdfrwt>
<totfact> 0.21481726E+02</totfact>
</mgrwt>
</event>
<event>
 6    1  0.1878398E-004  0.7169513E+03  0.7818608E-02  0.9688674E-01
         -3   -1    0    0    0  501 -0.00000000000E+00  0.00000000000E+00  0.10970310661E+04  0.10970310661E+04  0.00000000000E+00 0. -1.
          3   -1    0    0  501    0  0.00000000000E+00 -0.00000000000E+00 -0.11713871499E+03  0.11713871499E+03  0.00000000000E+00 0.  1.
         23    2    1    2    0    0  0.11322418112E+03  0.19940952917E+03  0.95175865510E+03  0.98313865684E+03  0.90184286272E+02 0.  0.
         11    1    3    3    0    0  0.42034931678E+02  0.15291130752E+03  0.54585447279E+03  0.56842405730E+03  0.00000000000E+00 0. -1.
        -11    1    3    3    0    0  0.71189249439E+02  0.46498221646E+02  0.40590418231E+03  0.41471459954E+03  0.00000000000E+00 0.  1.
         22    1    1    2    0    0 -0.11322418112E+03 -0.19940952917E+03  0.28133695973E+02  0.23103112423E+03  0.00000000000E+00 0.  1.
<mgrwt>
<rscale>  0 0.71695135E+03</rscale>
<asrwt>0</asrwt>
<pdfrwt beam="1">  1        3 0.18021342E-01 0.71695135E+03</pdfrwt>
<pdfrwt beam="2">  1       -3 0.16877400E+00 0.71695135E+03</pdfrwt>
<totfact> 0.17284624E+01</totfact>
</mgrwt>
</event>
<event>
 6    1  0.1878398E-004  0.2022611E+04  0.7818608E-02  0.8596122E-01
          1   -1    0    0  501    0  0.00000000000E+00  0.00000000000E+00  0.69193557950E+03  0.69193557950E+03  0.00000000000E+00 0.  1.
         -1   -1    0    0    0  501 -0.00000000000E+00 -0.00000000000E+00 -0.14780839975E+04  0.14780839975E+04  0.00000000000E+00 0. -1.
         23    2    1    2    0    0  0.75754408515E+03 -0.29687800350E+03 -0.10344314222E+04  0.13193410008E+04  0.92750844610E+02 0.  0.
         11    1    3    3    0    0  0.26036941164E+03 -0.56462627818E+02 -0.32189725654E+03  0.41784937792E+03  0.00000000000E+00 0. -1.
        -11    1    3    3    0    0  0.49717467351E+03 -0.24041537568E+03 -0.71253416571E+03  0.90149162289E+03  0.00000000000E+00 0.  1.
         22    1    1    2    0    0 -0.75754408515E+03  0.29687800350E+03  0.24828300420E+03  0.85067857625E+03  0.00000000000E+00 0. -1.
<mgrwt>
<rscale>  0 0.20226111E+04</rscale>
<asrwt>0</asrwt>
<pdfrwt beam="1">  1        1 0.10645163E+00 0.20226111E+04</pdfrwt>
<pdfrwt beam="2">  1       -1 0.22739754E+00 0.20226111E+04</pdfrwt>
<totfact> 0.25213284E+00</totfact>
</mgrwt>
</event>
<event>
 6    1  0.1878398E-004  0.2963273E+04  0.7818608E-02  0.8254297E-01
          2   -1    0    0  501    0  0.00000000000E+00  0.00000000000E+00  0.15110650045E+04  0.15110650045E+04  0.00000000000E+00 0.  1.
         -2   -1    0    0    0  501 -0.00000000000E+00 -0.00000000000E+00 -0.14527813434E+04  0.14527813434E+04  0.00000000000E+00 0. -1.
         23    2    1    2    0    0  0.75931712330E+03  0.48949074094E+03 -0.11435915458E+04  0.14602946552E+04  0.92169285532E+02 0.  0.
         11    1    3    3    0    0  0.49051706880E+02  0.57644409343E+02 -0.76092911739E+02  0.10732697281E+03  0.00000000000E+00 0.  1.
        -11    1    3    3    0    0  0.71026541642E+03  0.43184633159E+03 -0.10674986341E+04  0.13529676824E+04  0.00000000000E+00 0. -1.
         22    1    1    2    0    0 -0.75931712330E+03 -0.48949074094E+03  0.12018752070E+04  0.15035516926E+04  0.00000000000E+00 0.  1.
<mgrwt>
<rscale>  0 0.29632732E+04</rscale>
<asrwt>0</asrwt>
<pdfrwt beam="1">  1        2 0.23247154E+00 0.29632732E+04</pdfrwt>
<pdfrwt beam="2">  1       -2 0.22350482E+00 0.29632732E+04</pdfrwt>
<totfact> 0.10090518E+00</totfact>
</mgrwt>
</event>
<event>
 6    1  0.1878398E-004  0.1871550E+04  0.7818608E-02  0.8669149E-01
          2   -1    0    0  501    0  0.00000000000E+00  0.00000000000E+00  0.93802414296E+03  0.93802414296E+03  0.00000000000E+00 0.  1.
         -2   -1    0    0    0  501 -0.00000000000E+00 -0.00000000000E+00 -0.93353170221E+03  0.93353170221E+03  0.00000000000E+00 0. -1.
         23    2    1    2    0    0 -0.17306263678E+03  0.57558578394E+03 -0.71206230681E+03  0.93630166732E+03  0.91533668801E+02 0.  0.
         11    1    3    3    0    0 -0.11111835905E+02  0.24887351180E+02 -0.69671842995E+02  0.74813226453E+02  0.00000000000E+00 0. -1.
        -11    1    3    3    0    0 -0.16195080088E+03  0.55069843276E+03 -0.64239046382E+03  0.86148844087E+03  0.00000000000E+00 0.  1.
         22    1    1    2    0    0  0.17306263678E+03 -0.57558578394E+03  0.71655474757E+03  0.93525417785E+03  0.00000000000E+00 0.  1.
<mgrwt>
<rscale>  0 0.18715505E+04</rscale>
<asrwt>0</asrwt>
<pdfrwt beam="1">  1        2 0.14431141E+00 0.18715505E+04</pdfrwt>
<pdfrwt beam="2">  1       -2 0.14362026E+00 0.18715505E+04</pdfrwt>
<totfact> 0.87195448E+00</totfact>
</mgrwt>
</event>
<event>
 6    1  0.1878398E-004  0.1457574E+04  0.7818608E-02  0.8913167E-01
          1   -1    0    0  501    0  0.00000000000E+00  0.00000000000E+00  0.13033781561E+04  0.13033781561E+04  0.00000000000E+00 0.  1.
         -1   -1    0    0    0  501 -0.00000000000E+00 -0.00000000000E+00 -0.40750288627E+03  0.40750288627E+03  0.00000000000E+00 0. -1.
         23    2    1    2    0    0 -0.43634234375E+03 -0.11984790589E+03  0.11156722696E+04  0.12078215204E+04  0.96695658206E+02 0.  0.
         13    1    3    3    0    0 -0.19857455615E+03 -0.51000711693E+02  0.38235628965E+03  0.43385396066E+03  0.00000000000E+00 0. -1.
        -13    1    3    3    0    0 -0.23776778760E+03 -0.68847194194E+02  0.73331598000E+03  0.77396755971E+03  0.00000000000E+00 0.  1.
         22    1    1    2    0    0  0.43634234375E+03  0.11984790589E+03 -0.21979699985E+03  0.50305952196E+03  0.00000000000E+00 0. -1.
<mgrwt>
<rscale>  0 0.14575738E+04</rscale>
<asrwt>0</asrwt>
<pdfrwt beam="1">  1        1 0.20051971E+00 0.14575738E+04</pdfrwt>
<pdfrwt beam="2">  1       -1 0.62692752E-01 0.14575738E+04</pdfrwt>
<totfact> 0.22531582E+01</totfact>
</mgrwt>
</event>
<event>
 6    1  0.1878398E-004  0.1802868E+04  0.7818608E-02  0.8704776E-01
          1   -1    0    0  501    0  0.00000000000E+00  0.00000000000E+00  0.90811532317E+03  0.90811532317E+03  0.00000000000E+00 0.  1.
         -1   -1    0    0    0  501 -0.00000000000E+00 -0.00000000000E+00 -0.89480171708E+03  0.89480171708E+03  0.00000000000E+00 0. -1.
         23    2    1    2    0    0  0.44617517561E+03  0.76628065938E+03 -0.14115688393E+03  0.90285067129E+03  0.94634731961E+02 0.  0.
         11    1    3    3    0    0  0.11427845576E+03  0.12839894045E+03 -0.12235662904E+02  0.17232401111E+03  0.00000000000E+00 0. -1.
        -11    1    3    3    0    0  0.33189671985E+03  0.63788171893E+03 -0.12892122103E+03  0.73052666017E+03  0.00000000000E+00 0.  1.
         22    1    1    2    0    0 -0.44617517561E+03 -0.76628065938E+03  0.15447049002E+03  0.90006636897E+03  0.00000000000E+00 0. -1.
<mgrwt>
<rscale>  0 0.18028679E+04</rscale>
<asrwt>0</asrwt>
<pdfrwt beam="1">  1        1 0.13971005E+00 0.18028679E+04</pdfrwt>
<pdfrwt beam="2">  1       -1 0.13766180E+00 0.18028679E+04</pdfrwt>
<totfact> 0.74054757E+00</totfact>
</mgrwt>
</event>
<event>
 6    1  0.1878398E-004  0.2809001E+04  0.7818608E-02  0.8300479E-01
          2   -1    0    0  501    0  0.00000000000E+00  0.00000000000E+00  0.18801261203E+04  0.18801261203E+04  0.00000000000E+00 0. -1.
         -2   -1    0    0    0  501 -0.00000000000E+00 -0.00000000000E+00 -0.10491967328E+04  0.10491967328E+04  0.00000000000E+00 0.  1.
         23    2    1    2    0    0  0.19367434572E+03  0.76617891873E+03 -0.79305902162E+03  0.11232557888E+04  0.90670102888E+02 0.  0.
         11    1    3    3    0    0  0.55013054979E+02  0.27986553015E+03 -0.34486443591E+03  0.44752947427E+03  0.00000000000E+00 0.  1.
        -11    1    3    3    0    0  0.13866129074E+03  0.48631338858E+03 -0.44819458571E+03  0.67572631451E+03  0.00000000000E+00 0. -1.
         22    1    1    2    0    0 -0.19367434572E+03 -0.76617891873E+03  0.16239884092E+04  0.18060670643E+04  0.00000000000E+00 0. -1.
<mgrwt>
<rscale>  0 0.28090014E+04</rscale>
<asrwt>0</asrwt>
<pdfrwt beam="1">  1        2 0.28925017E+00 0.28090014E+04</pdfrwt>
<pdfrwt beam="2">  1       -2 0.16141488E+00 0.28090014E+04</pdfrwt>
<totfact> 0.16656312E+00</totfact>
</mgrwt>
</event>
<event>
 6    1  0.1878398E-004  0.1243861E+04  0.7818608E-02  0.9075308E-01
          1   -1    0    0  501    0  0.00000000000E+00  0.00000000000E+00  0.11124705418E+04  0.11124705418E+04  0.00000000000E+00 0. -1.
         -1   -1    0    0    0  501 -0.00000000000E+00 -0.00000000000E+00 -0.34769264164E+03  0.34769264164E+03  0.00000000000E+00 0.  1.
         23    2    1    2    0    0  0.18723616556E+03  0.32061007430E+03  0.96526926942E+03  0.10382094057E+04  0.91026403504E+02 0.  0.
         11    1    3    3    0    0  0.89786471444E+02  0.23652230500E+03  0.66610818201E+03  0.71253387384E+03  0.00000000000E+00 0. -1.
        -11    1    3    3    0    0  0.97449694114E+02  0.84087769298E+02  0.29916108741E+03  0.32567553185E+03  0.00000000000E+00 0.  1.
         22    1    1    2    0    0 -0.18723616556E+03 -0.32061007430E+03 -0.20049136924E+03  0.42195377777E+03  0.00000000000E+00 0.  1.
<mgrwt>
<rscale>  0 0.12438614E+04</rscale>
<asrwt>0</asrwt>
<pdfrwt beam="1">  1        1 0.17114931E+00 0.12438614E+04</pdfrwt>
<pdfrwt beam="2">  1       -1 0.53491176E-01 0.12438614E+04</pdfrwt>
<totfact> 0.43157265E+01</totfact>
</mgrwt>
</event>
<event>
 6    1  0.1878398E-004  0.1116342E+04  0.7818608E-02  0.9189409E-01
         -2   -1    0    0    0  501 -0.00000000000E+00  0.00000000000E+00  0.29949206318E+03  0.29949206318E+03  0.00000000000E+00 0. -1.
          2   -1    0    0  501    0  0.00000000000E+00 -0.00000000000E+00 -0.10402766067E+04  0.10402766067E+04  0.00000000000E+00 0.  1.
         23    2    1    2    0    0 -0.47090480004E+03 -0.77028235641E+02 -0.71166083281E+03  0.86171755304E+03  0.91713251356E+02 0.  0.
         11    1    3    3    0    0 -0.24133134666E+03 -0.14896143932E+02 -0.28967974417E+03  0.37732885944E+03  0.00000000000E+00 0.  1.
        -11    1    3    3    0    0 -0.22957345338E+03 -0.62132091709E+02 -0.42198108864E+03  0.48438869360E+03  0.00000000000E+00 0. -1.
         22    1    1    2    0    0  0.47090480004E+03  0.77028235641E+02 -0.29123710713E+02  0.47805111684E+03  0.00000000000E+00 0. -1.
<mgrwt>
<rscale>  0 0.11163415E+04</rscale>
<asrwt>0</asrwt>
<pdfrwt beam="1">  1        2 0.16004256E+00 0.11163415E+04</pdfrwt>
<pdfrwt beam="2">  1       -2 0.46075702E-01 0.11163415E+04</pdfrwt>
<totfact> 0.10513426E+02</totfact>
</mgrwt>
</event>
<event>
 6    1  0.1878398E-004  0.1515693E+04  0.7818608E-02  0.8874084E-01
          2   -1    0    0  501    0  0.00000000000E+00  0.00000000000E+00  0.16570962511E+04  0.16570962511E+04  0.00000000000E+00 0.  1.
         -2   -1    0    0    0  501 -0.00000000000E+00 -0.00000000000E+00 -0.34658903378E+03  0.34658903378E+03  0.00000000000E+00 0. -1.
         23    2    1    2    0    0  0.75459967210E+03  0.27314672038E+02  0.66622883494E+03  0.10110819449E+04  0.90879493937E+02 0.  0.
         11    1    3    3    0    0  0.96011087343E+02 -0.25621527873E+02  0.75542490412E+02  0.12482491514E+03  0.00000000000E+00 0.  1.
        -11    1    3    3    0    0  0.65858858475E+03  0.52936199911E+02  0.59068634453E+03  0.88625702979E+03  0.00000000000E+00 0. -1.
         22    1    1    2    0    0 -0.75459967210E+03 -0.27314672038E+02  0.64427838233E+03  0.99260333990E+03  0.00000000000E+00 0.  1.
<mgrwt>
<rscale>  0 0.15156931E+04</rscale>
<asrwt>0</asrwt>
<pdfrwt beam="1">  1        2 0.25493788E+00 0.15156931E+04</pdfrwt>
<pdfrwt beam="2">  1       -2 0.53321391E-01 0.15156931E+04</pdfrwt>
<totfact> 0.33149970E+01</totfact>
</mgrwt>
</event>
<event>
 6    1  0.1878398E-004  0.4443568E+04  0.7818608E-02  0.7920592E-01
          2   -1    0    0  501    0  0.00000000000E+00  0.00000000000E+00  0.31105188965E+04  0.31105188965E+04  0.00000000000E+00 0.  1.
         -2   -1    0    0    0  501 -0.00000000000E+00 -0.00000000000E+00 -0.15869775683E+04  0.15869775683E+04  0.00000000000E+00 0. -1.
         23    2    1    2    0    0  0.26140680812E+03 -0.18326074073E+04 -0.53492024154E+03  0.19290948569E+04  0.92107945582E+02 0.  0.
         11    1    3    3    0    0  0.12753346380E+03 -0.69352683981E+03 -0.16772955200E+03  0.72482926578E+03  0.00000000000E+00 0. -1.
        -11    1    3    3    0    0  0.13387334432E+03 -0.11390805675E+04 -0.36719068954E+03  0.12042655912E+04  0.00000000000E+00 0.  1.
         22    1    1    2    0    0 -0.26140680812E+03  0.18326074073E+04  0.20584615697E+04  0.27684016079E+04  0.00000000000E+00 0.  1.
<mgrwt>
<rscale>  0 0.44435678E+04</rscale>
<asrwt>0</asrwt>
<pdfrwt beam="1">  1        2 0.47854137E+00 0.44435678E+04</pdfrwt>
<pdfrwt beam="2">  1       -2 0.24415040E+00 0.44435678E+04</pdfrwt>
<totfact> 0.78688548E-02</totfact>
</mgrwt>
</event>
<event>
 6    1  0.1878398E-004  0.1404619E+04  0.7818608E-02  0.8950482E-01
          2   -1    0    0  501    0  0.00000000000E+00  0.00000000000E+00  0.13813041200E+04  0.13813041200E+04  0.00000000000E+00 0. -1.
         -2   -1    0    0    0  501 -0.00000000000E+00 -0.00000000000E+00 -0.35708187395E+03  0.35708187395E+03  0.00000000000E+00 0.  1.
         23    2    1    2    0    0 -0.37887120026E+03 -0.23844404857E+03 -0.15051079905E+03  0.48124770485E+03  0.92449457038E+02 0.  0.
         13    1    3    3    0    0 -0.22881284196E+03 -0.92889718156E+02 -0.64831194348E+02  0.25531725391E+03  0.00000000000E+00 0.  1.
        -13    1    3    3    0    0 -0.15005835830E+03 -0.14555433042E+03 -0.85679604704E+02  0.22593045094E+03  0.00000000000E+00 0. -1.
         22    1    1    2    0    0  0.37887120026E+03  0.23844404857E+03  0.11747330451E+04  0.12571382891E+04  0.00000000000E+00 0. -1.
<mgrwt>
<rscale>  0 0.14046190E+04</rscale>
<asrwt>0</asrwt>
<pdfrwt beam="1">  1        2 0.21250832E+00 0.14046190E+04</pdfrwt>
<pdfrwt beam="2">  1       -2 0.54935674E-01 0.14046190E+04</pdfrwt>
<totfact> 0.44970532E+01</totfact>
</mgrwt>
</event>
<event>
 6    1  0.1878398E-004  0.5249925E+04  0.7818608E-02  0.7791069E-01
          2   -1    0    0  501    0  0.00000000000E+00  0.00000000000E+00  0.34849833398E+04  0.34849833398E+04  0.00000000000E+00 0.  1.
         -2   -1    0    0    0  501 -0.00000000000E+00 -0.00000000000E+00 -0.19771765393E+04  0.19771765393E+04  0.00000000000E+00 0. -1.
         23    2    1    2    0    0 -0.23226889152E+04  0.48656806431E+03 -0.41143101804E+03  0.24100940080E+04  0.87437788817E+02 0.  0.
         11    1    3    3    0    0 -0.51388379434E+03  0.92424984496E+02 -0.12415489458E+03  0.53668740408E+03  0.00000000000E+00 0. -1.
        -11    1    3    3    0    0 -0.18088051208E+04  0.39414307981E+03 -0.28727612346E+03  0.18734066039E+04  0.00000000000E+00 0.  1.
         22    1    1    2    0    0  0.23226889152E+04 -0.48656806431E+03  0.19192378185E+04  0.30520658711E+04  0.00000000000E+00 0.  1.
<mgrwt>
<rscale>  0 0.52499247E+04</rscale>
<asrwt>0</asrwt>
<pdfrwt beam="1">  1        2 0.53615128E+00 0.52499247E+04</pdfrwt>
<pdfrwt beam="2">  1       -2 0.30418101E+00 0.52499247E+04</pdfrwt>
<totfact> 0.17777012E-02</totfact>
</mgrwt>
</event>
<event>
 6    1  0.1878398E-004  0.2635351E+04  0.7818608E-02  0.8356292E-01
          1   -1    0    0  501    0  0.00000000000E+00  0.00000000000E+00  0.67646402441E+03  0.67646402441E+03  0.00000000000E+00 0. -1.
         -1   -1    0    0    0  501 -0.00000000000E+00 -0.00000000000E+00 -0.25666828569E+04  0.25666828569E+04  0.00000000000E+00 0.  1.
         23    2    1    2    0    0  0.11221441217E+04 -0.22638123383E+03 -0.17455579097E+04  0.20892913117E+04  0.87805899668E+02 0.  0.
         13    1    3    3    0    0  0.78280950528E+03 -0.18634742189E+03 -0.12768492723E+04  0.15092581447E+04  0.00000000000E+00 0. -1.
        -13    1    3    3    0    0  0.33933461644E+03 -0.40033811934E+02 -0.46870863735E+03  0.58003316694E+03  0.00000000000E+00 0.  1.
         22    1    1    2    0    0 -0.11221441217E+04  0.22638123383E+03 -0.14466092278E+03  0.11538555696E+04  0.00000000000E+00 0. -1.
<mgrwt>
<rscale>  0 0.26353509E+04</rscale>
<asrwt>0</asrwt>
<pdfrwt beam="1">  1        1 0.10407139E+00 0.26353509E+04</pdfrwt>
<pdfrwt beam="2">  1       -1 0.39487428E+00 0.26353509E+04</pdfrwt>
<totfact> 0.19531709E-01</totfact>
</mgrwt>
</event>
<event>
 6    1  0.1878398E-004  0.1711165E+04  0.7818608E-02  0.8755022E-01
          1   -1    0    0  501    0  0.00000000000E+00  0.00000000000E+00  0.26853486675E+04  0.26853486675E+04  0.00000000000E+00 0.  1.
         -1   -1    0    0    0  501 -0.00000000000E+00 -0.00000000000E+00 -0.27259826682E+03  0.27259826682E+03  0.00000000000E+00 0. -1.
         23    2    1    2    0    0  0.33762623218E+03 -0.48894835407E+03  0.15206918387E+03  0.62048216888E+03  0.93867564220E+02 0.  0.
         11    1    3    3    0    0  0.21502436865E+03 -0.38373333377E+03  0.11688389945E+03  0.45513580007E+03  0.00000000000E+00 0. -1.
        -11    1    3    3    0    0  0.12260186353E+03 -0.10521502030E+03  0.35185284422E+02  0.16534636880E+03  0.00000000000E+00 0.  1.
         22    1    1    2    0    0 -0.33762623218E+03  0.48894835407E+03  0.22606812168E+04  0.23374647654E+04  0.00000000000E+00 0.  1.
<mgrwt>
<rscale>  0 0.17111650E+04</rscale>
<asrwt>0</asrwt>
<pdfrwt beam="1">  1        1 0.41313055E+00 0.17111650E+04</pdfrwt>
<pdfrwt beam="2">  1       -1 0.41938197E-01 0.17111650E+04</pdfrwt>
<totfact> 0.53463811E+00</totfact>
</mgrwt>
</event>
<event>
 6    1  0.1878398E-004  0.1845741E+04  0.7818608E-02  0.8682346E-01
         -2   -1    0    0    0  501 -0.00000000000E+00  0.00000000000E+00  0.16134611710E+04  0.16134611710E+04  0.00000000000E+00 0. -1.
          2   -1    0    0  501    0  0.00000000000E+00 -0.00000000000E+00 -0.52786542284E+03  0.52786542284E+03  0.00000000000E+00 0.  1.
         23    2    1    2    0    0  0.45394967829E+03  0.73742805450E+03  0.90689633884E+03  0.12571298257E+04  0.89688255758E+02 0.  0.
         11    1    3    3    0    0  0.24828729356E+03  0.48602371341E+03  0.56701842715E+03  0.78700414667E+03  0.00000000000E+00 0.  1.
        -11    1    3    3    0    0  0.20566238473E+03  0.25140434109E+03  0.33987791169E+03  0.47012567901E+03  0.00000000000E+00 0. -1.
         22    1    1    2    0    0 -0.45394967829E+03 -0.73742805450E+03  0.17869940936E+03  0.88419676819E+03  0.00000000000E+00 0.  1.
<mgrwt>
<rscale>  0 0.18457414E+04</rscale>
<asrwt>0</asrwt>
<pdfrwt beam="1">  1        2 0.81210066E-01 0.18457414E+04</pdfrwt>
<pdfrwt beam="2">  1       -2 0.24822479E+00 0.18457414E+04</pdfrwt>
<totfact> 0.35817198E+00</totfact>
</mgrwt>
</event>
<event>
 6    1  0.1878398E-004  0.2790469E+04  0.7818608E-02  0.8306234E-01
         -1   -1    0    0    0  501 -0.00000000000E+00  0.00000000000E+00  0.84668393918E+03  0.84668393918E+03  0.00000000000E+00 0. -1.
          1   -1    0    0  501    0  0.00000000000E+00 -0.00000000000E+00 -0.22991803435E+04  0.22991803435E+04  0.00000000000E+00 0.  1.
         23    2    1    2    0    0  0.12255178645E+04  0.46408843310E+03 -0.19203942262E+03  0.13276167988E+04  0.91733933068E+02 0.  0.
         13    1    3    3    0    0  0.71471793570E+03  0.24539869348E+03 -0.71511310297E+02  0.75904948052E+03  0.00000000000E+00 0. -1.
        -13    1    3    3    0    0  0.51079992884E+03  0.21868973962E+03 -0.12052811233E+03  0.56856731825E+03  0.00000000000E+00 0.  1.
         22    1    1    2    0    0 -0.12255178645E+04 -0.46408843310E+03 -0.12604569817E+04  0.18182474839E+04  0.00000000000E+00 0.  1.
<mgrwt>
<rscale>  0 0.27904688E+04</rscale>
<asrwt>0</asrwt>
<pdfrwt beam="1">  1        1 0.35372004E+00 0.27904688E+04</pdfrwt>
<pdfrwt beam="2">  1       -1 0.13025907E+00 0.27904688E+04</pdfrwt>
<totfact> 0.81449689E-01</totfact>
</mgrwt>
</event>
<event>
 6    1  0.1878398E-004  0.1496956E+04  0.7818608E-02  0.8886480E-01
         -2   -1    0    0    0  501 -0.00000000000E+00  0.00000000000E+00  0.30408893892E+03  0.30408893892E+03  0.00000000000E+00 0. -1.
          2   -1    0    0  501    0  0.00000000000E+00 -0.00000000000E+00 -0.18422877185E+04  0.18422877185E+04  0.00000000000E+00 0.  1.
         23    2    1    2    0    0 -0.59178052843E+03  0.30191014618E+03 -0.28723389601E+03  0.72994908421E+03  0.94701765182E+02 0.  0.
         11    1    3    3    0    0 -0.11521145568E+03  0.63036143451E+02 -0.17440747581E+02  0.13248175187E+03  0.00000000000E+00 0. -1.
        -11    1    3    3    0    0 -0.47656907275E+03  0.23887400273E+03 -0.26979314843E+03  0.59746733235E+03  0.00000000000E+00 0.  1.
         22    1    1    2    0    0  0.59178052843E+03 -0.30191014618E+03 -0.12509648836E+04  0.14164275732E+04  0.00000000000E+00 0. -1.
<mgrwt>
<rscale>  0 0.14969560E+04</rscale>
<asrwt>0</asrwt>
<pdfrwt beam="1">  1        2 0.28342888E+00 0.14969560E+04</pdfrwt>
<pdfrwt beam="2">  1       -2 0.46782914E-01 0.14969560E+04</pdfrwt>
<totfact> 0.34219538E+01</totfact>
</mgrwt>
</event>
<event>
 6    1  0.1878398E-004  0.1441256E+04  0.7818608E-02  0.8924485E-01
         -2   -1    0    0    0  501 -0.00000000000E+00  0.00000000000E+00  0.21841599004E+03  0.21841599004E+03  0.00000000000E+00 0. -1.
          2   -1    0    0  501    0  0.00000000000E+00 -0.00000000000E+00 -0.23775951535E+04  0.23775951535E+04  0.00000000000E+00 0.  1.
         23    2    1    2    0    0  0.66496223855E+03 -0.25803788558E+03 -0.93859178880E+03  0.11822955186E+04  0.90054528616E+02 0.  0.
         11    1    3    3    0    0  0.28355175456E+03 -0.14273397535E+03 -0.47048436164E+03  0.56756507978E+03  0.00000000000E+00 0. -1.
        -11    1    3    3    0    0  0.38141048399E+03 -0.11530391023E+03 -0.46810742716E+03  0.61473043879E+03  0.00000000000E+00 0.  1.
         22    1    1    2    0    0 -0.66496223855E+03  0.25803788558E+03 -0.12205873746E+04  0.14137156249E+04  0.00000000000E+00 0.  1.
<mgrwt>
<rscale>  0 0.14412561E+04</rscale>
<asrwt>0</asrwt>
<pdfrwt beam="1">  1        2 0.36578388E+00 0.14412561E+04</pdfrwt>
<pdfrwt beam="2">  1       -2 0.33602459E-01 0.14412561E+04</pdfrwt>
<totfact> 0.32982050E+01</totfact>
</mgrwt>
</event>
<event>
 6    1  0.1878398E-004  0.2208459E+04  0.7818608E-02  0.8514915E-01
         -1   -1    0    0    0  501 -0.00000000000E+00  0.00000000000E+00  0.81386567182E+03  0.81386567182E+03  0.00000000000E+00 0.  1.
          1   -1    0    0  501    0  0.00000000000E+00 -0.00000000000E+00 -0.14981868992E+04  0.14981868992E+04  0.00000000000E+00 0. -1.
         23    2    1    2    0    0  0.81431996606E+03  0.48268738621E+03  0.24627295670E+03  0.98460778670E+03  0.11268542277E+03 0.  0.
         13    1    3    3    0    0  0.48922614511E+03  0.26508235641E+03  0.91485584995E+02  0.56389758733E+03  0.00000000000E+00 0.  1.
        -13    1    3    3    0    0  0.32509382095E+03  0.21760502979E+03  0.15478737171E+03  0.42071019937E+03  0.00000000000E+00 0. -1.
         22    1    1    2    0    0 -0.81431996606E+03 -0.48268738621E+03 -0.93059418406E+03  0.13274447843E+04  0.00000000000E+00 0. -1.
<mgrwt>
<rscale>  0 0.22084591E+04</rscale>
<asrwt>0</asrwt>
<pdfrwt beam="1">  1        1 0.23049029E+00 0.22084591E+04</pdfrwt>
<pdfrwt beam="2">  1       -1 0.12521010E+00 0.22084591E+04</pdfrwt>
<totfact> 0.33309848E+00</totfact>
</mgrwt>
</event>
<event>
 6    1  0.1878398E-004  0.2066547E+04  0.7818608E-02  0.8576124E-01
          1   -1    0    0  501    0  0.00000000000E+00  0.00000000000E+00  0.83644623244E+03  0.83644623244E+03  0.00000000000E+00 0.  1.
         -1   -1    0    0    0  501 -0.00000000000E+00 -0.00000000000E+00 -0.12764173007E+04  0.12764173007E+04  0.00000000000E+00 0. -1.
         23    2    1    2    0    0 -0.23672793683E+02  0.43711128335E+03  0.73425848618E+03  0.85969087078E+03  0.91138321202E+02 0.  0.
         13    1    3    3    0    0 -0.50151457948E+02  0.17890559859E+03  0.26905329254E+03  0.32697409098E+03  0.00000000000E+00 0.  1.
        -13    1    3    3    0    0  0.26478664265E+02  0.25820568475E+03  0.46520519363E+03  0.53271677980E+03  0.00000000000E+00 0. -1.
         22    1    1    2    0    0  0.23672793683E+02 -0.43711128335E+03 -0.11742295545E+04  0.12531726624E+04  0.00000000000E+00 0. -1.
<mgrwt>
<rscale>  0 0.20665473E+04</rscale>
<asrwt>0</asrwt>
<pdfrwt beam="1">  1        1 0.12868404E+00 0.20665473E+04</pdfrwt>
<pdfrwt beam="2">  1       -1 0.19637189E+00 0.20665473E+04</pdfrwt>
<totfact> 0.30246694E+00</totfact>
</mgrwt>
</event>
<event>
 6    1  0.1878398E-004  0.1356071E+04  0.7818608E-02  0.8986245E-01
          2   -1    0    0  501    0  0.00000000000E+00  0.00000000000E+00  0.13913839825E+04  0.13913839825E+04  0.00000000000E+00 0.  1.
         -2   -1    0    0    0  501 -0.00000000000E+00 -0.00000000000E+00 -0.33041344034E+03  0.33041344034E+03  0.00000000000E+00 0. -1.
         23    2    1    2    0    0 -0.25715059894E+03 -0.23767429823E+03 -0.20193949239E+03  0.41124133554E+03  0.75659598862E+02 0.  0.
         11    1    3    3    0    0 -0.24218843423E+02 -0.52373070923E+02 -0.14511478656E+02  0.59498520548E+02  0.00000000000E+00 0.  1.
        -11    1    3    3    0    0 -0.23293175552E+03 -0.18530122731E+03 -0.18742801373E+03  0.35174281500E+03  0.00000000000E+00 0. -1.
         22    1    1    2    0    0  0.25715059894E+03  0.23767429823E+03  0.12629100345E+04  0.13105560873E+04  0.00000000000E+00 0.  1.
<mgrwt>
<rscale>  0 0.13560707E+04</rscale>
<asrwt>0</asrwt>
<pdfrwt beam="1">  1        2 0.21405907E+00 0.13560707E+04</pdfrwt>
<pdfrwt beam="2">  1       -2 0.50832838E-01 0.13560707E+04</pdfrwt>
<totfact> 0.52267452E+01</totfact>
</mgrwt>
</event>
<event>
 6    1  0.1878398E-004  0.1657324E+04  0.7818608E-02  0.8786086E-01
         -2   -1    0    0    0  501 -0.00000000000E+00  0.00000000000E+00  0.65100456108E+03  0.65100456108E+03  0.00000000000E+00 0. -1.
          2   -1    0    0  501    0  0.00000000000E+00 -0.00000000000E+00 -0.10548013747E+04  0.10548013747E+04  0.00000000000E+00 0.  1.
         23    2    1    2    0    0  0.49819435041E+03 -0.28633591330E+02  0.47519934905E+03  0.69503803595E+03  0.90807250467E+02 0.  0.
         11    1    3    3    0    0  0.16722026072E+03 -0.50988366652E+02  0.18107415094E+03  0.25169480977E+03  0.00000000000E+00 0. -1.
        -11    1    3    3    0    0  0.33097408969E+03  0.22354775323E+02  0.29412519811E+03  0.44334322617E+03  0.00000000000E+00 0.  1.
         22    1    1    2    0    0 -0.49819435041E+03  0.28633591330E+02 -0.87899616266E+03  0.10107678998E+04  0.00000000000E+00 0.  1.
<mgrwt>
<rscale>  0 0.16573238E+04</rscale>
<asrwt>0</asrwt>
<pdfrwt beam="1">  1        2 0.16227713E+00 0.16573238E+04</pdfrwt>
<pdfrwt beam="2">  1       -2 0.10015455E+00 0.16573238E+04</pdfrwt>
<totfact> 0.18268311E+01</totfact>
</mgrwt>
</event>
<event>
 6    1  0.1878398E-004  0.1914484E+04  0.7818608E-02  0.8647680E-01
         -1   -1    0    0    0  501 -0.00000000000E+00  0.00000000000E+00  0.13454732918E+04  0.13454732918E+04  0.00000000000E+00 0. -1.
          1   -1    0    0  501    0  0.00000000000E+00 -0.00000000000E+00 -0.68103367381E+03  0.68103367381E+03  0.00000000000E+00 0.  1.
         23    2    1    2    0    0 -0.50203248833E+03  0.61735691345E+03 -0.22545618524E+03  0.83273951819E+03  0.97254489724E+02 0.  0.
         11    1    3    3    0    0 -0.39921791926E+03  0.51925418888E+03 -0.21848200027E+03  0.69045944426E+03  0.00000000000E+00 0.  1.
        -11    1    3    3    0    0 -0.10281456907E+03  0.98102724575E+02 -0.69741849619E+01  0.14228007393E+03  0.00000000000E+00 0. -1.
         22    1    1    2    0    0  0.50203248833E+03 -0.61735691345E+03  0.88989580324E+03  0.11937674474E+04  0.00000000000E+00 0.  1.
<mgrwt>
<rscale>  0 0.19144844E+04</rscale>
<asrwt>0</asrwt>
<pdfrwt beam="1">  1        1 0.10477441E+00 0.19144844E+04</pdfrwt>
<pdfrwt beam="2">  1       -1 0.20699589E+00 0.19144844E+04</pdfrwt>
<totfact> 0.35759936E+00</totfact>
</mgrwt>
</event>
<event>
 6    1  0.1878398E-004  0.1096665E+04  0.7818608E-02  0.9208448E-01
          2   -1    0    0  501    0  0.00000000000E+00  0.00000000000E+00  0.80752327758E+03  0.80752327758E+03  0.00000000000E+00 0.  1.
         -2   -1    0    0    0  501 -0.00000000000E+00 -0.00000000000E+00 -0.37233434667E+03  0.37233434667E+03  0.00000000000E+00 0. -1.
         23    2    1    2    0    0 -0.19897185301E+03 -0.73217540582E+02  0.75893694914E+03  0.79286487775E+03  0.87742891798E+02 0.  0.
         11    1    3    3    0    0 -0.17065430993E+03 -0.48343049607E+02  0.70561863612E+03  0.72756965549E+03  0.00000000000E+00 0.  1.
        -11    1    3    3    0    0 -0.28317543082E+02 -0.24874490974E+02  0.53318313021E+02  0.65295222266E+02  0.00000000000E+00 0. -1.
         22    1    1    2    0    0  0.19897185301E+03  0.73217540582E+02 -0.32374801822E+03  0.38699274650E+03  0.00000000000E+00 0. -1.
<mgrwt>
<rscale>  0 0.10966652E+04</rscale>
<asrwt>0</asrwt>
<pdfrwt beam="1">  1        2 0.12423435E+00 0.10966652E+04</pdfrwt>
<pdfrwt beam="2">  1       -2 0.57282207E-01 0.10966652E+04</pdfrwt>
<totfact> 0.96497074E+01</totfact>
</mgrwt>
</event>
<event>
 6    1  0.1878398E-004  0.2035340E+04  0.7818608E-02  0.8590274E-01
         -1   -1    0    0    0  501 -0.00000000000E+00  0.00000000000E+00  0.18248544491E+04  0.18248544491E+04  0.00000000000E+00 0.  1.
          1   -1    0    0  501    0  0.00000000000E+00 -0.00000000000E+00 -0.56752587460E+03  0.56752587460E+03  0.00000000000E+00 0. -1.
         23    2    1    2    0    0  0.63952820397E+03  0.15949928972E+03 -0.27851194637E+03  0.72108069387E+03  0.89174635974E+02 0.  0.
         13    1    3    3    0    0  0.25676075234E+03  0.46988394426E+02 -0.15435182572E+03  0.30324656512E+03  0.00000000000E+00 0. -1.
        -13    1    3    3    0    0  0.38276745163E+03  0.11251089529E+03 -0.12416012066E+03  0.41783412875E+03  0.00000000000E+00 0.  1.
         22    1    1    2    0    0 -0.63952820397E+03 -0.15949928972E+03  0.15358405208E+04  0.16712996298E+04  0.00000000000E+00 0.  1.
<mgrwt>
<rscale>  0 0.20353399E+04</rscale>
<asrwt>0</asrwt>
<pdfrwt beam="1">  1        1 0.87311674E-01 0.20353399E+04</pdfrwt>
<pdfrwt beam="2">  1       -1 0.28074684E+00 0.20353399E+04</pdfrwt>
<totfact> 0.15106718E+00</totfact>
</mgrwt>
</event>
<event>
 6    1  0.1878398E-004  0.1911460E+04  0.7818608E-02  0.8649173E-01
         -2   -1    0    0    0  501 -0.00000000000E+00  0.00000000000E+00  0.92857001376E+03  0.92857001376E+03  0.00000000000E+00 0. -1.
          2   -1    0    0  501    0  0.00000000000E+00 -0.00000000000E+00 -0.98368485071E+03  0.98368485071E+03  0.00000000000E+00 0.  1.
         23    2    1    2    0    0 -0.32724876899E+03 -0.87492416336E+03  0.16413073661E+03  0.95274839239E+03  0.90590021861E+02 0.  0.
         13    1    3    3    0    0 -0.23265294874E+03 -0.53445799383E+03  0.70187742009E+02  0.58711077392E+03  0.00000000000E+00 0.  1.
        -13    1    3    3    0    0 -0.94595820253E+02 -0.34046616953E+03  0.93942994605E+02  0.36563761847E+03  0.00000000000E+00 0. -1.
         22    1    1    2    0    0  0.32724876899E+03  0.87492416336E+03 -0.21924557356E+03  0.95950647208E+03  0.00000000000E+00 0. -1.
<mgrwt>
<rscale>  0 0.19114604E+04</rscale>
<asrwt>0</asrwt>
<pdfrwt beam="1">  1        2 0.15133613E+00 0.19114604E+04</pdfrwt>
<pdfrwt beam="2">  1       -2 0.14285693E+00 0.19114604E+04</pdfrwt>
<totfact> 0.82270582E+00</totfact>
</mgrwt>
</event>
<event>
 6    1  0.1878398E-004  0.2940804E+04  0.7818608E-02  0.8260840E-01
          2   -1    0    0  501    0  0.00000000000E+00  0.00000000000E+00  0.21430685436E+04  0.21430685436E+04  0.00000000000E+00 0. -1.
         -2   -1    0    0    0  501 -0.00000000000E+00 -0.00000000000E+00 -0.10088718901E+04  0.10088718901E+04  0.00000000000E+00 0.  1.
         23    2    1    2    0    0  0.11091497828E+04 -0.91258164825E+02  0.15953495847E+04  0.19472814283E+04  0.90682800603E+02 0.  0.
         11    1    3    3    0    0  0.66188250743E+03 -0.65935794980E+02  0.10272967863E+04  0.12238360470E+04  0.00000000000E+00 0. -1.
        -11    1    3    3    0    0  0.44726727537E+03 -0.25322369845E+02  0.56805279841E+03  0.72344538137E+03  0.00000000000E+00 0.  1.
         22    1    1    2    0    0 -0.11091497828E+04  0.91258164825E+02 -0.46115293121E+03  0.12046590054E+04  0.00000000000E+00 0.  1.
<mgrwt>
<rscale>  0 0.29408037E+04</rscale>
<asrwt>0</asrwt>
<pdfrwt beam="1">  1        2 0.32970285E+00 0.29408037E+04</pdfrwt>
<pdfrwt beam="2">  1       -2 0.15521106E+00 0.29408037E+04</pdfrwt>
<totfact> 0.13078038E+00</totfact>
</mgrwt>
</event>
<event>
 6    1  0.1878398E-004  0.2529431E+04  0.7818608E-02  0.8392575E-01
         -2   -1    0    0    0  501 -0.00000000000E+00  0.00000000000E+00  0.96725163189E+03  0.96725163189E+03  0.00000000000E+00 0. -1.
          2   -1    0    0  501    0  0.00000000000E+00 -0.00000000000E+00 -0.16536595304E+04  0.16536595304E+04  0.00000000000E+00 0.  1.
         23    2    1    2    0    0  0.33350626163E+03  0.98298079451E+03  0.40212971975E+03  0.11167862289E+04  0.89585158608E+02 0.  0.
         11    1    3    3    0    0  0.24923304653E+03  0.60200061534E+03  0.24289703848E+03  0.69535661617E+03  0.00000000000E+00 0. -1.
        -11    1    3    3    0    0  0.84273215102E+02  0.38098017917E+03  0.15923268127E+03  0.42142961273E+03  0.00000000000E+00 0.  1.
         22    1    1    2    0    0 -0.33350626163E+03 -0.98298079451E+03 -0.10885376183E+04  0.15041249334E+04  0.00000000000E+00 0.  1.
<mgrwt>
<rscale>  0 0.25294307E+04</rscale>
<asrwt>0</asrwt>
<pdfrwt beam="1">  1        2 0.25440915E+00 0.25294307E+04</pdfrwt>
<pdfrwt beam="2">  1       -2 0.14880795E+00 0.25294307E+04</pdfrwt>
<totfact> 0.28342403E+00</totfact>
</mgrwt>
</event>
<event>
 6    1  0.1878398E-004  0.1566714E+04  0.7818608E-02  0.8841262E-01
          1   -1    0    0  501    0  0.00000000000E+00  0.00000000000E+00  0.91934429123E+03  0.91934429123E+03  0.00000000000E+00 0. -1.
         -1   -1    0    0    0  501 -0.00000000000E+00 -0.00000000000E+00 -0.66748428301E+03  0.66748428301E+03  0.00000000000E+00 0.  1.
         23    2    1    2    0    0  0.44195391489E+03 -0.42209035301E+03 -0.36550432457E+03  0.71813861320E+03  0.92984555179E+02 0.  0.
         11    1    3    3    0    0  0.25263947294E+03 -0.30162894387E+03 -0.22157139188E+03  0.45155354585E+03  0.00000000000E+00 0. -1.
        -11    1    3    3    0    0  0.18931444196E+03 -0.12046140913E+03 -0.14393293269E+03  0.26658506736E+03  0.00000000000E+00 0.  1.
         22    1    1    2    0    0 -0.44195391489E+03  0.42209035301E+03  0.61736433280E+03  0.86868996104E+03  0.00000000000E+00 0. -1.
<mgrwt>
<rscale>  0 0.15667136E+04</rscale>
<asrwt>0</asrwt>
<pdfrwt beam="1">  1        1 0.14143758E+00 0.15667136E+04</pdfrwt>
<pdfrwt beam="2">  1       -1 0.10268989E+00 0.15667136E+04</pdfrwt>
<totfact> 0.15139661E+01</totfact>
</mgrwt>
</event>
<event>
 6    1  0.1878398E-004  0.2590644E+04  0.7818608E-02  0.8371386E-01
          1   -1    0    0  501    0  0.00000000000E+00  0.00000000000E+00  0.22675867160E+04  0.22675867160E+04  0.00000000000E+00 0.  1.
         -1   -1    0    0    0  501 -0.00000000000E+00 -0.00000000000E+00 -0.73993155008E+03  0.73993155008E+03  0.00000000000E+00 0. -1.
         23    2    1    2    0    0  0.75441394724E+03  0.88792640795E+03  0.11112620264E+03  0.11733677778E+04  0.83001201353E+02 0.  0.
         11    1    3    3    0    0  0.27201276935E+03  0.36713980275E+03  0.70417279495E+02  0.46232150577E+03  0.00000000000E+00 0. -1.
        -11    1    3    3    0    0  0.48240117789E+03  0.52078660520E+03  0.40708923147E+02  0.71104627206E+03  0.00000000000E+00 0.  1.
         22    1    1    2    0    0 -0.75441394724E+03 -0.88792640795E+03  0.14165289633E+04  0.18341504883E+04  0.00000000000E+00 0.  1.
<mgrwt>
<rscale>  0 0.25906439E+04</rscale>
<asrwt>0</asrwt>
<pdfrwt beam="1">  1        1 0.34885949E+00 0.25906439E+04</pdfrwt>
<pdfrwt beam="2">  1       -1 0.11383562E+00 0.25906439E+04</pdfrwt>
<totfact> 0.12140332E+00</totfact>
</mgrwt>
</event>
<event>
 6    1  0.1878398E-004  0.3692384E+04  0.7818608E-02  0.8069652E-01
         -2   -1    0    0    0  501 -0.00000000000E+00  0.00000000000E+00  0.17499213632E+04  0.17499213632E+04  0.00000000000E+00 0. -1.
          2   -1    0    0  501    0  0.00000000000E+00 -0.00000000000E+00 -0.19477584068E+04  0.19477584068E+04  0.00000000000E+00 0.  1.
         23    2    1    2    0    0  0.66240219590E+03 -0.10522297316E+04  0.12661526628E+04  0.17769429484E+04  0.91758374646E+02 0.  0.
         13    1    3    3    0    0  0.65482467172E+02 -0.89119502447E+02  0.15078969481E+03  0.18699671464E+03  0.00000000000E+00 0.  1.
        -13    1    3    3    0    0  0.59691972872E+03 -0.96311022914E+03  0.11153629680E+04  0.15899462338E+04  0.00000000000E+00 0. -1.
         22    1    1    2    0    0 -0.66240219590E+03  0.10522297316E+04 -0.14639897064E+04  0.19207368216E+04  0.00000000000E+00 0.  1.
<mgrwt>
<rscale>  0 0.36923835E+04</rscale>
<asrwt>0</asrwt>
<pdfrwt beam="1">  1        2 0.29965514E+00 0.36923835E+04</pdfrwt>
<pdfrwt beam="2">  1       -2 0.26921867E+00 0.36923835E+04</pdfrwt>
<totfact> 0.28317085E-01</totfact>
</mgrwt>
</event>
<event>
 6    1  0.1878398E-004  0.1683213E+04  0.7818608E-02  0.8770997E-01
          1   -1    0    0  501    0  0.00000000000E+00  0.00000000000E+00  0.60851242446E+03  0.60851242446E+03  0.00000000000E+00 0. -1.
         -1   -1    0    0    0  501 -0.00000000000E+00 -0.00000000000E+00 -0.11639885571E+04  0.11639885571E+04  0.00000000000E+00 0.  1.
         23    2    1    2    0    0  0.40618807349E+03 -0.71514169498E+03 -0.45400166421E+03  0.94381921959E+03  0.90889015928E+02 0.  0.
         11    1    3    3    0    0  0.23353887271E+03 -0.45618189796E+03 -0.23855052038E+03  0.56528636979E+03  0.00000000000E+00 0. -1.
        -11    1    3    3    0    0  0.17264920077E+03 -0.25895979702E+03 -0.21545114383E+03  0.37853284980E+03  0.00000000000E+00 0.  1.
         22    1    1    2    0    0 -0.40618807349E+03  0.71514169498E+03 -0.10147446846E+03  0.82868176201E+03  0.00000000000E+00 0.  1.
<mgrwt>
<rscale>  0 0.16832130E+04</rscale>
<asrwt>0</asrwt>
<pdfrwt beam="1">  1        1 0.93617297E-01 0.16832130E+04</pdfrwt>
<pdfrwt beam="2">  1       -1 0.17907516E+00 0.16832130E+04</pdfrwt>
<totfact> 0.67566092E+00</totfact>
</mgrwt>
</event>
<event>
 6    1  0.1878398E-004  0.2350978E+04  0.7818608E-02  0.8458088E-01
          2   -1    0    0  501    0  0.00000000000E+00  0.00000000000E+00  0.25762482206E+04  0.25762482206E+04  0.00000000000E+00 0.  1.
         -2   -1    0    0    0  501 -0.00000000000E+00 -0.00000000000E+00 -0.53635128352E+03  0.53635128352E+03  0.00000000000E+00 0. -1.
         23    2    1    2    0    0 -0.29021639750E+03  0.86349908013E+03  0.41464198680E+02  0.91633230074E+03  0.89941018672E+02 0.  0.
         11    1    3    3    0    0 -0.11794376679E+03  0.49119172923E+03  0.21000772106E+02  0.50558983318E+03  0.00000000000E+00 0.  1.
        -11    1    3    3    0    0 -0.17227263071E+03  0.37230735091E+03  0.20463426574E+02  0.41074246756E+03  0.00000000000E+00 0. -1.
         22    1    1    2    0    0  0.29021639750E+03 -0.86349908013E+03  0.19984327384E+04  0.21962672034E+04  0.00000000000E+00 0.  1.
<mgrwt>
<rscale>  0 0.23509777E+04</rscale>
<asrwt>0</asrwt>
<pdfrwt beam="1">  1        2 0.39634587E+00 0.23509777E+04</pdfrwt>
<pdfrwt beam="2">  1       -2 0.82515583E-01 0.23509777E+04</pdfrwt>
<totfact> 0.36568486E+00</totfact>
</mgrwt>
</event>
<event>
 6    1  0.1878398E-004  0.1193980E+04  0.7818608E-02  0.9118142E-01
         -1   -1    0    0    0  501 -0.00000000000E+00  0.00000000000E+00  0.72229622967E+03  0.72229622967E+03  0.00000000000E+00 0. -1.
          1   -1    0    0  501    0  0.00000000000E+00 -0.00000000000E+00 -0.49342235241E+03  0.49342235241E+03  0.00000000000E+00 0.  1.
         23    2    1    2    0    0  0.87800724047E+02  0.58522145745E+03  0.78482923046E+02  0.60513643321E+03  0.99183729438E+02 0.  0.
         13    1    3    3    0    0  0.76866653910E+02  0.32037944353E+03  0.28283429138E+01  0.32948364124E+03  0.00000000000E+00 0.  1.
        -13    1    3    3    0    0  0.10934070138E+02  0.26484201392E+03  0.75654580132E+02  0.27565279197E+03  0.00000000000E+00 0. -1.
         22    1    1    2    0    0 -0.87800724047E+02 -0.58522145745E+03  0.15039095422E+03  0.61058214887E+03  0.00000000000E+00 0. -1.
<mgrwt>
<rscale>  0 0.11939801E+04</rscale>
<asrwt>0</asrwt>
<pdfrwt beam="1">  1        1 0.75911131E-01 0.11939801E+04</pdfrwt>
<pdfrwt beam="2">  1       -1 0.11112250E+00 0.11939801E+04</pdfrwt>
<totfact> 0.33315721E+01</totfact>
</mgrwt>
</event>
<event>
 6    1  0.1878398E-004  0.2535827E+04  0.7818608E-02  0.8390332E-01
          2   -1    0    0  501    0  0.00000000000E+00  0.00000000000E+00  0.30437701672E+04  0.30437701672E+04  0.00000000000E+00 0.  1.
         -2   -1    0    0    0  501 -0.00000000000E+00 -0.00000000000E+00 -0.52816218449E+03  0.52816218449E+03  0.00000000000E+00 0. -1.
         23    2    1    2    0    0  0.46711358593E+03  0.73130344961E+03  0.25585027578E+04  0.27031171819E+04  0.88917374920E+02 0.  0.
         11    1    3    3    0    0  0.54548836021E+02  0.12539812450E+03  0.33236141835E+03  0.35939445953E+03  0.00000000000E+00 0. -1.
        -11    1    3    3    0    0  0.41256474991E+03  0.60590532511E+03  0.22261413395E+04  0.23437227223E+04  0.00000000000E+00 0.  1.
         22    1    1    2    0    0 -0.46711358593E+03 -0.73130344961E+03 -0.42894775107E+02  0.86881516982E+03  0.00000000000E+00 0. -1.
<mgrwt>
<rscale>  0 0.25358267E+04</rscale>
<asrwt>0</asrwt>
<pdfrwt beam="1">  1        2 0.46827232E+00 0.25358267E+04</pdfrwt>
<pdfrwt beam="2">  1       -2 0.81255723E-01 0.25358267E+04</pdfrwt>
<totfact> 0.19395146E+00</totfact>
</mgrwt>
</event>
<event>
 6    1  0.1878398E-004  0.2515506E+04  0.7818608E-02  0.8397482E-01
         -3   -1    0    0    0  501 -0.00000000000E+00  0.00000000000E+00  0.10012166202E+04  0.10012166202E+04  0.00000000000E+00 0. -1.
          3   -1    0    0  501    0  0.00000000000E+00 -0.00000000000E+00 -0.15800204383E+04  0.15800204383E+04  0.00000000000E+00 0.  1.
         23    2    1    2    0    0  0.25559968390E+03  0.83513327310E+03  0.63666532363E+03  0.10845259919E+04  0.89861619111E+02 0.  0.
         13    1    3    3    0    0  0.37212778422E+02  0.23669646319E+03  0.14775507558E+03  0.28149879027E+03  0.00000000000E+00 0. -1.
        -13    1    3    3    0    0  0.21838690548E+03  0.59843680991E+03  0.48891024806E+03  0.80302720165E+03  0.00000000000E+00 0.  1.
         22    1    1    2    0    0 -0.25559968390E+03 -0.83513327310E+03 -0.12154691417E+04  0.14967110665E+04  0.00000000000E+00 0.  1.
<mgrwt>
<rscale>  0 0.25155061E+04</rscale>
<asrwt>0</asrwt>
<pdfrwt beam="1">  1        3 0.24308007E+00 0.25155061E+04</pdfrwt>
<pdfrwt beam="2">  1       -3 0.15403333E+00 0.25155061E+04</pdfrwt>
<totfact> 0.56551503E-02</totfact>
</mgrwt>
</event>
<event>
 6    1  0.1878398E-004  0.1721181E+04  0.7818608E-02  0.8749376E-01
          1   -1    0    0  501    0  0.00000000000E+00  0.00000000000E+00  0.19886587356E+04  0.19886587356E+04  0.00000000000E+00 0.  1.
         -1   -1    0    0    0  501 -0.00000000000E+00 -0.00000000000E+00 -0.37241974540E+03  0.37241974540E+03  0.00000000000E+00 0. -1.
         23    2    1    2    0    0  0.25010099436E+02  0.34235902846E+03 -0.26828048040E+03  0.44555013496E+03  0.93302181947E+02 0.  0.
         11    1    3    3    0    0 -0.29431393761E-01  0.20500936619E+03 -0.10374890453E+03  0.22976656911E+03  0.00000000000E+00 0.  1.
        -11    1    3    3    0    0  0.25039530830E+02  0.13734966227E+03 -0.16453157587E+03  0.21578356584E+03  0.00000000000E+00 0. -1.
         22    1    1    2    0    0 -0.25010099436E+02 -0.34235902846E+03  0.18845194706E+04  0.19155283460E+04  0.00000000000E+00 0.  1.
<mgrwt>
<rscale>  0 0.17211807E+04</rscale>
<asrwt>0</asrwt>
<pdfrwt beam="1">  1        1 0.30594749E+00 0.17211807E+04</pdfrwt>
<pdfrwt beam="2">  1       -1 0.57295346E-01 0.17211807E+04</pdfrwt>
<totfact> 0.88904293E+00</totfact>
</mgrwt>
</event>
<event>
 6    1  0.1878398E-004  0.1021646E+04  0.7818608E-02  0.9285117E-01
         -1   -1    0    0    0  501 -0.00000000000E+00  0.00000000000E+00  0.71472946718E+03  0.71472946718E+03  0.00000000000E+00 0. -1.
          1   -1    0    0  501    0  0.00000000000E+00 -0.00000000000E+00 -0.36508969648E+03  0.36508969648E+03  0.00000000000E+00 0.  1.
         23    2    1    2    0    0  0.13897364172E+03 -0.25169027247E+03 -0.26439457066E+03  0.40180748330E+03  0.94250189876E+02 0.  0.
         11    1    3    3    0    0  0.80505920358E+02 -0.57664313076E+02 -0.10154649566E+03  0.14183817186E+03  0.00000000000E+00 0. -1.
        -11    1    3    3    0    0  0.58467721364E+02 -0.19402595939E+03 -0.16284807500E+03  0.25996931144E+03  0.00000000000E+00 0.  1.
         22    1    1    2    0    0 -0.13897364172E+03  0.25169027247E+03  0.61403434135E+03  0.67801168037E+03  0.00000000000E+00 0. -1.
<mgrwt>
<rscale>  0 0.10216464E+04</rscale>
<asrwt>0</asrwt>
<pdfrwt beam="1">  1        1 0.56167646E-01 0.10216464E+04</pdfrwt>
<pdfrwt beam="2">  1       -1 0.10995838E+00 0.10216464E+04</pdfrwt>
<totfact> 0.51836996E+01</totfact>
</mgrwt>
</event>
<event>
 6    1  0.1878398E-004  0.1688588E+04  0.7818608E-02  0.8767900E-01
         -2   -1    0    0    0  501 -0.00000000000E+00  0.00000000000E+00  0.77867809333E+03  0.77867809333E+03  0.00000000000E+00 0. -1.
          2   -1    0    0  501    0  0.00000000000E+00 -0.00000000000E+00 -0.91543959355E+03  0.91543959355E+03  0.00000000000E+00 0.  1.
         23    2    1    2    0    0 -0.68361942974E+03 -0.25209352460E+03 -0.49140556706E+03  0.88377264677E+03  0.93209387853E+02 0.  0.
         11    1    3    3    0    0 -0.25393792880E+03 -0.53954079930E+02 -0.20390559409E+03  0.33011059620E+03  0.00000000000E+00 0.  1.
        -11    1    3    3    0    0 -0.42968150095E+03 -0.19813944467E+03 -0.28749997297E+03  0.55366205058E+03  0.00000000000E+00 0. -1.
         22    1    1    2    0    0  0.68361942974E+03  0.25209352460E+03  0.35464406684E+03  0.81034504010E+03  0.00000000000E+00 0. -1.
<mgrwt>
<rscale>  0 0.16885885E+04</rscale>
<asrwt>0</asrwt>
<pdfrwt beam="1">  1        2 0.14083686E+00 0.16885885E+04</pdfrwt>
<pdfrwt beam="2">  1       -2 0.11979663E+00 0.16885885E+04</pdfrwt>
<totfact> 0.14538589E+01</totfact>
</mgrwt>
</event>
<event>
 6    1  0.1878398E-004  0.3937802E+04  0.7818608E-02  0.8017213E-01
         -1   -1    0    0    0  501 -0.00000000000E+00  0.00000000000E+00  0.23204976054E+04  0.23204976054E+04  0.00000000000E+00 0. -1.
          1   -1    0    0  501    0  0.00000000000E+00 -0.00000000000E+00 -0.16705774368E+04  0.16705774368E+04  0.00000000000E+00 0.  1.
         23    2    1    2    0    0  0.16377223282E+04 -0.10123494014E+04 -0.84854017557E+02  0.19302793611E+04  0.10859315362E+03 0.  0.
         11    1    3    3    0    0  0.34289567303E+03 -0.24627884802E+03 -0.52817470931E+02  0.42546492077E+03  0.00000000000E+00 0. -1.
        -11    1    3    3    0    0  0.12948266551E+04 -0.76607055333E+03 -0.32036546625E+02  0.15048144403E+04  0.00000000000E+00 0.  1.
         22    1    1    2    0    0 -0.16377223282E+04  0.10123494014E+04  0.73477418617E+03  0.20607956811E+04  0.00000000000E+00 0. -1.
<mgrwt>
<rscale>  0 0.39378019E+04</rscale>
<asrwt>0</asrwt>
<pdfrwt beam="1">  1        1 0.25701191E+00 0.39378019E+04</pdfrwt>
<pdfrwt beam="2">  1       -1 0.35699963E+00 0.39378019E+04</pdfrwt>
<totfact> 0.54791185E-02</totfact>
</mgrwt>
</event>
<event>
 6    1  0.1878398E-004  0.2947158E+04  0.7818608E-02  0.8258983E-01
         -1   -1    0    0    0  501 -0.00000000000E+00  0.00000000000E+00  0.63845583793E+03  0.63845583793E+03  0.00000000000E+00 0. -1.
          1   -1    0    0  501    0  0.00000000000E+00 -0.00000000000E+00 -0.34010731620E+04  0.34010731620E+04  0.00000000000E+00 0.  1.
         23    2    1    2    0    0 -0.12184605631E+04  0.34363625382E+03 -0.35227744031E+03  0.13169437627E+04  0.86657141873E+02 0.  0.
         11    1    3    3    0    0 -0.19946883855E+03  0.27415066182E+02 -0.71800590692E+02  0.21376325276E+03  0.00000000000E+00 0. -1.
        -11    1    3    3    0    0 -0.10189917246E+04  0.31622118763E+03 -0.28047684962E+03  0.11031805099E+04  0.00000000000E+00 0.  1.
         22    1    1    2    0    0  0.12184605631E+04 -0.34363625382E+03 -0.24103398838E+04  0.27225852373E+04  0.00000000000E+00 0.  1.
<mgrwt>
<rscale>  0 0.29471580E+04</rscale>
<asrwt>0</asrwt>
<pdfrwt beam="1">  1        1 0.52324203E+00 0.29471580E+04</pdfrwt>
<pdfrwt beam="2">  1       -1 0.98223974E-01 0.29471580E+04</pdfrwt>
<totfact> 0.25329344E-01</totfact>
</mgrwt>
</event>
<event>
 6    1  0.1878398E-004  0.1658506E+04  0.7818608E-02  0.8785390E-01
          1   -1    0    0  501    0  0.00000000000E+00  0.00000000000E+00  0.16986492457E+04  0.16986492457E+04  0.00000000000E+00 0. -1.
         -1   -1    0    0    0  501 -0.00000000000E+00 -0.00000000000E+00 -0.40482788108E+03  0.40482788108E+03  0.00000000000E+00 0.  1.
         23    2    1    2    0    0  0.41783734966E+03 -0.42735107919E+03  0.13733262321E+04  0.15005359858E+04  0.91467530983E+02 0.  0.
         13    1    3    3    0    0  0.23885710412E+03 -0.28911014320E+03  0.77699560699E+03  0.86276275092E+03  0.00000000000E+00 0.  1.
        -13    1    3    3    0    0  0.17898024554E+03 -0.13824093599E+03  0.59633062507E+03  0.63777323483E+03  0.00000000000E+00 0. -1.
         22    1    1    2    0    0 -0.41783734966E+03  0.42735107919E+03 -0.79504867390E+02  0.60294114107E+03  0.00000000000E+00 0.  1.
<mgrwt>
<rscale>  0 0.16585060E+04</rscale>
<asrwt>0</asrwt>
<pdfrwt beam="1">  1        1 0.26133065E+00 0.16585060E+04</pdfrwt>
<pdfrwt beam="2">  1       -1 0.62281214E-01 0.16585060E+04</pdfrwt>
<totfact> 0.11925682E+01</totfact>
</mgrwt>
</event>
<event>
 6    1  0.1878398E-004  0.2363005E+04  0.7818608E-02  0.8453485E-01
          1   -1    0    0  501    0  0.00000000000E+00  0.00000000000E+00  0.24801932580E+04  0.24801932580E+04  0.00000000000E+00 0. -1.
         -1   -1    0    0    0  501 -0.00000000000E+00 -0.00000000000E+00 -0.56283848884E+03  0.56283848884E+03  0.00000000000E+00 0.  1.
         23    2    1    2    0    0  0.67625773953E+03 -0.84163850979E+03  0.15725653833E+04  0.19096475966E+04  0.90067457266E+02 0.  0.
         11    1    3    3    0    0  0.26818172483E+03 -0.29777563899E+03  0.64976493538E+03  0.76340437512E+03  0.00000000000E+00 0.  1.
        -11    1    3    3    0    0  0.40807601470E+03 -0.54386287080E+03  0.92280044795E+03  0.11462432215E+04  0.00000000000E+00 0. -1.
         22    1    1    2    0    0 -0.67625773953E+03  0.84163850979E+03  0.34478938582E+03  0.11333841502E+04  0.00000000000E+00 0. -1.
<mgrwt>
<rscale>  0 0.23630051E+04</rscale>
<asrwt>0</asrwt>
<pdfrwt beam="1">  1        1 0.38156819E+00 0.23630051E+04</pdfrwt>
<pdfrwt beam="2">  1       -1 0.86590538E-01 0.23630051E+04</pdfrwt>
<totfact> 0.16525885E+00</totfact>
</mgrwt>
</event>
<event>
 6    1  0.1878398E-004  0.2444653E+04  0.7818608E-02  0.8422973E-01
         -2   -1    0    0    0  501 -0.00000000000E+00  0.00000000000E+00  0.11353493276E+04  0.11353493276E+04  0.00000000000E+00 0. -1.
          2   -1    0    0  501    0  0.00000000000E+00 -0.00000000000E+00 -0.13159671841E+04  0.13159671841E+04  0.00000000000E+00 0.  1.
         23    2    1    2    0    0 -0.36371656304E+03 -0.54864253766E+02  0.10766226606E+04  0.11413724127E+04  0.91185562087E+02 0.  0.
         11    1    3    3    0    0 -0.18189925747E+03  0.17705735751E+02  0.54737360515E+03  0.57707772143E+03  0.00000000000E+00 0. -1.
        -11    1    3    3    0    0 -0.18181730556E+03 -0.72569989517E+02  0.52924905540E+03  0.56429469129E+03  0.00000000000E+00 0.  1.
         22    1    1    2    0    0  0.36371656304E+03  0.54864253766E+02 -0.12572405170E+04  0.13099440989E+04  0.00000000000E+00 0.  1.
<mgrwt>
<rscale>  0 0.24446533E+04</rscale>
<asrwt>0</asrwt>
<pdfrwt beam="1">  1        2 0.20245649E+00 0.24446533E+04</pdfrwt>
<pdfrwt beam="2">  1       -2 0.17466913E+00 0.24446533E+04</pdfrwt>
<totfact> 0.28639240E+00</totfact>
</mgrwt>
</event>
<event>
 6    1  0.1878398E-004  0.1823075E+04  0.7818608E-02  0.8694124E-01
          1   -1    0    0  501    0  0.00000000000E+00  0.00000000000E+00  0.78383598248E+03  0.78383598248E+03  0.00000000000E+00 0.  1.
         -1   -1    0    0    0  501 -0.00000000000E+00 -0.00000000000E+00 -0.10600443613E+04  0.10600443613E+04  0.00000000000E+00 0. -1.
         23    2    1    2    0    0 -0.50752842406E+03 -0.10906056198E+03 -0.89346377142E+03  0.10373547539E+04  0.91367757702E+02 0.  0.
         13    1    3    3    0    0 -0.16759314437E+03  0.61182173741E+01 -0.30523433135E+03  0.34827129031E+03  0.00000000000E+00 0. -1.
        -13    1    3    3    0    0 -0.33993527970E+03 -0.11517877935E+03 -0.58822944007E+03  0.68908346356E+03  0.00000000000E+00 0.  1.
         22    1    1    2    0    0  0.50752842406E+03  0.10906056198E+03  0.61725539262E+03  0.80652558988E+03  0.00000000000E+00 0.  1.
<mgrwt>
<rscale>  0 0.18230753E+04</rscale>
<asrwt>0</asrwt>
<pdfrwt beam="1">  1        1 0.12059015E+00 0.18230753E+04</pdfrwt>
<pdfrwt beam="2">  1       -1 0.16308375E+00 0.18230753E+04</pdfrwt>
<totfact> 0.59591335E+00</totfact>
</mgrwt>
</event>
<event>
 6    1  0.1878398E-004  0.2737447E+04  0.7818608E-02  0.8322956E-01
          2   -1    0    0  501    0  0.00000000000E+00  0.00000000000E+00  0.29968194992E+04  0.29968194992E+04  0.00000000000E+00 0.  1.
         -2   -1    0    0    0  501 -0.00000000000E+00 -0.00000000000E+00 -0.62513069890E+03  0.62513069890E+03  0.00000000000E+00 0. -1.
         23    2    1    2    0    0 -0.61332817802E+03  0.20147632188E+03 -0.40753773973E+03  0.76873020605E+03  0.89971985435E+02 0.  0.
         13    1    3    3    0    0 -0.43812676592E+03  0.16325472797E+03 -0.33553783519E+03  0.57549353434E+03  0.00000000000E+00 0.  1.
        -13    1    3    3    0    0 -0.17520141209E+03  0.38221593916E+02 -0.71999904544E+02  0.19323667172E+03  0.00000000000E+00 0. -1.
         22    1    1    2    0    0  0.61332817802E+03 -0.20147632188E+03  0.27792265400E+04  0.28532199920E+04  0.00000000000E+00 0.  1.
<mgrwt>
<rscale>  0 0.27374469E+04</rscale>
<asrwt>0</asrwt>
<pdfrwt beam="1">  1        2 0.46104915E+00 0.27374469E+04</pdfrwt>
<pdfrwt beam="2">  1       -2 0.96173955E-01 0.27374469E+04</pdfrwt>
<totfact> 0.13849325E+00</totfact>
</mgrwt>
</event>
<event>
 6    1  0.1878398E-004  0.2470302E+04  0.7818608E-02  0.8413642E-01
          2   -1    0    0  501    0  0.00000000000E+00  0.00000000000E+00  0.15113128291E+04  0.15113128291E+04  0.00000000000E+00 0.  1.
         -2   -1    0    0    0  501 -0.00000000000E+00 -0.00000000000E+00 -0.10094525543E+04  0.10094525543E+04  0.00000000000E+00 0. -1.
         23    2    1    2    0    0 -0.56256037119E+03 -0.76472306203E+03 -0.55225413139E+03  0.11021630029E+04  0.92212398292E+02 0.  0.
         11    1    3    3    0    0 -0.26865029492E+03 -0.40085586912E+03 -0.23305569959E+03  0.53588559216E+03  0.00000000000E+00 0. -1.
        -11    1    3    3    0    0 -0.29391007628E+03 -0.36386719291E+03 -0.31919843179E+03  0.56627741070E+03  0.00000000000E+00 0.  1.
         22    1    1    2    0    0  0.56256037119E+03  0.76472306203E+03  0.10541144062E+04  0.14186023806E+04  0.00000000000E+00 0.  1.
<mgrwt>
<rscale>  0 0.24703025E+04</rscale>
<asrwt>0</asrwt>
<pdfrwt beam="1">  1        2 0.23250967E+00 0.24703025E+04</pdfrwt>
<pdfrwt beam="2">  1       -2 0.15530039E+00 0.24703025E+04</pdfrwt>
<totfact> 0.30546237E+00</totfact>
</mgrwt>
</event>
<event>
 6    1  0.1878398E-004  0.2107032E+04  0.7818608E-02  0.8558152E-01
          2   -1    0    0  501    0  0.00000000000E+00  0.00000000000E+00  0.13672639218E+04  0.13672639218E+04  0.00000000000E+00 0.  1.
         -2   -1    0    0    0  501 -0.00000000000E+00 -0.00000000000E+00 -0.81176408464E+03  0.81176408464E+03  0.00000000000E+00 0. -1.
         23    2    1    2    0    0  0.15542477860E+03  0.80441556790E+03  0.95968795564E+03  0.12654584673E+04  0.95618474186E+02 0.  0.
         11    1    3    3    0    0  0.96599288575E+02  0.26473716586E+03  0.34013712443E+03  0.44171308896E+03  0.00000000000E+00 0.  1.
        -11    1    3    3    0    0  0.58825490021E+02  0.53967840204E+03  0.61955083120E+03  0.82374537835E+03  0.00000000000E+00 0. -1.
         22    1    1    2    0    0 -0.15542477860E+03 -0.80441556790E+03 -0.40418811850E+03  0.91356953912E+03  0.00000000000E+00 0. -1.
<mgrwt>
<rscale>  0 0.21070318E+04</rscale>
<asrwt>0</asrwt>
<pdfrwt beam="1">  1        2 0.21034830E+00 0.21070318E+04</pdfrwt>
<pdfrwt beam="2">  1       -2 0.12488678E+00 0.21070318E+04</pdfrwt>
<totfact> 0.66897026E+00</totfact>
</mgrwt>
</event>
<event>
 6    1  0.1878398E-004  0.6491150E+04  0.7818608E-02  0.7632319E-01
         -1   -1    0    0    0  501 -0.00000000000E+00  0.00000000000E+00  0.49630833592E+04  0.49630833592E+04  0.00000000000E+00 0. -1.
          1   -1    0    0  501    0  0.00000000000E+00 -0.00000000000E+00 -0.21224217722E+04  0.21224217722E+04  0.00000000000E+00 0.  1.
         23    2    1    2    0    0 -0.24923023229E+04 -0.32166570738E+03  0.36616874798E+04  0.44418101390E+04  0.81746036222E+02 0.  0.
         11    1    3    3    0    0 -0.18275460259E+04 -0.24619106723E+03  0.26248275080E+04  0.32078425718E+04  0.00000000000E+00 0. -1.
        -11    1    3    3    0    0 -0.66475629702E+03 -0.75474640152E+02  0.10368599718E+04  0.12339675672E+04  0.00000000000E+00 0.  1.
         22    1    1    2    0    0  0.24923023229E+04  0.32166570738E+03 -0.82102589283E+03  0.26436949924E+04  0.00000000000E+00 0.  1.
<mgrwt>
<rscale>  0 0.64911497E+04</rscale>
<asrwt>0</asrwt>
<pdfrwt beam="1">  1        1 0.32652643E+00 0.64911497E+04</pdfrwt>
<pdfrwt beam="2">  1       -1 0.76355128E+00 0.64911497E+04</pdfrwt>
<totfact> 0.17694006E-04</totfact>
</mgrwt>
</event>
<event>
 6    1  0.1878398E-004  0.3383482E+04  0.7818608E-02  0.8141972E-01
         -1   -1    0    0    0  501 -0.00000000000E+00  0.00000000000E+00  0.11864992341E+04  0.11864992341E+04  0.00000000000E+00 0. -1.
          1   -1    0    0  501    0  0.00000000000E+00 -0.00000000000E+00 -0.24121276930E+04  0.24121276930E+04  0.00000000000E+00 0.  1.
         23    2    1    2    0    0  0.24740688309E+03  0.16720723655E+04 -0.64604765330E+03  0.18117441465E+04  0.89460164545E+02 0.  0.
         13    1    3    3    0    0  0.15008452946E+03  0.98975006135E+03 -0.42935220285E+03  0.10892538107E+04  0.00000000000E+00 0. -1.
        -13    1    3    3    0    0  0.97322353629E+02  0.68232230412E+03 -0.21669545045E+03  0.72249033589E+03  0.00000000000E+00 0.  1.
         22    1    1    2    0    0 -0.24740688309E+03 -0.16720723655E+04 -0.57958080562E+03  0.17868827805E+04  0.00000000000E+00 0.  1.
<mgrwt>
<rscale>  0 0.33834820E+04</rscale>
<asrwt>0</asrwt>
<pdfrwt beam="1">  1        1 0.37109656E+00 0.33834820E+04</pdfrwt>
<pdfrwt beam="2">  1       -1 0.18253835E+00 0.33834820E+04</pdfrwt>
<totfact> 0.25618361E-01</totfact>
</mgrwt>
</event>
<event>
 6    1  0.1878398E-004  0.6888106E+03  0.7818608E-02  0.9736561E-01
          1   -1    0    0  501    0  0.00000000000E+00  0.00000000000E+00  0.13115426735E+03  0.13115426735E+03  0.00000000000E+00 0.  1.
         -1   -1    0    0    0  501 -0.00000000000E+00 -0.00000000000E+00 -0.90439313117E+03  0.90439313117E+03  0.00000000000E+00 0. -1.
         23    2    1    2    0    0  0.19854095512E+03 -0.26959951778E+03 -0.45844796476E+03  0.57598704234E+03  0.97386475955E+02 0.  0.
         13    1    3    3    0    0  0.13163280004E+03 -0.21539054249E+03 -0.39600724198E+03  0.46961901105E+03  0.00000000000E+00 0. -1.
        -13    1    3    3    0    0  0.66908155074E+02 -0.54208975291E+02 -0.62440722778E+02  0.10636803128E+03  0.00000000000E+00 0.  1.
         22    1    1    2    0    0 -0.19854095512E+03  0.26959951778E+03 -0.31479089905E+03  0.45956035618E+03  0.00000000000E+00 0.  1.
<mgrwt>
<rscale>  0 0.68881062E+03</rscale>
<asrwt>0</asrwt>
<pdfrwt beam="1">  1        1 0.20177580E-01 0.68881062E+03</pdfrwt>
<pdfrwt beam="2">  1       -1 0.13913740E+00 0.68881062E+03</pdfrwt>
<totfact> 0.11254432E+02</totfact>
</mgrwt>
</event>
<event>
 6    1  0.1878398E-004  0.2122310E+04  0.7818608E-02  0.8551479E-01
         -2   -1    0    0    0  501 -0.00000000000E+00  0.00000000000E+00  0.10541828828E+04  0.10541828828E+04  0.00000000000E+00 0. -1.
          2   -1    0    0  501    0  0.00000000000E+00 -0.00000000000E+00 -0.10681731923E+04  0.10681731923E+04  0.00000000000E+00 0.  1.
         23    2    1    2    0    0 -0.19775663329E+03  0.76922015624E+03  0.69378083742E+03  0.10585199358E+04  0.91242913903E+02 0.  0.
         11    1    3    3    0    0 -0.50866929512E+01  0.12766963832E+03  0.85911519901E+02  0.15396817933E+03  0.00000000000E+00 0. -1.
        -11    1    3    3    0    0 -0.19266994034E+03  0.64155051792E+03  0.60786931752E+03  0.90455175648E+03  0.00000000000E+00 0.  1.
         22    1    1    2    0    0  0.19775663329E+03 -0.76922015624E+03 -0.70777114690E+03  0.10638361392E+04  0.00000000000E+00 0.  1.
<mgrwt>
<rscale>  0 0.21223100E+04</rscale>
<asrwt>0</asrwt>
<pdfrwt beam="1">  1        2 0.16433434E+00 0.21223100E+04</pdfrwt>
<pdfrwt beam="2">  1       -2 0.16218198E+00 0.21223100E+04</pdfrwt>
<totfact> 0.50909734E+00</totfact>
</mgrwt>
</event>
<event>
 6    1  0.1878398E-004  0.3009527E+04  0.7818608E-02  0.8241016E-01
         -1   -1    0    0    0  501 -0.00000000000E+00  0.00000000000E+00  0.10759825388E+04  0.10759825388E+04  0.00000000000E+00 0. -1.
          1   -1    0    0  501    0  0.00000000000E+00 -0.00000000000E+00 -0.21044145618E+04  0.21044145618E+04  0.00000000000E+00 0.  1.
         23    2    1    2    0    0 -0.11817431779E+04 -0.64042054148E+03 -0.12260761212E+04  0.18218248360E+04  0.95538838684E+02 0.  0.
         11    1    3    3    0    0 -0.58875802232E+03 -0.35734493575E+03 -0.58160226918E+03  0.90143918901E+03  0.00000000000E+00 0.  1.
        -11    1    3    3    0    0 -0.59298515559E+03 -0.28307560572E+03 -0.64447385203E+03  0.92038564703E+03  0.00000000000E+00 0. -1.
         22    1    1    2    0    0  0.11817431779E+04  0.64042054148E+03  0.19764409820E+03  0.13585722646E+04  0.00000000000E+00 0. -1.
<mgrwt>
<rscale>  0 0.30095271E+04</rscale>
<asrwt>0</asrwt>
<pdfrwt beam="1">  1        1 0.32375609E+00 0.30095271E+04</pdfrwt>
<pdfrwt beam="2">  1       -1 0.16553578E+00 0.30095271E+04</pdfrwt>
<totfact> 0.57142596E-01</totfact>
</mgrwt>
</event>
<event>
 6    1  0.1878398E-004  0.9097588E+03  0.7818608E-02  0.9413464E-01
          2   -1    0    0  501    0  0.00000000000E+00  0.00000000000E+00  0.15572572278E+04  0.15572572278E+04  0.00000000000E+00 0.  1.
         -2   -1    0    0    0  501 -0.00000000000E+00 -0.00000000000E+00 -0.13287160886E+03  0.13287160886E+03  0.00000000000E+00 0. -1.
         23    2    1    2    0    0  0.16712329666E+03  0.38195105491E+03  0.10354798649E+04  0.11199845653E+04  0.91269224269E+02 0.  0.
         11    1    3    3    0    0  0.33986871433E+02  0.18699676998E+03  0.49269565601E+03  0.52808324047E+03  0.00000000000E+00 0.  1.
        -11    1    3    3    0    0  0.13313642523E+03  0.19495428492E+03  0.54278420888E+03  0.59190132483E+03  0.00000000000E+00 0. -1.
         22    1    1    2    0    0 -0.16712329666E+03 -0.38195105491E+03  0.38890575406E+03  0.57014427137E+03  0.00000000000E+00 0. -1.
<mgrwt>
<rscale>  0 0.90975881E+03</rscale>
<asrwt>0</asrwt>
<pdfrwt beam="1">  1        2 0.23957802E+00 0.90975881E+03</pdfrwt>
<pdfrwt beam="2">  1       -2 0.20441787E-01 0.90975881E+03</pdfrwt>
<totfact> 0.24302812E+02</totfact>
</mgrwt>
</event>
<event>
 6    1  0.1878398E-004  0.2077149E+04  0.7818608E-02  0.8571377E-01
         -2   -1    0    0    0  501 -0.00000000000E+00  0.00000000000E+00  0.83915940738E+03  0.83915940738E+03  0.00000000000E+00 0. -1.
          2   -1    0    0  501    0  0.00000000000E+00 -0.00000000000E+00 -0.12853781269E+04  0.12853781269E+04  0.00000000000E+00 0.  1.
         23    2    1    2    0    0 -0.46345097045E+03  0.56007642584E+02  0.72308932494E+03  0.86548830535E+03  0.91039424541E+02 0.  0.
         11    1    3    3    0    0 -0.20421675640E+03 -0.12467330762E+02  0.26630024545E+03  0.33582099199E+03  0.00000000000E+00 0.  1.
        -11    1    3    3    0    0 -0.25923421405E+03  0.68474973345E+02  0.45678907948E+03  0.52966731336E+03  0.00000000000E+00 0. -1.
         22    1    1    2    0    0  0.46345097045E+03 -0.56007642584E+02 -0.11693080444E+04  0.12590492289E+04  0.00000000000E+00 0.  1.
<mgrwt>
<rscale>  0 0.20771491E+04</rscale>
<asrwt>0</asrwt>
<pdfrwt beam="1">  1        2 0.19775048E+00 0.20771491E+04</pdfrwt>
<pdfrwt beam="2">  1       -2 0.12910145E+00 0.20771491E+04</pdfrwt>
<totfact> 0.68814735E+00</totfact>
</mgrwt>
</event>
<event>
 6    1  0.1878398E-004  0.2722798E+04  0.7818608E-02  0.8327646E-01
         -2   -1    0    0    0  501 -0.00000000000E+00  0.00000000000E+00  0.52669924787E+03  0.52669924787E+03  0.00000000000E+00 0. -1.
          2   -1    0    0  501    0  0.00000000000E+00 -0.00000000000E+00 -0.35189090546E+04  0.35189090546E+04  0.00000000000E+00 0.  1.
         23    2    1    2    0    0  0.11202856540E+04 -0.20901007498E+02 -0.26427957709E+04  0.28719103145E+04  0.89568794641E+02 0.  0.
         11    1    3    3    0    0  0.49788784121E+03 -0.50541043863E+02 -0.11344818071E+04  0.12399579308E+04  0.00000000000E+00 0.  1.
        -11    1    3    3    0    0  0.62239781277E+03  0.29640036365E+02 -0.15083139638E+04  0.16319523837E+04  0.00000000000E+00 0. -1.
         22    1    1    2    0    0 -0.11202856540E+04  0.20901007498E+02 -0.34941403582E+03  0.11736979880E+04  0.00000000000E+00 0. -1.
<mgrwt>
<rscale>  0 0.27227976E+04</rscale>
<asrwt>0</asrwt>
<pdfrwt beam="1">  1        2 0.54137065E+00 0.27227976E+04</pdfrwt>
<pdfrwt beam="2">  1       -2 0.81030650E-01 0.27227976E+04</pdfrwt>
<totfact> 0.92740701E-01</totfact>
</mgrwt>
</event>
<event>
 6    1  0.1878398E-004  0.2941542E+04  0.7818608E-02  0.8260624E-01
          2   -1    0    0  501    0  0.00000000000E+00  0.00000000000E+00  0.26765960033E+04  0.26765960033E+04  0.00000000000E+00 0.  1.
         -2   -1    0    0    0  501 -0.00000000000E+00 -0.00000000000E+00 -0.80817831972E+03  0.80817831972E+03  0.00000000000E+00 0. -1.
         23    2    1    2    0    0  0.31601730917E+03  0.67927677199E+03  0.24325859714E+04  0.25469205340E+04  0.89698526407E+02 0.  0.
         11    1    3    3    0    0  0.40964742749E+02  0.10058076245E+03  0.25860885555E+03  0.28048732609E+03  0.00000000000E+00 0. -1.
        -11    1    3    3    0    0  0.27505256642E+03  0.57869600954E+03  0.21739771159E+04  0.22664332079E+04  0.00000000000E+00 0.  1.
         22    1    1    2    0    0 -0.31601730917E+03 -0.67927677199E+03 -0.56416828780E+03  0.93785378904E+03  0.00000000000E+00 0. -1.
<mgrwt>
<rscale>  0 0.29415417E+04</rscale>
<asrwt>0</asrwt>
<pdfrwt beam="1">  1        2 0.41178400E+00 0.29415417E+04</pdfrwt>
<pdfrwt beam="2">  1       -2 0.12433513E+00 0.29415417E+04</pdfrwt>
<totfact> 0.11457167E+00</totfact>
</mgrwt>
</event>
<event>
 6    1  0.1878398E-004  0.1642920E+04  0.7818608E-02  0.8794606E-01
         -2   -1    0    0    0  501 -0.00000000000E+00  0.00000000000E+00  0.71881744387E+03  0.71881744387E+03  0.00000000000E+00 0. -1.
          2   -1    0    0  501    0  0.00000000000E+00 -0.00000000000E+00 -0.93875882164E+03  0.93875882164E+03  0.00000000000E+00 0.  1.
         23    2    1    2    0    0 -0.66555418728E+03 -0.20288614941E+03 -0.54585258367E+03  0.88923826699E+03  0.93083223825E+02 0.  0.
         13    1    3    3    0    0 -0.11999703709E+03 -0.74208537863E+02 -0.12156790950E+03  0.18623896644E+03  0.00000000000E+00 0.  1.
        -13    1    3    3    0    0 -0.54555715019E+03 -0.12867761155E+03 -0.42428467417E+03  0.70299930055E+03  0.00000000000E+00 0. -1.
         22    1    1    2    0    0  0.66555418728E+03  0.20288614941E+03  0.32591120590E+03  0.76833799851E+03  0.00000000000E+00 0. -1.
<mgrwt>
<rscale>  0 0.16429196E+04</rscale>
<asrwt>0</asrwt>
<pdfrwt beam="1">  1        2 0.14442443E+00 0.16429196E+04</pdfrwt>
<pdfrwt beam="2">  1       -2 0.11058730E+00 0.16429196E+04</pdfrwt>
<totfact> 0.17122993E+01</totfact>
</mgrwt>
</event>
<event>
 6    1  0.1878398E-004  0.1659488E+04  0.7818608E-02  0.8784813E-01
         -2   -1    0    0    0  501 -0.00000000000E+00  0.00000000000E+00  0.34101808383E+03  0.34101808383E+03  0.00000000000E+00 0. -1.
          2   -1    0    0  501    0  0.00000000000E+00 -0.00000000000E+00 -0.20188820044E+04  0.20188820044E+04  0.00000000000E+00 0.  1.
         23    2    1    2    0    0 -0.65123304136E+03  0.35282358613E+03 -0.13650035240E+04  0.15558661432E+04  0.94317960865E+02 0.  0.
         11    1    3    3    0    0 -0.34927129574E+03  0.18608334608E+03 -0.63070293596E+03  0.74458286520E+03  0.00000000000E+00 0. -1.
        -11    1    3    3    0    0 -0.30196174562E+03  0.16674024005E+03 -0.73430058807E+03  0.81128327797E+03  0.00000000000E+00 0.  1.
         22    1    1    2    0    0  0.65123304136E+03 -0.35282358613E+03 -0.31286039655E+03  0.80403394506E+03  0.00000000000E+00 0. -1.
<mgrwt>
<rscale>  0 0.16594882E+04</rscale>
<asrwt>0</asrwt>
<pdfrwt beam="1">  1        2 0.31059724E+00 0.16594882E+04</pdfrwt>
<pdfrwt beam="2">  1       -2 0.52464320E-01 0.16594882E+04</pdfrwt>
<totfact> 0.21345820E+01</totfact>
</mgrwt>
</event>
<event>
 6    1  0.1878398E-004  0.9096028E+03  0.7818608E-02  0.9413656E-01
          1   -1    0    0  501    0  0.00000000000E+00  0.00000000000E+00  0.16245929401E+03  0.16245929401E+03  0.00000000000E+00 0.  1.
         -1   -1    0    0    0  501 -0.00000000000E+00 -0.00000000000E+00 -0.12732070387E+04  0.12732070387E+04  0.00000000000E+00 0. -1.
         23    2    1    2    0    0  0.25537042595E+01 -0.33682631766E+03 -0.89712696482E+02  0.36050538692E+03  0.91963451535E+02 0.  0.
         11    1    3    3    0    0  0.17836782701E+02 -0.17461469685E+03 -0.21495433110E+01  0.17553650250E+03  0.00000000000E+00 0.  1.
        -11    1    3    3    0    0 -0.15283078442E+02 -0.16221162080E+03 -0.87563153171E+02  0.18496888442E+03  0.00000000000E+00 0. -1.
         22    1    1    2    0    0 -0.25537042595E+01  0.33682631766E+03 -0.10210350482E+04  0.10751609457E+04  0.00000000000E+00 0. -1.
<mgrwt>
<rscale>  0 0.90960281E+03</rscale>
<asrwt>0</asrwt>
<pdfrwt beam="1">  1        1 0.24993738E-01 0.90960281E+03</pdfrwt>
<pdfrwt beam="2">  1       -1 0.19587800E+00 0.90960281E+03</pdfrwt>
<totfact> 0.31743378E+01</totfact>
</mgrwt>
</event>
<event>
 6    1  0.1878398E-004  0.2157301E+04  0.7818608E-02  0.8536414E-01
          2   -1    0    0  501    0  0.00000000000E+00  0.00000000000E+00  0.66850684291E+03  0.66850684291E+03  0.00000000000E+00 0.  1.
         -2   -1    0    0    0  501 -0.00000000000E+00 -0.00000000000E+00 -0.17404255659E+04  0.17404255659E+04  0.00000000000E+00 0. -1.
         23    2    1    2    0    0  0.59609084673E+03 -0.84716653101E+03 -0.86496799695E+03  0.13525972197E+04  0.91291697801E+02 0.  0.
         11    1    3    3    0    0  0.29589805043E+03 -0.34368149817E+03 -0.38990321515E+03  0.59807787588E+03  0.00000000000E+00 0.  1.
        -11    1    3    3    0    0  0.30019279631E+03 -0.50348503284E+03 -0.47506478180E+03  0.75451934379E+03  0.00000000000E+00 0. -1.
         22    1    1    2    0    0 -0.59609084673E+03  0.84716653101E+03 -0.20695072605E+03  0.10563351892E+04  0.00000000000E+00 0. -1.
<mgrwt>
<rscale>  0 0.21573005E+04</rscale>
<asrwt>0</asrwt>
<pdfrwt beam="1">  1        2 0.10284721E+00 0.21573005E+04</pdfrwt>
<pdfrwt beam="2">  1       -2 0.26775778E+00 0.21573005E+04</pdfrwt>
<totfact> 0.19921493E+00</totfact>
</mgrwt>
</event>
<event>
 6    1  0.1878398E-004  0.3700290E+04  0.7818608E-02  0.8067898E-01
         -1   -1    0    0    0  501 -0.00000000000E+00  0.00000000000E+00  0.17131254162E+04  0.17131254162E+04  0.00000000000E+00 0.  1.
          1   -1    0    0  501    0  0.00000000000E+00 -0.00000000000E+00 -0.19981239341E+04  0.19981239341E+04  0.00000000000E+00 0. -1.
         23    2    1    2    0    0  0.77098274687E+03 -0.12598571622E+04 -0.12582262137E+04  0.19424003988E+04  0.90175602853E+02 0.  0.
         13    1    3    3    0    0  0.38618995498E+03 -0.59257141005E+03 -0.54945999034E+03  0.89565051126E+03  0.00000000000E+00 0. -1.
        -13    1    3    3    0    0  0.38479279189E+03 -0.66728575211E+03 -0.70876622341E+03  0.10467498876E+04  0.00000000000E+00 0.  1.
         22    1    1    2    0    0 -0.77098274687E+03  0.12598571622E+04  0.97322769588E+03  0.17688489514E+04  0.00000000000E+00 0.  1.
<mgrwt>
<rscale>  0 0.37002902E+04</rscale>
<asrwt>0</asrwt>
<pdfrwt beam="1">  1        1 0.30740368E+00 0.37002902E+04</pdfrwt>
<pdfrwt beam="2">  1       -1 0.26355776E+00 0.37002902E+04</pdfrwt>
<totfact> 0.13642854E-01</totfact>
</mgrwt>
</event>
<event>
 6    1  0.1878398E-004  0.8450622E+03  0.7818608E-02  0.9496988E-01
         -2   -1    0    0    0  501 -0.00000000000E+00  0.00000000000E+00  0.36261633049E+03  0.36261633049E+03  0.00000000000E+00 0. -1.
          2   -1    0    0  501    0  0.00000000000E+00 -0.00000000000E+00 -0.49234554670E+03  0.49234554670E+03  0.00000000000E+00 0.  1.
         23    2    1    2    0    0 -0.94952175313E+02 -0.34315177274E+03 -0.28627628525E+03  0.46601967126E+03  0.91930233158E+02 0.  0.
         11    1    3    3    0    0  0.99349406187E+01 -0.30030125847E+02 -0.45620160815E+01  0.31958152234E+02  0.00000000000E+00 0. -1.
        -11    1    3    3    0    0 -0.10488711593E+03 -0.31312164690E+03 -0.28171426917E+03  0.43406151902E+03  0.00000000000E+00 0.  1.
         22    1    1    2    0    0  0.94952175313E+02  0.34315177274E+03  0.15654706904E+03  0.38894220593E+03  0.00000000000E+00 0. -1.
<mgrwt>
<rscale>  0 0.84506221E+03</rscale>
<asrwt>0</asrwt>
<pdfrwt beam="1">  1        2 0.75745469E-01 0.84506221E+03</pdfrwt>
<pdfrwt beam="2">  1       -2 0.55787128E-01 0.84506221E+03</pdfrwt>
<totfact> 0.19035258E+02</totfact>
</mgrwt>
</event>
<event>
 6    1  0.1878398E-004  0.1132083E+04  0.7818608E-02  0.9174474E-01
          1   -1    0    0  501    0  0.00000000000E+00  0.00000000000E+00  0.66902429853E+03  0.66902429853E+03  0.00000000000E+00 0.  1.
         -1   -1    0    0    0  501 -0.00000000000E+00 -0.00000000000E+00 -0.47891050836E+03  0.47891050836E+03  0.00000000000E+00 0. -1.
         23    2    1    2    0    0 -0.42932335684E+03 -0.46482528993E+01  0.46388399350E+03  0.63872927353E+03  0.91905247125E+02 0.  0.
         13    1    3    3    0    0 -0.32232373803E+03  0.26346447765E+02  0.30389617720E+03  0.44377878940E+03  0.00000000000E+00 0.  1.
        -13    1    3    3    0    0 -0.10699961881E+03 -0.30994700664E+02  0.15998781631E+03  0.19495048413E+03  0.00000000000E+00 0. -1.
         22    1    1    2    0    0  0.42932335684E+03  0.46482528993E+01 -0.27377020333E+03  0.50920553337E+03  0.00000000000E+00 0. -1.
<mgrwt>
<rscale>  0 0.11320826E+04</rscale>
<asrwt>0</asrwt>
<pdfrwt beam="1">  1        1 0.10292682E+00 0.11320826E+04</pdfrwt>
<pdfrwt beam="2">  1       -1 0.73678539E-01 0.11320826E+04</pdfrwt>
<totfact> 0.53852330E+01</totfact>
</mgrwt>
</event>
<event>
 6    1  0.1878398E-004  0.3863131E+04  0.7818608E-02  0.8032741E-01
          2   -1    0    0  501    0  0.00000000000E+00  0.00000000000E+00  0.19007862975E+04  0.19007862975E+04  0.00000000000E+00 0.  1.
         -2   -1    0    0    0  501 -0.00000000000E+00 -0.00000000000E+00 -0.19628432962E+04  0.19628432962E+04  0.00000000000E+00 0. -1.
         23    2    1    2    0    0 -0.85052452512E+03 -0.16978979106E+04  0.31634319849E+03  0.19272835523E+04  0.89997716655E+02 0.  0.
         11    1    3    3    0    0 -0.41858603675E+03 -0.92276687149E+03  0.19114462552E+03  0.10311397758E+04  0.00000000000E+00 0. -1.
        -11    1    3    3    0    0 -0.43193848837E+03 -0.77513103914E+03  0.12519857297E+03  0.89614377655E+03  0.00000000000E+00 0.  1.
         22    1    1    2    0    0  0.85052452512E+03  0.16978979106E+04 -0.37840019712E+03  0.19363460414E+04  0.00000000000E+00 0.  1.
<mgrwt>
<rscale>  0 0.38631312E+04</rscale>
<asrwt>0</asrwt>
<pdfrwt beam="1">  1        2 0.29242866E+00 0.38631312E+04</pdfrwt>
<pdfrwt beam="2">  1       -2 0.30197589E+00 0.38631312E+04</pdfrwt>
<totfact> 0.18703805E-01</totfact>
</mgrwt>
</event>
<event>
 6    1  0.1878398E-004  0.1584939E+04  0.7818608E-02  0.8829854E-01
         -2   -1    0    0    0  501 -0.00000000000E+00  0.00000000000E+00  0.42919391731E+03  0.42919391731E+03  0.00000000000E+00 0. -1.
          2   -1    0    0  501    0  0.00000000000E+00 -0.00000000000E+00 -0.14632260753E+04  0.14632260753E+04  0.00000000000E+00 0.  1.
         23    2    1    2    0    0 -0.13410735367E+03  0.72122339672E+03 -0.86809525119E+03  0.11403009679E+04  0.92460597347E+02 0.  0.
         11    1    3    3    0    0 -0.47471264523E+02  0.17350669081E+03 -0.27255246440E+03  0.32656230426E+03  0.00000000000E+00 0. -1.
        -11    1    3    3    0    0 -0.86636089152E+02  0.54771670591E+03 -0.59554278679E+03  0.81373866368E+03  0.00000000000E+00 0.  1.
         22    1    1    2    0    0  0.13410735367E+03 -0.72122339672E+03 -0.16593690685E+03  0.75211902472E+03  0.00000000000E+00 0. -1.
<mgrwt>
<rscale>  0 0.15849388E+04</rscale>
<asrwt>0</asrwt>
<pdfrwt beam="1">  1        2 0.22511170E+00 0.15849388E+04</pdfrwt>
<pdfrwt beam="2">  1       -2 0.66029834E-01 0.15849388E+04</pdfrwt>
<totfact> 0.26979995E+01</totfact>
</mgrwt>
</event>
<event>
 6    1  0.1878398E-004  0.3053427E+04  0.7818608E-02  0.8228637E-01
          2   -1    0    0  501    0  0.00000000000E+00  0.00000000000E+00  0.19424556050E+04  0.19424556050E+04  0.00000000000E+00 0.  1.
         -2   -1    0    0    0  501 -0.00000000000E+00 -0.00000000000E+00 -0.11999524645E+04  0.11999524645E+04  0.00000000000E+00 0. -1.
         23    2    1    2    0    0 -0.11556673582E+04  0.53520836315E+03  0.12355771963E+04  0.17767078611E+04  0.89581141181E+02 0.  0.
         11    1    3    3    0    0 -0.38547399766E+03  0.17282339284E+03  0.35256099294E+03  0.55023393364E+03  0.00000000000E+00 0.  1.
        -11    1    3    3    0    0 -0.77019336053E+03  0.36238497032E+03  0.88301620336E+03  0.12264739274E+04  0.00000000000E+00 0. -1.
         22    1    1    2    0    0  0.11556673582E+04 -0.53520836315E+03 -0.49307405576E+03  0.13657002084E+04  0.00000000000E+00 0. -1.
<mgrwt>
<rscale>  0 0.30534272E+04</rscale>
<asrwt>0</asrwt>
<pdfrwt beam="1">  1        2 0.29883932E+00 0.30534272E+04</pdfrwt>
<pdfrwt beam="2">  1       -2 0.18460807E+00 0.30534272E+04</pdfrwt>
<totfact> 0.10334708E+00</totfact>
</mgrwt>
</event>
<event>
 6    1  0.1878398E-004  0.1230608E+04  0.7818608E-02  0.9086479E-01
         -2   -1    0    0    0  501 -0.00000000000E+00  0.00000000000E+00  0.10830226654E+04  0.10830226654E+04  0.00000000000E+00 0.  1.
          2   -1    0    0  501    0  0.00000000000E+00 -0.00000000000E+00 -0.34957621414E+03  0.34957621414E+03  0.00000000000E+00 0. -1.
         23    2    1    2    0    0 -0.38953978189E+03  0.14179254382E+02  0.91828962434E+03  0.10011950183E+04  0.84813545581E+02 0.  0.
         11    1    3    3    0    0 -0.27665695960E+03  0.34265595979E+02  0.56999164260E+03  0.63451058068E+03  0.00000000000E+00 0. -1.
        -11    1    3    3    0    0 -0.11288282228E+03 -0.20086341597E+02  0.34829798174E+03  0.36668443759E+03  0.00000000000E+00 0.  1.
         22    1    1    2    0    0  0.38953978189E+03 -0.14179254382E+02 -0.18484317304E+03  0.43140386130E+03  0.00000000000E+00 0. -1.
<mgrwt>
<rscale>  0 0.12306079E+04</rscale>
<asrwt>0</asrwt>
<pdfrwt beam="1">  1        2 0.53780956E-01 0.12306079E+04</pdfrwt>
<pdfrwt beam="2">  1       -2 0.16661887E+00 0.12306079E+04</pdfrwt>
<totfact> 0.20511412E+01</totfact>
</mgrwt>
</event>
<event>
 6    1  0.1878398E-004  0.1826047E+04  0.7818608E-02  0.8692570E-01
          1   -1    0    0  501    0  0.00000000000E+00  0.00000000000E+00  0.15786890102E+04  0.15786890102E+04  0.00000000000E+00 0.  1.
         -1   -1    0    0    0  501 -0.00000000000E+00 -0.00000000000E+00 -0.52804042638E+03  0.52804042638E+03  0.00000000000E+00 0. -1.
         23    2    1    2    0    0  0.39082073272E+03 -0.35761041129E+03  0.13813240187E+04  0.14822518192E+04  0.91587986598E+02 0.  0.
         13    1    3    3    0    0  0.16175423302E+02 -0.50301530857E+02  0.12410309145E+03  0.13488315548E+03  0.00000000000E+00 0.  1.
        -13    1    3    3    0    0  0.37464530941E+03 -0.30730888043E+03  0.12572209273E+04  0.13473686637E+04  0.00000000000E+00 0. -1.
         22    1    1    2    0    0 -0.39082073272E+03  0.35761041129E+03 -0.33067543492E+03  0.62447761741E+03  0.00000000000E+00 0. -1.
<mgrwt>
<rscale>  0 0.18260467E+04</rscale>
<asrwt>0</asrwt>
<pdfrwt beam="1">  1        1 0.24287523E+00 0.18260467E+04</pdfrwt>
<pdfrwt beam="2">  1       -1 0.81236989E-01 0.18260467E+04</pdfrwt>
<totfact> 0.82026005E+00</totfact>
</mgrwt>
</event>
<event>
 6    1  0.1878398E-004  0.2027609E+04  0.7818608E-02  0.8593820E-01
          2   -1    0    0  501    0  0.00000000000E+00  0.00000000000E+00  0.64508165416E+03  0.64508165416E+03  0.00000000000E+00 0.  1.
         -2   -1    0    0    0  501 -0.00000000000E+00 -0.00000000000E+00 -0.15932852228E+04  0.15932852228E+04  0.00000000000E+00 0. -1.
         23    2    1    2    0    0  0.87646838568E+03 -0.30313530378E+03 -0.92109041420E+03  0.13105614196E+04  0.95267203222E+02 0.  0.
         13    1    3    3    0    0  0.21109793499E+03 -0.10846789337E+03 -0.20130453122E+03  0.31120915208E+03  0.00000000000E+00 0.  1.
        -13    1    3    3    0    0  0.66537045069E+03 -0.19466741041E+03 -0.71978588297E+03  0.99935226755E+03  0.00000000000E+00 0. -1.
         22    1    1    2    0    0 -0.87646838568E+03  0.30313530378E+03 -0.27113154427E+02  0.92780545732E+03  0.00000000000E+00 0.  1.
<mgrwt>
<rscale>  0 0.20276085E+04</rscale>
<asrwt>0</asrwt>
<pdfrwt beam="1">  1        2 0.99243332E-01 0.20276085E+04</pdfrwt>
<pdfrwt beam="2">  1       -2 0.24512080E+00 0.20276085E+04</pdfrwt>
<totfact> 0.28967575E+00</totfact>
</mgrwt>
</event>
<event>
 6    1  0.1878398E-004  0.1562934E+04  0.7818608E-02  0.8843648E-01
         -1   -1    0    0    0  501 -0.00000000000E+00  0.00000000000E+00  0.82305819530E+03  0.82305819530E+03  0.00000000000E+00 0. -1.
          1   -1    0    0  501    0  0.00000000000E+00 -0.00000000000E+00 -0.74197754028E+03  0.74197754028E+03  0.00000000000E+00 0.  1.
         23    2    1    2    0    0  0.18377989720E+03 -0.75060107144E+03 -0.54186943413E+02  0.78051400723E+03  0.95335573507E+02 0.  0.
         13    1    3    3    0    0  0.12238945631E+03 -0.44863448978E+03 -0.77694515175E+02  0.47147483721E+03  0.00000000000E+00 0. -1.
        -13    1    3    3    0    0  0.61390440896E+02 -0.30196658167E+03  0.23507571761E+02  0.30903917002E+03  0.00000000000E+00 0.  1.
         22    1    1    2    0    0 -0.18377989720E+03  0.75060107144E+03  0.13526759843E+03  0.78452172835E+03  0.00000000000E+00 0.  1.
<mgrwt>
<rscale>  0 0.15629340E+04</rscale>
<asrwt>0</asrwt>
<pdfrwt beam="1">  1        1 0.11415039E+00 0.15629340E+04</pdfrwt>
<pdfrwt beam="2">  1       -1 0.12662434E+00 0.15629340E+04</pdfrwt>
<totfact> 0.12992573E+01</totfact>
</mgrwt>
</event>
<event>
 6    1  0.1878398E-004  0.2270237E+04  0.7818608E-02  0.8489750E-01
          2   -1    0    0  501    0  0.00000000000E+00  0.00000000000E+00  0.21711725623E+04  0.21711725623E+04  0.00000000000E+00 0.  1.
         -2   -1    0    0    0  501 -0.00000000000E+00 -0.00000000000E+00 -0.59345536012E+03  0.59345536012E+03  0.00000000000E+00 0. -1.
         23    2    1    2    0    0 -0.11282453004E+04  0.11962669821E+02  0.91848308162E+03  0.14578493684E+04  0.92914188491E+02 0.  0.
         13    1    3    3    0    0 -0.34617988796E+03  0.18909908427E+01  0.33816072822E+03  0.48393880686E+03  0.00000000000E+00 0. -1.
        -13    1    3    3    0    0 -0.78206541247E+03  0.10071678978E+02  0.58032235340E+03  0.97391056158E+03  0.00000000000E+00 0.  1.
         22    1    1    2    0    0  0.11282453004E+04 -0.11962669821E+02  0.65923412054E+03  0.13067785540E+04  0.00000000000E+00 0.  1.
<mgrwt>
<rscale>  0 0.22702370E+04</rscale>
<asrwt>0</asrwt>
<pdfrwt beam="1">  1        2 0.33402654E+00 0.22702370E+04</pdfrwt>
<pdfrwt beam="2">  1       -2 0.91300826E-01 0.22702370E+04</pdfrwt>
<totfact> 0.49794590E+00</totfact>
</mgrwt>
</event>
<event>
 6    1  0.1878398E-004  0.2017119E+04  0.7818608E-02  0.8598658E-01
          2   -1    0    0  501    0  0.00000000000E+00  0.00000000000E+00  0.18570265712E+04  0.18570265712E+04  0.00000000000E+00 0.  1.
         -2   -1    0    0    0  501 -0.00000000000E+00 -0.00000000000E+00 -0.54775335867E+03  0.54775335867E+03  0.00000000000E+00 0. -1.
         23    2    1    2    0    0 -0.70658840345E+03 -0.18179363883E+03  0.14824645646E+04  0.16549057115E+04  0.93250360582E+02 0.  0.
         11    1    3    3    0    0 -0.35943907401E+03 -0.79618402579E+02  0.84859975456E+03  0.92501734113E+03  0.00000000000E+00 0.  1.
        -11    1    3    3    0    0 -0.34714932944E+03 -0.10217523625E+03  0.63386481000E+03  0.72988837036E+03  0.00000000000E+00 0. -1.
         22    1    1    2    0    0  0.70658840345E+03  0.18179363883E+03 -0.17319135201E+03  0.74987421840E+03  0.00000000000E+00 0. -1.
<mgrwt>
<rscale>  0 0.20171193E+04</rscale>
<asrwt>0</asrwt>
<pdfrwt beam="1">  1        2 0.28569639E+00 0.20171193E+04</pdfrwt>
<pdfrwt beam="2">  1       -2 0.84269748E-01 0.20171193E+04</pdfrwt>
<totfact> 0.91452370E+00</totfact>
</mgrwt>
</event>
<event>
 6    1  0.1878398E-004  0.2015443E+04  0.7818608E-02  0.8599435E-01
          2   -1    0    0  501    0  0.00000000000E+00  0.00000000000E+00  0.10541804778E+04  0.10541804778E+04  0.00000000000E+00 0.  1.
         -2   -1    0    0    0  501 -0.00000000000E+00 -0.00000000000E+00 -0.96330981151E+03  0.96330981151E+03  0.00000000000E+00 0. -1.
         23    2    1    2    0    0 -0.23436177880E+03 -0.27535113965E+03  0.98503619228E+03  0.10529822897E+04  0.87930136307E+02 0.  0.
         11    1    3    3    0    0 -0.96916689952E+02 -0.14848297079E+03  0.58684093540E+03  0.61304349019E+03  0.00000000000E+00 0. -1.
        -11    1    3    3    0    0 -0.13744508885E+03 -0.12686816886E+03  0.39819525688E+03  0.43993879952E+03  0.00000000000E+00 0.  1.
         22    1    1    2    0    0  0.23436177880E+03  0.27535113965E+03 -0.89416552597E+03  0.96450799961E+03  0.00000000000E+00 0. -1.
<mgrwt>
<rscale>  0 0.20154428E+04</rscale>
<asrwt>0</asrwt>
<pdfrwt beam="1">  1        2 0.16218161E+00 0.20154428E+04</pdfrwt>
<pdfrwt beam="2">  1       -2 0.14820151E+00 0.20154428E+04</pdfrwt>
<totfact> 0.66783756E+00</totfact>
</mgrwt>
</event>
<event>
 6    1  0.1878398E-004  0.2703198E+04  0.7818608E-02  0.8333968E-01
         -1   -1    0    0    0  501 -0.00000000000E+00  0.00000000000E+00  0.12214742690E+04  0.12214742690E+04  0.00000000000E+00 0.  1.
          1   -1    0    0  501    0  0.00000000000E+00 -0.00000000000E+00 -0.14955856211E+04  0.14955856211E+04  0.00000000000E+00 0. -1.
         23    2    1    2    0    0  0.10781127667E+04  0.54669638074E+03  0.46691348673E+03  0.12992016875E+04  0.93342114215E+02 0.  0.
         13    1    3    3    0    0  0.39842393880E+03  0.20923023849E+03  0.12629043537E+03  0.46740582128E+03  0.00000000000E+00 0.  1.
        -13    1    3    3    0    0  0.67968882795E+03  0.33746614225E+03  0.34062305136E+03  0.83179586626E+03  0.00000000000E+00 0. -1.
         22    1    1    2    0    0 -0.10781127667E+04 -0.54669638074E+03 -0.74102483884E+03  0.14178582025E+04  0.00000000000E+00 0. -1.
<mgrwt>
<rscale>  0 0.27031976E+04</rscale>
<asrwt>0</asrwt>
<pdfrwt beam="1">  1        1 0.23009009E+00 0.27031976E+04</pdfrwt>
<pdfrwt beam="2">  1       -1 0.18791912E+00 0.27031976E+04</pdfrwt>
<totfact> 0.10510823E+00</totfact>
</mgrwt>
</event>
<event>
 6    1  0.1878398E-004  0.1252775E+04  0.7818608E-02  0.9067877E-01
          1   -1    0    0  501    0  0.00000000000E+00  0.00000000000E+00  0.10094778798E+04  0.10094778798E+04  0.00000000000E+00 0.  1.
         -1   -1    0    0    0  501 -0.00000000000E+00 -0.00000000000E+00 -0.38867732947E+03  0.38867732947E+03  0.00000000000E+00 0. -1.
         23    2    1    2    0    0 -0.74282630626E+02  0.38443572699E+03 -0.22893397137E+03  0.46254979310E+03  0.90734835937E+02 0.  0.
         11    1    3    3    0    0  0.30818298336E+00  0.16675066699E+03 -0.13278014587E+03  0.21315826762E+03  0.00000000000E+00 0.  1.
        -11    1    3    3    0    0 -0.74590813610E+02  0.21768506001E+03 -0.96153825494E+02  0.24939152548E+03  0.00000000000E+00 0. -1.
         22    1    1    2    0    0  0.74282630626E+02 -0.38443572699E+03  0.84973452172E+03  0.93560541619E+03  0.00000000000E+00 0.  1.
<mgrwt>
<rscale>  0 0.12527748E+04</rscale>
<asrwt>0</asrwt>
<pdfrwt beam="1">  1        1 0.15530429E+00 0.12527748E+04</pdfrwt>
<pdfrwt beam="2">  1       -1 0.59796513E-01 0.12527748E+04</pdfrwt>
<totfact> 0.41586956E+01</totfact>
</mgrwt>
</event>
<event>
 6    1  0.1878398E-004  0.2424977E+04  0.7818608E-02  0.8430211E-01
         -2   -1    0    0    0  501 -0.00000000000E+00  0.00000000000E+00  0.49793971142E+03  0.49793971142E+03  0.00000000000E+00 0. -1.
          2   -1    0    0  501    0  0.00000000000E+00 -0.00000000000E+00 -0.29524234573E+04  0.29524234573E+04  0.00000000000E+00 0.  1.
         23    2    1    2    0    0 -0.11282878332E+04 -0.15504541787E+03 -0.64391196181E+03  0.13113814714E+04  0.89589246242E+02 0.  0.
         11    1    3    3    0    0 -0.18352814769E+03 -0.56374790330E+01 -0.13515988426E+03  0.22799683436E+03  0.00000000000E+00 0.  1.
        -11    1    3    3    0    0 -0.94475968546E+03 -0.14940793883E+03 -0.50875207755E+03  0.10833846371E+04  0.00000000000E+00 0. -1.
         22    1    1    2    0    0  0.11282878332E+04  0.15504541787E+03 -0.18105717841E+04  0.21389816973E+04  0.00000000000E+00 0.  1.
<mgrwt>
<rscale>  0 0.24249774E+04</rscale>
<asrwt>0</asrwt>
<pdfrwt beam="1">  1        2 0.45421900E+00 0.24249774E+04</pdfrwt>
<pdfrwt beam="2">  1       -2 0.76606109E-01 0.24249774E+04</pdfrwt>
<totfact> 0.25494418E+00</totfact>
</mgrwt>
</event>
<event>
 6    1  0.1878398E-004  0.3394940E+04  0.7818608E-02  0.8139149E-01
          2   -1    0    0  501    0  0.00000000000E+00  0.00000000000E+00  0.18061455751E+04  0.18061455751E+04  0.00000000000E+00 0.  1.
         -2   -1    0    0    0  501 -0.00000000000E+00 -0.00000000000E+00 -0.15953331623E+04  0.15953331623E+04  0.00000000000E+00 0. -1.
         23    2    1    2    0    0  0.75460697983E+03 -0.63553102328E+02  0.16262259492E+04  0.17962167121E+04  0.91175369345E+02 0.  0.
         13    1    3    3    0    0  0.66710980308E+03 -0.44405168920E+02  0.14907121057E+04  0.16337777972E+04  0.00000000000E+00 0.  1.
        -13    1    3    3    0    0  0.87497176751E+02 -0.19147933408E+02  0.13551384352E+03  0.16243891491E+03  0.00000000000E+00 0. -1.
         22    1    1    2    0    0 -0.75460697983E+03  0.63553102328E+02 -0.14154135365E+04  0.16052620254E+04  0.00000000000E+00 0. -1.
<mgrwt>
<rscale>  0 0.33949397E+04</rscale>
<asrwt>0</asrwt>
<pdfrwt beam="1">  1        2 0.27786855E+00 0.33949397E+04</pdfrwt>
<pdfrwt beam="2">  1       -2 0.24543587E+00 0.33949397E+04</pdfrwt>
<totfact> 0.48649558E-01</totfact>
</mgrwt>
</event>
<event>
 6    1  0.1878398E-004  0.1451617E+04  0.7818608E-02  0.8917281E-01
          2   -1    0    0  501    0  0.00000000000E+00  0.00000000000E+00  0.65561482021E+03  0.65561482021E+03  0.00000000000E+00 0.  1.
         -2   -1    0    0    0  501 -0.00000000000E+00 -0.00000000000E+00 -0.80351704052E+03  0.80351704052E+03  0.00000000000E+00 0. -1.
         23    2    1    2    0    0  0.32636985805E+03 -0.52106099371E+03  0.30798641088E+03  0.69371936576E+03  0.91482707301E+02 0.  0.
         11    1    3    3    0    0  0.29500750515E+03 -0.40405163983E+03  0.25445201600E+03  0.56127799190E+03  0.00000000000E+00 0.  1.
        -11    1    3    3    0    0  0.31362352898E+02 -0.11700935388E+03  0.53534394875E+02  0.13244137386E+03  0.00000000000E+00 0. -1.
         22    1    1    2    0    0 -0.32636985805E+03  0.52106099371E+03 -0.45588863119E+03  0.76541249497E+03  0.00000000000E+00 0. -1.
<mgrwt>
<rscale>  0 0.14516166E+04</rscale>
<asrwt>0</asrwt>
<pdfrwt beam="1">  1        2 0.10086382E+00 0.14516166E+04</pdfrwt>
<pdfrwt beam="2">  1       -2 0.12361801E+00 0.14516166E+04</pdfrwt>
<totfact> 0.21262761E+01</totfact>
</mgrwt>
</event>
<event>
 6    1  0.1878398E-004  0.1352359E+04  0.7818608E-02  0.8989045E-01
         -1   -1    0    0    0  501 -0.00000000000E+00  0.00000000000E+00  0.10448087024E+03  0.10448087024E+03  0.00000000000E+00 0. -1.
          1   -1    0    0  501    0  0.00000000000E+00 -0.00000000000E+00 -0.43760974245E+04  0.43760974245E+04  0.00000000000E+00 0.  1.
         23    2    1    2    0    0 -0.32558018939E+03 -0.91440198123E+02 -0.40737910778E+04  0.40887892077E+04  0.89775666084E+02 0.  0.
         11    1    3    3    0    0 -0.23709030715E+03 -0.10533382529E+03 -0.28965299244E+04  0.29081252778E+04  0.00000000000E+00 0.  1.
        -11    1    3    3    0    0 -0.88489882243E+02  0.13893627168E+02 -0.11772611534E+04  0.11806639299E+04  0.00000000000E+00 0. -1.
         22    1    1    2    0    0  0.32558018939E+03  0.91440198123E+02 -0.19782547648E+03  0.39178908701E+03  0.00000000000E+00 0. -1.
<mgrwt>
<rscale>  0 0.13523586E+04</rscale>
<asrwt>0</asrwt>
<pdfrwt beam="1">  1        1 0.67324585E+00 0.13523586E+04</pdfrwt>
<pdfrwt beam="2">  1       -1 0.16073978E-01 0.13523586E+04</pdfrwt>
<totfact> 0.12780847E+00</totfact>
</mgrwt>
</event>
<event>
 6    1  0.1878398E-004  0.2876880E+04  0.7818608E-02  0.8279790E-01
         -1   -1    0    0    0  501 -0.00000000000E+00  0.00000000000E+00  0.21281932756E+04  0.21281932756E+04  0.00000000000E+00 0. -1.
          1   -1    0    0  501    0  0.00000000000E+00 -0.00000000000E+00 -0.97223767233E+03  0.97223767233E+03  0.00000000000E+00 0.  1.
         23    2    1    2    0    0  0.11499619002E+04  0.79404492447E+02  0.15027865103E+04  0.18966829994E+04  0.10159556790E+03 0.  0.
         11    1    3    3    0    0  0.28564442940E+02  0.13260220306E+02  0.63760467864E+02  0.71113698436E+02  0.00000000000E+00 0.  1.
        -11    1    3    3    0    0  0.11213974573E+04  0.66144272141E+02  0.14390260424E+04  0.18255693010E+04  0.00000000000E+00 0. -1.
         22    1    1    2    0    0 -0.11499619002E+04 -0.79404492447E+02 -0.34683090707E+03  0.12037479485E+04  0.00000000000E+00 0.  1.
<mgrwt>
<rscale>  0 0.28768800E+04</rscale>
<asrwt>0</asrwt>
<pdfrwt beam="1">  1        1 0.14957503E+00 0.28768800E+04</pdfrwt>
<pdfrwt beam="2">  1       -1 0.32741435E+00 0.28768800E+04</pdfrwt>
<totfact> 0.29952665E-01</totfact>
</mgrwt>
</event>
<event>
 6    1  0.1878398E-004  0.2436476E+04  0.7818608E-02  0.8425972E-01
         -2   -1    0    0    0  501 -0.00000000000E+00  0.00000000000E+00  0.81535463953E+03  0.81535463953E+03  0.00000000000E+00 0. -1.
          2   -1    0    0  501    0  0.00000000000E+00 -0.00000000000E+00 -0.18201942481E+04  0.18201942481E+04  0.00000000000E+00 0.  1.
         23    2    1    2    0    0  0.23565414474E+03  0.34909707403E+03 -0.17376525333E+04  0.17903173065E+04  0.91641085319E+02 0.  0.
         11    1    3    3    0    0  0.94481411540E+02  0.14701985593E+03 -0.54055800228E+03  0.56810608956E+03  0.00000000000E+00 0.  1.
        -11    1    3    3    0    0  0.14117273320E+03  0.20207721810E+03 -0.11970945310E+04  0.12222112170E+04  0.00000000000E+00 0. -1.
         22    1    1    2    0    0 -0.23565414474E+03 -0.34909707403E+03  0.73281292473E+03  0.84523158110E+03  0.00000000000E+00 0. -1.
<mgrwt>
<rscale>  0 0.24364760E+04</rscale>
<asrwt>0</asrwt>
<pdfrwt beam="1">  1        2 0.28002988E+00 0.24364760E+04</pdfrwt>
<pdfrwt beam="2">  1       -2 0.12543918E+00 0.24364760E+04</pdfrwt>
<totfact> 0.35833841E+00</totfact>
</mgrwt>
</event>
<event>
 6    1  0.1878398E-004  0.1511054E+04  0.7818608E-02  0.8877135E-01
          2   -1    0    0  501    0  0.00000000000E+00  0.00000000000E+00  0.11724533911E+04  0.11724533911E+04  0.00000000000E+00 0.  1.
         -2   -1    0    0    0  501 -0.00000000000E+00 -0.00000000000E+00 -0.48686028635E+03  0.48686028635E+03  0.00000000000E+00 0. -1.
         23    2    1    2    0    0  0.54504766977E+03  0.51858251657E+03  0.32339815051E+03  0.82433465153E+03  0.94532878651E+02 0.  0.
         11    1    3    3    0    0  0.42731856009E+03  0.36216940532E+03  0.26748473895E+03  0.62073820207E+03  0.00000000000E+00 0.  1.
        -11    1    3    3    0    0  0.11772910968E+03  0.15641311126E+03  0.55913411557E+02  0.20359644945E+03  0.00000000000E+00 0. -1.
         22    1    1    2    0    0 -0.54504766977E+03 -0.51858251657E+03  0.36219495421E+03  0.83497902589E+03  0.00000000000E+00 0. -1.
<mgrwt>
<rscale>  0 0.15110539E+04</rscale>
<asrwt>0</asrwt>
<pdfrwt beam="1">  1        2 0.18037744E+00 0.15110539E+04</pdfrwt>
<pdfrwt beam="2">  1       -2 0.74901583E-01 0.15110539E+04</pdfrwt>
<totfact> 0.30425128E+01</totfact>
</mgrwt>
</event>
<event>
 6    1  0.1878398E-004  0.1319445E+04  0.7818608E-02  0.9014286E-01
          2   -1    0    0  501    0  0.00000000000E+00  0.00000000000E+00  0.31375115145E+04  0.31375115145E+04  0.00000000000E+00 0.  1.
         -2   -1    0    0    0  501 -0.00000000000E+00 -0.00000000000E+00 -0.13871941473E+03  0.13871941473E+03  0.00000000000E+00 0. -1.
         23    2    1    2    0    0  0.41645300721E+03  0.44365935190E+02  0.27621037272E+04  0.27951666621E+04  0.91313884858E+02 0.  0.
         13    1    3    3    0    0  0.13469705609E+03  0.57274901186E+02  0.98743443020E+03  0.99822365488E+03  0.00000000000E+00 0.  1.
        -13    1    3    3    0    0  0.28175595112E+03 -0.12908965995E+02  0.17746692970E+04  0.17969430072E+04  0.00000000000E+00 0. -1.
         22    1    1    2    0    0 -0.41645300721E+03 -0.44365935190E+02  0.23668837256E+03  0.48106426715E+03  0.00000000000E+00 0. -1.
<mgrwt>
<rscale>  0 0.13194450E+04</rscale>
<asrwt>0</asrwt>
<pdfrwt beam="1">  1        2 0.48269403E+00 0.13194450E+04</pdfrwt>
<pdfrwt beam="2">  1       -2 0.21341451E-01 0.13194450E+04</pdfrwt>
<totfact> 0.26911517E+01</totfact>
</mgrwt>
</event>
<event>
 6    1  0.1878398E-004  0.7727299E+03  0.7818608E-02  0.9600351E-01
         -2   -1    0    0    0  501 -0.00000000000E+00  0.00000000000E+00  0.17436602527E+03  0.17436602527E+03  0.00000000000E+00 0. -1.
          2   -1    0    0  501    0  0.00000000000E+00 -0.00000000000E+00 -0.85611778793E+03  0.85611778793E+03  0.00000000000E+00 0.  1.
         23    2    1    2    0    0 -0.15471925336E+03  0.26497152702E+03 -0.44934909046E+02  0.32360075177E+03  0.92468064781E+02 0.  0.
         13    1    3    3    0    0 -0.77026822053E+02  0.10612603437E+03  0.24911650588E+02  0.13347830094E+03  0.00000000000E+00 0. -1.
        -13    1    3    3    0    0 -0.77692431306E+02  0.15884549264E+03 -0.69846559634E+02  0.19012245082E+03  0.00000000000E+00 0.  1.
         22    1    1    2    0    0  0.15471925336E+03 -0.26497152702E+03 -0.63681685362E+03  0.70688306143E+03  0.00000000000E+00 0.  1.
<mgrwt>
<rscale>  0 0.77272985E+03</rscale>
<asrwt>0</asrwt>
<pdfrwt beam="1">  1        2 0.13171043E+00 0.77272985E+03</pdfrwt>
<pdfrwt beam="2">  1       -2 0.26825542E-01 0.77272985E+03</pdfrwt>
<totfact> 0.39820797E+02</totfact>
</mgrwt>
</event>
<event>
 6    1  0.1878398E-004  0.1278112E+04  0.7818608E-02  0.9047105E-01
         -2   -1    0    0    0  501 -0.00000000000E+00  0.00000000000E+00  0.13922131714E+03  0.13922131714E+03  0.00000000000E+00 0. -1.
          2   -1    0    0  501    0  0.00000000000E+00 -0.00000000000E+00 -0.29334036367E+04  0.29334036367E+04  0.00000000000E+00 0.  1.
         23    2    1    2    0    0 -0.21862413109E+03 -0.39135970175E+03 -0.24881226437E+04  0.25298253112E+04  0.91120185902E+02 0.  0.
         11    1    3    3    0    0 -0.79301096789E+01 -0.86535061371E+02 -0.47202044059E+03  0.47995260164E+03  0.00000000000E+00 0. -1.
        -11    1    3    3    0    0 -0.21069402141E+03 -0.30482464038E+03 -0.20161022031E+04  0.20498727095E+04  0.00000000000E+00 0.  1.
         22    1    1    2    0    0  0.21862413109E+03  0.39135970175E+03 -0.30605967586E+03  0.54279964263E+03  0.00000000000E+00 0. -1.
<mgrwt>
<rscale>  0 0.12781116E+04</rscale>
<asrwt>0</asrwt>
<pdfrwt beam="1">  1        2 0.45129288E+00 0.12781116E+04</pdfrwt>
<pdfrwt beam="2">  1       -2 0.21418664E-01 0.12781116E+04</pdfrwt>
<totfact> 0.36004015E+01</totfact>
</mgrwt>
</event>
<event>
 6    1  0.1878398E-004  0.1221558E+04  0.7818608E-02  0.9094193E-01
         -2   -1    0    0    0  501 -0.00000000000E+00  0.00000000000E+00  0.68824295036E+03  0.68824295036E+03  0.00000000000E+00 0.  1.
          2   -1    0    0  501    0  0.00000000000E+00 -0.00000000000E+00 -0.54203395286E+03  0.54203395286E+03  0.00000000000E+00 0. -1.
         23    2    1    2    0    0 -0.33917412590E+03 -0.28786125046E+03  0.48862199080E+03  0.66889481837E+03  0.10375760668E+03 0.  0.
         11    1    3    3    0    0 -0.28400816225E+03 -0.19934252673E+03  0.32863349425E+03  0.47791008854E+03  0.00000000000E+00 0. -1.
        -11    1    3    3    0    0 -0.55165963651E+02 -0.88518723737E+02  0.15998849655E+03  0.19098472982E+03  0.00000000000E+00 0.  1.
         22    1    1    2    0    0  0.33917412590E+03  0.28786125046E+03 -0.34241299330E+03  0.56138208484E+03  0.00000000000E+00 0. -1.
<mgrwt>
<rscale>  0 0.12215581E+04</rscale>
<asrwt>0</asrwt>
<pdfrwt beam="1">  1        2 0.83389839E-01 0.12215581E+04</pdfrwt>
<pdfrwt beam="2">  1       -2 0.10588353E+00 0.12215581E+04</pdfrwt>
<totfact> 0.39765417E+01</totfact>
</mgrwt>
</event>
<event>
 6    1  0.1878398E-004  0.1522557E+04  0.7818608E-02  0.8869590E-01
         -2   -1    0    0    0  501 -0.00000000000E+00  0.00000000000E+00  0.28614833333E+03  0.28614833333E+03  0.00000000000E+00 0. -1.
          2   -1    0    0  501    0  0.00000000000E+00 -0.00000000000E+00 -0.20253314950E+04  0.20253314950E+04  0.00000000000E+00 0.  1.
         23    2    1    2    0    0  0.50594782005E+03 -0.71672373429E+02 -0.17236572820E+04  0.18002448738E+04  0.93632549034E+02 0.  0.
         13    1    3    3    0    0  0.15931090646E+03 -0.49869228673E+02 -0.44588860506E+03  0.47611296244E+03  0.00000000000E+00 0. -1.
        -13    1    3    3    0    0  0.34663691359E+03 -0.21803144756E+02 -0.12777686769E+04  0.13241319114E+04  0.00000000000E+00 0.  1.
         22    1    1    2    0    0 -0.50594782005E+03  0.71672373429E+02 -0.15525879637E+02  0.51123495446E+03  0.00000000000E+00 0. -1.
<mgrwt>
<rscale>  0 0.15225574E+04</rscale>
<asrwt>0</asrwt>
<pdfrwt beam="1">  1        2 0.31158947E+00 0.15225574E+04</pdfrwt>
<pdfrwt beam="2">  1       -2 0.44022819E-01 0.15225574E+04</pdfrwt>
<totfact> 0.30538663E+01</totfact>
</mgrwt>
</event>
<event>
 6    1  0.1878398E-004  0.2776433E+04  0.7818608E-02  0.8310622E-01
         -1   -1    0    0    0  501 -0.00000000000E+00  0.00000000000E+00  0.12644727240E+04  0.12644727240E+04  0.00000000000E+00 0.  1.
          1   -1    0    0  501    0  0.00000000000E+00 -0.00000000000E+00 -0.15240701552E+04  0.15240701552E+04  0.00000000000E+00 0. -1.
         23    2    1    2    0    0 -0.95191457202E+03 -0.10054641553E+04 -0.51132757331E+02  0.13883439504E+04  0.88231772193E+02 0.  0.
         11    1    3    3    0    0 -0.59866300644E+02 -0.96136782949E+02  0.40532373384E+01  0.11332556517E+03  0.00000000000E+00 0. -1.
        -11    1    3    3    0    0 -0.89204827138E+03 -0.90932737234E+03 -0.55185994670E+02  0.12750183852E+04  0.00000000000E+00 0.  1.
         22    1    1    2    0    0  0.95191457202E+03  0.10054641553E+04 -0.20846467381E+03  0.14001989288E+04  0.00000000000E+00 0. -1.
<mgrwt>
<rscale>  0 0.27764331E+04</rscale>
<asrwt>0</asrwt>
<pdfrwt beam="1">  1        1 0.23447233E+00 0.27764331E+04</pdfrwt>
<pdfrwt beam="2">  1       -1 0.19453426E+00 0.27764331E+04</pdfrwt>
<totfact> 0.89694929E-01</totfact>
</mgrwt>
</event>
<event>
 6    1  0.1878398E-004  0.1914342E+04  0.7818608E-02  0.8647750E-01
          2   -1    0    0  501    0  0.00000000000E+00  0.00000000000E+00  0.28144418337E+04  0.28144418337E+04  0.00000000000E+00 0.  1.
         -2   -1    0    0    0  501 -0.00000000000E+00 -0.00000000000E+00 -0.32552679063E+03  0.32552679063E+03  0.00000000000E+00 0. -1.
         23    2    1    2    0    0 -0.77677908644E+02  0.90554254467E+03  0.76656492893E+03  0.11925264369E+04  0.91958440374E+02 0.  0.
         11    1    3    3    0    0 -0.26212503158E+02  0.46290629985E+03  0.33342550273E+03  0.57108835011E+03  0.00000000000E+00 0.  1.
        -11    1    3    3    0    0 -0.51465405486E+02  0.44263624482E+03  0.43313942620E+03  0.62143808679E+03  0.00000000000E+00 0. -1.
         22    1    1    2    0    0  0.77677908644E+02 -0.90554254467E+03  0.17223501142E+04  0.19474421875E+04  0.00000000000E+00 0. -1.
<mgrwt>
<rscale>  0 0.19143419E+04</rscale>
<asrwt>0</asrwt>
<pdfrwt beam="1">  1        2 0.43299104E+00 0.19143419E+04</pdfrwt>
<pdfrwt beam="2">  1       -2 0.50081047E-01 0.19143419E+04</pdfrwt>
<totfact> 0.80122804E+00</totfact>
</mgrwt>
</event>
<event>
 6    1  0.1878398E-004  0.1968803E+04  0.7818608E-02  0.8621347E-01
         -1   -1    0    0    0  501 -0.00000000000E+00  0.00000000000E+00  0.62440791734E+03  0.62440791734E+03  0.00000000000E+00 0.  1.
          1   -1    0    0  501    0  0.00000000000E+00 -0.00000000000E+00 -0.15519447682E+04  0.15519447682E+04  0.00000000000E+00 0. -1.
         23    2    1    2    0    0 -0.84039476141E+03  0.48039752743E+03 -0.65070633188E+03  0.11695357828E+04  0.85732593208E+02 0.  0.
         11    1    3    3    0    0 -0.61798236704E+03  0.39566418668E+03 -0.49081338855E+03  0.88280809747E+03  0.00000000000E+00 0.  1.
        -11    1    3    3    0    0 -0.22241239437E+03  0.84733340752E+02 -0.15989294334E+03  0.28672768533E+03  0.00000000000E+00 0. -1.
         22    1    1    2    0    0  0.84039476141E+03 -0.48039752743E+03 -0.27683051895E+03  0.10068169027E+04  0.00000000000E+00 0. -1.
<mgrwt>
<rscale>  0 0.19688033E+04</rscale>
<asrwt>0</asrwt>
<pdfrwt beam="1">  1        1 0.23876073E+00 0.19688033E+04</pdfrwt>
<pdfrwt beam="2">  1       -1 0.96062757E-01 0.19688033E+04</pdfrwt>
<totfact> 0.58488009E+00</totfact>
</mgrwt>
</event>
<event>
 6    1  0.1878398E-004  0.4377987E+04  0.7818608E-02  0.7932353E-01
         -2   -1    0    0    0  501 -0.00000000000E+00  0.00000000000E+00  0.25615956955E+04  0.25615956955E+04  0.00000000000E+00 0. -1.
          2   -1    0    0  501    0  0.00000000000E+00 -0.00000000000E+00 -0.18705888260E+04  0.18705888260E+04  0.00000000000E+00 0.  1.
         23    2    1    2    0    0 -0.32151831646E+03 -0.15602527653E+04 -0.11727929395E+04  0.19803459363E+04  0.92542038583E+02 0.  0.
         11    1    3    3    0    0 -0.10962425875E+03 -0.72269793943E+03 -0.56906011534E+03  0.92635803263E+03  0.00000000000E+00 0. -1.
        -11    1    3    3    0    0 -0.21189405770E+03 -0.83755482588E+03 -0.60373282419E+03  0.10539879037E+04  0.00000000000E+00 0.  1.
         22    1    1    2    0    0  0.32151831646E+03  0.15602527653E+04  0.18637998091E+04  0.24518385852E+04  0.00000000000E+00 0. -1.
<mgrwt>
<rscale>  0 0.43779869E+04</rscale>
<asrwt>0</asrwt>
<pdfrwt beam="1">  1        2 0.28778289E+00 0.43779869E+04</pdfrwt>
<pdfrwt beam="2">  1       -2 0.39409165E+00 0.43779869E+04</pdfrwt>
<totfact> 0.48938084E-02</totfact>
</mgrwt>
</event>
<event>
 6    1  0.1878398E-004  0.3160510E+04  0.7818608E-02  0.8199325E-01
         -2   -1    0    0    0  501 -0.00000000000E+00  0.00000000000E+00  0.87074903270E+03  0.87074903270E+03  0.00000000000E+00 0. -1.
          2   -1    0    0  501    0  0.00000000000E+00 -0.00000000000E+00 -0.28678832384E+04  0.28678832384E+04  0.00000000000E+00 0.  1.
         23    2    1    2    0    0 -0.14376118763E+04  0.29066931056E+03 -0.30774396531E+03  0.15013893386E+04  0.90813230492E+02 0.  0.
         11    1    3    3    0    0 -0.75874175871E+03  0.15082835088E+03 -0.20853118894E+03  0.80120128844E+03  0.00000000000E+00 0.  1.
        -11    1    3    3    0    0 -0.67887011756E+03  0.13984095968E+03 -0.99212776374E+02  0.70018805011E+03  0.00000000000E+00 0. -1.
         22    1    1    2    0    0  0.14376118763E+04 -0.29066931056E+03 -0.16893902404E+04  0.22372429325E+04  0.00000000000E+00 0. -1.
<mgrwt>
<rscale>  0 0.31605104E+04</rscale>
<asrwt>0</asrwt>
<pdfrwt beam="1">  1        2 0.44121280E+00 0.31605104E+04</pdfrwt>
<pdfrwt beam="2">  1       -2 0.13396139E+00 0.31605104E+04</pdfrwt>
<totfact> 0.71428385E-01</totfact>
</mgrwt>
</event>
<event>
 6    1  0.1878398E-004  0.1190184E+04  0.7818608E-02  0.9121492E-01
          2   -1    0    0  501    0  0.00000000000E+00  0.00000000000E+00  0.14515174725E+04  0.14515174725E+04  0.00000000000E+00 0.  1.
         -2   -1    0    0    0  501 -0.00000000000E+00 -0.00000000000E+00 -0.24397537061E+03  0.24397537061E+03  0.00000000000E+00 0. -1.
         23    2    1    2    0    0 -0.33333373244E+03  0.17503597323E+03  0.12574361408E+04  0.13157055550E+04  0.90479225561E+02 0.  0.
         11    1    3    3    0    0 -0.24798332379E+02 -0.75675173508E+01  0.13273314981E+03  0.13524168612E+03  0.00000000000E+00 0.  1.
        -11    1    3    3    0    0 -0.30853540006E+03  0.18260349058E+03  0.11247029910E+04  0.11804638689E+04  0.00000000000E+00 0. -1.
         22    1    1    2    0    0  0.33333373244E+03 -0.17503597323E+03 -0.49894038860E+02  0.37978728812E+03  0.00000000000E+00 0. -1.
<mgrwt>
<rscale>  0 0.11901840E+04</rscale>
<asrwt>0</asrwt>
<pdfrwt beam="1">  1        2 0.22331038E+00 0.11901840E+04</pdfrwt>
<pdfrwt beam="2">  1       -2 0.37534673E-01 0.11901840E+04</pdfrwt>
<totfact> 0.89339907E+01</totfact>
</mgrwt>
</event>
<event>
 6    1  0.1878398E-004  0.2566821E+04  0.7818608E-02  0.8379559E-01
         -2   -1    0    0    0  501 -0.00000000000E+00  0.00000000000E+00  0.15473379489E+04  0.15473379489E+04  0.00000000000E+00 0. -1.
          2   -1    0    0  501    0  0.00000000000E+00 -0.00000000000E+00 -0.10645009311E+04  0.10645009311E+04  0.00000000000E+00 0.  1.
         23    2    1    2    0    0  0.85928528834E+03  0.22584795044E+03 -0.69849280809E+03  0.11336918437E+04  0.89367164652E+02 0.  0.
         11    1    3    3    0    0  0.69570342346E+03  0.20175135162E+03 -0.60471007428E+03  0.94360009285E+03  0.00000000000E+00 0.  1.
        -11    1    3    3    0    0  0.16358186488E+03  0.24096598820E+02 -0.93782733808E+02  0.19009175088E+03  0.00000000000E+00 0. -1.
         22    1    1    2    0    0 -0.85928528834E+03 -0.22584795044E+03  0.11813298259E+04  0.14781470363E+04  0.00000000000E+00 0. -1.
<mgrwt>
<rscale>  0 0.25668211E+04</rscale>
<asrwt>0</asrwt>
<pdfrwt beam="1">  1        2 0.16376937E+00 0.25668211E+04</pdfrwt>
<pdfrwt beam="2">  1       -2 0.23805199E+00 0.25668211E+04</pdfrwt>
<totfact> 0.15484279E+00</totfact>
</mgrwt>
</event>
<event>
 6    1  0.1878398E-004  0.3513312E+04  0.7818608E-02  0.8110642E-01
         -2   -1    0    0    0  501 -0.00000000000E+00  0.00000000000E+00  0.12714375987E+04  0.12714375987E+04  0.00000000000E+00 0. -1.
          2   -1    0    0  501    0  0.00000000000E+00 -0.00000000000E+00 -0.24270481777E+04  0.24270481777E+04  0.00000000000E+00 0.  1.
         23    2    1    2    0    0 -0.65042715300E+03 -0.53351102597E+03  0.10437408117E+04  0.13437382239E+04  0.92455590062E+02 0.  0.
         13    1    3    3    0    0 -0.38667487241E+03 -0.27308213648E+03  0.53627643266E+03  0.71532071300E+03  0.00000000000E+00 0.  1.
        -13    1    3    3    0    0 -0.26375228059E+03 -0.26042888949E+03  0.50746437901E+03  0.62841751087E+03  0.00000000000E+00 0. -1.
         22    1    1    2    0    0  0.65042715300E+03  0.53351102597E+03 -0.21993513907E+04  0.23547475525E+04  0.00000000000E+00 0.  1.
<mgrwt>
<rscale>  0 0.35133120E+04</rscale>
<asrwt>0</asrwt>
<pdfrwt beam="1">  1        2 0.37339202E+00 0.35133120E+04</pdfrwt>
<pdfrwt beam="2">  1       -2 0.19560579E+00 0.35133120E+04</pdfrwt>
<totfact> 0.44766989E-01</totfact>
</mgrwt>
</event>
<event>
 6    1  0.1878398E-004  0.1929875E+04  0.7818608E-02  0.8640127E-01
         -2   -1    0    0    0  501 -0.00000000000E+00  0.00000000000E+00  0.40216557851E+03  0.40216557851E+03  0.00000000000E+00 0.  1.
          2   -1    0    0  501    0  0.00000000000E+00 -0.00000000000E+00 -0.23152275786E+04  0.23152275786E+04  0.00000000000E+00 0. -1.
         23    2    1    2    0    0  0.91749112914E+03 -0.92218096697E+02 -0.13481933189E+04  0.16360186723E+04  0.92939343445E+02 0.  0.
         11    1    3    3    0    0  0.53992254520E+03 -0.27414231603E+02 -0.72264889798E+03  0.90249062304E+03  0.00000000000E+00 0. -1.
        -11    1    3    3    0    0  0.37756858393E+03 -0.64803865094E+02 -0.62554442092E+03  0.73352804925E+03  0.00000000000E+00 0.  1.
         22    1    1    2    0    0 -0.91749112914E+03  0.92218096697E+02 -0.56486868118E+03  0.10813744848E+04  0.00000000000E+00 0.  1.
<mgrwt>
<rscale>  0 0.19298755E+04</rscale>
<asrwt>0</asrwt>
<pdfrwt beam="1">  1        2 0.35618885E+00 0.19298755E+04</pdfrwt>
<pdfrwt beam="2">  1       -2 0.61871629E-01 0.19298755E+04</pdfrwt>
<totfact> 0.10077991E+01</totfact>
</mgrwt>
</event>
<event>
 6    1  0.1878398E-004  0.1909823E+04  0.7818608E-02  0.8649982E-01
         -1   -1    0    0    0  501 -0.00000000000E+00  0.00000000000E+00  0.19424970583E+04  0.19424970583E+04  0.00000000000E+00 0. -1.
          1   -1    0    0  501    0  0.00000000000E+00 -0.00000000000E+00 -0.46942461866E+03  0.46942461866E+03  0.00000000000E+00 0.  1.
         23    2    1    2    0    0 -0.10959508437E+03  0.49672205220E+03 -0.27921083914E+03  0.58730101260E+03  0.90663703045E+02 0.  0.
         13    1    3    3    0    0 -0.58814291704E+02  0.38788444379E+03 -0.18054257779E+03  0.43186697610E+03  0.00000000000E+00 0. -1.
        -13    1    3    3    0    0 -0.50780792667E+02  0.10883760841E+03 -0.98668261347E+02  0.15543403651E+03  0.00000000000E+00 0.  1.
         22    1    1    2    0    0  0.10959508437E+03 -0.49672205220E+03  0.17522832787E+04  0.18246206643E+04  0.00000000000E+00 0. -1.
<mgrwt>
<rscale>  0 0.19098230E+04</rscale>
<asrwt>0</asrwt>
<pdfrwt beam="1">  1        1 0.72219173E-01 0.19098230E+04</pdfrwt>
<pdfrwt beam="2">  1       -1 0.29884570E+00 0.19098230E+04</pdfrwt>
<totfact> 0.15196187E+00</totfact>
</mgrwt>
</event>
<event>
 6    1  0.1878398E-004  0.2884040E+04  0.7818608E-02  0.8277642E-01
         -2   -1    0    0    0  501 -0.00000000000E+00  0.00000000000E+00  0.57998223006E+03  0.57998223006E+03  0.00000000000E+00 0.  1.
          2   -1    0    0  501    0  0.00000000000E+00 -0.00000000000E+00 -0.35853201971E+04  0.35853201971E+04  0.00000000000E+00 0. -1.
         23    2    1    2    0    0 -0.27996018374E+03 -0.58645529411E+03 -0.33610283958E+04  0.34244764034E+04  0.90660042840E+02 0.  0.
         13    1    3    3    0    0 -0.16596171748E+03 -0.33356414337E+03 -0.16900482601E+04  0.17306274731E+04  0.00000000000E+00 0. -1.
        -13    1    3    3    0    0 -0.11399846626E+03 -0.25289115074E+03 -0.16709801358E+04  0.16938489303E+04  0.00000000000E+00 0.  1.
         22    1    1    2    0    0  0.27996018374E+03  0.58645529411E+03  0.35569042873E+03  0.74082602381E+03  0.00000000000E+00 0.  1.
<mgrwt>
<rscale>  0 0.28840402E+04</rscale>
<asrwt>0</asrwt>
<pdfrwt beam="1">  1        2 0.55158773E+00 0.28840402E+04</pdfrwt>
<pdfrwt beam="2">  1       -2 0.89228035E-01 0.28840402E+04</pdfrwt>
<totfact> 0.65872582E-01</totfact>
</mgrwt>
</event>
<event>
 6    1  0.1878398E-004  0.1935588E+04  0.7818608E-02  0.8637342E-01
          2   -1    0    0  501    0  0.00000000000E+00  0.00000000000E+00  0.20231504899E+04  0.20231504899E+04  0.00000000000E+00 0.  1.
         -2   -1    0    0    0  501 -0.00000000000E+00 -0.00000000000E+00 -0.46295404466E+03  0.46295404466E+03  0.00000000000E+00 0. -1.
         23    2    1    2    0    0  0.19753746457E+03  0.89840427412E+03  0.11624547851E+04  0.14839320355E+04  0.67837075691E+02 0.  0.
         11    1    3    3    0    0  0.40372297690E+02  0.23356871040E+03  0.34529029697E+03  0.41881935734E+03  0.00000000000E+00 0. -1.
        -11    1    3    3    0    0  0.15716516688E+03  0.66483556373E+03  0.81716448816E+03  0.10651126782E+04  0.00000000000E+00 0.  1.
         22    1    1    2    0    0 -0.19753746457E+03 -0.89840427412E+03  0.39774166010E+03  0.10021724990E+04  0.00000000000E+00 0. -1.
<mgrwt>
<rscale>  0 0.19355885E+04</rscale>
<asrwt>0</asrwt>
<pdfrwt beam="1">  1        2 0.31125392E+00 0.19355885E+04</pdfrwt>
<pdfrwt beam="2">  1       -2 0.71223700E-01 0.19355885E+04</pdfrwt>
<totfact> 0.10839479E+01</totfact>
</mgrwt>
</event>
<event>
 6    1  0.1878398E-004  0.2069417E+04  0.7818608E-02  0.8574837E-01
          2   -1    0    0  501    0  0.00000000000E+00  0.00000000000E+00  0.24859448079E+04  0.24859448079E+04  0.00000000000E+00 0.  1.
         -2   -1    0    0    0  501 -0.00000000000E+00 -0.00000000000E+00 -0.43066974587E+03  0.43066974587E+03  0.00000000000E+00 0. -1.
         23    2    1    2    0    0 -0.33476594140E+03  0.57261489982E+03 -0.85807744770E+02  0.67514368745E+03  0.92195285249E+02 0.  0.
         13    1    3    3    0    0 -0.13506074700E+03  0.25825075047E+03  0.62433794604E+01  0.29150271918E+03  0.00000000000E+00 0. -1.
        -13    1    3    3    0    0 -0.19970519440E+03  0.31436414935E+03 -0.92051124230E+02  0.38364096827E+03  0.00000000000E+00 0.  1.
         22    1    1    2    0    0  0.33476594140E+03 -0.57261489982E+03  0.21410828068E+04  0.22414708663E+04  0.00000000000E+00 0.  1.
<mgrwt>
<rscale>  0 0.20694166E+04</rscale>
<asrwt>0</asrwt>
<pdfrwt beam="1">  1        2 0.38245304E+00 0.20694166E+04</pdfrwt>
<pdfrwt beam="2">  1       -2 0.66256885E-01 0.20694166E+04</pdfrwt>
<totfact> 0.68669001E+00</totfact>
</mgrwt>
</event>
<event>
 6    1  0.1878398E-004  0.1103598E+04  0.7818608E-02  0.9201692E-01
         -2   -1    0    0    0  501 -0.00000000000E+00  0.00000000000E+00  0.11765364476E+04  0.11765364476E+04  0.00000000000E+00 0. -1.
          2   -1    0    0  501    0  0.00000000000E+00 -0.00000000000E+00 -0.25879515825E+03  0.25879515825E+03  0.00000000000E+00 0.  1.
         23    2    1    2    0    0  0.12401818646E+03  0.91170091409E+02  0.11460569498E+04  0.11599763136E+04  0.91684349664E+02 0.  0.
         11    1    3    3    0    0  0.80002312505E+02  0.26453066959E+02  0.34652264749E+03  0.35662035834E+03  0.00000000000E+00 0.  1.
        -11    1    3    3    0    0  0.44015873959E+02  0.64717024450E+02  0.79953430228E+03  0.80335595531E+03  0.00000000000E+00 0. -1.
         22    1    1    2    0    0 -0.12401818646E+03 -0.91170091409E+02 -0.22831566043E+03  0.27535529220E+03  0.00000000000E+00 0.  1.
<mgrwt>
<rscale>  0 0.11035976E+04</rscale>
<asrwt>0</asrwt>
<pdfrwt beam="1">  1        2 0.39814640E-01 0.11035976E+04</pdfrwt>
<pdfrwt beam="2">  1       -2 0.18100560E+00 0.11035976E+04</pdfrwt>
<totfact> 0.22917478E+01</totfact>
</mgrwt>
</event>
<event>
 6    1  0.1878398E-004  0.3047910E+04  0.7818608E-02  0.8230181E-01
          1   -1    0    0  501    0  0.00000000000E+00  0.00000000000E+00  0.26601151173E+04  0.26601151173E+04  0.00000000000E+00 0.  1.
         -1   -1    0    0    0  501 -0.00000000000E+00 -0.00000000000E+00 -0.87305977802E+03  0.87305977802E+03  0.00000000000E+00 0. -1.
         23    2    1    2    0    0  0.87181169929E+03 -0.86574422695E+02  0.23377308380E+04  0.24983829961E+04  0.96857394348E+02 0.  0.
         11    1    3    3    0    0  0.61883007715E+03 -0.10408106922E+03  0.16336402369E+04  0.17500182734E+04  0.00000000000E+00 0.  1.
        -11    1    3    3    0    0  0.25298162214E+03  0.17506646528E+02  0.70409060106E+03  0.74836472279E+03  0.00000000000E+00 0. -1.
         22    1    1    2    0    0 -0.87181169929E+03  0.86574422695E+02 -0.55067549872E+03  0.10347918992E+04  0.00000000000E+00 0. -1.
<mgrwt>
<rscale>  0 0.30479104E+04</rscale>
<asrwt>0</asrwt>
<pdfrwt beam="1">  1        1 0.40924848E+00 0.30479104E+04</pdfrwt>
<pdfrwt beam="2">  1       -1 0.13431689E+00 0.30479104E+04</pdfrwt>
<totfact> 0.41393276E-01</totfact>
</mgrwt>
</event>
<event>
 6    1  0.1878398E-004  0.2392738E+04  0.7818608E-02  0.8442227E-01
         -2   -1    0    0    0  501 -0.00000000000E+00  0.00000000000E+00  0.75274716013E+03  0.75274716013E+03  0.00000000000E+00 0. -1.
          2   -1    0    0  501    0  0.00000000000E+00 -0.00000000000E+00 -0.19014340738E+04  0.19014340738E+04  0.00000000000E+00 0.  1.
         23    2    1    2    0    0 -0.32449079488E+03 -0.11496977517E+04 -0.58229974687E+03  0.13321019553E+04  0.91232823266E+02 0.  0.
         11    1    3    3    0    0 -0.80738023480E+02 -0.37811343550E+03 -0.22712178444E+03  0.44841131064E+03  0.00000000000E+00 0.  1.
        -11    1    3    3    0    0 -0.24375277140E+03 -0.77158431618E+03 -0.35517796242E+03  0.88369064470E+03  0.00000000000E+00 0. -1.
         22    1    1    2    0    0  0.32449079488E+03  0.11496977517E+04 -0.56638716684E+03  0.13220792786E+04  0.00000000000E+00 0.  1.
<mgrwt>
<rscale>  0 0.23927383E+04</rscale>
<asrwt>0</asrwt>
<pdfrwt beam="1">  1        2 0.29252832E+00 0.23927383E+04</pdfrwt>
<pdfrwt beam="2">  1       -2 0.11580726E+00 0.23927383E+04</pdfrwt>
<totfact> 0.39531997E+00</totfact>
</mgrwt>
</event>
<event>
 6    1  0.1878398E-004  0.7762554E+03  0.7818608E-02  0.9595037E-01
         -4   -1    0    0    0  501 -0.00000000000E+00  0.00000000000E+00  0.10528223175E+04  0.10528223175E+04  0.00000000000E+00 0. -1.
          4   -1    0    0  501    0  0.00000000000E+00 -0.00000000000E+00 -0.14308504591E+03  0.14308504591E+03  0.00000000000E+00 0.  1.
         23    2    1    2    0    0  0.23685290316E+03  0.29796782672E+03  0.52781611486E+03  0.65669692820E+03  0.88186625385E+02 0.  0.
         11    1    3    3    0    0  0.12035539854E+03  0.10932756064E+03  0.16609337016E+03  0.23243266785E+03  0.00000000000E+00 0.  1.
        -11    1    3    3    0    0  0.11649750462E+03  0.18864026608E+03  0.36172274471E+03  0.42426426035E+03  0.00000000000E+00 0. -1.
         22    1    1    2    0    0 -0.23685290316E+03 -0.29796782672E+03  0.38192115674E+03  0.53921043523E+03  0.00000000000E+00 0. -1.
<mgrwt>
<rscale>  0 0.77625545E+03</rscale>
<asrwt>0</asrwt>
<pdfrwt beam="1">  1        4 0.22013085E-01 0.77625545E+03</pdfrwt>
<pdfrwt beam="2">  1       -4 0.16197266E+00 0.77625545E+03</pdfrwt>
<totfact> 0.93503561E+00</totfact>
</mgrwt>
</event>
<event>
 6    1  0.1878398E-004  0.4137289E+04  0.7818608E-02  0.7977409E-01
         -2   -1    0    0    0  501 -0.00000000000E+00  0.00000000000E+00  0.16243981428E+04  0.16243981428E+04  0.00000000000E+00 0. -1.
          2   -1    0    0  501    0  0.00000000000E+00 -0.00000000000E+00 -0.26343855982E+04  0.26343855982E+04  0.00000000000E+00 0.  1.
         23    2    1    2    0    0 -0.11674719460E+04  0.28312299607E+03  0.12269068987E+04  0.17197197940E+04  0.94795865411E+02 0.  0.
         11    1    3    3    0    0 -0.15884112505E+03  0.71405911213E+02  0.16449067959E+03  0.23955477627E+03  0.00000000000E+00 0. -1.
        -11    1    3    3    0    0 -0.10086308209E+04  0.21171708486E+03  0.10624162191E+04  0.14801650177E+04  0.00000000000E+00 0.  1.
         22    1    1    2    0    0  0.11674719460E+04 -0.28312299607E+03 -0.22368943542E+04  0.25390639471E+04  0.00000000000E+00 0.  1.
<mgrwt>
<rscale>  0 0.41372895E+04</rscale>
<asrwt>0</asrwt>
<pdfrwt beam="1">  1        2 0.40529009E+00 0.41372895E+04</pdfrwt>
<pdfrwt beam="2">  1       -2 0.24990741E+00 0.41372895E+04</pdfrwt>
<totfact> 0.14580496E-01</totfact>
</mgrwt>
</event>
<event>
 6    1  0.1878398E-004  0.9152916E+03  0.7818608E-02  0.9406666E-01
         -2   -1    0    0    0  501 -0.00000000000E+00  0.00000000000E+00  0.22604496640E+03  0.22604496640E+03  0.00000000000E+00 0. -1.
          2   -1    0    0  501    0  0.00000000000E+00 -0.00000000000E+00 -0.92653980352E+03  0.92653980352E+03  0.00000000000E+00 0.  1.
         23    2    1    2    0    0  0.27970444017E+03  0.26635938487E+03 -0.65219877028E+03  0.76333625570E+03  0.90205917443E+02 0.  0.
         11    1    3    3    0    0  0.56854288406E+02  0.12573655513E+02 -0.81004810888E+02  0.99761146295E+02  0.00000000000E+00 0.  1.
        -11    1    3    3    0    0  0.22285015177E+03  0.25378572936E+03 -0.57119395939E+03  0.66357510940E+03  0.00000000000E+00 0. -1.
         22    1    1    2    0    0 -0.27970444017E+03 -0.26635938487E+03 -0.48296066839E+02  0.38924851423E+03  0.00000000000E+00 0. -1.
<mgrwt>
<rscale>  0 0.91529156E+03</rscale>
<asrwt>0</asrwt>
<pdfrwt beam="1">  1        2 0.14254459E+00 0.91529156E+03</pdfrwt>
<pdfrwt beam="2">  1       -2 0.34776149E-01 0.91529156E+03</pdfrwt>
<totfact> 0.21845660E+02</totfact>
</mgrwt>
</event>
<event>
 6    1  0.1878398E-004  0.2304535E+04  0.7818608E-02  0.8476135E-01
         -1   -1    0    0    0  501 -0.00000000000E+00  0.00000000000E+00  0.11131511404E+04  0.11131511404E+04  0.00000000000E+00 0. -1.
          1   -1    0    0  501    0  0.00000000000E+00 -0.00000000000E+00 -0.11927585554E+04  0.11927585554E+04  0.00000000000E+00 0.  1.
         23    2    1    2    0    0 -0.83008658297E+03  0.47308134659E+03 -0.68103654016E+03  0.11769426067E+04  0.92376591839E+02 0.  0.
         13    1    3    3    0    0 -0.14930235012E+03  0.10162080640E+03 -0.17107700587E+03  0.24876760638E+03  0.00000000000E+00 0. -1.
        -13    1    3    3    0    0 -0.68078423286E+03  0.37146054020E+03 -0.50995953428E+03  0.92817500033E+03  0.00000000000E+00 0.  1.
         22    1    1    2    0    0  0.83008658297E+03 -0.47308134659E+03  0.60142912513E+03  0.11289670891E+04  0.00000000000E+00 0. -1.
<mgrwt>
<rscale>  0 0.23045351E+04</rscale>
<asrwt>0</asrwt>
<pdfrwt beam="1">  1        1 0.18350132E+00 0.23045351E+04</pdfrwt>
<pdfrwt beam="2">  1       -1 0.17125402E+00 0.23045351E+04</pdfrwt>
<totfact> 0.23545860E+00</totfact>
</mgrwt>
</event>
<event>
 6    1  0.1878398E-004  0.2472113E+04  0.7818608E-02  0.8412988E-01
          1   -1    0    0  501    0  0.00000000000E+00  0.00000000000E+00  0.75692933469E+03  0.75692933469E+03  0.00000000000E+00 0.  1.
         -1   -1    0    0    0  501 -0.00000000000E+00 -0.00000000000E+00 -0.20184649048E+04  0.20184649048E+04  0.00000000000E+00 0. -1.
         23    2    1    2    0    0  0.29851440459E+03  0.43692969983E+03  0.62033165497E+03  0.82054317991E+03  0.91985518419E+02 0.  0.
         11    1    3    3    0    0  0.11275003132E+03  0.20572736178E+03  0.33510148411E+03  0.40905906860E+03  0.00000000000E+00 0. -1.
        -11    1    3    3    0    0  0.18576437327E+03  0.23120233804E+03  0.28523017086E+03  0.41148411131E+03  0.00000000000E+00 0.  1.
         22    1    1    2    0    0 -0.29851440459E+03 -0.43692969983E+03 -0.18818672251E+04  0.19548510596E+04  0.00000000000E+00 0. -1.
<mgrwt>
<rscale>  0 0.24721127E+04</rscale>
<asrwt>0</asrwt>
<pdfrwt beam="1">  1        1 0.11645067E+00 0.24721127E+04</pdfrwt>
<pdfrwt beam="2">  1       -1 0.31053306E+00 0.24721127E+04</pdfrwt>
<totfact> 0.60662541E-01</totfact>
</mgrwt>
</event>
<event>
 6    1  0.1878398E-004  0.1280722E+04  0.7818608E-02  0.9044994E-01
          2   -1    0    0  501    0  0.00000000000E+00  0.00000000000E+00  0.12285049300E+04  0.12285049300E+04  0.00000000000E+00 0.  1.
         -2   -1    0    0    0  501 -0.00000000000E+00 -0.00000000000E+00 -0.33378980546E+03  0.33378980546E+03  0.00000000000E+00 0. -1.
         23    2    1    2    0    0  0.19251151960E+03  0.44415861131E+03  0.95436692247E+03  0.10745490085E+04  0.97477134314E+02 0.  0.
         11    1    3    3    0    0  0.12104916727E+03  0.16852763624E+03  0.36060995684E+03  0.41604567784E+03  0.00000000000E+00 0. -1.
        -11    1    3    3    0    0  0.71462352324E+02  0.27563097507E+03  0.59375696563E+03  0.65850333063E+03  0.00000000000E+00 0.  1.
         22    1    1    2    0    0 -0.19251151960E+03 -0.44415861131E+03 -0.59651797948E+02  0.48774572697E+03  0.00000000000E+00 0. -1.
<mgrwt>
<rscale>  0 0.12807223E+04</rscale>
<asrwt>0</asrwt>
<pdfrwt beam="1">  1        2 0.18900076E+00 0.12807223E+04</pdfrwt>
<pdfrwt beam="2">  1       -2 0.51352278E-01 0.12807223E+04</pdfrwt>
<totfact> 0.64035466E+01</totfact>
</mgrwt>
</event>
<event>
 6    1  0.1970088E-004  0.4066361E+04  0.7818608E-02  0.7991292E-01
         -2   -1    0    0    0  501 -0.00000000000E+00  0.00000000000E+00  0.19125558155E+04  0.19125558155E+04  0.00000000000E+00 0. -1.
          2   -1    0    0  501    0  0.00000000000E+00 -0.00000000000E+00 -0.21614133565E+04  0.21614133565E+04  0.00000000000E+00 0.  1.
         23    2    1    2    0    0 -0.36702933601E+03 -0.10158877732E+04  0.16000550470E+04  0.19326573639E+04  0.90828584464E+02 0.  0.
         11    1    3    3    0    0 -0.30784222971E+03 -0.77332914826E+03  0.12780853930E+04  0.15252236169E+04  0.00000000000E+00 0.  1.
        -11    1    3    3    0    0 -0.59187106300E+02 -0.24255862494E+03  0.32196965403E+03  0.40743374701E+03  0.00000000000E+00 0. -1.
         22    1    1    2    0    0  0.36702933601E+03  0.10158877732E+04 -0.18489125880E+04  0.21413118080E+04  0.00000000000E+00 0.  1.
<mgrwt>
<rscale>  0 0.40663614E+04</rscale>
<asrwt>0</asrwt>
<pdfrwt beam="1">  1        2 0.33252513E+00 0.40663614E+04</pdfrwt>
<pdfrwt beam="2">  1       -2 0.29423935E+00 0.40663614E+04</pdfrwt>
<totfact> 0.14683180E-01</totfact>
</mgrwt>
</event>
<event>
 6    1  0.1878398E-004  0.4166141E+04  0.7818608E-02  0.7971844E-01
          2   -1    0    0  501    0  0.00000000000E+00  0.00000000000E+00  0.27975830735E+04  0.27975830735E+04  0.00000000000E+00 0.  1.
         -2   -1    0    0    0  501 -0.00000000000E+00 -0.00000000000E+00 -0.15510470947E+04  0.15510470947E+04  0.00000000000E+00 0. -1.
         23    2    1    2    0    0  0.18954230848E+04  0.80105061645E+03  0.95486350156E+03  0.22703174886E+04  0.90919921240E+02 0.  0.
         11    1    3    3    0    0  0.54215593987E+03  0.21577541885E+03  0.22801947406E+03  0.62648621299E+03  0.00000000000E+00 0. -1.
        -11    1    3    3    0    0  0.13532671449E+04  0.58527519759E+03  0.72684402750E+03  0.16438312756E+04  0.00000000000E+00 0.  1.
         22    1    1    2    0    0 -0.18954230848E+04 -0.80105061645E+03  0.29167247720E+03  0.20783126796E+04  0.00000000000E+00 0.  1.
<mgrwt>
<rscale>  0 0.41661412E+04</rscale>
<asrwt>0</asrwt>
<pdfrwt beam="1">  1        2 0.43039740E+00 0.41661412E+04</pdfrwt>
<pdfrwt beam="2">  1       -2 0.23862263E+00 0.41661412E+04</pdfrwt>
<totfact> 0.13640453E-01</totfact>
</mgrwt>
</event>
<event>
 6    1  0.1878398E-004  0.4218667E+04  0.7818608E-02  0.7961831E-01
         -2   -1    0    0    0  501 -0.00000000000E+00  0.00000000000E+00  0.16656125907E+04  0.16656125907E+04  0.00000000000E+00 0. -1.
          2   -1    0    0  501    0  0.00000000000E+00 -0.00000000000E+00 -0.26712627128E+04  0.26712627128E+04  0.00000000000E+00 0.  1.
         23    2    1    2    0    0 -0.11711328286E+04 -0.76382070043E+03  0.11191617844E+04  0.17932951883E+04  0.91708057738E+02 0.  0.
         13    1    3    3    0    0 -0.18044612718E+03 -0.12041620911E+03  0.21775940991E+03  0.30737603816E+03  0.00000000000E+00 0. -1.
        -13    1    3    3    0    0 -0.99068670144E+03 -0.64340449132E+03  0.90140237451E+03  0.14859191501E+04  0.00000000000E+00 0.  1.
         22    1    1    2    0    0  0.11711328286E+04  0.76382070043E+03 -0.21248119065E+04  0.25435801152E+04  0.00000000000E+00 0.  1.
<mgrwt>
<rscale>  0 0.42186675E+04</rscale>
<asrwt>0</asrwt>
<pdfrwt beam="1">  1        2 0.41096349E+00 0.42186675E+04</pdfrwt>
<pdfrwt beam="2">  1       -2 0.25624809E+00 0.42186675E+04</pdfrwt>
<totfact> 0.12592741E-01</totfact>
</mgrwt>
</event>
<event>
 6    1  0.1878398E-004  0.1338212E+04  0.7818608E-02  0.8999800E-01
         -2   -1    0    0    0  501 -0.00000000000E+00  0.00000000000E+00  0.92157877745E+03  0.92157877745E+03  0.00000000000E+00 0. -1.
          2   -1    0    0  501    0  0.00000000000E+00 -0.00000000000E+00 -0.48580003315E+03  0.48580003315E+03  0.00000000000E+00 0.  1.
         23    2    1    2    0    0 -0.71869838037E+02 -0.49360117126E+03 -0.24504819572E+03  0.56338075838E+03  0.92422241939E+02 0.  0.
         11    1    3    3    0    0 -0.81665410150E+02 -0.24255970293E+03 -0.11740387723E+03  0.28158146084E+03  0.00000000000E+00 0.  1.
        -11    1    3    3    0    0  0.97955721130E+01 -0.25104146833E+03 -0.12764431849E+03  0.28179929754E+03  0.00000000000E+00 0. -1.
         22    1    1    2    0    0  0.71869838037E+02  0.49360117126E+03  0.68082694002E+03  0.84399805221E+03  0.00000000000E+00 0. -1.
<mgrwt>
<rscale>  0 0.13382122E+04</rscale>
<asrwt>0</asrwt>
<pdfrwt beam="1">  1        2 0.74738467E-01 0.13382122E+04</pdfrwt>
<pdfrwt beam="2">  1       -2 0.14178135E+00 0.13382122E+04</pdfrwt>
<totfact> 0.21615743E+01</totfact>
</mgrwt>
</event>
<event>
 6    1  0.1878398E-004  0.1256764E+04  0.7818608E-02  0.9064572E-01
         -2   -1    0    0    0  501 -0.00000000000E+00  0.00000000000E+00  0.42950292955E+03  0.42950292955E+03  0.00000000000E+00 0. -1.
          2   -1    0    0  501    0  0.00000000000E+00 -0.00000000000E+00 -0.91935071894E+03  0.91935071894E+03  0.00000000000E+00 0.  1.
         23    2    1    2    0    0 -0.56645448300E+03  0.16296990922E+03 -0.46960740723E+03  0.75907441378E+03  0.90735748752E+02 0.  0.
         11    1    3    3    0    0 -0.10000195388E+03 -0.60561658551E+01 -0.75010791108E+02  0.12515465116E+03  0.00000000000E+00 0.  1.
        -11    1    3    3    0    0 -0.46645252912E+03  0.16902607508E+03 -0.39459661612E+03  0.63391976262E+03  0.00000000000E+00 0. -1.
         22    1    1    2    0    0  0.56645448300E+03 -0.16296990922E+03 -0.20240382161E+02  0.58977923471E+03  0.00000000000E+00 0.  1.
<mgrwt>
<rscale>  0 0.12567638E+04</rscale>
<asrwt>0</asrwt>
<pdfrwt beam="1">  1        2 0.14143857E+00 0.12567638E+04</pdfrwt>
<pdfrwt beam="2">  1       -2 0.66077375E-01 0.12567638E+04</pdfrwt>
<totfact> 0.58957033E+01</totfact>
</mgrwt>
</event>
<event>
 6    1  0.1878398E-004  0.1386347E+04  0.7818608E-02  0.8963761E-01
          2   -1    0    0  501    0  0.00000000000E+00  0.00000000000E+00  0.27644202375E+04  0.27644202375E+04  0.00000000000E+00 0.  1.
         -2   -1    0    0    0  501 -0.00000000000E+00 -0.00000000000E+00 -0.17381197532E+03  0.17381197532E+03  0.00000000000E+00 0. -1.
         23    2    1    2    0    0 -0.24029486033E+03  0.36070914803E+03  0.16267009489E+03  0.47191178483E+03  0.91577636545E+02 0.  0.
         13    1    3    3    0    0 -0.22341187813E+02  0.54552369707E+02  0.55866036469E+02  0.81216400710E+02  0.00000000000E+00 0.  1.
        -13    1    3    3    0    0 -0.21795367251E+03  0.30615677832E+03  0.10680405842E+03  0.39069538412E+03  0.00000000000E+00 0. -1.
         22    1    1    2    0    0  0.24029486033E+03 -0.36070914803E+03  0.24279381673E+04  0.24663204280E+04  0.00000000000E+00 0.  1.
<mgrwt>
<rscale>  0 0.13863468E+04</rscale>
<asrwt>0</asrwt>
<pdfrwt beam="1">  1        2 0.42529539E+00 0.13863468E+04</pdfrwt>
<pdfrwt beam="2">  1       -2 0.26740306E-01 0.13863468E+04</pdfrwt>
<totfact> 0.30229881E+01</totfact>
</mgrwt>
</event>
<event>
 6    1  0.1878398E-004  0.1988993E+04  0.7818608E-02  0.8611784E-01
          2   -1    0    0  501    0  0.00000000000E+00  0.00000000000E+00  0.36419478283E+04  0.36419478283E+04  0.00000000000E+00 0.  1.
         -2   -1    0    0    0  501 -0.00000000000E+00 -0.00000000000E+00 -0.27156440609E+03  0.27156440609E+03  0.00000000000E+00 0. -1.
         23    2    1    2    0    0  0.20315800500E+02 -0.65909174690E+03  0.23289549052E+03  0.70747961071E+03  0.10710941826E+03 0.  0.
         13    1    3    3    0    0 -0.43983565941E+02 -0.23437664396E+03  0.80239573071E+02  0.25160555318E+03  0.00000000000E+00 0. -1.
        -13    1    3    3    0    0  0.64299366441E+02 -0.42471510294E+03  0.15265591745E+03  0.45587405753E+03  0.00000000000E+00 0.  1.
         22    1    1    2    0    0 -0.20315800500E+02  0.65909174690E+03  0.31374879316E+04  0.32060326236E+04  0.00000000000E+00 0.  1.
<mgrwt>
<rscale>  0 0.19889931E+04</rscale>
<asrwt>0</asrwt>
<pdfrwt beam="1">  1        2 0.56029963E+00 0.19889931E+04</pdfrwt>
<pdfrwt beam="2">  1       -2 0.41779142E-01 0.19889931E+04</pdfrwt>
<totfact> 0.32729046E+00</totfact>
</mgrwt>
</event>
<event>
 6    1  0.1878398E-004  0.2225407E+04  0.7818608E-02  0.8507927E-01
          2   -1    0    0  501    0  0.00000000000E+00  0.00000000000E+00  0.22095536206E+04  0.22095536206E+04  0.00000000000E+00 0.  1.
         -2   -1    0    0    0  501 -0.00000000000E+00 -0.00000000000E+00 -0.56034354517E+03  0.56034354517E+03  0.00000000000E+00 0. -1.
         23    2    1    2    0    0 -0.57030418242E+03  0.51003716776E+03  0.18282563000E+04  0.19841221831E+04  0.93994499881E+02 0.  0.
         11    1    3    3    0    0 -0.23851617409E+03  0.25120724371E+03  0.92228318171E+03  0.98519100273E+03  0.00000000000E+00 0. -1.
        -11    1    3    3    0    0 -0.33178800833E+03  0.25882992405E+03  0.90597311825E+03  0.99893118033E+03  0.00000000000E+00 0.  1.
         22    1    1    2    0    0  0.57030418242E+03 -0.51003716776E+03 -0.17904622451E+03  0.78577498273E+03  0.00000000000E+00 0. -1.
<mgrwt>
<rscale>  0 0.22254070E+04</rscale>
<asrwt>0</asrwt>
<pdfrwt beam="1">  1        2 0.33993132E+00 0.22254070E+04</pdfrwt>
<pdfrwt beam="2">  1       -2 0.86206700E-01 0.22254070E+04</pdfrwt>
<totfact> 0.54271550E+00</totfact>
</mgrwt>
</event>
<event>
 6    1  0.1878398E-004  0.6652547E+03  0.7818608E-02  0.9778568E-01
         -2   -1    0    0    0  501 -0.00000000000E+00  0.00000000000E+00  0.11812487812E+03  0.11812487812E+03  0.00000000000E+00 0. -1.
          2   -1    0    0  501    0  0.00000000000E+00 -0.00000000000E+00 -0.93664403840E+03  0.93664403840E+03  0.00000000000E+00 0.  1.
         23    2    1    2    0    0 -0.21603237243E+03  0.57879104546E+02 -0.79490355594E+03  0.82987411122E+03  0.82458477671E+02 0.  0.
         11    1    3    3    0    0 -0.10536931382E+03  0.66360301212E+02 -0.35581730727E+03  0.37697790124E+03  0.00000000000E+00 0.  1.
        -11    1    3    3    0    0 -0.11066305861E+03 -0.84811966669E+01 -0.43908624867E+03  0.45289620998E+03  0.00000000000E+00 0. -1.
         22    1    1    2    0    0  0.21603237243E+03 -0.57879104546E+02 -0.23615604330E+02  0.22489480530E+03  0.00000000000E+00 0. -1.
<mgrwt>
<rscale>  0 0.66525473E+03</rscale>
<asrwt>0</asrwt>
<pdfrwt beam="1">  1        2 0.14409909E+00 0.66525473E+03</pdfrwt>
<pdfrwt beam="2">  1       -2 0.18173058E-01 0.66525473E+03</pdfrwt>
<totfact> 0.70362691E+02</totfact>
</mgrwt>
</event>
<event>
 6    1  0.1878398E-004  0.2529930E+04  0.7818608E-02  0.8392400E-01
         -1   -1    0    0    0  501 -0.00000000000E+00  0.00000000000E+00  0.96266222893E+03  0.96266222893E+03  0.00000000000E+00 0. -1.
          1   -1    0    0  501    0  0.00000000000E+00 -0.00000000000E+00 -0.16621990491E+04  0.16621990491E+04  0.00000000000E+00 0.  1.
         23    2    1    2    0    0 -0.49106164483E+02  0.44727122865E+03  0.87447732646E+03  0.98779576279E+03  0.92557588113E+02 0.  0.
         11    1    3    3    0    0 -0.49156931201E+02  0.25595313707E+03  0.58960663652E+03  0.64464284537E+03  0.00000000000E+00 0. -1.
        -11    1    3    3    0    0  0.50766718284E-01  0.19131809158E+03  0.28487068994E+03  0.34315291741E+03  0.00000000000E+00 0.  1.
         22    1    1    2    0    0  0.49106164483E+02 -0.44727122865E+03 -0.15740141467E+04  0.16370655153E+04  0.00000000000E+00 0.  1.
<mgrwt>
<rscale>  0 0.25299298E+04</rscale>
<asrwt>0</asrwt>
<pdfrwt beam="1">  1        1 0.25572293E+00 0.25299298E+04</pdfrwt>
<pdfrwt beam="2">  1       -1 0.14810188E+00 0.25299298E+04</pdfrwt>
<totfact> 0.16183326E+00</totfact>
</mgrwt>
</event>
<event>
 6    1  0.1878398E-004  0.1971753E+04  0.7818608E-02  0.8619942E-01
         -2   -1    0    0    0  501 -0.00000000000E+00  0.00000000000E+00  0.48651756104E+03  0.48651756104E+03  0.00000000000E+00 0. -1.
          2   -1    0    0  501    0  0.00000000000E+00 -0.00000000000E+00 -0.19977747992E+04  0.19977747992E+04  0.00000000000E+00 0.  1.
         23    2    1    2    0    0 -0.83846121192E+03 -0.20254405346E+03 -0.13525917144E+04  0.16072427345E+04  0.98405102857E+02 0.  0.
         13    1    3    3    0    0 -0.70639307187E+02 -0.36801225059E+02 -0.16731602652E+03  0.18530756762E+03  0.00000000000E+00 0.  1.
        -13    1    3    3    0    0 -0.76782190473E+03 -0.16574282840E+03 -0.11852756879E+04  0.14219351669E+04  0.00000000000E+00 0. -1.
         22    1    1    2    0    0  0.83846121192E+03  0.20254405346E+03 -0.15866552369E+03  0.87704962567E+03  0.00000000000E+00 0. -1.
<mgrwt>
<rscale>  0 0.19717531E+04</rscale>
<asrwt>0</asrwt>
<pdfrwt beam="1">  1        2 0.30734997E+00 0.19717531E+04</pdfrwt>
<pdfrwt beam="2">  1       -2 0.74848856E-01 0.19717531E+04</pdfrwt>
<totfact> 0.10006704E+01</totfact>
</mgrwt>
</event>
<event>
 6    1  0.1878398E-004  0.3599572E+04  0.7818608E-02  0.8090590E-01
         -2   -1    0    0    0  501 -0.00000000000E+00  0.00000000000E+00  0.16849255895E+04  0.16849255895E+04  0.00000000000E+00 0. -1.
          2   -1    0    0  501    0  0.00000000000E+00 -0.00000000000E+00 -0.19224762159E+04  0.19224762159E+04  0.00000000000E+00 0.  1.
         23    2    1    2    0    0 -0.15864906012E+04 -0.60645342217E+03  0.47441988046E+03  0.17657611825E+04  0.90000831090E+02 0.  0.
         13    1    3    3    0    0 -0.59986776207E+03 -0.18295176894E+03  0.17160211516E+03  0.65019994437E+03  0.00000000000E+00 0. -1.
        -13    1    3    3    0    0 -0.98662283917E+03 -0.42350165324E+03  0.30281776530E+03  0.11155612381E+04  0.00000000000E+00 0.  1.
         22    1    1    2    0    0  0.15864906012E+04  0.60645342217E+03 -0.71197050686E+03  0.18416406229E+04  0.00000000000E+00 0.  1.
<mgrwt>
<rscale>  0 0.35995718E+04</rscale>
<asrwt>0</asrwt>
<pdfrwt beam="1">  1        2 0.29576557E+00 0.35995718E+04</pdfrwt>
<pdfrwt beam="2">  1       -2 0.25921932E+00 0.35995718E+04</pdfrwt>
<totfact> 0.33925766E-01</totfact>
</mgrwt>
</event>
<event>
 6    1  0.1878398E-004  0.1428536E+04  0.7818608E-02  0.8933418E-01
         -2   -1    0    0    0  501 -0.00000000000E+00  0.00000000000E+00  0.35650869314E+03  0.35650869314E+03  0.00000000000E+00 0. -1.
          2   -1    0    0  501    0  0.00000000000E+00 -0.00000000000E+00 -0.14310422064E+04  0.14310422064E+04  0.00000000000E+00 0.  1.
         23    2    1    2    0    0  0.59476139915E+03  0.33876090853E+03 -0.78169025793E+03  0.10430663481E+04  0.91911219237E+02 0.  0.
         13    1    3    3    0    0  0.54435594479E+03  0.33689620543E+03 -0.72486683170E+03  0.96708550375E+03  0.00000000000E+00 0.  1.
        -13    1    3    3    0    0  0.50405454356E+02  0.18647031046E+01 -0.56823426232E+02  0.75980844397E+02  0.00000000000E+00 0. -1.
         22    1    1    2    0    0 -0.59476139915E+03 -0.33876090853E+03 -0.29284325530E+03  0.74448455138E+03  0.00000000000E+00 0. -1.
<mgrwt>
<rscale>  0 0.14285363E+04</rscale>
<asrwt>0</asrwt>
<pdfrwt beam="1">  1        2 0.22016034E+00 0.14285363E+04</pdfrwt>
<pdfrwt beam="2">  1       -2 0.54847492E-01 0.14285363E+04</pdfrwt>
<totfact> 0.42183978E+01</totfact>
</mgrwt>
</event>
<event>
 6    1  0.1878398E-004  0.1332319E+04  0.7818608E-02  0.9004322E-01
          1   -1    0    0  501    0  0.00000000000E+00  0.00000000000E+00  0.46285368675E+03  0.46285368675E+03  0.00000000000E+00 0. -1.
         -1   -1    0    0    0  501 -0.00000000000E+00 -0.00000000000E+00 -0.95876579572E+03  0.95876579572E+03  0.00000000000E+00 0.  1.
         23    2    1    2    0    0 -0.37233617798E+02  0.35367059496E+03  0.34776938628E+03  0.50604987973E+03  0.93132715568E+02 0.  0.
         13    1    3    3    0    0  0.17801026453E+02  0.21797508923E+03  0.23664036473E+03  0.32222457741E+03  0.00000000000E+00 0. -1.
        -13    1    3    3    0    0 -0.55034644251E+02  0.13569550573E+03  0.11112902155E+03  0.18382530232E+03  0.00000000000E+00 0.  1.
         22    1    1    2    0    0  0.37233617798E+02 -0.35367059496E+03 -0.84368149525E+03  0.91556960274E+03  0.00000000000E+00 0.  1.
<mgrwt>
<rscale>  0 0.13323187E+04</rscale>
<asrwt>0</asrwt>
<pdfrwt beam="1">  1        1 0.71208260E-01 0.13323187E+04</pdfrwt>
<pdfrwt beam="2">  1       -1 0.14750243E+00 0.13323187E+04</pdfrwt>
<totfact> 0.17632486E+01</totfact>
</mgrwt>
</event>
<event>
 6    1  0.1878398E-004  0.1215888E+04  0.7818608E-02  0.9099062E-01
         -2   -1    0    0    0  501 -0.00000000000E+00  0.00000000000E+00  0.48671118096E+03  0.48671118096E+03  0.00000000000E+00 0. -1.
          2   -1    0    0  501    0  0.00000000000E+00 -0.00000000000E+00 -0.75937417426E+03  0.75937417426E+03  0.00000000000E+00 0.  1.
         23    2    1    2    0    0 -0.47043603020E+03  0.35516573390E+03 -0.27246496614E+03  0.65663408815E+03  0.97357130717E+02 0.  0.
         13    1    3    3    0    0 -0.42854139358E+03  0.29441313133E+03 -0.21303270018E+03  0.56188054715E+03  0.00000000000E+00 0.  1.
        -13    1    3    3    0    0 -0.41894636614E+02  0.60752602569E+02 -0.59432265954E+02  0.94753541002E+02  0.00000000000E+00 0. -1.
         22    1    1    2    0    0  0.47043603020E+03 -0.35516573390E+03 -0.19802716402E+00  0.58945126708E+03  0.00000000000E+00 0. -1.
<mgrwt>
<rscale>  0 0.12158880E+04</rscale>
<asrwt>0</asrwt>
<pdfrwt beam="1">  1        2 0.11682680E+00 0.12158880E+04</pdfrwt>
<pdfrwt beam="2">  1       -2 0.74878644E-01 0.12158880E+04</pdfrwt>
<totfact> 0.58315307E+01</totfact>
</mgrwt>
</event>
<event>
 6    1  0.1878398E-004  0.1286410E+04  0.7818608E-02  0.9040412E-01
         -2   -1    0    0    0  501 -0.00000000000E+00  0.00000000000E+00  0.53552552578E+03  0.53552552578E+03  0.00000000000E+00 0. -1.
          2   -1    0    0  501    0  0.00000000000E+00 -0.00000000000E+00 -0.77253627912E+03  0.77253627912E+03  0.00000000000E+00 0.  1.
         23    2    1    2    0    0  0.34156956335E+03 -0.47155485222E+03 -0.38916693654E+03  0.70624351892E+03  0.91078308477E+02 0.  0.
         11    1    3    3    0    0  0.22821889825E+03 -0.31032179065E+03 -0.20434115407E+03  0.43604906434E+03  0.00000000000E+00 0. -1.
        -11    1    3    3    0    0  0.11335066509E+03 -0.16123306157E+03 -0.18482578247E+03  0.27019445458E+03  0.00000000000E+00 0.  1.
         22    1    1    2    0    0 -0.34156956335E+03  0.47155485222E+03  0.15215618320E+03  0.60181828598E+03  0.00000000000E+00 0. -1.
<mgrwt>
<rscale>  0 0.12864103E+04</rscale>
<asrwt>0</asrwt>
<pdfrwt beam="1">  1        2 0.11885173E+00 0.12864103E+04</pdfrwt>
<pdfrwt beam="2">  1       -2 0.82388543E-01 0.12864103E+04</pdfrwt>
<totfact> 0.45799886E+01</totfact>
</mgrwt>
</event>
<event>
 6    1  0.1878398E-004  0.2546789E+04  0.7818608E-02  0.8386504E-01
         -1   -1    0    0    0  501 -0.00000000000E+00  0.00000000000E+00  0.12752717216E+04  0.12752717216E+04  0.00000000000E+00 0. -1.
          1   -1    0    0  501    0  0.00000000000E+00 -0.00000000000E+00 -0.12715201836E+04  0.12715201836E+04  0.00000000000E+00 0.  1.
         23    2    1    2    0    0 -0.42378240452E+03 -0.40784944389E+03 -0.11268318526E+04  0.12723698800E+04  0.56942007540E+02 0.  0.
         11    1    3    3    0    0 -0.56206020597E+02 -0.63750192384E+02 -0.12542996538E+03  0.15151197971E+03  0.00000000000E+00 0. -1.
        -11    1    3    3    0    0 -0.36757638392E+03 -0.34409925151E+03 -0.10014018872E+04  0.11208579003E+04  0.00000000000E+00 0.  1.
         22    1    1    2    0    0  0.42378240452E+03  0.40784944389E+03  0.11305833906E+04  0.12744220252E+04  0.00000000000E+00 0. -1.
<mgrwt>
<rscale>  0 0.25467891E+04</rscale>
<asrwt>0</asrwt>
<pdfrwt beam="1">  1        1 0.19561849E+00 0.25467891E+04</pdfrwt>
<pdfrwt beam="2">  1       -1 0.19619565E+00 0.25467891E+04</pdfrwt>
<totfact> 0.13417151E+00</totfact>
</mgrwt>
</event>
<event>
 6    1  0.1878398E-004  0.1848564E+04  0.7818608E-02  0.8680891E-01
         -2   -1    0    0    0  501 -0.00000000000E+00  0.00000000000E+00  0.45620454157E+03  0.45620454157E+03  0.00000000000E+00 0. -1.
          2   -1    0    0  501    0  0.00000000000E+00 -0.00000000000E+00 -0.18726197170E+04  0.18726197170E+04  0.00000000000E+00 0.  1.
         23    2    1    2    0    0 -0.86436809018E+03  0.31926807488E+03 -0.66758817938E+03  0.11414716703E+04  0.90660343088E+02 0.  0.
         13    1    3    3    0    0 -0.26615110517E+02  0.35949000553E+01 -0.41236314820E+01  0.27171524632E+02  0.00000000000E+00 0.  1.
        -13    1    3    3    0    0 -0.83775297966E+03  0.31567317483E+03 -0.66346454789E+03  0.11143001456E+04  0.00000000000E+00 0. -1.
         22    1    1    2    0    0  0.86436809018E+03 -0.31926807488E+03 -0.74882699604E+03  0.11873525883E+04  0.00000000000E+00 0.  1.
<mgrwt>
<rscale>  0 0.18485644E+04</rscale>
<asrwt>0</asrwt>
<pdfrwt beam="1">  1        2 0.28809534E+00 0.18485644E+04</pdfrwt>
<pdfrwt beam="2">  1       -2 0.70185314E-01 0.18485644E+04</pdfrwt>
<totfact> 0.13666690E+01</totfact>
</mgrwt>
</event>
<event>
 6    1  0.1878398E-004  0.5891979E+04  0.7818608E-02  0.7703941E-01
         -2   -1    0    0    0  501 -0.00000000000E+00  0.00000000000E+00  0.25520853845E+04  0.25520853845E+04  0.00000000000E+00 0. -1.
          2   -1    0    0  501    0  0.00000000000E+00 -0.00000000000E+00 -0.34006906824E+04  0.34006906824E+04  0.00000000000E+00 0.  1.
         23    2    1    2    0    0  0.73743018729E+03  0.97784832984E+03 -0.31306180298E+04  0.33628778554E+04  0.90485274692E+02 0.  0.
         11    1    3    3    0    0  0.41962563129E+03  0.58790893350E+03 -0.17338596204E+04  0.18782949097E+04  0.00000000000E+00 0. -1.
        -11    1    3    3    0    0  0.31780455600E+03  0.38993939634E+03 -0.13967584094E+04  0.14845829458E+04  0.00000000000E+00 0.  1.
         22    1    1    2    0    0 -0.73743018729E+03 -0.97784832984E+03  0.22820127319E+04  0.25898982115E+04  0.00000000000E+00 0. -1.
<mgrwt>
<rscale>  0 0.58919786E+04</rscale>
<asrwt>0</asrwt>
<pdfrwt beam="1">  1        2 0.52318318E+00 0.58919786E+04</pdfrwt>
<pdfrwt beam="2">  1       -2 0.39262852E+00 0.58919786E+04</pdfrwt>
<totfact> 0.53562615E-03</totfact>
</mgrwt>
</event>
<event>
 6    1  0.1878398E-004  0.2104090E+04  0.7818608E-02  0.8559444E-01
          2   -1    0    0  501    0  0.00000000000E+00  0.00000000000E+00  0.11575228046E+04  0.11575228046E+04  0.00000000000E+00 0.  1.
         -2   -1    0    0    0  501 -0.00000000000E+00 -0.00000000000E+00 -0.95617867042E+03  0.95617867042E+03  0.00000000000E+00 0. -1.
         23    2    1    2    0    0 -0.13243922135E+03 -0.53665197287E+03 -0.79606685499E+03  0.97336636257E+03  0.90466296642E+02 0.  0.
         11    1    3    3    0    0 -0.67629428426E+02 -0.21414225922E+03 -0.39781006634E+03  0.45681888715E+03  0.00000000000E+00 0. -1.
        -11    1    3    3    0    0 -0.64809792927E+02 -0.32250971365E+03 -0.39825678865E+03  0.51654747542E+03  0.00000000000E+00 0.  1.
         22    1    1    2    0    0  0.13243922135E+03  0.53665197287E+03  0.99741098914E+03  0.11403351124E+04  0.00000000000E+00 0.  1.
<mgrwt>
<rscale>  0 0.21040899E+04</rscale>
<asrwt>0</asrwt>
<pdfrwt beam="1">  1        2 0.17808043E+00 0.21040899E+04</pdfrwt>
<pdfrwt beam="2">  1       -2 0.14710441E+00 0.21040899E+04</pdfrwt>
<totfact> 0.58391741E+00</totfact>
</mgrwt>
</event>
<event>
 6    1  0.1878398E-004  0.2924750E+04  0.7818608E-02  0.8265551E-01
         -2   -1    0    0    0  501 -0.00000000000E+00  0.00000000000E+00  0.26661590562E+04  0.26661590562E+04  0.00000000000E+00 0. -1.
          2   -1    0    0  501    0  0.00000000000E+00 -0.00000000000E+00 -0.80210562188E+03  0.80210562188E+03  0.00000000000E+00 0.  1.
         23    2    1    2    0    0  0.65104997897E+03 -0.10439995831E+04 -0.11758128361E+01  0.12337890463E+04  0.91830405895E+02 0.  0.
         11    1    3    3    0    0  0.22004388296E+03 -0.43414313127E+03  0.12336059223E+02  0.48687960238E+03  0.00000000000E+00 0. -1.
        -11    1    3    3    0    0  0.43100609601E+03 -0.60985645187E+03 -0.13511872059E+02  0.74690944389E+03  0.00000000000E+00 0.  1.
         22    1    1    2    0    0 -0.65104997897E+03  0.10439995831E+04  0.18652292472E+04  0.22344756318E+04  0.00000000000E+00 0.  1.
<mgrwt>
<rscale>  0 0.29247504E+04</rscale>
<asrwt>0</asrwt>
<pdfrwt beam="1">  1        2 0.12340087E+00 0.29247504E+04</pdfrwt>
<pdfrwt beam="2">  1       -2 0.41017831E+00 0.29247504E+04</pdfrwt>
<totfact> 0.18802956E-01</totfact>
</mgrwt>
</event>
<event>
 6    1  0.1878398E-004  0.2795250E+04  0.7818608E-02  0.8304745E-01
          2   -1    0    0  501    0  0.00000000000E+00  0.00000000000E+00  0.25908384894E+04  0.25908384894E+04  0.00000000000E+00 0.  1.
         -2   -1    0    0    0  501 -0.00000000000E+00 -0.00000000000E+00 -0.75394712882E+03  0.75394712882E+03  0.00000000000E+00 0. -1.
         23    2    1    2    0    0  0.40306817538E+03 -0.20225610500E+03  0.25005279540E+04  0.25424234717E+04  0.88913299237E+02 0.  0.
         11    1    3    3    0    0  0.28721287501E+03 -0.99329941581E+02  0.15849655746E+04  0.16138381411E+04  0.00000000000E+00 0.  1.
        -11    1    3    3    0    0  0.11585530037E+03 -0.10292616342E+03  0.91556237937E+03  0.92858533063E+03  0.00000000000E+00 0. -1.
         22    1    1    2    0    0 -0.40306817538E+03  0.20225610500E+03 -0.66363659341E+03  0.80236214650E+03  0.00000000000E+00 0. -1.
<mgrwt>
<rscale>  0 0.27952497E+04</rscale>
<asrwt>0</asrwt>
<pdfrwt beam="1">  1        2 0.39859053E+00 0.27952497E+04</pdfrwt>
<pdfrwt beam="2">  1       -2 0.11599187E+00 0.27952497E+04</pdfrwt>
<totfact> 0.15482157E+00</totfact>
</mgrwt>
</event>
<event>
 6    1  0.1878398E-004  0.8562350E+03  0.7818608E-02  0.9482007E-01
          2   -1    0    0  501    0  0.00000000000E+00  0.00000000000E+00  0.14512379631E+04  0.14512379631E+04  0.00000000000E+00 0.  1.
         -2   -1    0    0    0  501 -0.00000000000E+00 -0.00000000000E+00 -0.12629534944E+03  0.12629534944E+03  0.00000000000E+00 0. -1.
         23    2    1    2    0    0 -0.29307227482E+03  0.30450372220E+03  0.62942500518E+03  0.76367913714E+03  0.91739371347E+02 0.  0.
         11    1    3    3    0    0 -0.21937485854E+03  0.20054163199E+03  0.50248359101E+03  0.58380821676E+03  0.00000000000E+00 0.  1.
        -11    1    3    3    0    0 -0.73697416274E+02  0.10396209021E+03  0.12694141417E+03  0.17987092038E+03  0.00000000000E+00 0. -1.
         22    1    1    2    0    0  0.29307227482E+03 -0.30450372220E+03  0.69551760845E+03  0.81385417537E+03  0.00000000000E+00 0.  1.
<mgrwt>
<rscale>  0 0.85623503E+03</rscale>
<asrwt>0</asrwt>
<pdfrwt beam="1">  1        2 0.22326737E+00 0.85623503E+03</pdfrwt>
<pdfrwt beam="2">  1       -2 0.19430055E-01 0.85623503E+03</pdfrwt>
<totfact> 0.30552065E+02</totfact>
</mgrwt>
</event>
<event>
 6    1  0.1878398E-004  0.1566683E+04  0.7818608E-02  0.8841282E-01
         -2   -1    0    0    0  501 -0.00000000000E+00  0.00000000000E+00  0.45331793590E+03  0.45331793590E+03  0.00000000000E+00 0. -1.
          2   -1    0    0  501    0  0.00000000000E+00 -0.00000000000E+00 -0.13536278356E+04  0.13536278356E+04  0.00000000000E+00 0.  1.
         23    2    1    2    0    0 -0.35906615972E+03  0.44336019463E+02 -0.12495522398E+04  0.13040895278E+04  0.91512331028E+02 0.  0.
         11    1    3    3    0    0 -0.98199217882E+02 -0.16788961222E+02 -0.44796422767E+03  0.45890838398E+03  0.00000000000E+00 0. -1.
        -11    1    3    3    0    0 -0.26086694183E+03  0.61124980685E+02 -0.80158801216E+03  0.84518114381E+03  0.00000000000E+00 0.  1.
         22    1    1    2    0    0  0.35906615972E+03 -0.44336019463E+02  0.34924234015E+03  0.50285624370E+03  0.00000000000E+00 0. -1.
<mgrwt>
<rscale>  0 0.15666828E+04</rscale>
<asrwt>0</asrwt>
<pdfrwt beam="1">  1        2 0.20825044E+00 0.15666828E+04</pdfrwt>
<pdfrwt beam="2">  1       -2 0.69741221E-01 0.15666828E+04</pdfrwt>
<totfact> 0.27722148E+01</totfact>
</mgrwt>
</event>
<event>
 6    1  0.1878398E-004  0.2880413E+04  0.7818608E-02  0.8278729E-01
         -1   -1    0    0    0  501 -0.00000000000E+00  0.00000000000E+00  0.10550470399E+04  0.10550470399E+04  0.00000000000E+00 0. -1.
          1   -1    0    0  501    0  0.00000000000E+00 -0.00000000000E+00 -0.19659735916E+04  0.19659735916E+04  0.00000000000E+00 0.  1.
         23    2    1    2    0    0  0.91996492588E+03 -0.33478235460E+03  0.64947972378E+03  0.11789341964E+04  0.98220354707E+02 0.  0.
         13    1    3    3    0    0  0.25899140335E+03 -0.63145088568E+02  0.21619305682E+03  0.34322483453E+03  0.00000000000E+00 0. -1.
        -13    1    3    3    0    0  0.66097352253E+03 -0.27163726603E+03  0.43328666696E+03  0.83570936189E+03  0.00000000000E+00 0.  1.
         22    1    1    2    0    0 -0.91996492588E+03  0.33478235460E+03 -0.15604062755E+04  0.18420864351E+04  0.00000000000E+00 0.  1.
<mgrwt>
<rscale>  0 0.28804129E+04</rscale>
<asrwt>0</asrwt>
<pdfrwt beam="1">  1        1 0.30245747E+00 0.28804129E+04</pdfrwt>
<pdfrwt beam="2">  1       -1 0.16231493E+00 0.28804129E+04</pdfrwt>
<totfact> 0.75846409E-01</totfact>
</mgrwt>
</event>
<event>
 6    1  0.1878398E-004  0.2011458E+04  0.7818608E-02  0.8601282E-01
          2   -1    0    0  501    0  0.00000000000E+00  0.00000000000E+00  0.18284049807E+04  0.18284049807E+04  0.00000000000E+00 0.  1.
         -2   -1    0    0    0  501 -0.00000000000E+00 -0.00000000000E+00 -0.55320925111E+03  0.55320925111E+03  0.00000000000E+00 0. -1.
         23    2    1    2    0    0  0.37769421660E+03 -0.86591554421E+03  0.10388142306E+04  0.14077873149E+04  0.10132851231E+03 0.  0.
         13    1    3    3    0    0  0.28699550426E+03 -0.70223196587E+03  0.77648783059E+03  0.10855549292E+04  0.00000000000E+00 0.  1.
        -13    1    3    3    0    0  0.90698712345E+02 -0.16368357834E+03  0.26232640001E+03  0.32223238568E+03  0.00000000000E+00 0. -1.
         22    1    1    2    0    0 -0.37769421660E+03  0.86591554421E+03  0.23638149896E+03  0.97382691687E+03  0.00000000000E+00 0. -1.
<mgrwt>
<rscale>  0 0.20114577E+04</rscale>
<asrwt>0</asrwt>
<pdfrwt beam="1">  1        2 0.28129307E+00 0.20114577E+04</pdfrwt>
<pdfrwt beam="2">  1       -2 0.85109117E-01 0.20114577E+04</pdfrwt>
<totfact> 0.92785509E+00</totfact>
</mgrwt>
</event>
<event>
 6    1  0.1878398E-004  0.1713437E+04  0.7818608E-02  0.8753738E-01
         -2   -1    0    0    0  501 -0.00000000000E+00  0.00000000000E+00  0.52748442797E+03  0.52748442797E+03  0.00000000000E+00 0. -1.
          2   -1    0    0  501    0  0.00000000000E+00 -0.00000000000E+00 -0.13914462108E+04  0.13914462108E+04  0.00000000000E+00 0.  1.
         23    2    1    2    0    0  0.66292279227E+03 -0.15866066448E+03  0.14127048010E+03  0.70438062440E+03  0.10749363009E+03 0.  0.
         13    1    3    3    0    0  0.16078259897E+03  0.80136758501E+01  0.31619725038E+02  0.16405813038E+03  0.00000000000E+00 0. -1.
        -13    1    3    3    0    0  0.50214019330E+03 -0.16667434033E+03  0.10965075506E+03  0.54032249402E+03  0.00000000000E+00 0.  1.
         22    1    1    2    0    0 -0.66292279227E+03  0.15866066448E+03 -0.10052322629E+04  0.12145500143E+04  0.00000000000E+00 0.  1.
<mgrwt>
<rscale>  0 0.17134366E+04</rscale>
<asrwt>0</asrwt>
<pdfrwt beam="1">  1        2 0.21406864E+00 0.17134366E+04</pdfrwt>
<pdfrwt beam="2">  1       -2 0.81151452E-01 0.17134366E+04</pdfrwt>
<totfact> 0.18620606E+01</totfact>
</mgrwt>
</event>
<event>
 6    1  0.1878398E-004  0.2256415E+04  0.7818608E-02  0.8495307E-01
          2   -1    0    0  501    0  0.00000000000E+00  0.00000000000E+00  0.16562386198E+04  0.16562386198E+04  0.00000000000E+00 0.  1.
         -2   -1    0    0    0  501 -0.00000000000E+00 -0.00000000000E+00 -0.76851988916E+03  0.76851988916E+03  0.00000000000E+00 0. -1.
         23    2    1    2    0    0  0.72375931505E+03 -0.47353902409E+03  0.12199875357E+04  0.14982223184E+04  0.90740148643E+02 0.  0.
         11    1    3    3    0    0  0.51146314694E+03 -0.31177962533E+03  0.77766088489E+03  0.98160966648E+03  0.00000000000E+00 0. -1.
        -11    1    3    3    0    0  0.21229616811E+03 -0.16175939876E+03  0.44232665084E+03  0.51661265192E+03  0.00000000000E+00 0.  1.
         22    1    1    2    0    0 -0.72375931505E+03  0.47353902409E+03 -0.33226880514E+03  0.92653619051E+03  0.00000000000E+00 0. -1.
<mgrwt>
<rscale>  0 0.22564151E+04</rscale>
<asrwt>0</asrwt>
<pdfrwt beam="1">  1        2 0.25480594E+00 0.22564151E+04</pdfrwt>
<pdfrwt beam="2">  1       -2 0.11823383E+00 0.22564151E+04</pdfrwt>
<totfact> 0.52001465E+00</totfact>
</mgrwt>
</event>
<event>
 6    1  0.1878398E-004  0.1473498E+04  0.7818608E-02  0.8902270E-01
         -2   -1    0    0    0  501 -0.00000000000E+00  0.00000000000E+00  0.99742401637E+03  0.99742401637E+03  0.00000000000E+00 0. -1.
          2   -1    0    0  501    0  0.00000000000E+00 -0.00000000000E+00 -0.54420065100E+03  0.54420065100E+03  0.00000000000E+00 0.  1.
         23    2    1    2    0    0  0.46805170551E+03  0.18443743111E+03 -0.33164581881E+03  0.60936440258E+03  0.90810026815E+02 0.  0.
         11    1    3    3    0    0  0.33456469991E+03  0.17010268575E+03 -0.22232231564E+03  0.43622892403E+03  0.00000000000E+00 0. -1.
        -11    1    3    3    0    0  0.13348700560E+03  0.14334745363E+02 -0.10932350317E+03  0.17313547855E+03  0.00000000000E+00 0.  1.
         22    1    1    2    0    0 -0.46805170551E+03 -0.18443743111E+03  0.78486918419E+03  0.93226026479E+03  0.00000000000E+00 0. -1.
<mgrwt>
<rscale>  0 0.14734976E+04</rscale>
<asrwt>0</asrwt>
<pdfrwt beam="1">  1        2 0.83723178E-01 0.14734976E+04</pdfrwt>
<pdfrwt beam="2">  1       -2 0.15344985E+00 0.14734976E+04</pdfrwt>
<totfact> 0.15206943E+01</totfact>
</mgrwt>
</event>
<event>
 6    1  0.1878398E-004  0.2877539E+04  0.7818608E-02  0.8279592E-01
          2   -1    0    0  501    0  0.00000000000E+00  0.00000000000E+00  0.27281389039E+04  0.27281389039E+04  0.00000000000E+00 0.  1.
         -2   -1    0    0    0  501 -0.00000000000E+00 -0.00000000000E+00 -0.75878011138E+03  0.75878011138E+03  0.00000000000E+00 0. -1.
         23    2    1    2    0    0  0.36472711607E+03 -0.24215188623E+03  0.26446095593E+04  0.26821662561E+04  0.91611675766E+02 0.  0.
         13    1    3    3    0    0  0.32016681307E+03 -0.21774556531E+03  0.21171008204E+04  0.21522164861E+04  0.00000000000E+00 0.  1.
        -13    1    3    3    0    0  0.44560302992E+02 -0.24406320919E+02  0.52750873896E+03  0.52994977005E+03  0.00000000000E+00 0. -1.
         22    1    1    2    0    0 -0.36472711607E+03  0.24215188623E+03 -0.67525076682E+03  0.80475275911E+03  0.00000000000E+00 0. -1.
<mgrwt>
<rscale>  0 0.28775389E+04</rscale>
<asrwt>0</asrwt>
<pdfrwt beam="1">  1        2 0.41971367E+00 0.28775389E+04</pdfrwt>
<pdfrwt beam="2">  1       -2 0.11673540E+00 0.28775389E+04</pdfrwt>
<totfact> 0.12551396E+00</totfact>
</mgrwt>
</event>
<event>
 6    1  0.1878398E-004  0.2933692E+04  0.7818608E-02  0.8262923E-01
         -2   -1    0    0    0  501 -0.00000000000E+00  0.00000000000E+00  0.50538038357E+03  0.50538038357E+03  0.00000000000E+00 0. -1.
          2   -1    0    0  501    0  0.00000000000E+00 -0.00000000000E+00 -0.42574600659E+04  0.42574600659E+04  0.00000000000E+00 0.  1.
         23    2    1    2    0    0  0.52834534122E+03 -0.63128409018E+03  0.90314308972E+02  0.83325268654E+03  0.92113859580E+02 0.  0.
         11    1    3    3    0    0  0.35009178843E+02 -0.29994687494E+02 -0.14779645051E+02  0.48412413583E+02  0.00000000000E+00 0. -1.
        -11    1    3    3    0    0  0.49333616238E+03 -0.60128940268E+03  0.10509395402E+03  0.78484027296E+03  0.00000000000E+00 0.  1.
         22    1    1    2    0    0 -0.52834534122E+03  0.63128409018E+03 -0.38423939913E+04  0.39295877629E+04  0.00000000000E+00 0.  1.
<mgrwt>
<rscale>  0 0.29336917E+04</rscale>
<asrwt>0</asrwt>
<pdfrwt beam="1">  1        2 0.65499388E+00 0.29336917E+04</pdfrwt>
<pdfrwt beam="2">  1       -2 0.77750825E-01 0.29336917E+04</pdfrwt>
<totfact> 0.26258115E-01</totfact>
</mgrwt>
</event>
<event>
 6    1  0.1878398E-004  0.2396902E+04  0.7818608E-02  0.8440664E-01
         -2   -1    0    0    0  501 -0.00000000000E+00  0.00000000000E+00  0.15632817956E+04  0.15632817956E+04  0.00000000000E+00 0. -1.
          2   -1    0    0  501    0  0.00000000000E+00 -0.00000000000E+00 -0.91876250110E+03  0.91876250110E+03  0.00000000000E+00 0.  1.
         23    2    1    2    0    0 -0.41435029778E+03  0.58286558479E+03  0.13163367179E+04  0.15008424267E+04  0.91472268216E+02 0.  0.
         13    1    3    3    0    0 -0.14118896905E+03  0.12906875809E+03  0.34926799973E+03  0.39822255703E+03  0.00000000000E+00 0. -1.
        -13    1    3    3    0    0 -0.27316132873E+03  0.45379682671E+03  0.96706871813E+03  0.11026198697E+04  0.00000000000E+00 0.  1.
         22    1    1    2    0    0  0.41435029778E+03 -0.58286558479E+03 -0.67181742339E+03  0.98120186994E+03  0.00000000000E+00 0.  1.
<mgrwt>
<rscale>  0 0.23969019E+04</rscale>
<asrwt>0</asrwt>
<pdfrwt beam="1">  1        2 0.14134808E+00 0.23969019E+04</pdfrwt>
<pdfrwt beam="2">  1       -2 0.24050489E+00 0.23969019E+04</pdfrwt>
<totfact> 0.18835837E+00</totfact>
</mgrwt>
</event>
<event>
 6    1  0.1878398E-004  0.2256640E+04  0.7818608E-02  0.8495216E-01
          1   -1    0    0  501    0  0.00000000000E+00  0.00000000000E+00  0.38274877638E+03  0.38274877638E+03  0.00000000000E+00 0.  1.
         -1   -1    0    0    0  501 -0.00000000000E+00 -0.00000000000E+00 -0.33262178144E+04  0.33262178144E+04  0.00000000000E+00 0. -1.
         23    2    1    2    0    0 -0.16705934514E+03 -0.11017821019E+04 -0.17449903600E+04  0.20724508510E+04  0.90711346274E+02 0.  0.
         13    1    3    3    0    0 -0.41242544247E+02 -0.41870356495E+03 -0.72990870523E+03  0.84248462344E+03  0.00000000000E+00 0. -1.
        -13    1    3    3    0    0 -0.12581680089E+03 -0.68307853697E+03 -0.10150816548E+04  0.12299662276E+04  0.00000000000E+00 0.  1.
         22    1    1    2    0    0  0.16705934514E+03  0.11017821019E+04 -0.11984786780E+04  0.16365157398E+04  0.00000000000E+00 0. -1.
<mgrwt>
<rscale>  0 0.22566398E+04</rscale>
<asrwt>0</asrwt>
<pdfrwt beam="1">  1        1 0.58884426E-01 0.22566398E+04</pdfrwt>
<pdfrwt beam="2">  1       -1 0.51172582E+00 0.22566398E+04</pdfrwt>
<totfact> 0.72005311E-02</totfact>
</mgrwt>
</event>
<event>
 6    1  0.1878398E-004  0.2562476E+04  0.7818608E-02  0.8381060E-01
          2   -1    0    0  501    0  0.00000000000E+00  0.00000000000E+00  0.23278484513E+04  0.23278484513E+04  0.00000000000E+00 0.  1.
         -2   -1    0    0    0  501 -0.00000000000E+00 -0.00000000000E+00 -0.70518805538E+03  0.70518805538E+03  0.00000000000E+00 0. -1.
         23    2    1    2    0    0 -0.10127986442E+04 -0.32002018569E+02  0.17372297545E+04  0.20132760638E+04  0.92347530599E+02 0.  0.
         13    1    3    3    0    0 -0.34515329151E+03  0.30436341876E+02  0.56364701236E+03  0.66163065232E+03  0.00000000000E+00 0.  1.
        -13    1    3    3    0    0 -0.66764535270E+03 -0.62438360445E+02  0.11735827421E+04  0.13516454115E+04  0.00000000000E+00 0. -1.
         22    1    1    2    0    0  0.10127986442E+04  0.32002018569E+02 -0.11456935855E+03  0.10197604429E+04  0.00000000000E+00 0. -1.
<mgrwt>
<rscale>  0 0.25624761E+04</rscale>
<asrwt>0</asrwt>
<pdfrwt beam="1">  1        2 0.35813053E+00 0.25624761E+04</pdfrwt>
<pdfrwt beam="2">  1       -2 0.10849047E+00 0.25624761E+04</pdfrwt>
<totfact> 0.26346083E+00</totfact>
</mgrwt>
</event>
<event>
 6    1  0.1878398E-004  0.2416000E+04  0.7818608E-02  0.8433537E-01
         -1   -1    0    0    0  501 -0.00000000000E+00  0.00000000000E+00  0.70146265341E+03  0.70146265341E+03  0.00000000000E+00 0. -1.
          1   -1    0    0  501    0  0.00000000000E+00 -0.00000000000E+00 -0.20803167191E+04  0.20803167191E+04  0.00000000000E+00 0.  1.
         23    2    1    2    0    0  0.80355252743E+03 -0.89789785719E+03 -0.62618618398E+03  0.13610661128E+04  0.92057590938E+02 0.  0.
         11    1    3    3    0    0  0.74596887218E+03 -0.86017540725E+03 -0.60316442279E+03  0.12884791851E+04  0.00000000000E+00 0.  1.
        -11    1    3    3    0    0  0.57583655259E+02 -0.37722449932E+02 -0.23021761190E+02  0.72586927681E+02  0.00000000000E+00 0. -1.
         22    1    1    2    0    0 -0.80355252743E+03  0.89789785719E+03 -0.75266788175E+03  0.14207132598E+04  0.00000000000E+00 0. -1.
<mgrwt>
<rscale>  0 0.24160004E+04</rscale>
<asrwt>0</asrwt>
<pdfrwt beam="1">  1        1 0.32004872E+00 0.24160004E+04</pdfrwt>
<pdfrwt beam="2">  1       -1 0.10791733E+00 0.24160004E+04</pdfrwt>
<totfact> 0.18773912E+00</totfact>
</mgrwt>
</event>
<event>
 6    1  0.1878398E-004  0.7751690E+03  0.7818608E-02  0.9596671E-01
         -1   -1    0    0    0  501 -0.00000000000E+00  0.00000000000E+00  0.13979507797E+03  0.13979507797E+03  0.00000000000E+00 0. -1.
          1   -1    0    0  501    0  0.00000000000E+00 -0.00000000000E+00 -0.10745854025E+04  0.10745854025E+04  0.00000000000E+00 0.  1.
         23    2    1    2    0    0 -0.19687067858E+03  0.27347402935E+03 -0.75640355192E+03  0.83310898998E+03  0.91532218416E+02 0.  0.
         11    1    3    3    0    0 -0.15124476474E+03  0.18922287609E+03 -0.43705670937E+03  0.49969875216E+03  0.00000000000E+00 0. -1.
        -11    1    3    3    0    0 -0.45625913841E+02  0.84251153258E+02 -0.31934684255E+03  0.33341023782E+03  0.00000000000E+00 0.  1.
         22    1    1    2    0    0  0.19687067858E+03 -0.27347402935E+03 -0.17838677259E+03  0.38127149047E+03  0.00000000000E+00 0. -1.
<mgrwt>
<rscale>  0 0.77516901E+03</rscale>
<asrwt>0</asrwt>
<pdfrwt beam="1">  1        1 0.16532083E+00 0.77516901E+03</pdfrwt>
<pdfrwt beam="2">  1       -1 0.21506936E-01 0.77516901E+03</pdfrwt>
<totfact> 0.24252958E+02</totfact>
</mgrwt>
</event>
<event>
 6    1  0.1878398E-004  0.2055688E+04  0.7818608E-02  0.8581019E-01
          2   -1    0    0  501    0  0.00000000000E+00  0.00000000000E+00  0.18108487599E+04  0.18108487599E+04  0.00000000000E+00 0.  1.
         -2   -1    0    0    0  501 -0.00000000000E+00 -0.00000000000E+00 -0.58340757423E+03  0.58340757423E+03  0.00000000000E+00 0. -1.
         23    2    1    2    0    0  0.19218161042E+03 -0.10064418065E+04  0.67092729408E+03  0.12282517918E+04  0.92736987735E+02 0.  0.
         13    1    3    3    0    0  0.13329028600E+03 -0.51916241147E+03  0.38829977006E+03  0.66187054720E+03  0.00000000000E+00 0. -1.
        -13    1    3    3    0    0  0.58891324420E+02 -0.48727939502E+03  0.28262752402E+03  0.56638124460E+03  0.00000000000E+00 0.  1.
         22    1    1    2    0    0 -0.19218161042E+03  0.10064418065E+04  0.55651389162E+03  0.11660045424E+04  0.00000000000E+00 0.  1.
<mgrwt>
<rscale>  0 0.20556876E+04</rscale>
<asrwt>0</asrwt>
<pdfrwt beam="1">  1        2 0.27859211E+00 0.20556876E+04</pdfrwt>
<pdfrwt beam="2">  1       -2 0.89755012E-01 0.20556876E+04</pdfrwt>
<totfact> 0.83699856E+00</totfact>
</mgrwt>
</event>
<event>
 6    1  0.1878398E-004  0.1347105E+04  0.7818608E-02  0.8993022E-01
          2   -1    0    0  501    0  0.00000000000E+00  0.00000000000E+00  0.81596289152E+03  0.81596289152E+03  0.00000000000E+00 0.  1.
         -2   -1    0    0    0  501 -0.00000000000E+00 -0.00000000000E+00 -0.55599721088E+03  0.55599721088E+03  0.00000000000E+00 0. -1.
         23    2    1    2    0    0  0.68570279119E+02 -0.65518631924E+03  0.25858378281E+03  0.71319390280E+03  0.88368400250E+02 0.  0.
         11    1    3    3    0    0  0.72764959548E+02 -0.43795568638E+03  0.20719501535E+03  0.48992825695E+03  0.00000000000E+00 0.  1.
        -11    1    3    3    0    0 -0.41946804293E+01 -0.21723063287E+03  0.51388767459E+02  0.22326564586E+03  0.00000000000E+00 0. -1.
         22    1    1    2    0    0 -0.68570279119E+02  0.65518631924E+03  0.13818978288E+01  0.65876619960E+03  0.00000000000E+00 0.  1.
<mgrwt>
<rscale>  0 0.13471052E+04</rscale>
<asrwt>0</asrwt>
<pdfrwt beam="1">  1        2 0.12553275E+00 0.13471052E+04</pdfrwt>
<pdfrwt beam="2">  1       -2 0.85538032E-01 0.13471052E+04</pdfrwt>
<totfact> 0.38940460E+01</totfact>
</mgrwt>
</event>
<event>
 6    1  0.1878398E-004  0.2551072E+04  0.7818608E-02  0.8385013E-01
          1   -1    0    0  501    0  0.00000000000E+00  0.00000000000E+00  0.25456328031E+04  0.25456328031E+04  0.00000000000E+00 0. -1.
         -1   -1    0    0    0  501 -0.00000000000E+00 -0.00000000000E+00 -0.63913070929E+03  0.63913070929E+03  0.00000000000E+00 0.  1.
         23    2    1    2    0    0  0.22776880558E+03  0.11245073720E+04  0.16455506995E+04  0.20081195183E+04  0.91167082849E+02 0.  0.
         13    1    3    3    0    0  0.83685439896E+02  0.26306815623E+03  0.44004308945E+03  0.51946706175E+03  0.00000000000E+00 0. -1.
        -13    1    3    3    0    0  0.14408336569E+03  0.86143921576E+03  0.12055076100E+04  0.14886524566E+04  0.00000000000E+00 0.  1.
         22    1    1    2    0    0 -0.22776880558E+03 -0.11245073720E+04  0.26095139431E+03  0.11766439940E+04  0.00000000000E+00 0.  1.
<mgrwt>
<rscale>  0 0.25510720E+04</rscale>
<asrwt>0</asrwt>
<pdfrwt beam="1">  1        1 0.39163581E+00 0.25510720E+04</pdfrwt>
<pdfrwt beam="2">  1       -1 0.98327803E-01 0.25510720E+04</pdfrwt>
<totfact> 0.11028487E+00</totfact>
</mgrwt>
</event>
<event>
 6    1  0.1878398E-004  0.3821577E+04  0.7818608E-02  0.8041540E-01
         -1   -1    0    0    0  501 -0.00000000000E+00  0.00000000000E+00  0.33523071070E+04  0.33523071070E+04  0.00000000000E+00 0. -1.
          1   -1    0    0  501    0  0.00000000000E+00 -0.00000000000E+00 -0.10891343044E+04  0.10891343044E+04  0.00000000000E+00 0.  1.
         23    2    1    2    0    0  0.80914472252E+03 -0.15325782580E+04  0.20646983663E+04  0.26970494254E+04  0.87091675573E+02 0.  0.
         11    1    3    3    0    0  0.41461039849E+03 -0.87747444001E+03  0.11612769882E+04  0.15134158116E+04  0.00000000000E+00 0. -1.
        -11    1    3    3    0    0  0.39453432402E+03 -0.65510381803E+03  0.90342137807E+03  0.11836336137E+04  0.00000000000E+00 0.  1.
         22    1    1    2    0    0 -0.80914472252E+03  0.15325782580E+04  0.19847443634E+03  0.17443919860E+04  0.00000000000E+00 0. -1.
<mgrwt>
<rscale>  0 0.38215770E+04</rscale>
<asrwt>0</asrwt>
<pdfrwt beam="1">  1        1 0.16755913E+00 0.38215770E+04</pdfrwt>
<pdfrwt beam="2">  1       -1 0.51573955E+00 0.38215770E+04</pdfrwt>
<totfact> 0.12161717E-02</totfact>
</mgrwt>
</event>
<event>
 6    1  0.1878398E-004  0.1474746E+04  0.7818608E-02  0.8901422E-01
         -1   -1    0    0    0  501 -0.00000000000E+00  0.00000000000E+00  0.38727832514E+03  0.38727832514E+03  0.00000000000E+00 0.  1.
          1   -1    0    0  501    0  0.00000000000E+00 -0.00000000000E+00 -0.14039491251E+04  0.14039491251E+04  0.00000000000E+00 0. -1.
         23    2    1    2    0    0  0.57152116114E+03 -0.44913718086E+03 -0.38165797077E+03  0.82603216530E+03  0.91135539660E+02 0.  0.
         13    1    3    3    0    0  0.45071740602E+03 -0.39548452756E+03 -0.29794290168E+03  0.66957013396E+03  0.00000000000E+00 0. -1.
        -13    1    3    3    0    0  0.12080375513E+03 -0.53652653302E+02 -0.83715069085E+02  0.15646203134E+03  0.00000000000E+00 0.  1.
         22    1    1    2    0    0 -0.57152116114E+03  0.44913718086E+03 -0.63501282922E+03  0.96519528498E+03  0.00000000000E+00 0. -1.
<mgrwt>
<rscale>  0 0.14747462E+04</rscale>
<asrwt>0</asrwt>
<pdfrwt beam="1">  1        1 0.21599217E+00 0.14747462E+04</pdfrwt>
<pdfrwt beam="2">  1       -1 0.59581281E-01 0.14747462E+04</pdfrwt>
<totfact> 0.21131199E+01</totfact>
</mgrwt>
</event>
<event>
 6    1  0.1878398E-004  0.5371373E+04  0.7818608E-02  0.7773641E-01
          2   -1    0    0  501    0  0.00000000000E+00  0.00000000000E+00  0.20579696503E+04  0.20579696503E+04  0.00000000000E+00 0.  1.
         -2   -1    0    0    0  501 -0.00000000000E+00 -0.00000000000E+00 -0.35048678750E+04  0.35048678750E+04  0.00000000000E+00 0. -1.
         23    2    1    2    0    0 -0.20486901974E+03 -0.26468019206E+04 -0.11395258250E+04  0.28903836877E+04  0.90923233079E+02 0.  0.
         11    1    3    3    0    0 -0.45936179394E+02 -0.34038697658E+03 -0.12217605287E+03  0.36455509089E+03  0.00000000000E+00 0.  1.
        -11    1    3    3    0    0 -0.15893284034E+03 -0.23064149440E+04 -0.10173497721E+04  0.25258285968E+04  0.00000000000E+00 0. -1.
         22    1    1    2    0    0  0.20486901974E+03  0.26468019206E+04 -0.30737239976E+03  0.26724538376E+04  0.00000000000E+00 0.  1.
<mgrwt>
<rscale>  0 0.53713729E+04</rscale>
<asrwt>0</asrwt>
<pdfrwt beam="1">  1        2 0.31661072E+00 0.53713729E+04</pdfrwt>
<pdfrwt beam="2">  1       -2 0.53921044E+00 0.53713729E+04</pdfrwt>
<totfact> 0.43223488E-03</totfact>
</mgrwt>
</event>
<event>
 6    1  0.1878398E-004  0.5018699E+04  0.7818608E-02  0.7825629E-01
         -2   -1    0    0    0  501 -0.00000000000E+00  0.00000000000E+00  0.25567721849E+04  0.25567721849E+04  0.00000000000E+00 0. -1.
          2   -1    0    0  501    0  0.00000000000E+00 -0.00000000000E+00 -0.24628066324E+04  0.24628066324E+04  0.00000000000E+00 0.  1.
         23    2    1    2    0    0 -0.16609174261E+04  0.63754542083E+03  0.18157946498E+04  0.25437342543E+04  0.91448816743E+02 0.  0.
         11    1    3    3    0    0 -0.73513961989E+03  0.24592011364E+03  0.74767013877E+03  0.10769947072E+04  0.00000000000E+00 0. -1.
        -11    1    3    3    0    0 -0.92577780625E+03  0.39162530719E+03  0.10681245110E+04  0.14667395470E+04  0.00000000000E+00 0.  1.
         22    1    1    2    0    0  0.16609174261E+04 -0.63754542083E+03 -0.17218290973E+04  0.24758445631E+04  0.00000000000E+00 0.  1.
<mgrwt>
<rscale>  0 0.50186992E+04</rscale>
<asrwt>0</asrwt>
<pdfrwt beam="1">  1        2 0.37889333E+00 0.50186992E+04</pdfrwt>
<pdfrwt beam="2">  1       -2 0.39334957E+00 0.50186992E+04</pdfrwt>
<totfact> 0.21825829E-02</totfact>
</mgrwt>
</event>
<event>
 6    1  0.1878398E-004  0.4451432E+04  0.7818608E-02  0.7919195E-01
         -1   -1    0    0    0  501 -0.00000000000E+00  0.00000000000E+00  0.18736207426E+04  0.18736207426E+04  0.00000000000E+00 0. -1.
          1   -1    0    0  501    0  0.00000000000E+00 -0.00000000000E+00 -0.26439782299E+04  0.26439782299E+04  0.00000000000E+00 0.  1.
         23    2    1    2    0    0 -0.91503872713E+03  0.12171390181E+04 -0.20313802036E+04  0.25405047530E+04  0.94528340586E+02 0.  0.
         13    1    3    3    0    0 -0.96279571033E+02  0.11909442202E+03 -0.16065610404E+03  0.22195409642E+03  0.00000000000E+00 0. -1.
        -13    1    3    3    0    0 -0.81875915609E+03  0.10980445961E+04 -0.18707240995E+04  0.23185506566E+04  0.00000000000E+00 0.  1.
         22    1    1    2    0    0  0.91503872713E+03 -0.12171390181E+04  0.12610227163E+04  0.19770942194E+04  0.00000000000E+00 0. -1.
<mgrwt>
<rscale>  0 0.44514323E+04</rscale>
<asrwt>0</asrwt>
<pdfrwt beam="1">  1        1 0.40676588E+00 0.44514323E+04</pdfrwt>
<pdfrwt beam="2">  1       -1 0.28824934E+00 0.44514323E+04</pdfrwt>
<totfact> 0.31909778E-02</totfact>
</mgrwt>
</event>
<event>
 6    1  0.1878398E-004  0.2419258E+04  0.7818608E-02  0.8432329E-01
         -1   -1    0    0    0  501 -0.00000000000E+00  0.00000000000E+00  0.11489837108E+04  0.11489837108E+04  0.00000000000E+00 0.  1.
          1   -1    0    0  501    0  0.00000000000E+00 -0.00000000000E+00 -0.12734748670E+04  0.12734748670E+04  0.00000000000E+00 0. -1.
         23    2    1    2    0    0  0.10944755096E+03 -0.58697901006E+03  0.98877703937E+03  0.11591734951E+04  0.97365463778E+02 0.  0.
         13    1    3    3    0    0  0.21598445244E+02 -0.32966135718E+03  0.59652872945E+03  0.68190147992E+03  0.00000000000E+00 0. -1.
        -13    1    3    3    0    0  0.87849105715E+02 -0.25731765288E+03  0.39224830993E+03  0.47727201520E+03  0.00000000000E+00 0.  1.
         22    1    1    2    0    0 -0.10944755096E+03  0.58697901006E+03 -0.11132681956E+04  0.12632850826E+04  0.00000000000E+00 0. -1.
<mgrwt>
<rscale>  0 0.24192576E+04</rscale>
<asrwt>0</asrwt>
<pdfrwt beam="1">  1        1 0.19591921E+00 0.24192576E+04</pdfrwt>
<pdfrwt beam="2">  1       -1 0.17676672E+00 0.24192576E+04</pdfrwt>
<totfact> 0.18568642E+00</totfact>
</mgrwt>
</event>
<event>
 6    1  0.1878398E-004  0.2112312E+04  0.7818608E-02  0.8555839E-01
         -2   -1    0    0    0  501 -0.00000000000E+00  0.00000000000E+00  0.54366557440E+03  0.54366557440E+03  0.00000000000E+00 0. -1.
          2   -1    0    0  501    0  0.00000000000E+00 -0.00000000000E+00 -0.20517486305E+04  0.20517486305E+04  0.00000000000E+00 0.  1.
         23    2    1    2    0    0 -0.34384993514E+03  0.48760744968E+03  0.31239919799E+03  0.67965079561E+03  0.91313428301E+02 0.  0.
         11    1    3    3    0    0 -0.11219606158E+03  0.21801097981E+03  0.16085558633E+03  0.29324266949E+03  0.00000000000E+00 0. -1.
        -11    1    3    3    0    0 -0.23165387356E+03  0.26959646987E+03  0.15154361166E+03  0.38640812612E+03  0.00000000000E+00 0.  1.
         22    1    1    2    0    0  0.34384993514E+03 -0.48760744968E+03 -0.18204822540E+04  0.19157634092E+04  0.00000000000E+00 0.  1.
<mgrwt>
<rscale>  0 0.21123116E+04</rscale>
<asrwt>0</asrwt>
<pdfrwt beam="1">  1        2 0.31565363E+00 0.21123116E+04</pdfrwt>
<pdfrwt beam="2">  1       -2 0.83640859E-01 0.21123116E+04</pdfrwt>
<totfact> 0.71935758E+00</totfact>
</mgrwt>
</event>
<event>
 6    1  0.1878398E-004  0.8660661E+03  0.7818608E-02  0.9469024E-01
         -2   -1    0    0    0  501 -0.00000000000E+00  0.00000000000E+00  0.77790149352E+02  0.77790149352E+02  0.00000000000E+00 0. -1.
          2   -1    0    0  501    0  0.00000000000E+00 -0.00000000000E+00 -0.24105572098E+04  0.24105572098E+04  0.00000000000E+00 0.  1.
         23    2    1    2    0    0 -0.26464321830E+03 -0.11782551243E+03 -0.20854928167E+04  0.21074754174E+04  0.90848566626E+02 0.  0.
         13    1    3    3    0    0 -0.10842741267E+03 -0.49539875615E+02 -0.56400014655E+03  0.57646063908E+03  0.00000000000E+00 0. -1.
        -13    1    3    3    0    0 -0.15621580563E+03 -0.68285636813E+02 -0.15214926702E+04  0.15310147784E+04  0.00000000000E+00 0.  1.
         22    1    1    2    0    0  0.26464321830E+03  0.11782551243E+03 -0.24727424367E+03  0.38087194167E+03  0.00000000000E+00 0. -1.
<mgrwt>
<rscale>  0 0.86606606E+03</rscale>
<asrwt>0</asrwt>
<pdfrwt beam="1">  1        2 0.37085494E+00 0.86606606E+03</pdfrwt>
<pdfrwt beam="2">  1       -2 0.11967716E-01 0.86606606E+03</pdfrwt>
<totfact> 0.20523532E+02</totfact>
</mgrwt>
</event>
<event>
 6    1  0.1878398E-004  0.2316535E+04  0.7818608E-02  0.8471430E-01
          2   -1    0    0  501    0  0.00000000000E+00  0.00000000000E+00  0.44584613176E+04  0.44584613176E+04  0.00000000000E+00 0. -1.
         -2   -1    0    0    0  501 -0.00000000000E+00 -0.00000000000E+00 -0.30090725347E+03  0.30090725347E+03  0.00000000000E+00 0.  1.
         23    2    1    2    0    0  0.98501441471E+03 -0.18420617183E+03  0.89538713458E+03  0.13467569044E+04  0.88604333740E+02 0.  0.
         11    1    3    3    0    0  0.42595893803E+03 -0.56616242095E+02  0.33365349344E+03  0.54403223199E+03  0.00000000000E+00 0.  1.
        -11    1    3    3    0    0  0.55905547669E+03 -0.12758992973E+03  0.56173364114E+03  0.80272467246E+03  0.00000000000E+00 0. -1.
         22    1    1    2    0    0 -0.98501441471E+03  0.18420617183E+03  0.32621669295E+04  0.34126116666E+04  0.00000000000E+00 0. -1.
<mgrwt>
<rscale>  0 0.23165348E+04</rscale>
<asrwt>0</asrwt>
<pdfrwt beam="1">  1        2 0.68591708E+00 0.23165348E+04</pdfrwt>
<pdfrwt beam="2">  1       -2 0.46293427E-01 0.23165348E+04</pdfrwt>
<totfact> 0.54578452E-01</totfact>
</mgrwt>
</event>
<event>
 6    1  0.1878398E-004  0.1271526E+04  0.7818608E-02  0.9052455E-01
         -1   -1    0    0    0  501 -0.00000000000E+00  0.00000000000E+00  0.41413956403E+03  0.41413956403E+03  0.00000000000E+00 0. -1.
          1   -1    0    0  501    0  0.00000000000E+00 -0.00000000000E+00 -0.97598684037E+03  0.97598684037E+03  0.00000000000E+00 0.  1.
         23    2    1    2    0    0  0.27172213883E+03  0.56655483065E+03 -0.20395846515E+03  0.66700698270E+03  0.92097571108E+02 0.  0.
         13    1    3    3    0    0  0.12977928605E+03  0.18129619636E+03 -0.49865740632E+02  0.22846786643E+03  0.00000000000E+00 0. -1.
        -13    1    3    3    0    0  0.14194285277E+03  0.38525863429E+03 -0.15409272452E+03  0.43853911627E+03  0.00000000000E+00 0.  1.
         22    1    1    2    0    0 -0.27172213883E+03 -0.56655483065E+03 -0.35788881118E+03  0.72311942169E+03  0.00000000000E+00 0.  1.
<mgrwt>
<rscale>  0 0.12715263E+04</rscale>
<asrwt>0</asrwt>
<pdfrwt beam="1">  1        1 0.15015182E+00 0.12715263E+04</pdfrwt>
<pdfrwt beam="2">  1       -1 0.63713780E-01 0.12715263E+04</pdfrwt>
<totfact> 0.38878526E+01</totfact>
</mgrwt>
</event>
<event>
 6    1  0.1878398E-004  0.3030546E+04  0.7818608E-02  0.8235062E-01
          2   -1    0    0  501    0  0.00000000000E+00  0.00000000000E+00  0.24884773563E+04  0.24884773563E+04  0.00000000000E+00 0.  1.
         -2   -1    0    0    0  501 -0.00000000000E+00 -0.00000000000E+00 -0.92267343163E+03  0.92267343163E+03  0.00000000000E+00 0. -1.
         23    2    1    2    0    0 -0.10137740434E+04 -0.60728316132E+03 -0.28175188047E+03  0.12179811405E+04  0.86967162887E+02 0.  0.
         11    1    3    3    0    0 -0.61317718371E+03 -0.35509104397E+03 -0.12630806809E+03  0.71974275695E+03  0.00000000000E+00 0. -1.
        -11    1    3    3    0    0 -0.40059685971E+03 -0.25219211735E+03 -0.15544381238E+03  0.49823838358E+03  0.00000000000E+00 0.  1.
         22    1    1    2    0    0  0.10137740434E+04  0.60728316132E+03  0.18475558051E+04  0.21931696474E+04  0.00000000000E+00 0.  1.
<mgrwt>
<rscale>  0 0.30305458E+04</rscale>
<asrwt>0</asrwt>
<pdfrwt beam="1">  1        2 0.38284267E+00 0.30305458E+04</pdfrwt>
<pdfrwt beam="2">  1       -2 0.14194976E+00 0.30305458E+04</pdfrwt>
<totfact> 0.10455345E+00</totfact>
</mgrwt>
</event>
<event>
 6    1  0.1878398E-004  0.5147285E+04  0.7818608E-02  0.7806180E-01
         -2   -1    0    0    0  501 -0.00000000000E+00  0.00000000000E+00  0.23486696994E+04  0.23486696994E+04  0.00000000000E+00 0. -1.
          2   -1    0    0  501    0  0.00000000000E+00 -0.00000000000E+00 -0.28201646163E+04  0.28201646163E+04  0.00000000000E+00 0.  1.
         23    2    1    2    0    0  0.16351582468E+04  0.26332431443E+03 -0.22128820038E+04  0.27656049939E+04  0.92962534309E+02 0.  0.
         11    1    3    3    0    0  0.87010259640E+03  0.18525307923E+03 -0.12081802582E+04  0.15003655447E+04  0.00000000000E+00 0. -1.
        -11    1    3    3    0    0  0.76505565043E+03  0.78071235201E+02 -0.10047017456E+04  0.12652394491E+04  0.00000000000E+00 0.  1.
         22    1    1    2    0    0 -0.16351582468E+04 -0.26332431443E+03  0.17413870869E+04  0.24032293218E+04  0.00000000000E+00 0. -1.
<mgrwt>
<rscale>  0 0.51472848E+04</rscale>
<asrwt>0</asrwt>
<pdfrwt beam="1">  1        2 0.43387147E+00 0.51472848E+04</pdfrwt>
<pdfrwt beam="2">  1       -2 0.36133380E+00 0.51472848E+04</pdfrwt>
<totfact> 0.21333697E-02</totfact>
</mgrwt>
</event>
<event>
 6    1  0.1878398E-004  0.2713034E+04  0.7818608E-02  0.8330788E-01
          1   -1    0    0  501    0  0.00000000000E+00  0.00000000000E+00  0.41462353346E+04  0.41462353346E+04  0.00000000000E+00 0. -1.
         -1   -1    0    0    0  501 -0.00000000000E+00 -0.00000000000E+00 -0.44380936704E+03  0.44380936704E+03  0.00000000000E+00 0.  1.
         23    2    1    2    0    0 -0.11839659852E+04 -0.51862974710E+03  0.25411710945E+04  0.28524414244E+04  0.90107043905E+02 0.  0.
         13    1    3    3    0    0 -0.16303559515E+03 -0.99487399186E+02  0.41809972956E+03  0.45965827713E+03  0.00000000000E+00 0. -1.
        -13    1    3    3    0    0 -0.10209303901E+04 -0.41914234792E+03  0.21230713649E+04  0.23927831473E+04  0.00000000000E+00 0.  1.
         22    1    1    2    0    0  0.11839659852E+04  0.51862974710E+03  0.11612548731E+04  0.17376032772E+04  0.00000000000E+00 0.  1.
<mgrwt>
<rscale>  0 0.27130338E+04</rscale>
<asrwt>0</asrwt>
<pdfrwt beam="1">  1        1 0.63788233E+00 0.27130338E+04</pdfrwt>
<pdfrwt beam="2">  1       -1 0.68278367E-01 0.27130338E+04</pdfrwt>
<totfact> 0.13445753E-01</totfact>
</mgrwt>
</event>
<event>
 6    1  0.1878398E-004  0.1771685E+04  0.7818608E-02  0.8721504E-01
         -2   -1    0    0    0  501 -0.00000000000E+00  0.00000000000E+00  0.38810451396E+03  0.38810451396E+03  0.00000000000E+00 0. -1.
          2   -1    0    0  501    0  0.00000000000E+00 -0.00000000000E+00 -0.20219221143E+04  0.20219221143E+04  0.00000000000E+00 0.  1.
         23    2    1    2    0    0  0.24733410327E+03  0.29583988595E+03  0.26210872603E+03  0.47528322621E+03  0.92183317866E+02 0.  0.
         11    1    3    3    0    0  0.64285474018E+02  0.81233027812E+02  0.12289221883E+03  0.16072935147E+03  0.00000000000E+00 0.  1.
        -11    1    3    3    0    0  0.18304862925E+03  0.21460685814E+03  0.13921650720E+03  0.31455387474E+03  0.00000000000E+00 0. -1.
         22    1    1    2    0    0 -0.24733410327E+03 -0.29583988595E+03 -0.18959263264E+04  0.19347434021E+04  0.00000000000E+00 0.  1.
<mgrwt>
<rscale>  0 0.17716852E+04</rscale>
<asrwt>0</asrwt>
<pdfrwt beam="1">  1        2 0.31106493E+00 0.17716852E+04</pdfrwt>
<pdfrwt beam="2">  1       -2 0.59708388E-01 0.17716852E+04</pdfrwt>
<totfact> 0.16084913E+01</totfact>
</mgrwt>
</event>
<event>
 6    1  0.1878398E-004  0.4179275E+04  0.7818608E-02  0.7969326E-01
          1   -1    0    0  501    0  0.00000000000E+00  0.00000000000E+00  0.37457009841E+04  0.37457009841E+04  0.00000000000E+00 0.  1.
         -1   -1    0    0    0  501 -0.00000000000E+00 -0.00000000000E+00 -0.11657590950E+04  0.11657590950E+04  0.00000000000E+00 0. -1.
         23    2    1    2    0    0 -0.93709081258E+03  0.14897344970E+04  0.26122245164E+04  0.31512071908E+04  0.94560947652E+02 0.  0.
         11    1    3    3    0    0 -0.75591817972E+03  0.11353995728E+04  0.20535616465E+04  0.24652910418E+04  0.00000000000E+00 0. -1.
        -11    1    3    3    0    0 -0.18117263286E+03  0.35433492423E+03  0.55866286983E+03  0.68591614906E+03  0.00000000000E+00 0.  1.
         22    1    1    2    0    0  0.93709081258E+03 -0.14897344970E+04 -0.32282627185E+02  0.17602528883E+04  0.00000000000E+00 0. -1.
<mgrwt>
<rscale>  0 0.41792751E+04</rscale>
<asrwt>0</asrwt>
<pdfrwt beam="1">  1        1 0.57626169E+00 0.41792751E+04</pdfrwt>
<pdfrwt beam="2">  1       -1 0.17934755E+00 0.41792751E+04</pdfrwt>
<totfact> 0.25607745E-02</totfact>
</mgrwt>
</event>
<event>
 6    1  0.1878398E-004  0.1679065E+04  0.7818608E-02  0.8773395E-01
         -2   -1    0    0    0  501 -0.00000000000E+00  0.00000000000E+00  0.21502983175E+03  0.21502983175E+03  0.00000000000E+00 0. -1.
          2   -1    0    0  501    0  0.00000000000E+00 -0.00000000000E+00 -0.32777537077E+04  0.32777537077E+04  0.00000000000E+00 0.  1.
         23    2    1    2    0    0  0.62042947524E+03  0.50645574584E+03 -0.20424170792E+04  0.21956882786E+04  0.90273667833E+02 0.  0.
         13    1    3    3    0    0  0.11316718476E+03  0.76402952092E+02 -0.26879956297E+03  0.30149200296E+03  0.00000000000E+00 0. -1.
        -13    1    3    3    0    0  0.50726229049E+03  0.43005279374E+03 -0.17736175162E+04  0.18941962756E+04  0.00000000000E+00 0.  1.
         22    1    1    2    0    0 -0.62042947524E+03 -0.50645574584E+03 -0.10203067968E+04  0.12970952609E+04  0.00000000000E+00 0. -1.
<mgrwt>
<rscale>  0 0.16790650E+04</rscale>
<asrwt>0</asrwt>
<pdfrwt beam="1">  1        2 0.50426977E+00 0.16790650E+04</pdfrwt>
<pdfrwt beam="2">  1       -2 0.33081515E-01 0.16790650E+04</pdfrwt>
<totfact> 0.94428725E+00</totfact>
</mgrwt>
</event>
<event>
 6    1  0.1878398E-004  0.3687400E+04  0.7818608E-02  0.8070760E-01
          1   -1    0    0  501    0  0.00000000000E+00  0.00000000000E+00  0.18738421380E+04  0.18738421380E+04  0.00000000000E+00 0.  1.
         -1   -1    0    0    0  501 -0.00000000000E+00 -0.00000000000E+00 -0.18140429831E+04  0.18140429831E+04  0.00000000000E+00 0. -1.
         23    2    1    2    0    0 -0.15970232020E+04  0.91526040238E+03  0.11398462436E+03  0.18463855210E+04  0.89231641162E+02 0.  0.
         11    1    3    3    0    0 -0.12984840775E+04  0.74902697928E+03  0.58213839753E+02  0.15001637132E+04  0.00000000000E+00 0.  1.
        -11    1    3    3    0    0 -0.29853912449E+03  0.16623342310E+03  0.55770784609E+02  0.34622180784E+03  0.00000000000E+00 0. -1.
         22    1    1    2    0    0  0.15970232020E+04 -0.91526040238E+03 -0.54185469415E+02  0.18414996001E+04  0.00000000000E+00 0. -1.
<mgrwt>
<rscale>  0 0.36874003E+04</rscale>
<asrwt>0</asrwt>
<pdfrwt beam="1">  1        1 0.28828341E+00 0.36874003E+04</pdfrwt>
<pdfrwt beam="2">  1       -1 0.27908354E+00 0.36874003E+04</pdfrwt>
<totfact> 0.13152953E-01</totfact>
</mgrwt>
</event>
<event>
 6    1  0.1924749E-004  0.4731623E+04  0.7818608E-02  0.7871295E-01
          2   -1    0    0  501    0  0.00000000000E+00  0.00000000000E+00  0.24366315523E+04  0.24366315523E+04  0.00000000000E+00 0.  1.
         -2   -1    0    0    0  501 -0.00000000000E+00 -0.00000000000E+00 -0.22970496232E+04  0.22970496232E+04  0.00000000000E+00 0. -1.
         23    2    1    2    0    0  0.18307182713E+04 -0.13765284776E+04  0.65901144310E+03  0.23850289964E+04  0.87790621495E+02 0.  0.
         11    1    3    3    0    0  0.87161332514E+03 -0.63800273927E+03  0.26753135848E+03  0.11128029078E+04  0.00000000000E+00 0. -1.
        -11    1    3    3    0    0  0.95910494614E+03 -0.73852573828E+03  0.39148008462E+03  0.12722260886E+04  0.00000000000E+00 0.  1.
         22    1    1    2    0    0 -0.18307182713E+04  0.13765284776E+04 -0.51942951394E+03  0.23486521791E+04  0.00000000000E+00 0. -1.
<mgrwt>
<rscale>  0 0.47316228E+04</rscale>
<asrwt>0</asrwt>
<pdfrwt beam="1">  1        2 0.37486639E+00 0.47316228E+04</pdfrwt>
<pdfrwt beam="2">  1       -2 0.35339225E+00 0.47316228E+04</pdfrwt>
<totfact> 0.41715396E-02</totfact>
</mgrwt>
</event>
<event>
 6    1  0.1878398E-004  0.2437996E+04  0.7818608E-02  0.8425414E-01
          2   -1    0    0  501    0  0.00000000000E+00  0.00000000000E+00  0.25949652035E+04  0.25949652035E+04  0.00000000000E+00 0.  1.
         -2   -1    0    0    0  501 -0.00000000000E+00 -0.00000000000E+00 -0.57263067230E+03  0.57263067230E+03  0.00000000000E+00 0. -1.
         23    2    1    2    0    0 -0.48808811306E+02  0.11652635254E+04  0.14657317680E+04  0.18753002364E+04  0.90332592230E+02 0.  0.
         13    1    3    3    0    0 -0.68782602881E+02  0.57095404011E+03  0.72937169476E+03  0.92881786778E+03  0.00000000000E+00 0. -1.
        -13    1    3    3    0    0  0.19973791575E+02  0.59430948525E+03  0.73636007325E+03  0.94648236861E+03  0.00000000000E+00 0.  1.
         22    1    1    2    0    0  0.48808811306E+02 -0.11652635254E+04  0.55660276314E+03  0.12922956394E+04  0.00000000000E+00 0.  1.
<mgrwt>
<rscale>  0 0.24379964E+04</rscale>
<asrwt>0</asrwt>
<pdfrwt beam="1">  1        2 0.39922541E+00 0.24379964E+04</pdfrwt>
<pdfrwt beam="2">  1       -2 0.88097028E-01 0.24379964E+04</pdfrwt>
<totfact> 0.30489342E+00</totfact>
</mgrwt>
</event>
<event>
 6    1  0.1878398E-004  0.1846822E+04  0.7818608E-02  0.8681789E-01
          1   -1    0    0  501    0  0.00000000000E+00  0.00000000000E+00  0.99944591495E+03  0.99944591495E+03  0.00000000000E+00 0.  1.
         -1   -1    0    0    0  501 -0.00000000000E+00 -0.00000000000E+00 -0.85316105179E+03  0.85316105179E+03  0.00000000000E+00 0. -1.
         23    2    1    2    0    0  0.55435000137E+03  0.16785916723E+03  0.79170212001E+03  0.98540222766E+03  0.93512990603E+02 0.  0.
         11    1    3    3    0    0  0.62077435712E+02  0.28066302530E+02  0.14914479288E+03  0.16396796823E+03  0.00000000000E+00 0. -1.
        -11    1    3    3    0    0  0.49227256566E+03  0.13979286470E+03  0.64255732713E+03  0.82143425943E+03  0.00000000000E+00 0.  1.
         22    1    1    2    0    0 -0.55435000137E+03 -0.16785916723E+03 -0.64541725684E+03  0.86720473908E+03  0.00000000000E+00 0. -1.
<mgrwt>
<rscale>  0 0.18468225E+04</rscale>
<asrwt>0</asrwt>
<pdfrwt beam="1">  1        1 0.15376091E+00 0.18468225E+04</pdfrwt>
<pdfrwt beam="2">  1       -1 0.13125555E+00 0.18468225E+04</pdfrwt>
<totfact> 0.70464975E+00</totfact>
</mgrwt>
</event>
<event>
 6    1  0.1878398E-004  0.3106665E+04  0.7818608E-02  0.8213911E-01
          2   -1    0    0  501    0  0.00000000000E+00  0.00000000000E+00  0.11373373112E+04  0.11373373112E+04  0.00000000000E+00 0.  1.
         -2   -1    0    0    0  501 -0.00000000000E+00 -0.00000000000E+00 -0.21214830279E+04  0.21214830279E+04  0.00000000000E+00 0. -1.
         23    2    1    2    0    0  0.96283419833E+03 -0.10498194419E+04  0.15379614988E+03  0.14356137558E+04  0.90349576648E+02 0.  0.
         11    1    3    3    0    0  0.73781762819E+03 -0.75542079721E+03  0.92007715104E+02  0.10599532315E+04  0.00000000000E+00 0. -1.
        -11    1    3    3    0    0  0.22501657014E+03 -0.29439864465E+03  0.61788434777E+02  0.37566052425E+03  0.00000000000E+00 0.  1.
         22    1    1    2    0    0 -0.96283419833E+03  0.10498194419E+04 -0.11379418665E+04  0.18232065834E+04  0.00000000000E+00 0. -1.
<mgrwt>
<rscale>  0 0.31066650E+04</rscale>
<asrwt>0</asrwt>
<pdfrwt beam="1">  1        2 0.17497497E+00 0.31066650E+04</pdfrwt>
<pdfrwt beam="2">  1       -2 0.32638200E+00 0.31066650E+04</pdfrwt>
<totfact> 0.38328399E-01</totfact>
</mgrwt>
</event>
<event>
 6    1  0.1878398E-004  0.1171407E+04  0.7818608E-02  0.9138259E-01
          1   -1    0    0  501    0  0.00000000000E+00  0.00000000000E+00  0.96807834319E+03  0.96807834319E+03  0.00000000000E+00 0.  1.
         -1   -1    0    0    0  501 -0.00000000000E+00 -0.00000000000E+00 -0.35436033575E+03  0.35436033575E+03  0.00000000000E+00 0. -1.
         23    2    1    2    0    0 -0.30019853353E+03 -0.49748959025E+03  0.26548120301E+03  0.64502896253E+03  0.89258284819E+02 0.  0.
         13    1    3    3    0    0 -0.12696001572E+03 -0.28755092533E+03  0.12049885484E+03  0.33663682845E+03  0.00000000000E+00 0.  1.
        -13    1    3    3    0    0 -0.17323851781E+03 -0.20993866492E+03  0.14498234817E+03  0.30839213408E+03  0.00000000000E+00 0. -1.
         22    1    1    2    0    0  0.30019853353E+03  0.49748959025E+03  0.34823680443E+03  0.67740971642E+03  0.00000000000E+00 0. -1.
<mgrwt>
<rscale>  0 0.11714070E+04</rscale>
<asrwt>0</asrwt>
<pdfrwt beam="1">  1        1 0.14893513E+00 0.11714070E+04</pdfrwt>
<pdfrwt beam="2">  1       -1 0.54516975E-01 0.11714070E+04</pdfrwt>
<totfact> 0.54035310E+01</totfact>
</mgrwt>
</event>
<event>
 6    1  0.1878398E-004  0.1616830E+04  0.7818608E-02  0.8810275E-01
          2   -1    0    0  501    0  0.00000000000E+00  0.00000000000E+00  0.43833593541E+03  0.43833593541E+03  0.00000000000E+00 0.  1.
         -2   -1    0    0    0  501 -0.00000000000E+00 -0.00000000000E+00 -0.14909455782E+04  0.14909455782E+04  0.00000000000E+00 0. -1.
         23    2    1    2    0    0 -0.28697861632E+03 -0.43299392353E+03 -0.12630713881E+04  0.13688043863E+04  0.91845807450E+02 0.  0.
         13    1    3    3    0    0 -0.13283050184E+03 -0.24419405275E+03 -0.77308240836E+03  0.82154189652E+03  0.00000000000E+00 0. -1.
        -13    1    3    3    0    0 -0.15414811448E+03 -0.18879987078E+03 -0.48998897977E+03  0.54726248976E+03  0.00000000000E+00 0.  1.
         22    1    1    2    0    0  0.28697861632E+03  0.43299392353E+03  0.21046174532E+03  0.56047712735E+03  0.00000000000E+00 0.  1.
<mgrwt>
<rscale>  0 0.16168303E+04</rscale>
<asrwt>0</asrwt>
<pdfrwt beam="1">  1        2 0.67436298E-01 0.16168303E+04</pdfrwt>
<pdfrwt beam="2">  1       -2 0.22937624E+00 0.16168303E+04</pdfrwt>
<totfact> 0.59187340E+00</totfact>
</mgrwt>
</event>
<event>
 6    1  0.1878398E-004  0.2975623E+04  0.7818608E-02  0.8250726E-01
          1   -1    0    0  501    0  0.00000000000E+00  0.00000000000E+00  0.15550586663E+04  0.15550586663E+04  0.00000000000E+00 0.  1.
         -1   -1    0    0    0  501 -0.00000000000E+00 -0.00000000000E+00 -0.14234720249E+04  0.14234720249E+04  0.00000000000E+00 0. -1.
         23    2    1    2    0    0  0.42684541946E+02 -0.10338607107E+04  0.11340170241E+04  0.15378514725E+04  0.91118610804E+02 0.  0.
         13    1    3    3    0    0  0.32282740134E+02 -0.18423291914E+03  0.24285373532E+03  0.30653202208E+03  0.00000000000E+00 0.  1.
        -13    1    3    3    0    0  0.10401801812E+02 -0.84962779152E+03  0.89116328881E+03  0.12313194504E+04  0.00000000000E+00 0. -1.
         22    1    1    2    0    0 -0.42684541946E+02  0.10338607107E+04 -0.10024303827E+04  0.14406792188E+04  0.00000000000E+00 0. -1.
<mgrwt>
<rscale>  0 0.29756226E+04</rscale>
<asrwt>0</asrwt>
<pdfrwt beam="1">  1        1 0.23923979E+00 0.29756226E+04</pdfrwt>
<pdfrwt beam="2">  1       -1 0.21899570E+00 0.29756226E+04</pdfrwt>
<totfact> 0.57122194E-01</totfact>
</mgrwt>
</event>
<event>
 6    1  0.1878398E-004  0.1308037E+04  0.7818608E-02  0.9023216E-01
          2   -1    0    0  501    0  0.00000000000E+00  0.00000000000E+00  0.23553040446E+04  0.23553040446E+04  0.00000000000E+00 0.  1.
         -2   -1    0    0    0  501 -0.00000000000E+00 -0.00000000000E+00 -0.18160718000E+03  0.18160718000E+03  0.00000000000E+00 0. -1.
         23    2    1    2    0    0  0.54000857198E+03 -0.19524848688E+03  0.49791798004E+03  0.76548070116E+03  0.91143620498E+02 0.  0.
         11    1    3    3    0    0  0.29751790720E+03 -0.10986441497E+03  0.33397470971E+03  0.46057160301E+03  0.00000000000E+00 0.  1.
        -11    1    3    3    0    0  0.24249066478E+03 -0.85384071914E+02  0.16394327033E+03  0.30490909814E+03  0.00000000000E+00 0. -1.
         22    1    1    2    0    0 -0.54000857198E+03  0.19524848688E+03  0.16757788846E+04  0.17714305235E+04  0.00000000000E+00 0.  1.
<mgrwt>
<rscale>  0 0.13080369E+04</rscale>
<asrwt>0</asrwt>
<pdfrwt beam="1">  1        2 0.36235445E+00 0.13080369E+04</pdfrwt>
<pdfrwt beam="2">  1       -2 0.27939568E-01 0.13080369E+04</pdfrwt>
<totfact> 0.48504213E+01</totfact>
</mgrwt>
</event>
<event>
 6    1  0.1878398E-004  0.1145539E+04  0.7818608E-02  0.9161909E-01
          2   -1    0    0  501    0  0.00000000000E+00  0.00000000000E+00  0.23488026849E+04  0.23488026849E+04  0.00000000000E+00 0.  1.
         -2   -1    0    0    0  501 -0.00000000000E+00 -0.00000000000E+00 -0.13967329852E+03  0.13967329852E+03  0.00000000000E+00 0. -1.
         23    2    1    2    0    0  0.35066526163E+03 -0.19829800878E+03  0.23836765887E+03  0.47696162538E+03  0.91569783720E+02 0.  0.
         13    1    3    3    0    0  0.34584148911E+03 -0.17541567506E+03  0.23473398621E+03  0.45329575216E+03  0.00000000000E+00 0. -1.
        -13    1    3    3    0    0  0.48237725140E+01 -0.22882333725E+02  0.36336726539E+01  0.23665873213E+02  0.00000000000E+00 0.  1.
         22    1    1    2    0    0 -0.35066526163E+03  0.19829800878E+03  0.19707617275E+04  0.20115143581E+04  0.00000000000E+00 0.  1.
<mgrwt>
<rscale>  0 0.11455392E+04</rscale>
<asrwt>0</asrwt>
<pdfrwt beam="1">  1        2 0.36135423E+00 0.11455392E+04</pdfrwt>
<pdfrwt beam="2">  1       -2 0.21488201E-01 0.11455392E+04</pdfrwt>
<totfact> 0.79716549E+01</totfact>
</mgrwt>
</event>
<event>
 6    1  0.1878398E-004  0.3203519E+04  0.7818608E-02  0.8187888E-01
          1   -1    0    0  501    0  0.00000000000E+00  0.00000000000E+00  0.12710276238E+04  0.12710276238E+04  0.00000000000E+00 0.  1.
         -1   -1    0    0    0  501 -0.00000000000E+00 -0.00000000000E+00 -0.20185506565E+04  0.20185506565E+04  0.00000000000E+00 0. -1.
         23    2    1    2    0    0 -0.36537952392E+03  0.15197089897E+04 -0.20465682260E+02  0.15657366400E+04  0.89970951117E+02 0.  0.
         11    1    3    3    0    0 -0.89222142069E+01  0.13558262663E+03 -0.12212657517E+02  0.13642361802E+03  0.00000000000E+00 0.  1.
        -11    1    3    3    0    0 -0.35645730971E+03  0.13841263630E+04 -0.82530247433E+01  0.14293130220E+04  0.00000000000E+00 0. -1.
         22    1    1    2    0    0  0.36537952392E+03 -0.15197089897E+04 -0.72705735049E+03  0.17238416402E+04  0.00000000000E+00 0. -1.
<mgrwt>
<rscale>  0 0.32035191E+04</rscale>
<asrwt>0</asrwt>
<pdfrwt beam="1">  1        1 0.19554271E+00 0.32035191E+04</pdfrwt>
<pdfrwt beam="2">  1       -1 0.31054625E+00 0.32035191E+04</pdfrwt>
<totfact> 0.22381711E-01</totfact>
</mgrwt>
</event>
<event>
 6    1  0.1878398E-004  0.2557881E+04  0.7818608E-02  0.8382651E-01
         -2   -1    0    0    0  501 -0.00000000000E+00  0.00000000000E+00  0.12022676347E+04  0.12022676347E+04  0.00000000000E+00 0. -1.
          2   -1    0    0  501    0  0.00000000000E+00 -0.00000000000E+00 -0.13605027387E+04  0.13605027387E+04  0.00000000000E+00 0.  1.
         23    2    1    2    0    0  0.82228096826E+03 -0.79649611652E+03 -0.64645275047E+03  0.13182188378E+04  0.96164917784E+02 0.  0.
         11    1    3    3    0    0  0.57799270852E+03 -0.61871926976E+03 -0.47485680959E+03  0.97076160589E+03  0.00000000000E+00 0.  1.
        -11    1    3    3    0    0  0.24428825974E+03 -0.17777684676E+03 -0.17159594088E+03  0.34745723193E+03  0.00000000000E+00 0. -1.
         22    1    1    2    0    0 -0.82228096826E+03  0.79649611652E+03  0.48821764643E+03  0.12445515356E+04  0.00000000000E+00 0. -1.
<mgrwt>
<rscale>  0 0.25578807E+04</rscale>
<asrwt>0</asrwt>
<pdfrwt beam="1">  1        2 0.20930811E+00 0.25578807E+04</pdfrwt>
<pdfrwt beam="2">  1       -2 0.18496425E+00 0.25578807E+04</pdfrwt>
<totfact> 0.22691604E+00</totfact>
</mgrwt>
</event>
<event>
 6    1  0.1878398E-004  0.2426233E+04  0.7818608E-02  0.8429747E-01
         -2   -1    0    0    0  501 -0.00000000000E+00  0.00000000000E+00  0.65113435917E+03  0.65113435917E+03  0.00000000000E+00 0. -1.
          2   -1    0    0  501    0  0.00000000000E+00 -0.00000000000E+00 -0.22601359786E+04  0.22601359786E+04  0.00000000000E+00 0.  1.
         23    2    1    2    0    0  0.43980757075E+02  0.90228153877E+03 -0.17740194774E+04  0.19929690933E+04  0.93458110166E+02 0.  0.
         13    1    3    3    0    0  0.59749322438E+02  0.34959749816E+03 -0.72882397395E+03  0.81053857234E+03  0.00000000000E+00 0.  1.
        -13    1    3    3    0    0 -0.15768565363E+02  0.55268404061E+03 -0.10451955034E+04  0.11824305209E+04  0.00000000000E+00 0. -1.
         22    1    1    2    0    0 -0.43980757075E+02 -0.90228153877E+03  0.16501785796E+03  0.91830124450E+03  0.00000000000E+00 0. -1.
<mgrwt>
<rscale>  0 0.24262335E+04</rscale>
<asrwt>0</asrwt>
<pdfrwt beam="1">  1        2 0.34771323E+00 0.24262335E+04</pdfrwt>
<pdfrwt beam="2">  1       -2 0.10017452E+00 0.24262335E+04</pdfrwt>
<totfact> 0.35245275E+00</totfact>
</mgrwt>
</event>
<event>
 6    1  0.1878398E-004  0.1215513E+04  0.7818608E-02  0.9099386E-01
          2   -1    0    0  501    0  0.00000000000E+00  0.00000000000E+00  0.27875953057E+04  0.27875953057E+04  0.00000000000E+00 0.  1.
         -2   -1    0    0    0  501 -0.00000000000E+00 -0.00000000000E+00 -0.13250411049E+03  0.13250411049E+03  0.00000000000E+00 0. -1.
         23    2    1    2    0    0  0.52148863770E+03 -0.12177602938E+03  0.66181807554E+03  0.85614265060E+03  0.90538789974E+02 0.  0.
         11    1    3    3    0    0  0.25283605914E+03 -0.54824145918E+02  0.39102540715E+03  0.46886312375E+03  0.00000000000E+00 0. -1.
        -11    1    3    3    0    0  0.26865257856E+03 -0.66951883457E+02  0.27079266839E+03  0.38727952685E+03  0.00000000000E+00 0.  1.
         22    1    1    2    0    0 -0.52148863770E+03  0.12177602938E+03  0.19932731196E+04  0.20639567655E+04  0.00000000000E+00 0.  1.
<mgrwt>
<rscale>  0 0.12155128E+04</rscale>
<asrwt>0</asrwt>
<pdfrwt beam="1">  1        2 0.42886077E+00 0.12155128E+04</pdfrwt>
<pdfrwt beam="2">  1       -2 0.20385250E-01 0.12155128E+04</pdfrwt>
<totfact> 0.48429635E+01</totfact>
</mgrwt>
</event>
<event>
 6    1  0.1878398E-004  0.3882455E+04  0.7818608E-02  0.8028688E-01
          2   -1    0    0  501    0  0.00000000000E+00  0.00000000000E+00  0.38543200295E+04  0.38543200295E+04  0.00000000000E+00 0.  1.
         -2   -1    0    0    0  501 -0.00000000000E+00 -0.00000000000E+00 -0.97769868104E+03  0.97769868104E+03  0.00000000000E+00 0. -1.
         23    2    1    2    0    0  0.99572374257E+03 -0.42827019257E+03  0.34418015566E+04  0.36095990621E+04  0.91248584764E+02 0.  0.
         11    1    3    3    0    0  0.47476373387E+03 -0.24581892516E+03  0.17760535200E+04  0.18547759037E+04  0.00000000000E+00 0. -1.
        -11    1    3    3    0    0  0.52096000869E+03 -0.18245126742E+03  0.16657480367E+04  0.17548231584E+04  0.00000000000E+00 0.  1.
         22    1    1    2    0    0 -0.99572374257E+03  0.42827019257E+03 -0.56518020816E+03  0.12224196485E+04  0.00000000000E+00 0. -1.
<mgrwt>
<rscale>  0 0.38824547E+04</rscale>
<asrwt>0</asrwt>
<pdfrwt beam="1">  1        2 0.59297230E+00 0.38824547E+04</pdfrwt>
<pdfrwt beam="2">  1       -2 0.15041518E+00 0.38824547E+04</pdfrwt>
<totfact> 0.10537805E-01</totfact>
</mgrwt>
</event>
<event>
 6    1  0.1878398E-004  0.4513548E+04  0.7818608E-02  0.7908269E-01
         -1   -1    0    0    0  501 -0.00000000000E+00  0.00000000000E+00  0.17388449195E+04  0.17388449195E+04  0.00000000000E+00 0. -1.
          1   -1    0    0  501    0  0.00000000000E+00 -0.00000000000E+00 -0.29289718216E+04  0.29289718216E+04  0.00000000000E+00 0.  1.
         23    2    1    2    0    0 -0.18709030636E+03  0.18013216654E+04  0.79572630628E+03  0.19801829322E+04  0.90452007419E+02 0.  0.
         11    1    3    3    0    0 -0.18602836567E+03  0.14443913285E+04  0.63585318003E+03  0.15890821657E+04  0.00000000000E+00 0. -1.
        -11    1    3    3    0    0 -0.10619406972E+01  0.35693033687E+03  0.15987312625E+03  0.39110076654E+03  0.00000000000E+00 0.  1.
         22    1    1    2    0    0  0.18709030636E+03 -0.18013216654E+04 -0.19858532084E+04  0.26876338088E+04  0.00000000000E+00 0.  1.
<mgrwt>
<rscale>  0 0.45135475E+04</rscale>
<asrwt>0</asrwt>
<pdfrwt beam="1">  1        1 0.45061105E+00 0.45135475E+04</pdfrwt>
<pdfrwt beam="2">  1       -1 0.26751461E+00 0.45135475E+04</pdfrwt>
<totfact> 0.27093343E-02</totfact>
</mgrwt>
</event>
<event>
 6    1  0.1878398E-004  0.2476796E+04  0.7818608E-02  0.8411299E-01
          1   -1    0    0  501    0  0.00000000000E+00  0.00000000000E+00  0.13974993010E+04  0.13974993010E+04  0.00000000000E+00 0.  1.
         -1   -1    0    0    0  501 -0.00000000000E+00 -0.00000000000E+00 -0.10974096034E+04  0.10974096034E+04  0.00000000000E+00 0. -1.
         23    2    1    2    0    0  0.18900620353E+03  0.84242384917E+03  0.10422737542E+04  0.13563842185E+04  0.89678775449E+02 0.  0.
         11    1    3    3    0    0  0.14234416973E+03  0.43561782917E+03  0.56678963780E+03  0.72888630750E+03  0.00000000000E+00 0. -1.
        -11    1    3    3    0    0  0.46662033803E+02  0.40680602000E+03  0.47548411643E+03  0.62749791098E+03  0.00000000000E+00 0.  1.
         22    1    1    2    0    0 -0.18900620353E+03 -0.84242384917E+03 -0.74218405660E+03  0.11385246859E+04  0.00000000000E+00 0. -1.
<mgrwt>
<rscale>  0 0.24767956E+04</rscale>
<asrwt>0</asrwt>
<pdfrwt beam="1">  1        1 0.21499989E+00 0.24767956E+04</pdfrwt>
<pdfrwt beam="2">  1       -1 0.16883225E+00 0.24767956E+04</pdfrwt>
<totfact> 0.17236411E+00</totfact>
</mgrwt>
</event>
<event>
 6    1  0.1878398E-004  0.1970670E+04  0.7818608E-02  0.8620458E-01
          1   -1    0    0  501    0  0.00000000000E+00  0.00000000000E+00  0.16061987205E+04  0.16061987205E+04  0.00000000000E+00 0.  1.
         -1   -1    0    0    0  501 -0.00000000000E+00 -0.00000000000E+00 -0.60446120028E+03  0.60446120028E+03  0.00000000000E+00 0. -1.
         23    2    1    2    0    0  0.74771505111E+03  0.42912143505E+03  0.10322958635E+04  0.13480146774E+04  0.91026462698E+02 0.  0.
         11    1    3    3    0    0  0.15937864267E+03  0.13547279747E+03  0.26075103174E+03  0.33428360885E+03  0.00000000000E+00 0. -1.
        -11    1    3    3    0    0  0.58833640844E+03  0.29364863758E+03  0.77154483180E+03  0.10137310685E+04  0.00000000000E+00 0.  1.
         22    1    1    2    0    0 -0.74771505111E+03 -0.42912143505E+03 -0.30558343280E+02  0.86264524343E+03  0.00000000000E+00 0. -1.
<mgrwt>
<rscale>  0 0.19706697E+04</rscale>
<asrwt>0</asrwt>
<pdfrwt beam="1">  1        1 0.24710749E+00 0.19706697E+04</pdfrwt>
<pdfrwt beam="2">  1       -1 0.92994032E-01 0.19706697E+04</pdfrwt>
<totfact> 0.57715780E+00</totfact>
</mgrwt>
</event>
<event>
 6    1  0.1878398E-004  0.2303776E+04  0.7818608E-02  0.8476434E-01
         -2   -1    0    0    0  501 -0.00000000000E+00  0.00000000000E+00  0.12077838185E+04  0.12077838185E+04  0.00000000000E+00 0. -1.
          2   -1    0    0  501    0  0.00000000000E+00 -0.00000000000E+00 -0.10985791418E+04  0.10985791418E+04  0.00000000000E+00 0.  1.
         23    2    1    2    0    0 -0.40099444315E+03  0.10778718181E+04  0.54597702954E+02  0.11550219503E+04  0.92144434660E+02 0.  0.
         11    1    3    3    0    0 -0.31599525776E+02  0.18140253934E+03  0.75979708111E+01  0.18429091261E+03  0.00000000000E+00 0. -1.
        -11    1    3    3    0    0 -0.36939491738E+03  0.89646927876E+03  0.46999732143E+02  0.97073103771E+03  0.00000000000E+00 0.  1.
         22    1    1    2    0    0  0.40099444315E+03 -0.10778718181E+04  0.54606973702E+02  0.11513410100E+04  0.00000000000E+00 0.  1.
<mgrwt>
<rscale>  0 0.23037761E+04</rscale>
<asrwt>0</asrwt>
<pdfrwt beam="1">  1        2 0.16901218E+00 0.23037761E+04</pdfrwt>
<pdfrwt beam="2">  1       -2 0.18581290E+00 0.23037761E+04</pdfrwt>
<totfact> 0.32728178E+00</totfact>
</mgrwt>
</event>
<event>
 6    1  0.1878398E-004  0.1410484E+04  0.7818608E-02  0.8946264E-01
         -2   -1    0    0    0  501 -0.00000000000E+00  0.00000000000E+00  0.76406717102E+03  0.76406717102E+03  0.00000000000E+00 0. -1.
          2   -1    0    0  501    0  0.00000000000E+00 -0.00000000000E+00 -0.65094581359E+03  0.65094581359E+03  0.00000000000E+00 0.  1.
         23    2    1    2    0    0 -0.24798950075E+03  0.65257633570E+03  0.13274947106E+03  0.71662918665E+03  0.92629923340E+02 0.  0.
         11    1    3    3    0    0 -0.18075694146E+03  0.52488998108E+03  0.70986681518E+02  0.55966210616E+03  0.00000000000E+00 0. -1.
        -11    1    3    3    0    0 -0.67232559286E+02  0.12768635462E+03  0.61762789545E+02  0.15696708049E+03  0.00000000000E+00 0.  1.
         22    1    1    2    0    0  0.24798950075E+03 -0.65257633570E+03 -0.19628113626E+02  0.69838379795E+03  0.00000000000E+00 0. -1.
<mgrwt>
<rscale>  0 0.14104841E+04</rscale>
<asrwt>0</asrwt>
<pdfrwt beam="1">  1        2 0.10014551E+00 0.14104841E+04</pdfrwt>
<pdfrwt beam="2">  1       -2 0.11754880E+00 0.14104841E+04</pdfrwt>
<totfact> 0.24390051E+01</totfact>
</mgrwt>
</event>
<event>
 6    1  0.1878398E-004  0.2952705E+04  0.7818608E-02  0.8257367E-01
         -2   -1    0    0    0  501 -0.00000000000E+00  0.00000000000E+00  0.12520784842E+04  0.12520784842E+04  0.00000000000E+00 0. -1.
          2   -1    0    0  501    0  0.00000000000E+00 -0.00000000000E+00 -0.17407984507E+04  0.17407984507E+04  0.00000000000E+00 0.  1.
         23    2    1    2    0    0  0.50437783577E+03 -0.95781517463E+03  0.77085820559E+03  0.13320506099E+04  0.91266337302E+02 0.  0.
         13    1    3    3    0    0  0.16631521901E+03 -0.36328257776E+03  0.33149980696E+03  0.51915999979E+03  0.00000000000E+00 0.  1.
        -13    1    3    3    0    0  0.33806261676E+03 -0.59453259687E+03  0.43935839864E+03  0.81289061014E+03  0.00000000000E+00 0. -1.
         22    1    1    2    0    0 -0.50437783577E+03  0.95781517463E+03 -0.12595781722E+04  0.16608263250E+04  0.00000000000E+00 0.  1.
<mgrwt>
<rscale>  0 0.29527047E+04</rscale>
<asrwt>0</asrwt>
<pdfrwt beam="1">  1        2 0.26781515E+00 0.29527047E+04</pdfrwt>
<pdfrwt beam="2">  1       -2 0.19262746E+00 0.29527047E+04</pdfrwt>
<totfact> 0.11906677E+00</totfact>
</mgrwt>
</event>
<event>
 6    1  0.1878398E-004  0.2050992E+04  0.7818608E-02  0.8583144E-01
          1   -1    0    0  501    0  0.00000000000E+00  0.00000000000E+00  0.94063216081E+03  0.94063216081E+03  0.00000000000E+00 0.  1.
         -1   -1    0    0    0  501 -0.00000000000E+00 -0.00000000000E+00 -0.11180167984E+04  0.11180167984E+04  0.00000000000E+00 0. -1.
         23    2    1    2    0    0  0.21228775117E+03  0.84756666156E+02  0.91243615044E+03  0.94511443718E+03  0.91933611780E+02 0.  0.
         11    1    3    3    0    0  0.11316926457E+03  0.56867163214E+02  0.32659595892E+03  0.35029427212E+03  0.00000000000E+00 0. -1.
        -11    1    3    3    0    0  0.99118486595E+02  0.27889502941E+02  0.58584019152E+03  0.59482016506E+03  0.00000000000E+00 0.  1.
         22    1    1    2    0    0 -0.21228775117E+03 -0.84756666156E+02 -0.10898207881E+04  0.11135345221E+04  0.00000000000E+00 0. -1.
<mgrwt>
<rscale>  0 0.20509925E+04</rscale>
<asrwt>0</asrwt>
<pdfrwt beam="1">  1        1 0.14471264E+00 0.20509925E+04</pdfrwt>
<pdfrwt beam="2">  1       -1 0.17200258E+00 0.20509925E+04</pdfrwt>
<totfact> 0.37050676E+00</totfact>
</mgrwt>
</event>
<event>
 6    1  0.1878398E-004  0.1324392E+04  0.7818608E-02  0.9010443E-01
         -1   -1    0    0    0  501 -0.00000000000E+00  0.00000000000E+00  0.36050494073E+03  0.36050494073E+03  0.00000000000E+00 0. -1.
          1   -1    0    0  501    0  0.00000000000E+00 -0.00000000000E+00 -0.12163587391E+04  0.12163587391E+04  0.00000000000E+00 0.  1.
         23    2    1    2    0    0 -0.36325796030E+03 -0.69348812572E+02  0.22040615238E+03  0.43883859878E+03  0.85057864108E+02 0.  0.
         13    1    3    3    0    0 -0.88190983505E+02 -0.19469712919E+02  0.99160901833E+02  0.13412532850E+03  0.00000000000E+00 0.  1.
        -13    1    3    3    0    0 -0.27506697680E+03 -0.49879099653E+02  0.12124525055E+03  0.30471327028E+03  0.00000000000E+00 0. -1.
         22    1    1    2    0    0  0.36325796030E+03  0.69348812572E+02 -0.10762599507E+04  0.11380250810E+04  0.00000000000E+00 0.  1.
<mgrwt>
<rscale>  0 0.13243917E+04</rscale>
<asrwt>0</asrwt>
<pdfrwt beam="1">  1        1 0.18713211E+00 0.13243917E+04</pdfrwt>
<pdfrwt beam="2">  1       -1 0.55462299E-01 0.13243917E+04</pdfrwt>
<totfact> 0.33508971E+01</totfact>
</mgrwt>
</event>
<event>
 6    1  0.1878398E-004  0.3766205E+04  0.7818608E-02  0.8053446E-01
          1   -1    0    0  501    0  0.00000000000E+00  0.00000000000E+00  0.22063001296E+04  0.22063001296E+04  0.00000000000E+00 0. -1.
         -1   -1    0    0    0  501 -0.00000000000E+00 -0.00000000000E+00 -0.16072492243E+04  0.16072492243E+04  0.00000000000E+00 0.  1.
         23    2    1    2    0    0 -0.22804759492E+03 -0.94310315434E+03  0.19326208807E+04  0.21643501104E+04  0.89099194606E+02 0.  0.
         11    1    3    3    0    0 -0.95828255412E+02 -0.23097451389E+03  0.49779845562E+03  0.55707771722E+03  0.00000000000E+00 0. -1.
        -11    1    3    3    0    0 -0.13221933951E+03 -0.71212864045E+03  0.14348224251E+04  0.16072723932E+04  0.00000000000E+00 0.  1.
         22    1    1    2    0    0  0.22804759492E+03  0.94310315434E+03 -0.13335699755E+04  0.16491992435E+04  0.00000000000E+00 0.  1.
<mgrwt>
<rscale>  0 0.37662045E+04</rscale>
<asrwt>0</asrwt>
<pdfrwt beam="1">  1        1 0.33943079E+00 0.37662045E+04</pdfrwt>
<pdfrwt beam="2">  1       -1 0.24726911E+00 0.37662045E+04</pdfrwt>
<totfact> 0.12504705E-01</totfact>
</mgrwt>
</event>
<event>
 6    1  0.1878398E-004  0.2496934E+04  0.7818608E-02  0.8404079E-01
          1   -1    0    0  501    0  0.00000000000E+00  0.00000000000E+00  0.22344494734E+04  0.22344494734E+04  0.00000000000E+00 0.  1.
         -1   -1    0    0    0  501 -0.00000000000E+00 -0.00000000000E+00 -0.69756332654E+03  0.69756332654E+03  0.00000000000E+00 0. -1.
         23    2    1    2    0    0 -0.78908492189E+03  0.64355379296E+03  0.16144869098E+04  0.19108182167E+04  0.88553808376E+02 0.  0.
         11    1    3    3    0    0 -0.45685386127E+03  0.34581562294E+03  0.97953542301E+03  0.11348099138E+04  0.00000000000E+00 0. -1.
        -11    1    3    3    0    0 -0.33223106062E+03  0.29773817003E+03  0.63495148679E+03  0.77600830286E+03  0.00000000000E+00 0.  1.
         22    1    1    2    0    0  0.78908492189E+03 -0.64355379296E+03 -0.77600762951E+02  0.10211945832E+04  0.00000000000E+00 0. -1.
<mgrwt>
<rscale>  0 0.24969341E+04</rscale>
<asrwt>0</asrwt>
<pdfrwt beam="1">  1        1 0.34376145E+00 0.24969341E+04</pdfrwt>
<pdfrwt beam="2">  1       -1 0.10731744E+00 0.24969341E+04</pdfrwt>
<totfact> 0.14830762E+00</totfact>
</mgrwt>
</event>
<event>
 6    1  0.1878398E-004  0.4253064E+04  0.7818608E-02  0.7955355E-01
         -1   -1    0    0    0  501 -0.00000000000E+00  0.00000000000E+00  0.21989098277E+04  0.21989098277E+04  0.00000000000E+00 0. -1.
          1   -1    0    0  501    0  0.00000000000E+00 -0.00000000000E+00 -0.20565360750E+04  0.20565360750E+04  0.00000000000E+00 0.  1.
         23    2    1    2    0    0 -0.11855964299E+04 -0.43099259432E+03 -0.16404502281E+04  0.20714461641E+04  0.91753740545E+02 0.  0.
         11    1    3    3    0    0 -0.57688527701E+03 -0.16395125962E+03 -0.75222985157E+03  0.96204282023E+03  0.00000000000E+00 0. -1.
        -11    1    3    3    0    0 -0.60871115294E+03 -0.26704133470E+03 -0.88822037657E+03  0.11094033439E+04  0.00000000000E+00 0.  1.
         22    1    1    2    0    0  0.11855964299E+04  0.43099259432E+03  0.17828239809E+04  0.21839997385E+04  0.00000000000E+00 0. -1.
<mgrwt>
<rscale>  0 0.42530635E+04</rscale>
<asrwt>0</asrwt>
<pdfrwt beam="1">  1        1 0.31639017E+00 0.42530635E+04</pdfrwt>
<pdfrwt beam="2">  1       -1 0.33829382E+00 0.42530635E+04</pdfrwt>
<totfact> 0.38827944E-02</totfact>
</mgrwt>
</event>
<event>
 6    1  0.1878398E-004  0.1188059E+04  0.7818608E-02  0.9123373E-01
          2   -1    0    0  501    0  0.00000000000E+00  0.00000000000E+00  0.11347785199E+04  0.11347785199E+04  0.00000000000E+00 0.  1.
         -2   -1    0    0    0  501 -0.00000000000E+00 -0.00000000000E+00 -0.31096017025E+03  0.31096017025E+03  0.00000000000E+00 0. -1.
         23    2    1    2    0    0 -0.30319572539E+03 -0.46304917779E+03  0.66485564249E+03  0.86988164955E+03  0.91207839204E+02 0.  0.
         13    1    3    3    0    0 -0.27429583882E+03 -0.35703937437E+03  0.55262208545E+03  0.71281588883E+03  0.00000000000E+00 0. -1.
        -13    1    3    3    0    0 -0.28899886572E+02 -0.10600980343E+03  0.11223355704E+03  0.15706576072E+03  0.00000000000E+00 0.  1.
         22    1    1    2    0    0  0.30319572539E+03  0.46304917779E+03  0.15896270717E+03  0.57585704061E+03  0.00000000000E+00 0. -1.
<mgrwt>
<rscale>  0 0.11880588E+04</rscale>
<asrwt>0</asrwt>
<pdfrwt beam="1">  1        2 0.17458131E+00 0.11880588E+04</pdfrwt>
<pdfrwt beam="2">  1       -2 0.47840027E-01 0.11880588E+04</pdfrwt>
<totfact> 0.84763368E+01</totfact>
</mgrwt>
</event>
<event>
 6    1  0.1878398E-004  0.2857560E+04  0.7818608E-02  0.8285618E-01
          2   -1    0    0  501    0  0.00000000000E+00  0.00000000000E+00  0.18705622582E+04  0.18705622582E+04  0.00000000000E+00 0.  1.
         -2   -1    0    0    0  501 -0.00000000000E+00 -0.00000000000E+00 -0.10913360824E+04  0.10913360824E+04  0.00000000000E+00 0. -1.
         23    2    1    2    0    0  0.68244804165E+03  0.27731758986E+03  0.16572751325E+04  0.18157699249E+04  0.88426128330E+02 0.  0.
         11    1    3    3    0    0  0.27048469650E+03  0.15162740359E+03  0.64462047256E+03  0.71532397849E+03  0.00000000000E+00 0.  1.
        -11    1    3    3    0    0  0.41196334515E+03  0.12569018627E+03  0.10126546599E+04  0.11004459464E+04  0.00000000000E+00 0. -1.
         22    1    1    2    0    0 -0.68244804165E+03 -0.27731758986E+03 -0.87804895667E+03  0.11461284158E+04  0.00000000000E+00 0. -1.
<mgrwt>
<rscale>  0 0.28575599E+04</rscale>
<asrwt>0</asrwt>
<pdfrwt beam="1">  1        2 0.28777881E+00 0.28575599E+04</pdfrwt>
<pdfrwt beam="2">  1       -2 0.16789786E+00 0.28575599E+04</pdfrwt>
<totfact> 0.15068325E+00</totfact>
</mgrwt>
</event>
<event>
 6    1  0.1878398E-004  0.1801869E+04  0.7818608E-02  0.8705306E-01
         -1   -1    0    0    0  501 -0.00000000000E+00  0.00000000000E+00  0.84603145393E+03  0.84603145393E+03  0.00000000000E+00 0. -1.
          1   -1    0    0  501    0  0.00000000000E+00 -0.00000000000E+00 -0.95940078980E+03  0.95940078980E+03  0.00000000000E+00 0.  1.
         23    2    1    2    0    0 -0.81166083373E+02  0.87152345368E+03 -0.26448018680E+03  0.91718928560E+03  0.71731116000E+02 0.  0.
         11    1    3    3    0    0 -0.48696397446E+02  0.24620637937E+03 -0.96503803347E+02  0.26889013449E+03  0.00000000000E+00 0. -1.
        -11    1    3    3    0    0 -0.32469685927E+02  0.62531707431E+03 -0.16797638346E+03  0.64829915110E+03  0.00000000000E+00 0.  1.
         22    1    1    2    0    0  0.81166083373E+02 -0.87152345368E+03  0.15111085093E+03  0.88824295813E+03  0.00000000000E+00 0. -1.
<mgrwt>
<rscale>  0 0.18018693E+04</rscale>
<asrwt>0</asrwt>
<pdfrwt beam="1">  1        1 0.14760012E+00 0.18018693E+04</pdfrwt>
<pdfrwt beam="2">  1       -1 0.13015869E+00 0.18018693E+04</pdfrwt>
<totfact> 0.77717487E+00</totfact>
</mgrwt>
</event>
<event>
 6    1  0.1878398E-004  0.3761945E+04  0.7818608E-02  0.8054371E-01
         -2   -1    0    0    0  501 -0.00000000000E+00  0.00000000000E+00  0.16425133613E+04  0.16425133613E+04  0.00000000000E+00 0. -1.
          2   -1    0    0  501    0  0.00000000000E+00 -0.00000000000E+00 -0.21540509319E+04  0.21540509319E+04  0.00000000000E+00 0.  1.
         23    2    1    2    0    0  0.98665208265E+03 -0.15996652213E+04 -0.21732157521E+03  0.18942041264E+04  0.91484713804E+02 0.  0.
         11    1    3    3    0    0  0.27075233435E+03 -0.49457780978E+03 -0.34929703618E+02  0.56491957009E+03  0.00000000000E+00 0. -1.
        -11    1    3    3    0    0  0.71589974831E+03 -0.11050874115E+04 -0.18239187159E+03  0.13292845563E+04  0.00000000000E+00 0.  1.
         22    1    1    2    0    0 -0.98665208265E+03  0.15996652213E+04 -0.29421599533E+03  0.19023601668E+04  0.00000000000E+00 0.  1.
<mgrwt>
<rscale>  0 0.37619449E+04</rscale>
<asrwt>0</asrwt>
<pdfrwt beam="1">  1        2 0.33139245E+00 0.37619449E+04</pdfrwt>
<pdfrwt beam="2">  1       -2 0.25269437E+00 0.37619449E+04</pdfrwt>
<totfact> 0.27266689E-01</totfact>
</mgrwt>
</event>
<event>
 6    1  0.1878398E-004  0.3641818E+04  0.7818608E-02  0.8080979E-01
          1   -1    0    0  501    0  0.00000000000E+00  0.00000000000E+00  0.66293007916E+03  0.66293007916E+03  0.00000000000E+00 0.  1.
         -1   -1    0    0    0  501 -0.00000000000E+00 -0.00000000000E+00 -0.50015976956E+04  0.50015976956E+04  0.00000000000E+00 0. -1.
         23    2    1    2    0    0 -0.36067323324E+03  0.10537897744E+04  0.68017633920E+02  0.11192628798E+04  0.86976580833E+02 0.  0.
         13    1    3    3    0    0 -0.34450357613E+03  0.10313067110E+04  0.77262260647E+02  0.10900668342E+04  0.00000000000E+00 0. -1.
        -13    1    3    3    0    0 -0.16169657113E+02  0.22483063412E+02 -0.92446267277E+01  0.29196045535E+02  0.00000000000E+00 0.  1.
         22    1    1    2    0    0  0.36067323324E+03 -0.10537897744E+04 -0.44066852503E+04  0.45452648950E+04  0.00000000000E+00 0. -1.
<mgrwt>
<rscale>  0 0.36418180E+04</rscale>
<asrwt>0</asrwt>
<pdfrwt beam="1">  1        1 0.10198924E+00 0.36418180E+04</pdfrwt>
<pdfrwt beam="2">  1       -1 0.76947656E+00 0.36418180E+04</pdfrwt>
<totfact> 0.24585505E-03</totfact>
</mgrwt>
</event>
<event>
 6    1  0.1878398E-004  0.3367531E+04  0.7818608E-02  0.8145922E-01
         -2   -1    0    0    0  501 -0.00000000000E+00  0.00000000000E+00  0.88767607406E+03  0.88767607406E+03  0.00000000000E+00 0. -1.
          2   -1    0    0  501    0  0.00000000000E+00 -0.00000000000E+00 -0.31938067811E+04  0.31938067811E+04  0.00000000000E+00 0.  1.
         23    2    1    2    0    0  0.19033111584E+03  0.12742277609E+04  0.15802317511E+03  0.13008468353E+04  0.85725402492E+02 0.  0.
         11    1    3    3    0    0  0.26283434375E+02  0.41119687930E+03  0.70354164495E+02  0.41799928341E+03  0.00000000000E+00 0. -1.
        -11    1    3    3    0    0  0.16404768147E+03  0.86303088159E+03  0.87669010611E+02  0.88284755184E+03  0.00000000000E+00 0.  1.
         22    1    1    2    0    0 -0.19033111584E+03 -0.12742277609E+04 -0.24641538821E+04  0.27806360199E+04  0.00000000000E+00 0.  1.
<mgrwt>
<rscale>  0 0.33675308E+04</rscale>
<asrwt>0</asrwt>
<pdfrwt beam="1">  1        2 0.49135488E+00 0.33675308E+04</pdfrwt>
<pdfrwt beam="2">  1       -2 0.13656555E+00 0.33675308E+04</pdfrwt>
<totfact> 0.41601608E-01</totfact>
</mgrwt>
</event>
<event>
 6    1  0.1878398E-004  0.6586431E+03  0.7818608E-02  0.9790695E-01
          2   -1    0    0  501    0  0.00000000000E+00  0.00000000000E+00  0.15702554088E+04  0.15702554088E+04  0.00000000000E+00 0.  1.
         -2   -1    0    0    0  501 -0.00000000000E+00 -0.00000000000E+00 -0.69066897812E+02  0.69066897812E+02  0.00000000000E+00 0. -1.
         23    2    1    2    0    0  0.23995917342E+03  0.90105861556E+02  0.12540811357E+04  0.12832864572E+04  0.91679686723E+02 0.  0.
         13    1    3    3    0    0  0.48591096348E+02 -0.13640573493E+02  0.33488215892E+03  0.33866387503E+03  0.00000000000E+00 0.  1.
        -13    1    3    3    0    0  0.19136807707E+03  0.10374643505E+03  0.91919897681E+03  0.94462258213E+03  0.00000000000E+00 0. -1.
         22    1    1    2    0    0 -0.23995917342E+03 -0.90105861556E+02  0.24710737530E+03  0.35603584949E+03  0.00000000000E+00 0. -1.
<mgrwt>
<rscale>  0 0.65864306E+03</rscale>
<asrwt>0</asrwt>
<pdfrwt beam="1">  1        2 0.24157773E+00 0.65864306E+03</pdfrwt>
<pdfrwt beam="2">  1       -2 0.10625678E-01 0.65864306E+03</pdfrwt>
<totfact> 0.73366574E+02</totfact>
</mgrwt>
</event>
<event>
 6    1  0.1878398E-004  0.3760056E+04  0.7818608E-02  0.8054781E-01
          2   -1    0    0  501    0  0.00000000000E+00  0.00000000000E+00  0.14416479362E+04  0.14416479362E+04  0.00000000000E+00 0.  1.
         -2   -1    0    0    0  501 -0.00000000000E+00 -0.00000000000E+00 -0.24517121800E+04  0.24517121800E+04  0.00000000000E+00 0. -1.
         23    2    1    2    0    0  0.17590578442E+04 -0.63874895259E+03 -0.33203802386E+03  0.19028817117E+04  0.91786905780E+02 0.  0.
         13    1    3    3    0    0  0.15002432618E+04 -0.57773466093E+03 -0.27679834746E+03  0.16312953467E+04  0.00000000000E+00 0. -1.
        -13    1    3    3    0    0  0.25881458234E+03 -0.61014291657E+02 -0.55239676398E+02  0.27158636503E+03  0.00000000000E+00 0.  1.
         22    1    1    2    0    0 -0.17590578442E+04  0.63874895259E+03 -0.67802621999E+03  0.19904784044E+04  0.00000000000E+00 0.  1.
<mgrwt>
<rscale>  0 0.37600563E+04</rscale>
<asrwt>0</asrwt>
<pdfrwt beam="1">  1        2 0.22179199E+00 0.37600563E+04</pdfrwt>
<pdfrwt beam="2">  1       -2 0.37718649E+00 0.37600563E+04</pdfrwt>
<totfact> 0.11497799E-01</totfact>
</mgrwt>
</event>
<event>
 6    1  0.1878398E-004  0.2776332E+04  0.7818608E-02  0.8310654E-01
         -2   -1    0    0    0  501 -0.00000000000E+00  0.00000000000E+00  0.81311558437E+03  0.81311558437E+03  0.00000000000E+00 0. -1.
          2   -1    0    0  501    0  0.00000000000E+00 -0.00000000000E+00 -0.23699028698E+04  0.23699028698E+04  0.00000000000E+00 0.  1.
         23    2    1    2    0    0  0.66664517178E+03 -0.55385062928E+03 -0.20202720640E+04  0.22001733776E+04  0.89985411003E+02 0.  0.
         13    1    3    3    0    0  0.27926638485E+03 -0.17694294862E+03 -0.74026646549E+03  0.81073606106E+03  0.00000000000E+00 0. -1.
        -13    1    3    3    0    0  0.38737878693E+03 -0.37690768066E+03 -0.12800055985E+04  0.13894373165E+04  0.00000000000E+00 0.  1.
         22    1    1    2    0    0 -0.66664517178E+03  0.55385062928E+03  0.46348477857E+03  0.98284507659E+03  0.00000000000E+00 0. -1.
<mgrwt>
<rscale>  0 0.27763321E+04</rscale>
<asrwt>0</asrwt>
<pdfrwt beam="1">  1        2 0.36460044E+00 0.27763321E+04</pdfrwt>
<pdfrwt beam="2">  1       -2 0.12509471E+00 0.27763321E+04</pdfrwt>
<totfact> 0.17255886E+00</totfact>
</mgrwt>
</event>
<event>
 6    1  0.1878398E-004  0.8409854E+03  0.7818608E-02  0.9502517E-01
          2   -1    0    0  501    0  0.00000000000E+00  0.00000000000E+00  0.89388515413E+03  0.89388515413E+03  0.00000000000E+00 0.  1.
         -2   -1    0    0    0  501 -0.00000000000E+00 -0.00000000000E+00 -0.19780404989E+03  0.19780404989E+03  0.00000000000E+00 0. -1.
         23    2    1    2    0    0  0.39143285703E+03 -0.12960015435E+03  0.41494964919E+03  0.59263933016E+03  0.94985697403E+02 0.  0.
         13    1    3    3    0    0  0.26315527800E+03 -0.13211622771E+03  0.30025366978E+03  0.42054448537E+03  0.00000000000E+00 0.  1.
        -13    1    3    3    0    0  0.12827757903E+03  0.25160733511E+01  0.11469597941E+03  0.17209484479E+03  0.00000000000E+00 0. -1.
         22    1    1    2    0    0 -0.39143285703E+03  0.12960015435E+03  0.28113145505E+03  0.49904987385E+03  0.00000000000E+00 0.  1.
<mgrwt>
<rscale>  0 0.84098538E+03</rscale>
<asrwt>0</asrwt>
<pdfrwt beam="1">  1        2 0.13752079E+00 0.84098538E+03</pdfrwt>
<pdfrwt beam="2">  1       -2 0.30431393E-01 0.84098538E+03</pdfrwt>
<totfact> 0.29650857E+02</totfact>
</mgrwt>
</event>
<event>
 6    1  0.1878398E-004  0.2037057E+04  0.7818608E-02  0.8589489E-01
         -1   -1    0    0    0  501 -0.00000000000E+00  0.00000000000E+00  0.48173779786E+03  0.48173779786E+03  0.00000000000E+00 0. -1.
          1   -1    0    0  501    0  0.00000000000E+00 -0.00000000000E+00 -0.21534546315E+04  0.21534546315E+04  0.00000000000E+00 0.  1.
         23    2    1    2    0    0 -0.68665503107E+03 -0.52503916930E+03 -0.15294087869E+04  0.17591714016E+04  0.91823318090E+02 0.  0.
         13    1    3    3    0    0 -0.48042326940E+03 -0.34591816429E+03 -0.96461721943E+03  0.11317916214E+04  0.00000000000E+00 0.  1.
        -13    1    3    3    0    0 -0.20623176167E+03 -0.17912100501E+03 -0.56479156745E+03  0.62737978021E+03  0.00000000000E+00 0. -1.
         22    1    1    2    0    0  0.68665503107E+03  0.52503916930E+03 -0.14230804679E+03  0.87602102781E+03  0.00000000000E+00 0. -1.
<mgrwt>
<rscale>  0 0.20370572E+04</rscale>
<asrwt>0</asrwt>
<pdfrwt beam="1">  1        1 0.33130072E+00 0.20370572E+04</pdfrwt>
<pdfrwt beam="2">  1       -1 0.74113506E-01 0.20370572E+04</pdfrwt>
<totfact> 0.39722150E+00</totfact>
</mgrwt>
</event>
<event>
 6    1  0.1878398E-004  0.2625742E+04  0.7818608E-02  0.8359509E-01
          2   -1    0    0  501    0  0.00000000000E+00  0.00000000000E+00  0.13584744301E+04  0.13584744301E+04  0.00000000000E+00 0.  1.
         -2   -1    0    0    0  501 -0.00000000000E+00 -0.00000000000E+00 -0.12687986875E+04  0.12687986875E+04  0.00000000000E+00 0. -1.
         23    2    1    2    0    0  0.57272271478E+03 -0.14466143304E+03 -0.11264445247E+04  0.12752794997E+04  0.92316286192E+02 0.  0.
         13    1    3    3    0    0  0.54318049153E+03 -0.14656266142E+03 -0.10208736744E+04  0.11656366154E+04  0.00000000000E+00 0.  1.
        -13    1    3    3    0    0  0.29542223257E+02  0.19012283850E+01 -0.10557085039E+03  0.10964288429E+03  0.00000000000E+00 0. -1.
         22    1    1    2    0    0 -0.57272271478E+03  0.14466143304E+03  0.12161202673E+04  0.13519936179E+04  0.00000000000E+00 0.  1.
<mgrwt>
<rscale>  0 0.26257422E+04</rscale>
<asrwt>0</asrwt>
<pdfrwt beam="1">  1        2 0.20899607E+00 0.26257422E+04</pdfrwt>
<pdfrwt beam="2">  1       -2 0.19519980E+00 0.26257422E+04</pdfrwt>
<totfact> 0.19310046E+00</totfact>
</mgrwt>
</event>
<event>
 6    1  0.1878398E-004  0.1085430E+04  0.7818608E-02  0.9219510E-01
          4   -1    0    0  501    0  0.00000000000E+00  0.00000000000E+00  0.70962130768E+03  0.70962130768E+03  0.00000000000E+00 0. -1.
         -4   -1    0    0    0  501 -0.00000000000E+00 -0.00000000000E+00 -0.41506587393E+03  0.41506587393E+03  0.00000000000E+00 0.  1.
         23    2    1    2    0    0  0.57261248137E+01  0.17051718809E+03  0.67810890141E+03  0.70489894632E+03  0.89117576287E+02 0.  0.
         11    1    3    3    0    0 -0.39665256785E+02  0.10681496649E+03  0.42196047618E+03  0.43707369301E+03  0.00000000000E+00 0. -1.
        -11    1    3    3    0    0  0.45391381598E+02  0.63702221604E+02  0.25614842523E+03  0.26782525331E+03  0.00000000000E+00 0.  1.
         22    1    1    2    0    0 -0.57261248137E+01 -0.17051718809E+03 -0.38355346766E+03  0.41978823530E+03  0.00000000000E+00 0.  1.
<mgrwt>
<rscale>  0 0.10854300E+04</rscale>
<asrwt>0</asrwt>
<pdfrwt beam="1">  1        4 0.10917251E+00 0.10854300E+04</pdfrwt>
<pdfrwt beam="2">  1       -4 0.63856288E-01 0.10854300E+04</pdfrwt>
<totfact> 0.30269515E+00</totfact>
</mgrwt>
</event>
<event>
 6    1  0.1878398E-004  0.8756169E+03  0.7818608E-02  0.9456585E-01
         -2   -1    0    0    0  501 -0.00000000000E+00  0.00000000000E+00  0.38727590426E+03  0.38727590426E+03  0.00000000000E+00 0. -1.
          2   -1    0    0  501    0  0.00000000000E+00 -0.00000000000E+00 -0.49493461447E+03  0.49493461447E+03  0.00000000000E+00 0.  1.
         23    2    1    2    0    0 -0.31698180804E+03 -0.21074294709E+03 -0.26271826808E+03  0.47119528439E+03  0.90078028761E+02 0.  0.
         13    1    3    3    0    0 -0.17999069532E+03 -0.10650361830E+03 -0.19584276474E+03  0.28652060941E+03  0.00000000000E+00 0.  1.
        -13    1    3    3    0    0 -0.13699111272E+03 -0.10423932879E+03 -0.66875503339E+02  0.18467467498E+03  0.00000000000E+00 0. -1.
         22    1    1    2    0    0  0.31698180804E+03  0.21074294709E+03  0.15505955787E+03  0.41101523435E+03  0.00000000000E+00 0. -1.
<mgrwt>
<rscale>  0 0.87561693E+03</rscale>
<asrwt>0</asrwt>
<pdfrwt beam="1">  1        2 0.76143786E-01 0.87561693E+03</pdfrwt>
<pdfrwt beam="2">  1       -2 0.59580909E-01 0.87561693E+03</pdfrwt>
<totfact> 0.16460497E+02</totfact>
</mgrwt>
</event>
<event>
 6    1  0.1878398E-004  0.3708354E+04  0.7818608E-02  0.8066113E-01
          2   -1    0    0  501    0  0.00000000000E+00  0.00000000000E+00  0.31242888421E+04  0.31242888421E+04  0.00000000000E+00 0. -1.
         -2   -1    0    0    0  501 -0.00000000000E+00 -0.00000000000E+00 -0.11004014132E+04  0.11004014132E+04  0.00000000000E+00 0.  1.
         23    2    1    2    0    0  0.28558930696E+03  0.16200083182E+04  0.40575539963E+02  0.16479647650E+04  0.90295562992E+02 0.  0.
         13    1    3    3    0    0  0.17587493936E+03  0.86778214529E+03  0.60803779667E+02  0.88751053267E+03  0.00000000000E+00 0. -1.
        -13    1    3    3    0    0  0.10971436760E+03  0.75222617294E+03 -0.20228239704E+02  0.76045423228E+03  0.00000000000E+00 0.  1.
         22    1    1    2    0    0 -0.28558930696E+03 -0.16200083182E+04  0.19833118890E+04  0.25767254903E+04  0.00000000000E+00 0. -1.
<mgrwt>
<rscale>  0 0.37083537E+04</rscale>
<asrwt>0</asrwt>
<pdfrwt beam="1">  1        2 0.48065982E+00 0.37083537E+04</pdfrwt>
<pdfrwt beam="2">  1       -2 0.16929253E+00 0.37083537E+04</pdfrwt>
<totfact> 0.25267005E-01</totfact>
</mgrwt>
</event>
<event>
 6    1  0.1878398E-004  0.2612985E+04  0.7818608E-02  0.8363804E-01
          2   -1    0    0  501    0  0.00000000000E+00  0.00000000000E+00  0.26758644026E+04  0.26758644026E+04  0.00000000000E+00 0.  1.
         -2   -1    0    0    0  501 -0.00000000000E+00 -0.00000000000E+00 -0.63789579604E+03  0.63789579604E+03  0.00000000000E+00 0. -1.
         23    2    1    2    0    0 -0.15704611687E+03  0.83254379433E+03  0.22785239726E+04  0.24330448437E+04  0.10120803066E+03 0.  0.
         13    1    3    3    0    0 -0.10556543913E+03  0.73489466022E+03  0.20085054247E+04  0.21413332914E+04  0.00000000000E+00 0.  1.
        -13    1    3    3    0    0 -0.51480677733E+02  0.97649134107E+02  0.27001854787E+03  0.29171155234E+03  0.00000000000E+00 0. -1.
         22    1    1    2    0    0  0.15704611687E+03 -0.83254379433E+03 -0.24055536603E+03  0.88071535494E+03  0.00000000000E+00 0. -1.
<mgrwt>
<rscale>  0 0.26129850E+04</rscale>
<asrwt>0</asrwt>
<pdfrwt beam="1">  1        2 0.41167144E+00 0.26129850E+04</pdfrwt>
<pdfrwt beam="2">  1       -2 0.98137816E-01 0.26129850E+04</pdfrwt>
<totfact> 0.20938717E+00</totfact>
</mgrwt>
</event>
<event>
 6    1  0.1878398E-004  0.2986482E+04  0.7818608E-02  0.8247601E-01
         -2   -1    0    0    0  501 -0.00000000000E+00  0.00000000000E+00  0.14426297198E+04  0.14426297198E+04  0.00000000000E+00 0. -1.
          2   -1    0    0  501    0  0.00000000000E+00 -0.00000000000E+00 -0.15456281848E+04  0.15456281848E+04  0.00000000000E+00 0.  1.
         23    2    1    2    0    0 -0.10071296978E+04 -0.79664441853E+03 -0.81135841607E+03  0.15217224028E+04  0.91564370724E+02 0.  0.
         11    1    3    3    0    0 -0.76031585344E+03 -0.55418543658E+03 -0.57347037698E+03  0.11018484326E+04  0.00000000000E+00 0. -1.
        -11    1    3    3    0    0 -0.24681384436E+03 -0.24245898196E+03 -0.23788803908E+03  0.41987397018E+03  0.00000000000E+00 0.  1.
         22    1    1    2    0    0  0.10071296978E+04  0.79664441853E+03  0.70835995114E+03  0.14665355018E+04  0.00000000000E+00 0. -1.
<mgrwt>
<rscale>  0 0.29864823E+04</rscale>
<asrwt>0</asrwt>
<pdfrwt beam="1">  1        2 0.23778895E+00 0.29864823E+04</pdfrwt>
<pdfrwt beam="2">  1       -2 0.22194303E+00 0.29864823E+04</pdfrwt>
<totfact> 0.98508048E-01</totfact>
</mgrwt>
</event>
<event>
 6    1  0.1878398E-004  0.5762069E+03  0.7818608E-02  0.9956037E-01
          4   -1    0    0  501    0  0.00000000000E+00  0.00000000000E+00  0.49612718516E+02  0.49612718516E+02  0.00000000000E+00 0.  1.
         -4   -1    0    0    0  501 -0.00000000000E+00 -0.00000000000E+00 -0.16730308250E+04  0.16730308250E+04  0.00000000000E+00 0. -1.
         23    2    1    2    0    0 -0.26975494782E+03 -0.28773879633E+02 -0.62858793337E+03  0.69148752168E+03  0.97141827464E+02 0.  0.
         13    1    3    3    0    0 -0.17260942540E+03 -0.63256437012E+02 -0.43267517016E+03  0.47010976744E+03  0.00000000000E+00 0. -1.
        -13    1    3    3    0    0 -0.97145522417E+02  0.34482557379E+02 -0.19591276320E+03  0.22137775425E+03  0.00000000000E+00 0.  1.
         22    1    1    2    0    0  0.26975494782E+03  0.28773879633E+02 -0.99483017315E+03  0.10311560219E+04  0.00000000000E+00 0. -1.
<mgrwt>
<rscale>  0 0.57620693E+03</rscale>
<asrwt>0</asrwt>
<pdfrwt beam="1">  1        4 0.76327266E-02 0.57620693E+03</pdfrwt>
<pdfrwt beam="2">  1       -4 0.25738933E+00 0.57620693E+03</pdfrwt>
<totfact> 0.14558704E+01</totfact>
</mgrwt>
</event>
<event>
 6    1  0.1878398E-004  0.2161115E+04  0.7818608E-02  0.8534789E-01
          1   -1    0    0  501    0  0.00000000000E+00  0.00000000000E+00  0.76911079809E+03  0.76911079809E+03  0.00000000000E+00 0.  1.
         -1   -1    0    0    0  501 -0.00000000000E+00 -0.00000000000E+00 -0.15181225165E+04  0.15181225165E+04  0.00000000000E+00 0. -1.
         23    2    1    2    0    0  0.42501764616E+03  0.41396911318E+03 -0.13285233640E+04  0.14578695984E+04  0.91646118153E+02 0.  0.
         13    1    3    3    0    0  0.11522450460E+03  0.17301201260E+03 -0.45818501713E+03  0.50313353385E+03  0.00000000000E+00 0.  1.
        -13    1    3    3    0    0  0.30979314156E+03  0.24095710058E+03 -0.87033834690E+03  0.95473606456E+03  0.00000000000E+00 0. -1.
         22    1    1    2    0    0 -0.42501764616E+03 -0.41396911318E+03  0.57951164565E+03  0.82936371615E+03  0.00000000000E+00 0.  1.
<mgrwt>
<rscale>  0 0.21611149E+04</rscale>
<asrwt>0</asrwt>
<pdfrwt beam="1">  1        1 0.11832474E+00 0.21611149E+04</pdfrwt>
<pdfrwt beam="2">  1       -1 0.23355730E+00 0.21611149E+04</pdfrwt>
<totfact> 0.19253850E+00</totfact>
</mgrwt>
</event>
<event>
 6    1  0.1878398E-004  0.2608903E+04  0.7818608E-02  0.8365183E-01
         -2   -1    0    0    0  501 -0.00000000000E+00  0.00000000000E+00  0.50225397126E+03  0.50225397126E+03  0.00000000000E+00 0. -1.
          2   -1    0    0  501    0  0.00000000000E+00 -0.00000000000E+00 -0.33879159202E+04  0.33879159202E+04  0.00000000000E+00 0.  1.
         23    2    1    2    0    0 -0.30551605543E+03  0.51438095086E+03  0.28102659501E+03  0.66746230977E+03  0.92747857855E+02 0.  0.
         13    1    3    3    0    0 -0.98488232577E+02  0.25325735452E+03  0.11348333912E+03  0.29447867127E+03  0.00000000000E+00 0. -1.
        -13    1    3    3    0    0 -0.20702782285E+03  0.26112359634E+03  0.16754325588E+03  0.37298363851E+03  0.00000000000E+00 0.  1.
         22    1    1    2    0    0  0.30551605543E+03 -0.51438095086E+03 -0.31666885439E+04  0.32227075817E+04  0.00000000000E+00 0.  1.
<mgrwt>
<rscale>  0 0.26089034E+04</rscale>
<asrwt>0</asrwt>
<pdfrwt beam="1">  1        2 0.52121785E+00 0.26089034E+04</pdfrwt>
<pdfrwt beam="2">  1       -2 0.77269840E-01 0.26089034E+04</pdfrwt>
<totfact> 0.12839155E+00</totfact>
</mgrwt>
</event>
<event>
 6    1  0.1878398E-004  0.1678277E+04  0.7818608E-02  0.8773852E-01
         -2   -1    0    0    0  501 -0.00000000000E+00  0.00000000000E+00  0.41520716897E+03  0.41520716897E+03  0.00000000000E+00 0. -1.
          2   -1    0    0  501    0  0.00000000000E+00 -0.00000000000E+00 -0.16959085462E+04  0.16959085462E+04  0.00000000000E+00 0.  1.
         23    2    1    2    0    0  0.36816715423E+02  0.31394269445E+03  0.33221906972E+03  0.46751361791E+03  0.91016409045E+02 0.  0.
         11    1    3    3    0    0  0.46224343938E+02  0.27197276743E+03  0.23960402182E+03  0.36539836271E+03  0.00000000000E+00 0. -1.
        -11    1    3    3    0    0 -0.94076285155E+01  0.41969927017E+02  0.92615047899E+02  0.10211525520E+03  0.00000000000E+00 0.  1.
         22    1    1    2    0    0 -0.36816715423E+02 -0.31394269445E+03 -0.16129204469E+04  0.16436020973E+04  0.00000000000E+00 0.  1.
<mgrwt>
<rscale>  0 0.16782770E+04</rscale>
<asrwt>0</asrwt>
<pdfrwt beam="1">  1        2 0.26090901E+00 0.16782770E+04</pdfrwt>
<pdfrwt beam="2">  1       -2 0.63878026E-01 0.16782770E+04</pdfrwt>
<totfact> 0.21294117E+01</totfact>
</mgrwt>
</event>
<event>
 6    1  0.1878398E-004  0.1549355E+04  0.7818608E-02  0.8852280E-01
          1   -1    0    0  501    0  0.00000000000E+00  0.00000000000E+00  0.65467382705E+03  0.65467382705E+03  0.00000000000E+00 0. -1.
         -1   -1    0    0    0  501 -0.00000000000E+00 -0.00000000000E+00 -0.91667870955E+03  0.91667870955E+03  0.00000000000E+00 0.  1.
         23    2    1    2    0    0 -0.48337761917E+03  0.31601308705E+03  0.38815075535E+03  0.70174311430E+03  0.90907621693E+02 0.  0.
         13    1    3    3    0    0 -0.44327795393E+03  0.31518408028E+03  0.35305185221E+03  0.64844580286E+03  0.00000000000E+00 0.  1.
        -13    1    3    3    0    0 -0.40099665244E+02  0.82900677594E+00  0.35098903138E+02  0.53297311438E+02  0.00000000000E+00 0. -1.
         22    1    1    2    0    0  0.48337761917E+03 -0.31601308705E+03 -0.65015563786E+03  0.86960942229E+03  0.00000000000E+00 0. -1.
<mgrwt>
<rscale>  0 0.15493554E+04</rscale>
<asrwt>0</asrwt>
<pdfrwt beam="1">  1        1 0.10071905E+00 0.15493554E+04</pdfrwt>
<pdfrwt beam="2">  1       -1 0.14102749E+00 0.15493554E+04</pdfrwt>
<totfact> 0.11940349E+01</totfact>
</mgrwt>
</event>
<event>
 6    1  0.1878398E-004  0.3034270E+04  0.7818608E-02  0.8234012E-01
         -2   -1    0    0    0  501 -0.00000000000E+00  0.00000000000E+00  0.19974173704E+04  0.19974173704E+04  0.00000000000E+00 0. -1.
          2   -1    0    0  501    0  0.00000000000E+00 -0.00000000000E+00 -0.11523374547E+04  0.11523374547E+04  0.00000000000E+00 0.  1.
         23    2    1    2    0    0  0.14000783742E+04  0.57773334032E+03  0.36035534546E+03  0.15594865535E+04  0.90261117302E+02 0.  0.
         13    1    3    3    0    0  0.10372201441E+04  0.38462704082E+03  0.26275495838E+03  0.11370152839E+04  0.00000000000E+00 0.  1.
        -13    1    3    3    0    0  0.36285823014E+03  0.19310629950E+03  0.97600387076E+02  0.42247126960E+03  0.00000000000E+00 0. -1.
         22    1    1    2    0    0 -0.14000783742E+04 -0.57773334032E+03  0.48472457033E+03  0.15902682715E+04  0.00000000000E+00 0. -1.
<mgrwt>
<rscale>  0 0.30342702E+04</rscale>
<asrwt>0</asrwt>
<pdfrwt beam="1">  1        2 0.17728269E+00 0.30342702E+04</pdfrwt>
<pdfrwt beam="2">  1       -2 0.30729498E+00 0.30342702E+04</pdfrwt>
<totfact> 0.49522803E-01</totfact>
</mgrwt>
</event>
<event>
 6    1  0.1878398E-004  0.4382217E+04  0.7818608E-02  0.7931588E-01
         -2   -1    0    0    0  501 -0.00000000000E+00  0.00000000000E+00  0.19992889677E+04  0.19992889677E+04  0.00000000000E+00 0.  1.
          2   -1    0    0  501    0  0.00000000000E+00 -0.00000000000E+00 -0.24013319831E+04  0.24013319831E+04  0.00000000000E+00 0. -1.
         23    2    1    2    0    0 -0.13621455979E+04  0.16586464047E+04 -0.63915065558E+03  0.22412764764E+04  0.90874404586E+02 0.  0.
         11    1    3    3    0    0 -0.13513903404E+04  0.16491337254E+04 -0.62679670385E+03  0.22223348092E+04  0.00000000000E+00 0. -1.
        -11    1    3    3    0    0 -0.10755257532E+02  0.95126792862E+01 -0.12353951732E+02  0.18941667170E+02  0.00000000000E+00 0.  1.
         22    1    1    2    0    0  0.13621455979E+04 -0.16586464047E+04  0.23710764019E+03  0.21593444743E+04  0.00000000000E+00 0.  1.
<mgrwt>
<rscale>  0 0.43822170E+04</rscale>
<asrwt>0</asrwt>
<pdfrwt beam="1">  1        2 0.36943569E+00 0.43822170E+04</pdfrwt>
<pdfrwt beam="2">  1       -2 0.30758292E+00 0.43822170E+04</pdfrwt>
<totfact> 0.86687431E-02</totfact>
</mgrwt>
</event>
<event>
 6    1  0.1878398E-004  0.3248013E+04  0.7818608E-02  0.8176251E-01
          3   -1    0    0  501    0  0.00000000000E+00  0.00000000000E+00  0.16966511942E+04  0.16966511942E+04  0.00000000000E+00 0.  1.
         -3   -1    0    0    0  501 -0.00000000000E+00 -0.00000000000E+00 -0.15544725394E+04  0.15544725394E+04  0.00000000000E+00 0. -1.
         23    2    1    2    0    0 -0.29507116217E+03  0.12874629466E+04  0.10147391877E+04  0.16680919231E+04  0.90593681600E+02 0.  0.
         13    1    3    3    0    0 -0.31325806488E+02  0.29974292093E+03  0.21769326440E+03  0.37177611834E+03  0.00000000000E+00 0.  1.
        -13    1    3    3    0    0 -0.26374535568E+03  0.98772002563E+03  0.79704592335E+03  0.12963158047E+04  0.00000000000E+00 0. -1.
         22    1    1    2    0    0  0.29507116217E+03 -0.12874629466E+04 -0.87256053291E+03  0.15830318105E+04  0.00000000000E+00 0. -1.
<mgrwt>
<rscale>  0 0.32480134E+04</rscale>
<asrwt>0</asrwt>
<pdfrwt beam="1">  1        3 0.26102326E+00 0.32480134E+04</pdfrwt>
<pdfrwt beam="2">  1       -3 0.23914962E+00 0.32480134E+04</pdfrwt>
<totfact> 0.11736087E-02</totfact>
</mgrwt>
</event>
<event>
 6    1  0.1878398E-004  0.3564192E+04  0.7818608E-02  0.8098744E-01
          1   -1    0    0  501    0  0.00000000000E+00  0.00000000000E+00  0.18546875547E+04  0.18546875547E+04  0.00000000000E+00 0.  1.
         -1   -1    0    0    0  501 -0.00000000000E+00 -0.00000000000E+00 -0.17123455340E+04  0.17123455340E+04  0.00000000000E+00 0. -1.
         23    2    1    2    0    0 -0.58435605511E+03 -0.17084422546E+03  0.17462688735E+04  0.18514454058E+04  0.87950916576E+02 0.  0.
         11    1    3    3    0    0 -0.20749768037E+03 -0.76537866063E+02  0.75657842105E+03  0.78824123179E+03  0.00000000000E+00 0. -1.
        -11    1    3    3    0    0 -0.37685837474E+03 -0.94306359395E+02  0.98969045241E+03  0.10632041740E+04  0.00000000000E+00 0.  1.
         22    1    1    2    0    0  0.58435605511E+03  0.17084422546E+03 -0.16039268528E+04  0.17155876829E+04  0.00000000000E+00 0. -1.
<mgrwt>
<rscale>  0 0.35641919E+04</rscale>
<asrwt>0</asrwt>
<pdfrwt beam="1">  1        1 0.28533655E+00 0.35641919E+04</pdfrwt>
<pdfrwt beam="2">  1       -1 0.26343778E+00 0.35641919E+04</pdfrwt>
<totfact> 0.17297202E-01</totfact>
</mgrwt>
</event>
<event>
 6    1  0.1878398E-004  0.1357386E+04  0.7818608E-02  0.8985256E-01
         -2   -1    0    0    0  501 -0.00000000000E+00  0.00000000000E+00  0.16267181330E+03  0.16267181330E+03  0.00000000000E+00 0. -1.
          2   -1    0    0  501    0  0.00000000000E+00 -0.00000000000E+00 -0.28316152707E+04  0.28316152707E+04  0.00000000000E+00 0.  1.
         23    2    1    2    0    0  0.53293078996E+03 -0.27138209797E+02 -0.42646673937E+03  0.68919412705E+03  0.91449197115E+02 0.  0.
         11    1    3    3    0    0  0.17031317857E+03  0.31736196643E+02 -0.15425995851E+03  0.23196960959E+03  0.00000000000E+00 0. -1.
        -11    1    3    3    0    0  0.36261761139E+03 -0.58874406440E+02 -0.27220678086E+03  0.45722451746E+03  0.00000000000E+00 0.  1.
         22    1    1    2    0    0 -0.53293078996E+03  0.27138209797E+02 -0.22424767181E+04  0.23050929570E+04  0.00000000000E+00 0.  1.
<mgrwt>
<rscale>  0 0.13573857E+04</rscale>
<asrwt>0</asrwt>
<pdfrwt beam="1">  1        2 0.43563309E+00 0.13573857E+04</pdfrwt>
<pdfrwt beam="2">  1       -2 0.25026434E-01 0.13573857E+04</pdfrwt>
<totfact> 0.31168116E+01</totfact>
</mgrwt>
</event>
<event>
 6    1  0.1878398E-004  0.2510322E+04  0.7818608E-02  0.8399317E-01
          2   -1    0    0  501    0  0.00000000000E+00  0.00000000000E+00  0.20129527076E+04  0.20129527076E+04  0.00000000000E+00 0.  1.
         -2   -1    0    0    0  501 -0.00000000000E+00 -0.00000000000E+00 -0.78264585845E+03  0.78264585845E+03  0.00000000000E+00 0. -1.
         23    2    1    2    0    0  0.31174683359E+03  0.11429780194E+04  0.15976920023E+03  0.11988406950E+04  0.90044286446E+02 0.  0.
         13    1    3    3    0    0  0.10330668917E+03  0.53476565289E+03  0.91549924646E+02  0.55229336791E+03  0.00000000000E+00 0.  1.
        -13    1    3    3    0    0  0.20844014442E+03  0.60821236651E+03  0.68219275589E+02  0.64654732707E+03  0.00000000000E+00 0. -1.
         22    1    1    2    0    0 -0.31174683359E+03 -0.11429780194E+04  0.10705376489E+04  0.15967578711E+04  0.00000000000E+00 0.  1.
<mgrwt>
<rscale>  0 0.25103220E+04</rscale>
<asrwt>0</asrwt>
<pdfrwt beam="1">  1        2 0.30968503E+00 0.25103220E+04</pdfrwt>
<pdfrwt beam="2">  1       -2 0.12040706E+00 0.25103220E+04</pdfrwt>
<totfact> 0.30833045E+00</totfact>
</mgrwt>
</event>
<event>
 6    1  0.1878398E-004  0.2040089E+04  0.7818608E-02  0.8588104E-01
          2   -1    0    0  501    0  0.00000000000E+00  0.00000000000E+00  0.81854941079E+03  0.81854941079E+03  0.00000000000E+00 0.  1.
         -2   -1    0    0    0  501 -0.00000000000E+00 -0.00000000000E+00 -0.12711395271E+04  0.12711395271E+04  0.00000000000E+00 0. -1.
         23    2    1    2    0    0 -0.66604063538E+03  0.66053999017E+03  0.17822552986E+03  0.95926796051E+03  0.92235969051E+02 0.  0.
         11    1    3    3    0    0 -0.36855195575E+03  0.34594191330E+03  0.51327938159E+02  0.50807569191E+03  0.00000000000E+00 0. -1.
        -11    1    3    3    0    0 -0.29748867963E+03  0.31459807687E+03  0.12689759170E+03  0.45119226861E+03  0.00000000000E+00 0.  1.
         22    1    1    2    0    0  0.66604063538E+03 -0.66053999017E+03 -0.63081564613E+03  0.11304209773E+04  0.00000000000E+00 0. -1.
<mgrwt>
<rscale>  0 0.20400887E+04</rscale>
<asrwt>0</asrwt>
<pdfrwt beam="1">  1        2 0.12593068E+00 0.20400887E+04</pdfrwt>
<pdfrwt beam="2">  1       -2 0.19555993E+00 0.20400887E+04</pdfrwt>
<totfact> 0.43996112E+00</totfact>
</mgrwt>
</event>
<event>
 6    1  0.1878398E-004  0.3564966E+04  0.7818608E-02  0.8098564E-01
         -2   -1    0    0    0  501 -0.00000000000E+00  0.00000000000E+00  0.15550759419E+04  0.15550759419E+04  0.00000000000E+00 0.  1.
          2   -1    0    0  501    0  0.00000000000E+00 -0.00000000000E+00 -0.20431455504E+04  0.20431455504E+04  0.00000000000E+00 0. -1.
         23    2    1    2    0    0  0.57425114277E+01 -0.17790891705E+04 -0.15795328061E+03  0.17887552608E+04  0.97493030465E+02 0.  0.
         13    1    3    3    0    0  0.44811921485E+02 -0.12929886205E+04 -0.13015911301E+03  0.13002957648E+04  0.00000000000E+00 0. -1.
        -13    1    3    3    0    0 -0.39069410057E+02 -0.48610054996E+03 -0.27794167605E+02  0.48845949600E+03  0.00000000000E+00 0.  1.
         22    1    1    2    0    0 -0.57425114277E+01  0.17790891705E+04 -0.33011632789E+03  0.18094662315E+04  0.00000000000E+00 0. -1.
<mgrwt>
<rscale>  0 0.35649665E+04</rscale>
<asrwt>0</asrwt>
<pdfrwt beam="1">  1        2 0.31433008E+00 0.35649665E+04</pdfrwt>
<pdfrwt beam="2">  1       -2 0.23924246E+00 0.35649665E+04</pdfrwt>
<totfact> 0.38693215E-01</totfact>
</mgrwt>
</event>
<event>
 6    1  0.1878398E-004  0.3691039E+04  0.7818608E-02  0.8069951E-01
          2   -1    0    0  501    0  0.00000000000E+00  0.00000000000E+00  0.11576437326E+04  0.11576437326E+04  0.00000000000E+00 0.  1.
         -2   -1    0    0    0  501 -0.00000000000E+00 -0.00000000000E+00 -0.29421331054E+04  0.29421331054E+04  0.00000000000E+00 0. -1.
         23    2    1    2    0    0  0.12311419146E+04 -0.66606379158E+03 -0.22267797011E+04  0.26317945074E+04  0.91886360650E+02 0.  0.
         13    1    3    3    0    0  0.19425358775E+03 -0.10156756442E+03 -0.28946265161E+03  0.36309647916E+03  0.00000000000E+00 0. -1.
        -13    1    3    3    0    0  0.10368883268E+04 -0.56449622716E+03 -0.19373170495E+04  0.22686980282E+04  0.00000000000E+00 0.  1.
         22    1    1    2    0    0 -0.12311419146E+04  0.66606379158E+03  0.44229032834E+03  0.14679823306E+04  0.00000000000E+00 0.  1.
<mgrwt>
<rscale>  0 0.36910389E+04</rscale>
<asrwt>0</asrwt>
<pdfrwt beam="1">  1        2 0.17809903E+00 0.36910389E+04</pdfrwt>
<pdfrwt beam="2">  1       -2 0.45263587E+00 0.36910389E+04</pdfrwt>
<totfact> 0.54144938E-02</totfact>
</mgrwt>
</event>
<event>
 6    1  0.3045704E-004  0.5248123E+04  0.7818608E-02  0.7791332E-01
          2   -1    0    0  501    0  0.00000000000E+00  0.00000000000E+00  0.25190979085E+04  0.25190979085E+04  0.00000000000E+00 0.  1.
         -2   -1    0    0    0  501 -0.00000000000E+00 -0.00000000000E+00 -0.27333982302E+04  0.27333982302E+04  0.00000000000E+00 0. -1.
         23    2    1    2    0    0 -0.10998752372E+04 -0.11946240799E+04 -0.21691832329E+04  0.27111540865E+04  0.90268227913E+02 0.  0.
         13    1    3    3    0    0 -0.55686662650E+03 -0.58851780372E+03 -0.11551736766E+04  0.14109854245E+04  0.00000000000E+00 0. -1.
        -13    1    3    3    0    0 -0.54300861071E+03 -0.60610627622E+03 -0.10140095564E+04  0.13001686620E+04  0.00000000000E+00 0.  1.
         22    1    1    2    0    0  0.10998752372E+04  0.11946240799E+04  0.19548829112E+04  0.25413420522E+04  0.00000000000E+00 0.  1.
<mgrwt>
<rscale>  0 0.52481226E+04</rscale>
<asrwt>0</asrwt>
<pdfrwt beam="1">  1        2 0.38755353E+00 0.52481226E+04</pdfrwt>
<pdfrwt beam="2">  1       -2 0.42052280E+00 0.52481226E+04</pdfrwt>
<totfact> 0.13198419E-02</totfact>
</mgrwt>
</event>
<event>
 6    1  0.1878398E-004  0.5531748E+04  0.7818608E-02  0.7751336E-01
          2   -1    0    0  501    0  0.00000000000E+00  0.00000000000E+00  0.35998552102E+04  0.35998552102E+04  0.00000000000E+00 0.  1.
         -2   -1    0    0    0  501 -0.00000000000E+00 -0.00000000000E+00 -0.21251018938E+04  0.21251018938E+04  0.00000000000E+00 0. -1.
         23    2    1    2    0    0  0.23243477451E+04  0.66745176271E+03 -0.65009774437E+03  0.25057838676E+04  0.90782256910E+02 0.  0.
         13    1    3    3    0    0  0.13914755222E+04  0.39492166571E+03 -0.43460251271E+03  0.15103134095E+04  0.00000000000E+00 0. -1.
        -13    1    3    3    0    0  0.93287222285E+03  0.27253009700E+03 -0.21549523166E+03  0.99547045803E+03  0.00000000000E+00 0.  1.
         22    1    1    2    0    0 -0.23243477451E+04 -0.66745176271E+03  0.21248510608E+04  0.32191732364E+04  0.00000000000E+00 0. -1.
<mgrwt>
<rscale>  0 0.55317481E+04</rscale>
<asrwt>0</asrwt>
<pdfrwt beam="1">  1        2 0.55382388E+00 0.55317481E+04</pdfrwt>
<pdfrwt beam="2">  1       -2 0.32693875E+00 0.55317481E+04</pdfrwt>
<totfact> 0.10428183E-02</totfact>
</mgrwt>
</event>
<event>
 6    1  0.1878398E-004  0.2206409E+04  0.7818608E-02  0.8515765E-01
         -2   -1    0    0    0  501 -0.00000000000E+00  0.00000000000E+00  0.71623193272E+03  0.71623193272E+03  0.00000000000E+00 0. -1.
          2   -1    0    0  501    0  0.00000000000E+00 -0.00000000000E+00 -0.16992538074E+04  0.16992538074E+04  0.00000000000E+00 0.  1.
         23    2    1    2    0    0 -0.42392909586E+03  0.10031399361E+04 -0.30515394522E+03  0.11327111927E+04  0.62530840833E+02 0.  0.
         13    1    3    3    0    0 -0.84504290033E+02  0.14640692706E+03 -0.38272626772E+02  0.17332269697E+03  0.00000000000E+00 0.  1.
        -13    1    3    3    0    0 -0.33942480583E+03  0.85673300904E+03 -0.26688131845E+03  0.95938849573E+03  0.00000000000E+00 0. -1.
         22    1    1    2    0    0  0.42392909586E+03 -0.10031399361E+04 -0.67786792943E+03  0.12827745474E+04  0.00000000000E+00 0.  1.
<mgrwt>
<rscale>  0 0.22064087E+04</rscale>
<asrwt>0</asrwt>
<pdfrwt beam="1">  1        2 0.26142366E+00 0.22064087E+04</pdfrwt>
<pdfrwt beam="2">  1       -2 0.11018953E+00 0.22064087E+04</pdfrwt>
<totfact> 0.58679293E+00</totfact>
</mgrwt>
</event>
<event>
 6    1  0.1878398E-004  0.3462086E+04  0.7818608E-02  0.8122834E-01
          2   -1    0    0  501    0  0.00000000000E+00  0.00000000000E+00  0.21488985910E+04  0.21488985910E+04  0.00000000000E+00 0.  1.
         -2   -1    0    0    0  501 -0.00000000000E+00 -0.00000000000E+00 -0.13944400379E+04  0.13944400379E+04  0.00000000000E+00 0. -1.
         23    2    1    2    0    0  0.12110900933E+04  0.11494805481E+04 -0.85202751732E+02  0.16743614082E+04  0.90453698570E+02 0.  0.
         11    1    3    3    0    0  0.35276708094E+03  0.38118386108E+03 -0.15337603336E+01  0.51937279652E+03  0.00000000000E+00 0.  1.
        -11    1    3    3    0    0  0.85832301238E+03  0.76829668705E+03 -0.83668991398E+02  0.11549886117E+04  0.00000000000E+00 0. -1.
         22    1    1    2    0    0 -0.12110900933E+04 -0.11494805481E+04  0.83966130485E+03  0.18689772207E+04  0.00000000000E+00 0.  1.
<mgrwt>
<rscale>  0 0.34620862E+04</rscale>
<asrwt>0</asrwt>
<pdfrwt beam="1">  1        2 0.33059978E+00 0.34620862E+04</pdfrwt>
<pdfrwt beam="2">  1       -2 0.21452924E+00 0.34620862E+04</pdfrwt>
<totfact> 0.48698862E-01</totfact>
</mgrwt>
</event>
<event>
 6    1  0.1878398E-004  0.3589268E+04  0.7818608E-02  0.8092954E-01
          2   -1    0    0  501    0  0.00000000000E+00  0.00000000000E+00  0.16586845940E+04  0.16586845940E+04  0.00000000000E+00 0.  1.
         -2   -1    0    0    0  501 -0.00000000000E+00 -0.00000000000E+00 -0.19417261637E+04  0.19417261637E+04  0.00000000000E+00 0. -1.
         23    2    1    2    0    0  0.43689233636E+03  0.15214156589E+04  0.70412871898E+03  0.17349119774E+04  0.92421835675E+02 0.  0.
         11    1    3    3    0    0  0.26866546802E+03  0.94544259916E+03  0.48590131824E+03  0.10964227894E+04  0.00000000000E+00 0. -1.
        -11    1    3    3    0    0  0.16822686833E+03  0.57597305974E+03  0.21822740075E+03  0.63848918802E+03  0.00000000000E+00 0.  1.
         22    1    1    2    0    0 -0.43689233636E+03 -0.15214156589E+04 -0.98717028868E+03  0.18654987804E+04  0.00000000000E+00 0. -1.
<mgrwt>
<rscale>  0 0.35892680E+04</rscale>
<asrwt>0</asrwt>
<pdfrwt beam="1">  1        2 0.25518225E+00 0.35892680E+04</pdfrwt>
<pdfrwt beam="2">  1       -2 0.29872710E+00 0.35892680E+04</pdfrwt>
<totfact> 0.27294522E-01</totfact>
</mgrwt>
</event>
<event>
 6    1  0.1878398E-004  0.1270625E+04  0.7818608E-02  0.9053189E-01
          3   -1    0    0  501    0  0.00000000000E+00  0.00000000000E+00  0.68980218831E+03  0.68980218831E+03  0.00000000000E+00 0.  1.
         -3   -1    0    0    0  501 -0.00000000000E+00 -0.00000000000E+00 -0.58512748497E+03  0.58512748497E+03  0.00000000000E+00 0. -1.
         23    2    1    2    0    0  0.17968402286E+03 -0.59818219860E+03 -0.44065949933E+02  0.63287665932E+03  0.92101939018E+02 0.  0.
         13    1    3    3    0    0  0.12996376185E+03 -0.34105995937E+03  0.11488737999E+02  0.36516361590E+03  0.00000000000E+00 0.  1.
        -13    1    3    3    0    0  0.49720261012E+02 -0.25712223924E+03 -0.55554687931E+02  0.26771304342E+03  0.00000000000E+00 0. -1.
         22    1    1    2    0    0 -0.17968402286E+03  0.59818219860E+03  0.14874065327E+03  0.64205301396E+03  0.00000000000E+00 0.  1.
<mgrwt>
<rscale>  0 0.12706254E+04</rscale>
<asrwt>0</asrwt>
<pdfrwt beam="1">  1        3 0.10612341E+00 0.12706254E+04</pdfrwt>
<pdfrwt beam="2">  1       -3 0.90019613E-01 0.12706254E+04</pdfrwt>
<totfact> 0.21815179E+00</totfact>
</mgrwt>
</event>
<event>
 6    1  0.1878398E-004  0.3390633E+04  0.7818608E-02  0.8140209E-01
          2   -1    0    0  501    0  0.00000000000E+00  0.00000000000E+00  0.31143755351E+04  0.31143755351E+04  0.00000000000E+00 0.  1.
         -2   -1    0    0    0  501 -0.00000000000E+00 -0.00000000000E+00 -0.92284908656E+03  0.92284908656E+03  0.00000000000E+00 0. -1.
         23    2    1    2    0    0 -0.80413582095E+03  0.13205755283E+04  0.27243963344E+03  0.15727879014E+04  0.94256482641E+02 0.  0.
         13    1    3    3    0    0 -0.56852906553E+03  0.10031884716E+04  0.18303722412E+03  0.11675251746E+04  0.00000000000E+00 0.  1.
        -13    1    3    3    0    0 -0.23560675541E+03  0.31738705662E+03  0.89402409324E+02  0.40526272676E+03  0.00000000000E+00 0. -1.
         22    1    1    2    0    0  0.80413582095E+03 -0.13205755283E+04  0.19190868151E+04  0.24644367203E+04  0.00000000000E+00 0.  1.
<mgrwt>
<rscale>  0 0.33906333E+04</rscale>
<asrwt>0</asrwt>
<pdfrwt beam="1">  1        2 0.47913469E+00 0.33906333E+04</pdfrwt>
<pdfrwt beam="2">  1       -2 0.14197678E+00 0.33906333E+04</pdfrwt>
<totfact> 0.42257606E-01</totfact>
</mgrwt>
</event>
<event>
 6    1  0.1878398E-004  0.1615496E+04  0.7818608E-02  0.8811084E-01
          2   -1    0    0  501    0  0.00000000000E+00  0.00000000000E+00  0.18544513666E+04  0.18544513666E+04  0.00000000000E+00 0.  1.
         -2   -1    0    0    0  501 -0.00000000000E+00 -0.00000000000E+00 -0.35183279745E+03  0.35183279745E+03  0.00000000000E+00 0. -1.
         23    2    1    2    0    0  0.39298543956E+03 -0.18516361348E+03  0.16792553400E+04  0.17373239650E+04  0.98351121843E+02 0.  0.
         11    1    3    3    0    0  0.11544881797E+03 -0.72377707834E+01  0.42294400086E+03  0.43847741419E+03  0.00000000000E+00 0. -1.
        -11    1    3    3    0    0  0.27753662159E+03 -0.17792584270E+03  0.12563113391E+04  0.12988465508E+04  0.00000000000E+00 0.  1.
         22    1    1    2    0    0 -0.39298543956E+03  0.18516361348E+03 -0.17663677082E+03  0.46896019903E+03  0.00000000000E+00 0. -1.
<mgrwt>
<rscale>  0 0.16154960E+04</rscale>
<asrwt>0</asrwt>
<pdfrwt beam="1">  1        2 0.28530020E+00 0.16154960E+04</pdfrwt>
<pdfrwt beam="2">  1       -2 0.54128124E-01 0.16154960E+04</pdfrwt>
<totfact> 0.24776037E+01</totfact>
</mgrwt>
</event>
<event>
 6    1  0.1878398E-004  0.2766863E+04  0.7818608E-02  0.8313630E-01
         -1   -1    0    0    0  501 -0.00000000000E+00  0.00000000000E+00  0.22671688793E+04  0.22671688793E+04  0.00000000000E+00 0. -1.
          1   -1    0    0  501    0  0.00000000000E+00 -0.00000000000E+00 -0.84417319243E+03  0.84417319243E+03  0.00000000000E+00 0.  1.
         23    2    1    2    0    0 -0.96737823603E+03 -0.98043543193E+03  0.58567670279E+03  0.14994557951E+04  0.90973586786E+02 0.  0.
         11    1    3    3    0    0 -0.67614334729E+03 -0.63371145839E+03  0.41791789403E+03  0.10165704131E+04  0.00000000000E+00 0. -1.
        -11    1    3    3    0    0 -0.29123488874E+03 -0.34672397354E+03  0.16775880876E+03  0.48288538202E+03  0.00000000000E+00 0.  1.
         22    1    1    2    0    0  0.96737823603E+03  0.98043543193E+03  0.83731898408E+03  0.16118862766E+04  0.00000000000E+00 0.  1.
<mgrwt>
<rscale>  0 0.27668633E+04</rscale>
<asrwt>0</asrwt>
<pdfrwt beam="1">  1        1 0.12987280E+00 0.27668633E+04</pdfrwt>
<pdfrwt beam="2">  1       -1 0.34879521E+00 0.27668633E+04</pdfrwt>
<totfact> 0.27829941E-01</totfact>
</mgrwt>
</event>
<event>
 6    1  0.1878398E-004  0.2355294E+04  0.7818608E-02  0.8456433E-01
         -2   -1    0    0    0  501 -0.00000000000E+00  0.00000000000E+00  0.14747406093E+04  0.14747406093E+04  0.00000000000E+00 0. -1.
          2   -1    0    0  501    0  0.00000000000E+00 -0.00000000000E+00 -0.94040406138E+03  0.94040406138E+03  0.00000000000E+00 0.  1.
         23    2    1    2    0    0 -0.26108482227E+03  0.30374002842E+03 -0.86668576994E+03  0.95799442982E+03  0.78649948849E+02 0.  0.
         13    1    3    3    0    0 -0.12050339301E+03  0.14971598173E+03 -0.50736815620E+03  0.54254805210E+03  0.00000000000E+00 0.  1.
        -13    1    3    3    0    0 -0.14058142926E+03  0.15402404669E+03 -0.35931761374E+03  0.41544637771E+03  0.00000000000E+00 0. -1.
         22    1    1    2    0    0  0.26108482227E+03 -0.30374002842E+03  0.14010223179E+04  0.14571502409E+04  0.00000000000E+00 0. -1.
<mgrwt>
<rscale>  0 0.23552937E+04</rscale>
<asrwt>0</asrwt>
<pdfrwt beam="1">  1        2 0.14467755E+00 0.23552937E+04</pdfrwt>
<pdfrwt beam="2">  1       -2 0.22688317E+00 0.23552937E+04</pdfrwt>
<totfact> 0.22231596E+00</totfact>
</mgrwt>
</event>
<event>
 6    1  0.1878398E-004  0.2037775E+04  0.7818608E-02  0.8589161E-01
          2   -1    0    0  501    0  0.00000000000E+00  0.00000000000E+00  0.17230341073E+04  0.17230341073E+04  0.00000000000E+00 0.  1.
         -2   -1    0    0    0  501 -0.00000000000E+00 -0.00000000000E+00 -0.60250196960E+03  0.60250196960E+03  0.00000000000E+00 0. -1.
         23    2    1    2    0    0 -0.53559684691E+03  0.36704989797E+03 -0.33172642728E+03  0.73473610532E+03  0.90582072673E+02 0.  0.
         11    1    3    3    0    0 -0.24561870871E+03  0.15118319575E+03 -0.99644011607E+02  0.30514560097E+03  0.00000000000E+00 0. -1.
        -11    1    3    3    0    0 -0.28997813820E+03  0.21586670223E+03 -0.23208241567E+03  0.42959050435E+03  0.00000000000E+00 0.  1.
         22    1    1    2    0    0  0.53559684691E+03 -0.36704989797E+03  0.14522585650E+04  0.15907999716E+04  0.00000000000E+00 0.  1.
<mgrwt>
<rscale>  0 0.20377747E+04</rscale>
<asrwt>0</asrwt>
<pdfrwt beam="1">  1        2 0.26508217E+00 0.20377747E+04</pdfrwt>
<pdfrwt beam="2">  1       -2 0.92692611E-01 0.20377747E+04</pdfrwt>
<totfact> 0.87047423E+00</totfact>
</mgrwt>
</event>
<event>
 6    1  0.1878398E-004  0.1556641E+04  0.7818608E-02  0.8847637E-01
          2   -1    0    0  501    0  0.00000000000E+00  0.00000000000E+00  0.10931706206E+04  0.10931706206E+04  0.00000000000E+00 0.  1.
         -2   -1    0    0    0  501 -0.00000000000E+00 -0.00000000000E+00 -0.55415176798E+03  0.55415176798E+03  0.00000000000E+00 0. -1.
         23    2    1    2    0    0 -0.57702251804E+03 -0.35351521680E+03  0.67168077542E+03  0.95773759998E+03  0.90433685689E+02 0.  0.
         11    1    3    3    0    0 -0.25714503048E+03 -0.15640996055E+03  0.36242864497E+03  0.47110738176E+03  0.00000000000E+00 0. -1.
        -11    1    3    3    0    0 -0.31987748756E+03 -0.19710525626E+03  0.30925213046E+03  0.48663021822E+03  0.00000000000E+00 0.  1.
         22    1    1    2    0    0  0.57702251804E+03  0.35351521680E+03 -0.13266192285E+03  0.68958478856E+03  0.00000000000E+00 0. -1.
<mgrwt>
<rscale>  0 0.15566405E+04</rscale>
<asrwt>0</asrwt>
<pdfrwt beam="1">  1        2 0.16818010E+00 0.15566405E+04</pdfrwt>
<pdfrwt beam="2">  1       -2 0.85254118E-01 0.15566405E+04</pdfrwt>
<totfact> 0.25334233E+01</totfact>
</mgrwt>
</event>
<event>
 6    1  0.1878398E-004  0.3153324E+04  0.7818608E-02  0.8201254E-01
         -2   -1    0    0    0  501 -0.00000000000E+00  0.00000000000E+00  0.18608856516E+04  0.18608856516E+04  0.00000000000E+00 0. -1.
          2   -1    0    0  501    0  0.00000000000E+00 -0.00000000000E+00 -0.13358493752E+04  0.13358493752E+04  0.00000000000E+00 0.  1.
         23    2    1    2    0    0  0.62068478122E+03  0.84959244765E+03  0.14514102951E+04  0.17948699308E+04  0.88934240225E+02 0.  0.
         13    1    3    3    0    0  0.22832233992E+03  0.25932930316E+03  0.52321969276E+03  0.62701006793E+03  0.00000000000E+00 0. -1.
        -13    1    3    3    0    0  0.39236244130E+03  0.59026314449E+03  0.92819060230E+03  0.11678598629E+04  0.00000000000E+00 0.  1.
         22    1    1    2    0    0 -0.62068478122E+03 -0.84959244765E+03 -0.92637401869E+03  0.14018650960E+04  0.00000000000E+00 0.  1.
<mgrwt>
<rscale>  0 0.31533239E+04</rscale>
<asrwt>0</asrwt>
<pdfrwt beam="1">  1        2 0.20551529E+00 0.31533239E+04</pdfrwt>
<pdfrwt beam="2">  1       -2 0.28629010E+00 0.31533239E+04</pdfrwt>
<totfact> 0.51340922E-01</totfact>
</mgrwt>
</event>
<event>
 6    1  0.1878398E-004  0.8484840E+03  0.7818608E-02  0.9492374E-01
          2   -1    0    0  501    0  0.00000000000E+00  0.00000000000E+00  0.14734134302E+04  0.14734134302E+04  0.00000000000E+00 0.  1.
         -2   -1    0    0    0  501 -0.00000000000E+00 -0.00000000000E+00 -0.12215260085E+03  0.12215260085E+03  0.00000000000E+00 0. -1.
         23    2    1    2    0    0 -0.99859986211E+02 -0.38146454506E+03  0.41568115936E+03  0.58028452582E+03  0.91935241710E+02 0.  0.
         13    1    3    3    0    0 -0.61423904050E+02 -0.95030203271E+02  0.87834782306E+02  0.14324309584E+03  0.00000000000E+00 0. -1.
        -13    1    3    3    0    0 -0.38436082161E+02 -0.28643434179E+03  0.32784637706E+03  0.43704142998E+03  0.00000000000E+00 0.  1.
         22    1    1    2    0    0  0.99859986211E+02  0.38146454506E+03  0.93557966999E+03  0.10152815052E+04  0.00000000000E+00 0.  1.
<mgrwt>
<rscale>  0 0.84848402E+03</rscale>
<asrwt>0</asrwt>
<pdfrwt beam="1">  1        2 0.22667898E+00 0.84848402E+03</pdfrwt>
<pdfrwt beam="2">  1       -2 0.18792709E-01 0.84848402E+03</pdfrwt>
<totfact> 0.31479407E+02</totfact>
</mgrwt>
</event>
<event>
 6    1  0.6210240E-004  0.4620056E+04  0.7818608E-02  0.7889949E-01
         -2   -1    0    0    0  501 -0.00000000000E+00  0.00000000000E+00  0.15055691800E+04  0.15055691800E+04  0.00000000000E+00 0. -1.
          2   -1    0    0  501    0  0.00000000000E+00 -0.00000000000E+00 -0.35443263327E+04  0.35443263327E+04  0.00000000000E+00 0.  1.
         23    2    1    2    0    0 -0.16178009651E+04  0.12348800367E+04 -0.22120648905E+04  0.30072882965E+04  0.91340848079E+02 0.  0.
         13    1    3    3    0    0 -0.11174496264E+04  0.82608649892E+03 -0.14551193267E+04  0.20120846966E+04  0.00000000000E+00 0. -1.
        -13    1    3    3    0    0 -0.50035133867E+03  0.40879353779E+03 -0.75694556386E+03  0.99520359992E+03  0.00000000000E+00 0.  1.
         22    1    1    2    0    0  0.16178009651E+04 -0.12348800367E+04  0.17330773789E+03  0.20426072162E+04  0.00000000000E+00 0. -1.
<mgrwt>
<rscale>  0 0.46200556E+04</rscale>
<asrwt>0</asrwt>
<pdfrwt beam="1">  1        2 0.54528096E+00 0.46200556E+04</pdfrwt>
<pdfrwt beam="2">  1       -2 0.23162603E+00 0.46200556E+04</pdfrwt>
<totfact> 0.47316325E-02</totfact>
</mgrwt>
</event>
<event>
 6    1  0.1878398E-004  0.2967349E+04  0.7818608E-02  0.8253117E-01
         -1   -1    0    0    0  501 -0.00000000000E+00  0.00000000000E+00  0.91487373552E+03  0.91487373552E+03  0.00000000000E+00 0. -1.
          1   -1    0    0  501    0  0.00000000000E+00 -0.00000000000E+00 -0.24061131097E+04  0.24061131097E+04  0.00000000000E+00 0.  1.
         23    2    1    2    0    0 -0.80361850239E+03 -0.70220160762E+03  0.40502312318E+03  0.11450499771E+04  0.90586558850E+02 0.  0.
         13    1    3    3    0    0 -0.64047314944E+03 -0.52905209722E+03  0.28244770306E+03  0.87742730849E+03  0.00000000000E+00 0.  1.
        -13    1    3    3    0    0 -0.16314535295E+03 -0.17314951040E+03  0.12257542012E+03  0.26762266862E+03  0.00000000000E+00 0. -1.
         22    1    1    2    0    0  0.80361850239E+03  0.70220160762E+03 -0.18962624974E+04  0.21759368681E+04  0.00000000000E+00 0.  1.
<mgrwt>
<rscale>  0 0.29673488E+04</rscale>
<asrwt>0</asrwt>
<pdfrwt beam="1">  1        1 0.37017124E+00 0.29673488E+04</pdfrwt>
<pdfrwt beam="2">  1       -1 0.14074981E+00 0.29673488E+04</pdfrwt>
<totfact> 0.55481777E-01</totfact>
</mgrwt>
</event>
<event>
 6    1  0.1878398E-004  0.6074855E+03  0.7818608E-02  0.9889997E-01
         -2   -1    0    0    0  501 -0.00000000000E+00  0.00000000000E+00  0.71963220818E+02  0.71963220818E+02  0.00000000000E+00 0. -1.
          2   -1    0    0  501    0  0.00000000000E+00 -0.00000000000E+00 -0.12820391832E+04  0.12820391832E+04  0.00000000000E+00 0.  1.
         23    2    1    2    0    0 -0.22162326455E+03  0.40373100322E+02 -0.18741542211E+03  0.30682455893E+03  0.90939050442E+02 0.  0.
         11    1    3    3    0    0 -0.18234605024E+03  0.68316162879E+02 -0.15118444756E+03  0.24652366485E+03  0.00000000000E+00 0.  1.
        -11    1    3    3    0    0 -0.39277214311E+02 -0.27943062557E+02 -0.36230974556E+02  0.60300894076E+02  0.00000000000E+00 0. -1.
         22    1    1    2    0    0  0.22162326455E+03 -0.40373100322E+02 -0.10226605402E+04  0.10471778451E+04  0.00000000000E+00 0.  1.
<mgrwt>
<rscale>  0 0.60748554E+03</rscale>
<asrwt>0</asrwt>
<pdfrwt beam="1">  1        2 0.19723679E+00 0.60748554E+03</pdfrwt>
<pdfrwt beam="2">  1       -2 0.11071265E-01 0.60748554E+03</pdfrwt>
<totfact> 0.99748061E+02</totfact>
</mgrwt>
</event>
<event>
 6    1  0.1878398E-004  0.1627014E+04  0.7818608E-02  0.8804122E-01
          1   -1    0    0  501    0  0.00000000000E+00  0.00000000000E+00  0.18010557812E+04  0.18010557812E+04  0.00000000000E+00 0. -1.
         -1   -1    0    0    0  501 -0.00000000000E+00 -0.00000000000E+00 -0.36744768027E+03  0.36744768027E+03  0.00000000000E+00 0.  1.
         23    2    1    2    0    0  0.15501457905E+03 -0.82225199552E+02  0.17743839632E+04  0.17852037205E+04  0.87882715433E+02 0.  0.
         11    1    3    3    0    0  0.13921573200E+03 -0.91827192842E+02  0.13271110217E+04  0.13375488467E+04  0.00000000000E+00 0. -1.
        -11    1    3    3    0    0  0.15798847046E+02  0.96019932899E+01  0.44727294148E+03  0.44765487378E+03  0.00000000000E+00 0.  1.
         22    1    1    2    0    0 -0.15501457905E+03  0.82225199552E+02 -0.34077586224E+03  0.38329974099E+03  0.00000000000E+00 0.  1.
<mgrwt>
<rscale>  0 0.16270142E+04</rscale>
<asrwt>0</asrwt>
<pdfrwt beam="1">  1        1 0.27708550E+00 0.16270142E+04</pdfrwt>
<pdfrwt beam="2">  1       -1 0.56530413E-01 0.16270142E+04</pdfrwt>
<totfact> 0.12333738E+01</totfact>
</mgrwt>
</event>
<event>
 6    1  0.1878398E-004  0.1702130E+04  0.7818608E-02  0.8760150E-01
         -2   -1    0    0    0  501 -0.00000000000E+00  0.00000000000E+00  0.39386305655E+03  0.39386305655E+03  0.00000000000E+00 0. -1.
          2   -1    0    0  501    0  0.00000000000E+00 -0.00000000000E+00 -0.18389938763E+04  0.18389938763E+04  0.00000000000E+00 0.  1.
         23    2    1    2    0    0  0.24235082002E+03 -0.70329446482E+03 -0.12596498089E+04  0.14662017107E+04  0.98350349442E+02 0.  0.
         11    1    3    3    0    0  0.22510488216E+02 -0.13619401170E+03 -0.29689590086E+03  0.32741824453E+03  0.00000000000E+00 0.  1.
        -11    1    3    3    0    0  0.21984033180E+03 -0.56710045312E+03 -0.96275390803E+03  0.11387834662E+04  0.00000000000E+00 0. -1.
         22    1    1    2    0    0 -0.24235082002E+03  0.70329446482E+03 -0.18548101083E+03  0.76665522211E+03  0.00000000000E+00 0. -1.
<mgrwt>
<rscale>  0 0.17021301E+04</rscale>
<asrwt>0</asrwt>
<pdfrwt beam="1">  1        2 0.28292214E+00 0.17021301E+04</pdfrwt>
<pdfrwt beam="2">  1       -2 0.60594316E-01 0.17021301E+04</pdfrwt>
<totfact> 0.19808527E+01</totfact>
</mgrwt>
</event>
<event>
 6    1  0.1878398E-004  0.2671156E+04  0.7818608E-02  0.8344425E-01
         -4   -1    0    0    0  501 -0.00000000000E+00  0.00000000000E+00  0.12823971264E+04  0.12823971264E+04  0.00000000000E+00 0. -1.
          4   -1    0    0  501    0  0.00000000000E+00 -0.00000000000E+00 -0.13909640600E+04  0.13909640600E+04  0.00000000000E+00 0.  1.
         23    2    1    2    0    0  0.27084413893E+03 -0.42540988413E+03  0.11819775173E+04  0.12877800459E+04  0.83525314777E+02 0.  0.
         13    1    3    3    0    0  0.13128674771E+03 -0.27978837486E+03  0.68935610839E+03  0.75546647113E+03  0.00000000000E+00 0. -1.
        -13    1    3    3    0    0  0.13955739122E+03 -0.14562150926E+03  0.49262140888E+03  0.53231357477E+03  0.00000000000E+00 0.  1.
         22    1    1    2    0    0 -0.27084413893E+03  0.42540988413E+03 -0.12905444509E+04  0.13855811405E+04  0.00000000000E+00 0.  1.
<mgrwt>
<rscale>  0 0.26711558E+04</rscale>
<asrwt>0</asrwt>
<pdfrwt beam="1">  1        4 0.21399447E+00 0.26711558E+04</pdfrwt>
<pdfrwt beam="2">  1       -4 0.19729187E+00 0.26711558E+04</pdfrwt>
<totfact> 0.25605290E-02</totfact>
</mgrwt>
</event>
<event>
 6    1  0.1878398E-004  0.2252021E+04  0.7818608E-02  0.8497082E-01
          2   -1    0    0  501    0  0.00000000000E+00  0.00000000000E+00  0.83448113244E+03  0.83448113244E+03  0.00000000000E+00 0.  1.
         -2   -1    0    0    0  501 -0.00000000000E+00 -0.00000000000E+00 -0.15193867762E+04  0.15193867762E+04  0.00000000000E+00 0. -1.
         23    2    1    2    0    0  0.14058157049E+03  0.28555880123E+03  0.78390528243E+03  0.85096653336E+03  0.91266325380E+02 0.  0.
         13    1    3    3    0    0  0.34440839220E+02  0.10793660030E+03  0.18093750314E+03  0.21348269516E+03  0.00000000000E+00 0.  1.
        -13    1    3    3    0    0  0.10614073127E+03  0.17762220093E+03  0.60296777929E+03  0.63748383820E+03  0.00000000000E+00 0. -1.
         22    1    1    2    0    0 -0.14058157049E+03 -0.28555880123E+03 -0.14688109262E+04  0.15029013753E+04  0.00000000000E+00 0. -1.
<mgrwt>
<rscale>  0 0.22520210E+04</rscale>
<asrwt>0</asrwt>
<pdfrwt beam="1">  1        2 0.12838171E+00 0.22520210E+04</pdfrwt>
<pdfrwt beam="2">  1       -2 0.23375181E+00 0.22520210E+04</pdfrwt>
<totfact> 0.23988211E+00</totfact>
</mgrwt>
</event>
<event>
 6    1  0.1878398E-004  0.1384897E+04  0.7818608E-02  0.8964824E-01
          2   -1    0    0  501    0  0.00000000000E+00  0.00000000000E+00  0.31773070320E+04  0.31773070320E+04  0.00000000000E+00 0.  1.
         -2   -1    0    0    0  501 -0.00000000000E+00 -0.00000000000E+00 -0.15090925406E+03  0.15090925406E+03  0.00000000000E+00 0. -1.
         23    2    1    2    0    0 -0.60916549791E+03 -0.15999172089E+03  0.84135530249E+03  0.10542130816E+04  0.82501646668E+02 0.  0.
         13    1    3    3    0    0 -0.15267108365E+03 -0.77021021543E+02  0.23939743596E+03  0.29419692365E+03  0.00000000000E+00 0. -1.
        -13    1    3    3    0    0 -0.45649441426E+03 -0.82970699344E+02  0.60195786653E+03  0.76001615791E+03  0.00000000000E+00 0.  1.
         22    1    1    2    0    0  0.60916549791E+03  0.15999172089E+03  0.21850424754E+04  0.22740032045E+04  0.00000000000E+00 0.  1.
<mgrwt>
<rscale>  0 0.13848972E+04</rscale>
<asrwt>0</asrwt>
<pdfrwt beam="1">  1        2 0.48881642E+00 0.13848972E+04</pdfrwt>
<pdfrwt beam="2">  1       -2 0.23216811E-01 0.13848972E+04</pdfrwt>
<totfact> 0.21696458E+01</totfact>
</mgrwt>
</event>
<event>
 6    1  0.1878398E-004  0.2748290E+04  0.7818608E-02  0.8319504E-01
         -2   -1    0    0    0  501 -0.00000000000E+00  0.00000000000E+00  0.58828493648E+03  0.58828493648E+03  0.00000000000E+00 0. -1.
          2   -1    0    0  501    0  0.00000000000E+00 -0.00000000000E+00 -0.32097963089E+04  0.32097963089E+04  0.00000000000E+00 0.  1.
         23    2    1    2    0    0 -0.99641313779E+03 -0.40074757233E+03 -0.13169145444E+03  0.10865058764E+04  0.98562783643E+02 0.  0.
         13    1    3    3    0    0 -0.25454955101E+03 -0.13759196396E+03 -0.62871539244E+01  0.28942451653E+03  0.00000000000E+00 0. -1.
        -13    1    3    3    0    0 -0.74186358679E+03 -0.26315560837E+03 -0.12540430052E+03  0.79708135984E+03  0.00000000000E+00 0.  1.
         22    1    1    2    0    0  0.99641313779E+03  0.40074757233E+03 -0.24898199179E+04  0.27115753690E+04  0.00000000000E+00 0.  1.
<mgrwt>
<rscale>  0 0.27482902E+04</rscale>
<asrwt>0</asrwt>
<pdfrwt beam="1">  1        2 0.49381482E+00 0.27482902E+04</pdfrwt>
<pdfrwt beam="2">  1       -2 0.90505374E-01 0.27482902E+04</pdfrwt>
<totfact> 0.11645288E+00</totfact>
</mgrwt>
</event>
<event>
 6    1  0.1878398E-004  0.7681594E+03  0.7818608E-02  0.9607284E-01
         -2   -1    0    0    0  501 -0.00000000000E+00  0.00000000000E+00  0.25556827149E+03  0.25556827149E+03  0.00000000000E+00 0. -1.
          2   -1    0    0  501    0  0.00000000000E+00 -0.00000000000E+00 -0.57721258234E+03  0.57721258234E+03  0.00000000000E+00 0.  1.
         23    2    1    2    0    0 -0.19413474362E+03 -0.20624877951E+03  0.10867894822E+03  0.31760616013E+03  0.93998411864E+02 0.  0.
         11    1    3    3    0    0 -0.19272542569E+02 -0.92096017244E+00  0.31748888455E+02  0.37151998369E+02  0.00000000000E+00 0.  1.
        -11    1    3    3    0    0 -0.17486220105E+03 -0.20532781934E+03  0.76930059769E+02  0.28045416176E+03  0.00000000000E+00 0. -1.
         22    1    1    2    0    0  0.19413474362E+03  0.20624877951E+03 -0.43032325908E+03  0.51517469370E+03  0.00000000000E+00 0.  1.
<mgrwt>
<rscale>  0 0.76815942E+03</rscale>
<asrwt>0</asrwt>
<pdfrwt beam="1">  1        2 0.88801936E-01 0.76815942E+03</pdfrwt>
<pdfrwt beam="2">  1       -2 0.39318196E-01 0.76815942E+03</pdfrwt>
<totfact> 0.31999153E+02</totfact>
</mgrwt>
</event>
<event>
 6    1  0.1878398E-004  0.1581440E+04  0.7818608E-02  0.8832032E-01
          2   -1    0    0  501    0  0.00000000000E+00  0.00000000000E+00  0.21748579309E+04  0.21748579309E+04  0.00000000000E+00 0.  1.
         -2   -1    0    0    0  501 -0.00000000000E+00 -0.00000000000E+00 -0.28748440958E+03  0.28748440958E+03  0.00000000000E+00 0. -1.
         23    2    1    2    0    0  0.75686340674E+03 -0.20829423594E+03  0.10522416898E+04  0.13161862075E+04  0.94365532846E+02 0.  0.
         11    1    3    3    0    0  0.49818456777E+03 -0.13552978963E+03  0.76423727686E+03  0.92228780908E+03  0.00000000000E+00 0.  1.
        -11    1    3    3    0    0  0.25867883898E+03 -0.72764446314E+02  0.28800441295E+03  0.39389839840E+03  0.00000000000E+00 0. -1.
         22    1    1    2    0    0 -0.75686340674E+03  0.20829423594E+03  0.83513183148E+03  0.11461561330E+04  0.00000000000E+00 0. -1.
<mgrwt>
<rscale>  0 0.15814395E+04</rscale>
<asrwt>0</asrwt>
<pdfrwt beam="1">  1        2 0.33459352E+00 0.15814395E+04</pdfrwt>
<pdfrwt beam="2">  1       -2 0.44228372E-01 0.15814395E+04</pdfrwt>
<totfact> 0.24853870E+01</totfact>
</mgrwt>
</event>
<event>
 6    1  0.1878398E-004  0.1681552E+04  0.7818608E-02  0.8771957E-01
         -3   -1    0    0    0  501 -0.00000000000E+00  0.00000000000E+00  0.14856155584E+04  0.14856155584E+04  0.00000000000E+00 0. -1.
          3   -1    0    0  501    0  0.00000000000E+00 -0.00000000000E+00 -0.47583248351E+03  0.47583248351E+03  0.00000000000E+00 0.  1.
         23    2    1    2    0    0 -0.50702920104E+03 -0.16841778749E+03 -0.24726733057E+03  0.59557144290E+03  0.90116862894E+02 0.  0.
         13    1    3    3    0    0 -0.94341190074E+02 -0.36160969114E+02 -0.87627200672E+02  0.13374005432E+03  0.00000000000E+00 0.  1.
        -13    1    3    3    0    0 -0.41268801097E+03 -0.13225681838E+03 -0.15964012990E+03  0.46183138858E+03  0.00000000000E+00 0. -1.
         22    1    1    2    0    0  0.50702920104E+03  0.16841778749E+03  0.12570504055E+04  0.13658765990E+04  0.00000000000E+00 0. -1.
<mgrwt>
<rscale>  0 0.16815518E+04</rscale>
<asrwt>0</asrwt>
<pdfrwt beam="1">  1        3 0.73204998E-01 0.16815518E+04</pdfrwt>
<pdfrwt beam="2">  1       -3 0.22855624E+00 0.16815518E+04</pdfrwt>
<totfact> 0.43192334E-01</totfact>
</mgrwt>
</event>
<event>
 6    1  0.1878398E-004  0.8413107E+03  0.7818608E-02  0.9502074E-01
         -2   -1    0    0    0  501 -0.00000000000E+00  0.00000000000E+00  0.14239465209E+03  0.14239465209E+03  0.00000000000E+00 0. -1.
          2   -1    0    0  501    0  0.00000000000E+00 -0.00000000000E+00 -0.12426796571E+04  0.12426796571E+04  0.00000000000E+00 0.  1.
         23    2    1    2    0    0 -0.24520615559E+03  0.28435723956E+03 -0.85056018060E+03  0.93413352997E+03  0.90375508608E+02 0.  0.
         13    1    3    3    0    0 -0.15899419174E+03  0.21109914734E+03 -0.49673194489E+03  0.56265853596E+03  0.00000000000E+00 0. -1.
        -13    1    3    3    0    0 -0.86211963856E+02  0.73258092221E+02 -0.35382823572E+03  0.37147499401E+03  0.00000000000E+00 0.  1.
         22    1    1    2    0    0  0.24520615559E+03 -0.28435723956E+03 -0.24972482439E+03  0.45094077920E+03  0.00000000000E+00 0. -1.
<mgrwt>
<rscale>  0 0.84131073E+03</rscale>
<asrwt>0</asrwt>
<pdfrwt beam="1">  1        2 0.19118149E+00 0.84131073E+03</pdfrwt>
<pdfrwt beam="2">  1       -2 0.21906869E-01 0.84131073E+03</pdfrwt>
<totfact> 0.32608326E+02</totfact>
</mgrwt>
</event>
<event>
 6    1  0.1878398E-004  0.1099178E+04  0.7818608E-02  0.9205993E-01
         -1   -1    0    0    0  501 -0.00000000000E+00  0.00000000000E+00  0.61401733836E+03  0.61401733836E+03  0.00000000000E+00 0. -1.
          1   -1    0    0  501    0  0.00000000000E+00 -0.00000000000E+00 -0.49192132929E+03  0.49192132929E+03  0.00000000000E+00 0.  1.
         23    2    1    2    0    0 -0.13325053651E+03 -0.45177179623E+03  0.33909129494E+03  0.58734401337E+03  0.90203228285E+02 0.  0.
         11    1    3    3    0    0 -0.12994994926E+02 -0.18827993471E+03  0.11359308607E+03  0.22027617417E+03  0.00000000000E+00 0. -1.
        -11    1    3    3    0    0 -0.12025554158E+03 -0.26349186152E+03  0.22549820888E+03  0.36706783920E+03  0.00000000000E+00 0.  1.
         22    1    1    2    0    0  0.13325053651E+03  0.45177179623E+03 -0.21699528587E+03  0.51859465427E+03  0.00000000000E+00 0.  1.
<mgrwt>
<rscale>  0 0.10991783E+04</rscale>
<asrwt>0</asrwt>
<pdfrwt beam="1">  1        1 0.75680205E-01 0.10991783E+04</pdfrwt>
<pdfrwt beam="2">  1       -1 0.94464206E-01 0.10991783E+04</pdfrwt>
<totfact> 0.49018403E+01</totfact>
</mgrwt>
</event>
<event>
 6    1  0.1878398E-004  0.5951452E+03  0.7818608E-02  0.9915530E-01
         -1   -1    0    0    0  501 -0.00000000000E+00  0.00000000000E+00  0.11671522537E+03  0.11671522537E+03  0.00000000000E+00 0. -1.
          1   -1    0    0  501    0  0.00000000000E+00 -0.00000000000E+00 -0.75867953085E+03  0.75867953085E+03  0.00000000000E+00 0.  1.
         23    2    1    2    0    0  0.19609553896E+03 -0.20208763092E+03 -0.43733846770E+03  0.52730769174E+03  0.86577107052E+02 0.  0.
         13    1    3    3    0    0  0.12200262686E+03 -0.99309315839E+02 -0.31023777096E+03  0.34784257316E+03  0.00000000000E+00 0.  1.
        -13    1    3    3    0    0  0.74092912097E+02 -0.10277831508E+03 -0.12710069674E+03  0.17946511858E+03  0.00000000000E+00 0. -1.
         22    1    1    2    0    0 -0.19609553896E+03  0.20208763092E+03 -0.20462583778E+03  0.34808706448E+03  0.00000000000E+00 0. -1.
<mgrwt>
<rscale>  0 0.59514520E+03</rscale>
<asrwt>0</asrwt>
<pdfrwt beam="1">  1        1 0.11671993E+00 0.59514520E+03</pdfrwt>
<pdfrwt beam="2">  1       -1 0.17956189E-01 0.59514520E+03</pdfrwt>
<totfact> 0.59502607E+02</totfact>
</mgrwt>
</event>
<event>
 6    1  0.1878398E-004  0.1353777E+04  0.7818608E-02  0.8987974E-01
          2   -1    0    0  501    0  0.00000000000E+00  0.00000000000E+00  0.20701172118E+04  0.20701172118E+04  0.00000000000E+00 0.  1.
         -2   -1    0    0    0  501 -0.00000000000E+00 -0.00000000000E+00 -0.22132943562E+03  0.22132943562E+03  0.00000000000E+00 0. -1.
         23    2    1    2    0    0  0.63188600190E+03 -0.20774031318E+03  0.74664581638E+03  0.10041421548E+04  0.91572566012E+02 0.  0.
         13    1    3    3    0    0  0.10402029334E+03 -0.32399334383E+02  0.17795521978E+03  0.20865761080E+03  0.00000000000E+00 0.  1.
        -13    1    3    3    0    0  0.52786570856E+03 -0.17534097879E+03  0.56869059660E+03  0.79548454402E+03  0.00000000000E+00 0. -1.
         22    1    1    2    0    0 -0.63188600190E+03  0.20774031318E+03  0.11021419598E+04  0.12873044926E+04  0.00000000000E+00 0.  1.
<mgrwt>
<rscale>  0 0.13537768E+04</rscale>
<asrwt>0</asrwt>
<pdfrwt beam="1">  1        2 0.31847956E+00 0.13537768E+04</pdfrwt>
<pdfrwt beam="2">  1       -2 0.34050684E-01 0.13537768E+04</pdfrwt>
<totfact> 0.48195662E+01</totfact>
</mgrwt>
</event>
<event>
 6    1  0.1878398E-004  0.3215460E+04  0.7818608E-02  0.8184746E-01
          2   -1    0    0  501    0  0.00000000000E+00  0.00000000000E+00  0.14731706789E+04  0.14731706789E+04  0.00000000000E+00 0.  1.
         -2   -1    0    0    0  501 -0.00000000000E+00 -0.00000000000E+00 -0.17545794201E+04  0.17545794201E+04  0.00000000000E+00 0. -1.
         23    2    1    2    0    0 -0.87348224111E+03  0.68260962619E+03  0.10262108760E+04  0.15134583531E+04  0.92305456059E+02 0.  0.
         11    1    3    3    0    0 -0.32745834602E+03  0.31149513538E+03  0.43294618874E+03  0.62585988056E+03  0.00000000000E+00 0. -1.
        -11    1    3    3    0    0 -0.54602389509E+03  0.37111449081E+03  0.59326468722E+03  0.88759847251E+03  0.00000000000E+00 0.  1.
         22    1    1    2    0    0  0.87348224111E+03 -0.68260962619E+03 -0.13076196171E+04  0.17142917460E+04  0.00000000000E+00 0. -1.
<mgrwt>
<rscale>  0 0.32154595E+04</rscale>
<asrwt>0</asrwt>
<pdfrwt beam="1">  1        2 0.22664164E+00 0.32154595E+04</pdfrwt>
<pdfrwt beam="2">  1       -2 0.26993530E+00 0.32154595E+04</pdfrwt>
<totfact> 0.53629866E-01</totfact>
</mgrwt>
</event>
<event>
 6    1  0.1878398E-004  0.3666334E+04  0.7818608E-02  0.8075464E-01
         -1   -1    0    0    0  501 -0.00000000000E+00  0.00000000000E+00  0.77919255940E+03  0.77919255940E+03  0.00000000000E+00 0. -1.
          1   -1    0    0  501    0  0.00000000000E+00 -0.00000000000E+00 -0.43127996404E+04  0.43127996404E+04  0.00000000000E+00 0.  1.
         23    2    1    2    0    0 -0.62313927937E+03 -0.12693584735E+04 -0.15034624265E+03  0.14251096825E+04  0.93595505417E+02 0.  0.
         13    1    3    3    0    0 -0.44311473905E+03 -0.81346197257E+03 -0.11933122237E+03  0.93397590623E+03  0.00000000000E+00 0. -1.
        -13    1    3    3    0    0 -0.18002454032E+03 -0.45589650092E+03 -0.31015020276E+02  0.49113377622E+03  0.00000000000E+00 0.  1.
         22    1    1    2    0    0  0.62313927937E+03  0.12693584735E+04 -0.33832608383E+04  0.36668825173E+04  0.00000000000E+00 0.  1.
<mgrwt>
<rscale>  0 0.36663341E+04</rscale>
<asrwt>0</asrwt>
<pdfrwt beam="1">  1        1 0.66350763E+00 0.36663341E+04</pdfrwt>
<pdfrwt beam="2">  1       -1 0.11987578E+00 0.36663341E+04</pdfrwt>
<totfact> 0.24601508E-02</totfact>
</mgrwt>
</event>
<event>
 6    1  0.1878398E-004  0.2808896E+04  0.7818608E-02  0.8300512E-01
         -1   -1    0    0    0  501 -0.00000000000E+00  0.00000000000E+00  0.12457862733E+04  0.12457862733E+04  0.00000000000E+00 0. -1.
          1   -1    0    0  501    0  0.00000000000E+00 -0.00000000000E+00 -0.15833165187E+04  0.15833165187E+04  0.00000000000E+00 0.  1.
         23    2    1    2    0    0  0.10076671740E+04 -0.99338616337E+02  0.80915551043E+03  0.12993480676E+04  0.91167244607E+02 0.  0.
         11    1    3    3    0    0  0.86338744663E+03 -0.63193296684E+02  0.65890149942E+03  0.10879257611E+04  0.00000000000E+00 0.  1.
        -11    1    3    3    0    0  0.14427972739E+03 -0.36145319654E+02  0.15025401101E+03  0.21142230651E+03  0.00000000000E+00 0. -1.
         22    1    1    2    0    0 -0.10076671740E+04  0.99338616337E+02 -0.11466857558E+04  0.15297547244E+04  0.00000000000E+00 0.  1.
<mgrwt>
<rscale>  0 0.28088959E+04</rscale>
<asrwt>0</asrwt>
<pdfrwt beam="1">  1        1 0.24358716E+00 0.28088959E+04</pdfrwt>
<pdfrwt beam="2">  1       -1 0.19165943E+00 0.28088959E+04</pdfrwt>
<totfact> 0.85268202E-01</totfact>
</mgrwt>
</event>
<event>
 6    1  0.1878398E-004  0.9103308E+03  0.7818608E-02  0.9412759E-01
         -2   -1    0    0    0  501 -0.00000000000E+00  0.00000000000E+00  0.90548916411E+02  0.90548916411E+02  0.00000000000E+00 0. -1.
          2   -1    0    0  501    0  0.00000000000E+00 -0.00000000000E+00 -0.22879957731E+04  0.22879957731E+04  0.00000000000E+00 0.  1.
         23    2    1    2    0    0 -0.15003055828E+03 -0.11954461717E+03 -0.21749840892E+04  0.21854005468E+04  0.92842220721E+02 0.  0.
         13    1    3    3    0    0 -0.13833877317E+03 -0.76244745035E+02 -0.13521669012E+04  0.13613618938E+04  0.00000000000E+00 0. -1.
        -13    1    3    3    0    0 -0.11691785109E+02 -0.43299872133E+02 -0.82281718804E+03  0.82403865304E+03  0.00000000000E+00 0.  1.
         22    1    1    2    0    0  0.15003055828E+03  0.11954461717E+03 -0.22462767452E+02  0.19314414263E+03  0.00000000000E+00 0. -1.
<mgrwt>
<rscale>  0 0.91033079E+03</rscale>
<asrwt>0</asrwt>
<pdfrwt beam="1">  1        2 0.35199937E+00 0.91033079E+03</pdfrwt>
<pdfrwt beam="2">  1       -2 0.13930602E-01 0.91033079E+03</pdfrwt>
<totfact> 0.18587345E+02</totfact>
</mgrwt>
</event>
<event>
 6    1  0.1878398E-004  0.3546487E+04  0.7818608E-02  0.8102861E-01
         -2   -1    0    0    0  501 -0.00000000000E+00  0.00000000000E+00  0.12582840050E+04  0.12582840050E+04  0.00000000000E+00 0. -1.
          2   -1    0    0  501    0  0.00000000000E+00 -0.00000000000E+00 -0.24989532185E+04  0.24989532185E+04  0.00000000000E+00 0.  1.
         23    2    1    2    0    0 -0.41944483357E+03  0.39852695269E+03 -0.23952247813E+04  0.24658208462E+04  0.91722364251E+02 0.  0.
         13    1    3    3    0    0 -0.17456672592E+03  0.12797413239E+03 -0.74982444246E+03  0.78044065429E+03  0.00000000000E+00 0. -1.
        -13    1    3    3    0    0 -0.24487810766E+03  0.27055282030E+03 -0.16454003389E+04  0.16853801919E+04  0.00000000000E+00 0.  1.
         22    1    1    2    0    0  0.41944483357E+03 -0.39852695269E+03  0.11545555678E+04  0.12914163773E+04  0.00000000000E+00 0. -1.
<mgrwt>
<rscale>  0 0.35464872E+04</rscale>
<asrwt>0</asrwt>
<pdfrwt beam="1">  1        2 0.38445434E+00 0.35464872E+04</pdfrwt>
<pdfrwt beam="2">  1       -2 0.19358215E+00 0.35464872E+04</pdfrwt>
<totfact> 0.41851151E-01</totfact>
</mgrwt>
</event>
<event>
 6    1  0.1878398E-004  0.2194007E+04  0.7818608E-02  0.8520927E-01
         -2   -1    0    0    0  501 -0.00000000000E+00  0.00000000000E+00  0.10068307488E+04  0.10068307488E+04  0.00000000000E+00 0. -1.
          2   -1    0    0  501    0  0.00000000000E+00 -0.00000000000E+00 -0.11952518526E+04  0.11952518526E+04  0.00000000000E+00 0.  1.
         23    2    1    2    0    0 -0.70657744727E+03 -0.53082976733E+03  0.55426688430E+03  0.10476921222E+04  0.97031299290E+02 0.  0.
         11    1    3    3    0    0 -0.46421211013E+03 -0.30071422760E+03  0.37718015218E+03  0.66946754744E+03  0.00000000000E+00 0. -1.
        -11    1    3    3    0    0 -0.24236533714E+03 -0.23011553973E+03  0.17708673212E+03  0.37822457478E+03  0.00000000000E+00 0.  1.
         22    1    1    2    0    0  0.70657744727E+03  0.53082976733E+03 -0.74268798810E+03  0.11543904792E+04  0.00000000000E+00 0.  1.
<mgrwt>
<rscale>  0 0.21940067E+04</rscale>
<asrwt>0</asrwt>
<pdfrwt beam="1">  1        2 0.18388490E+00 0.21940067E+04</pdfrwt>
<pdfrwt beam="2">  1       -2 0.15489704E+00 0.21940067E+04</pdfrwt>
<totfact> 0.47951868E+00</totfact>
</mgrwt>
</event>
<event>
 6    1  0.1878398E-004  0.1748019E+04  0.7818608E-02  0.8734441E-01
         -2   -1    0    0    0  501 -0.00000000000E+00  0.00000000000E+00  0.70182199657E+03  0.70182199657E+03  0.00000000000E+00 0. -1.
          2   -1    0    0  501    0  0.00000000000E+00 -0.00000000000E+00 -0.10884427057E+04  0.10884427057E+04  0.00000000000E+00 0.  1.
         23    2    1    2    0    0  0.33294900418E+03  0.67893520147E+03  0.25037643637E+03  0.80154158099E+03  0.89288851463E+02 0.  0.
         11    1    3    3    0    0  0.84572401981E+02  0.10347742949E+03  0.60022130925E+02  0.14650162385E+03  0.00000000000E+00 0.  1.
        -11    1    3    3    0    0  0.24837660220E+03  0.57545777197E+03  0.19035430544E+03  0.65503995714E+03  0.00000000000E+00 0. -1.
         22    1    1    2    0    0 -0.33294900418E+03 -0.67893520147E+03 -0.63699714547E+03  0.98872312126E+03  0.00000000000E+00 0.  1.
<mgrwt>
<rscale>  0 0.17480195E+04</rscale>
<asrwt>0</asrwt>
<pdfrwt beam="1">  1        2 0.16745272E+00 0.17480195E+04</pdfrwt>
<pdfrwt beam="2">  1       -2 0.10797262E+00 0.17480195E+04</pdfrwt>
<totfact> 0.14432092E+01</totfact>
</mgrwt>
</event>
<event>
 6    1  0.1878398E-004  0.1487775E+04  0.7818608E-02  0.8892623E-01
         -2   -1    0    0    0  501 -0.00000000000E+00  0.00000000000E+00  0.58918428877E+03  0.58918428877E+03  0.00000000000E+00 0. -1.
          2   -1    0    0  501    0  0.00000000000E+00 -0.00000000000E+00 -0.93921204686E+03  0.93921204686E+03  0.00000000000E+00 0.  1.
         23    2    1    2    0    0  0.30569928853E+03 -0.34854333391E+03  0.41957705619E+03  0.62993872352E+03  0.76441995587E+02 0.  0.
         11    1    3    3    0    0  0.39991777571E+02 -0.17055069842E+02  0.25110893880E+02  0.50207316918E+02  0.00000000000E+00 0. -1.
        -11    1    3    3    0    0  0.26570751096E+03 -0.33148826407E+03  0.39446616231E+03  0.57973140660E+03  0.00000000000E+00 0.  1.
         22    1    1    2    0    0 -0.30569928853E+03  0.34854333391E+03 -0.76960481427E+03  0.89845761211E+03  0.00000000000E+00 0.  1.
<mgrwt>
<rscale>  0 0.14877755E+04</rscale>
<asrwt>0</asrwt>
<pdfrwt beam="1">  1        2 0.14449416E+00 0.14877755E+04</pdfrwt>
<pdfrwt beam="2">  1       -2 0.90643738E-01 0.14877755E+04</pdfrwt>
<totfact> 0.27753506E+01</totfact>
</mgrwt>
</event>
<event>
 6    1  0.1878398E-004  0.8992954E+03  0.7818608E-02  0.9426463E-01
          2   -1    0    0  501    0  0.00000000000E+00  0.00000000000E+00  0.17067720940E+04  0.17067720940E+04  0.00000000000E+00 0.  1.
         -2   -1    0    0    0  501 -0.00000000000E+00 -0.00000000000E+00 -0.11845931028E+03  0.11845931028E+03  0.00000000000E+00 0. -1.
         23    2    1    2    0    0  0.99337642848E+01 -0.16289445230E+03  0.16426411863E+04  0.16532289113E+04  0.90898206972E+02 0.  0.
         13    1    3    3    0    0 -0.38521774510E+02 -0.68384618346E+02  0.82329456099E+03  0.82702739816E+03  0.00000000000E+00 0. -1.
        -13    1    3    3    0    0  0.48455538795E+02 -0.94509833954E+02  0.81934662527E+03  0.82620151313E+03  0.00000000000E+00 0.  1.
         22    1    1    2    0    0 -0.99337642848E+01  0.16289445230E+03 -0.54328402565E+02  0.17200249297E+03  0.00000000000E+00 0. -1.
<mgrwt>
<rscale>  0 0.89929538E+03</rscale>
<asrwt>0</asrwt>
<pdfrwt beam="1">  1        2 0.26258030E+00 0.89929538E+03</pdfrwt>
<pdfrwt beam="2">  1       -2 0.18224511E-01 0.89929538E+03</pdfrwt>
<totfact> 0.24567173E+02</totfact>
</mgrwt>
</event>
<event>
 6    1  0.1878398E-004  0.1634618E+04  0.7818608E-02  0.8799559E-01
          2   -1    0    0  501    0  0.00000000000E+00  0.00000000000E+00  0.20435819965E+04  0.20435819965E+04  0.00000000000E+00 0.  1.
         -2   -1    0    0    0  501 -0.00000000000E+00 -0.00000000000E+00 -0.32687407576E+03  0.32687407576E+03  0.00000000000E+00 0. -1.
         23    2    1    2    0    0  0.24834099355E+03 -0.77572710422E+03  0.83561484988E+03  0.11705599148E+04  0.92371788865E+02 0.  0.
         11    1    3    3    0    0  0.13358303957E+03 -0.32975217175E+03  0.41782338968E+03  0.54877801359E+03  0.00000000000E+00 0.  1.
        -11    1    3    3    0    0  0.11475795398E+03 -0.44597493248E+03  0.41779146020E+03  0.62178190116E+03  0.00000000000E+00 0. -1.
         22    1    1    2    0    0 -0.24834099355E+03  0.77572710422E+03  0.88109307083E+03  0.11998961575E+04  0.00000000000E+00 0.  1.
<mgrwt>
<rscale>  0 0.16346180E+04</rscale>
<asrwt>0</asrwt>
<pdfrwt beam="1">  1        2 0.31439722E+00 0.16346180E+04</pdfrwt>
<pdfrwt beam="2">  1       -2 0.50288320E-01 0.16346180E+04</pdfrwt>
<totfact> 0.22604892E+01</totfact>
</mgrwt>
</event>
<event>
 6    1  0.1878398E-004  0.9084278E+03  0.7818608E-02  0.9415107E-01
          2   -1    0    0  501    0  0.00000000000E+00  0.00000000000E+00  0.15863584669E+03  0.15863584669E+03  0.00000000000E+00 0.  1.
         -2   -1    0    0    0  501 -0.00000000000E+00 -0.00000000000E+00 -0.13005273062E+04  0.13005273062E+04  0.00000000000E+00 0. -1.
         23    2    1    2    0    0 -0.18817001330E+03  0.73898489913E+02 -0.12218337239E+04  0.12417701762E+04  0.90810686981E+02 0.  0.
         11    1    3    3    0    0 -0.98434621741E+02  0.86351986295E+02 -0.73869438059E+03  0.75021025600E+03  0.00000000000E+00 0. -1.
        -11    1    3    3    0    0 -0.89735391562E+02 -0.12453496381E+02 -0.48313934331E+03  0.49155992018E+03  0.00000000000E+00 0.  1.
         22    1    1    2    0    0  0.18817001330E+03 -0.73898489913E+02  0.79942264342E+02  0.21739297676E+03  0.00000000000E+00 0.  1.
<mgrwt>
<rscale>  0 0.90842776E+03</rscale>
<asrwt>0</asrwt>
<pdfrwt beam="1">  1        2 0.24405515E-01 0.90842776E+03</pdfrwt>
<pdfrwt beam="2">  1       -2 0.20008112E+00 0.90842776E+03</pdfrwt>
<totfact> 0.30123322E+01</totfact>
</mgrwt>
</event>
<event>
 6    1  0.1878398E-004  0.3472826E+04  0.7818608E-02  0.8120260E-01
         -2   -1    0    0    0  501 -0.00000000000E+00  0.00000000000E+00  0.14000771723E+04  0.14000771723E+04  0.00000000000E+00 0. -1.
          2   -1    0    0  501    0  0.00000000000E+00 -0.00000000000E+00 -0.21535458180E+04  0.21535458180E+04  0.00000000000E+00 0.  1.
         23    2    1    2    0    0 -0.90028030870E+03  0.10445448328E+04  0.70080310284E+03  0.15495060126E+04  0.90913981316E+02 0.  0.
         11    1    3    3    0    0 -0.11062277367E+03  0.17814514871E+03  0.10816791976E+03  0.23595209456E+03  0.00000000000E+00 0. -1.
        -11    1    3    3    0    0 -0.78965753503E+03  0.86639968412E+03  0.59263518308E+03  0.13135539180E+04  0.00000000000E+00 0.  1.
         22    1    1    2    0    0  0.90028030870E+03 -0.10445448328E+04 -0.14542717485E+04  0.20041169777E+04  0.00000000000E+00 0.  1.
<mgrwt>
<rscale>  0 0.34728261E+04</rscale>
<asrwt>0</asrwt>
<pdfrwt beam="1">  1        2 0.33131474E+00 0.34728261E+04</pdfrwt>
<pdfrwt beam="2">  1       -2 0.21539649E+00 0.34728261E+04</pdfrwt>
<totfact> 0.47751477E-01</totfact>
</mgrwt>
</event>
<event>
 6    1  0.1878398E-004  0.2922467E+04  0.7818608E-02  0.8266224E-01
         -2   -1    0    0    0  501 -0.00000000000E+00  0.00000000000E+00  0.12028531363E+04  0.12028531363E+04  0.00000000000E+00 0. -1.
          2   -1    0    0  501    0  0.00000000000E+00 -0.00000000000E+00 -0.17751159141E+04  0.17751159141E+04  0.00000000000E+00 0.  1.
         23    2    1    2    0    0 -0.29117900392E+03  0.14181905575E+04 -0.97149245526E+02  0.14542293947E+04  0.96413106048E+02 0.  0.
         11    1    3    3    0    0 -0.12010184189E+03  0.60421784959E+03 -0.88988407793E+02  0.62243280674E+03  0.00000000000E+00 0. -1.
        -11    1    3    3    0    0 -0.17107716203E+03  0.81397270788E+03 -0.81608377324E+01  0.83179658800E+03  0.00000000000E+00 0.  1.
         22    1    1    2    0    0  0.29117900392E+03 -0.14181905575E+04 -0.47511353227E+03  0.15237396556E+04  0.00000000000E+00 0. -1.
<mgrwt>
<rscale>  0 0.29224673E+04</rscale>
<asrwt>0</asrwt>
<pdfrwt beam="1">  1        2 0.27309476E+00 0.29224673E+04</pdfrwt>
<pdfrwt beam="2">  1       -2 0.18505433E+00 0.29224673E+04</pdfrwt>
<totfact> 0.12848388E+00</totfact>
</mgrwt>
</event>
<event>
 6    1  0.1878398E-004  0.2103648E+04  0.7818608E-02  0.8559638E-01
          2   -1    0    0  501    0  0.00000000000E+00  0.00000000000E+00  0.17642171096E+04  0.17642171096E+04  0.00000000000E+00 0.  1.
         -2   -1    0    0    0  501 -0.00000000000E+00 -0.00000000000E+00 -0.62709641550E+03  0.62709641550E+03  0.00000000000E+00 0. -1.
         23    2    1    2    0    0 -0.64452006940E+03  0.59723191422E+02 -0.36965509786E+03  0.75139088464E+03  0.94712146440E+02 0.  0.
         13    1    3    3    0    0 -0.45508072611E+03  0.13216328770E+02 -0.29519198828E+03  0.54259694855E+03  0.00000000000E+00 0. -1.
        -13    1    3    3    0    0 -0.18943934329E+03  0.46506862652E+02 -0.74463109579E+02  0.20879393609E+03  0.00000000000E+00 0.  1.
         22    1    1    2    0    0  0.64452006940E+03 -0.59723191422E+02  0.15067757920E+04  0.16399226405E+04  0.00000000000E+00 0.  1.
<mgrwt>
<rscale>  0 0.21036485E+04</rscale>
<asrwt>0</asrwt>
<pdfrwt beam="1">  1        2 0.27141802E+00 0.21036485E+04</pdfrwt>
<pdfrwt beam="2">  1       -2 0.96476372E-01 0.21036485E+04</pdfrwt>
<totfact> 0.74806430E+00</totfact>
</mgrwt>
</event>
<event>
 6    1  0.1878398E-004  0.4779216E+03  0.7818608E-02  0.1019708E+00
         -1   -1    0    0    0  501 -0.00000000000E+00  0.00000000000E+00  0.39035093867E+02  0.39035093867E+02  0.00000000000E+00 0. -1.
          1   -1    0    0  501    0  0.00000000000E+00 -0.00000000000E+00 -0.14628443662E+04  0.14628443662E+04  0.00000000000E+00 0.  1.
         23    2    1    2    0    0 -0.43640685508E+02 -0.75409599233E+02 -0.14084002280E+04  0.14134003341E+04  0.80735277527E+02 0.  0.
         11    1    3    3    0    0 -0.51583907811E+02 -0.34020710204E+02 -0.11435220325E+04  0.11451903541E+04  0.00000000000E+00 0. -1.
        -11    1    3    3    0    0  0.79432223030E+01 -0.41388889029E+02 -0.26487819551E+03  0.26820998000E+03  0.00000000000E+00 0.  1.
         22    1    1    2    0    0  0.43640685508E+02  0.75409599233E+02 -0.15409044324E+02  0.88479125985E+02  0.00000000000E+00 0. -1.
<mgrwt>
<rscale>  0 0.47792161E+03</rscale>
<asrwt>0</asrwt>
<pdfrwt beam="1">  1        1 0.22505298E+00 0.47792161E+03</pdfrwt>
<pdfrwt beam="2">  1       -1 0.60053991E-02 0.47792161E+03</pdfrwt>
<totfact> 0.99986477E+02</totfact>
</mgrwt>
</event>
<event>
 6    1  0.1878398E-004  0.1407763E+04  0.7818608E-02  0.8948218E-01
          2   -1    0    0  501    0  0.00000000000E+00  0.00000000000E+00  0.14498523096E+04  0.14498523096E+04  0.00000000000E+00 0.  1.
         -2   -1    0    0    0  501 -0.00000000000E+00 -0.00000000000E+00 -0.34172411405E+03  0.34172411405E+03  0.00000000000E+00 0. -1.
         23    2    1    2    0    0  0.58553377934E+02 -0.46976423886E+03  0.12142645221E+04  0.13064250473E+04  0.90560124720E+02 0.  0.
         11    1    3    3    0    0 -0.17918628023E+02 -0.18260161588E+03  0.41711674773E+03  0.45568718283E+03  0.00000000000E+00 0.  1.
        -11    1    3    3    0    0  0.76472005958E+02 -0.28716262297E+03  0.79714777441E+03  0.85073786443E+03  0.00000000000E+00 0. -1.
         22    1    1    2    0    0 -0.58553377934E+02  0.46976423886E+03 -0.10613632661E+03  0.48515137638E+03  0.00000000000E+00 0. -1.
<mgrwt>
<rscale>  0 0.14077635E+04</rscale>
<asrwt>0</asrwt>
<pdfrwt beam="1">  1        2 0.22305420E+00 0.14077635E+04</pdfrwt>
<pdfrwt beam="2">  1       -2 0.52572942E-01 0.14077635E+04</pdfrwt>
<totfact> 0.44996958E+01</totfact>
</mgrwt>
</event>
<event>
 6    1  0.1878398E-004  0.4833772E+04  0.7818608E-02  0.7854674E-01
         -2   -1    0    0    0  501 -0.00000000000E+00  0.00000000000E+00  0.24624184923E+04  0.24624184923E+04  0.00000000000E+00 0.  1.
          2   -1    0    0  501    0  0.00000000000E+00 -0.00000000000E+00 -0.23721956529E+04  0.23721956529E+04  0.00000000000E+00 0. -1.
         23    2    1    2    0    0 -0.68316718909E+02 -0.21392747072E+04 -0.10758481622E+04  0.23972210649E+04  0.89755884771E+02 0.  0.
         11    1    3    3    0    0 -0.37581785999E+02 -0.13263371001E+04 -0.71517903118E+03  0.15073365717E+04  0.00000000000E+00 0.  1.
        -11    1    3    3    0    0 -0.30734932911E+02 -0.81293760712E+03 -0.36066913107E+03  0.88988449323E+03  0.00000000000E+00 0. -1.
         22    1    1    2    0    0  0.68316718909E+02  0.21392747072E+04  0.11660710016E+04  0.24373930803E+04  0.00000000000E+00 0. -1.
<mgrwt>
<rscale>  0 0.48337722E+04</rscale>
<asrwt>0</asrwt>
<pdfrwt beam="1">  1        2 0.36495318E+00 0.48337722E+04</pdfrwt>
<pdfrwt beam="2">  1       -2 0.37883361E+00 0.48337722E+04</pdfrwt>
<totfact> 0.30999233E-02</totfact>
</mgrwt>
</event>
<event>
 6    1  0.1878398E-004  0.7905039E+03  0.7818608E-02  0.9573865E-01
         -1   -1    0    0    0  501 -0.00000000000E+00  0.00000000000E+00  0.98596753029E+02  0.98596753029E+02  0.00000000000E+00 0.  1.
          1   -1    0    0  501    0  0.00000000000E+00 -0.00000000000E+00 -0.15844751642E+04  0.15844751642E+04  0.00000000000E+00 0. -1.
         23    2    1    2    0    0  0.85474455066E+02  0.22247363836E+03 -0.14100429318E+04  0.14329690940E+04  0.91536618816E+02 0.  0.
         13    1    3    3    0    0  0.48101255482E+02  0.21048533495E+03 -0.12098566437E+04  0.12289714827E+04  0.00000000000E+00 0.  1.
        -13    1    3    3    0    0  0.37373199584E+02  0.11988303407E+02 -0.20018628813E+03  0.20399761131E+03  0.00000000000E+00 0. -1.
         22    1    1    2    0    0 -0.85474455066E+02 -0.22247363836E+03 -0.75835479300E+02  0.25010282317E+03  0.00000000000E+00 0.  1.
<mgrwt>
<rscale>  0 0.79050391E+03</rscale>
<asrwt>0</asrwt>
<pdfrwt beam="1">  1        1 0.24376540E+00 0.79050391E+03</pdfrwt>
<pdfrwt beam="2">  1       -1 0.15168732E-01 0.79050391E+03</pdfrwt>
<totfact> 0.18792817E+02</totfact>
</mgrwt>
</event>
<event>
 6    1  0.1878398E-004  0.2552067E+04  0.7818608E-02  0.8384668E-01
         -2   -1    0    0    0  501 -0.00000000000E+00  0.00000000000E+00  0.11756635651E+04  0.11756635651E+04  0.00000000000E+00 0. -1.
          2   -1    0    0  501    0  0.00000000000E+00 -0.00000000000E+00 -0.13849720148E+04  0.13849720148E+04  0.00000000000E+00 0.  1.
         23    2    1    2    0    0 -0.77469154681E+03  0.34801970731E+03 -0.10580851030E+04  0.13599330703E+04  0.92785564819E+02 0.  0.
         11    1    3    3    0    0 -0.63191590837E+03  0.32029634507E+03 -0.86128923367E+03  0.11152249136E+04  0.00000000000E+00 0.  1.
        -11    1    3    3    0    0 -0.14277563844E+03  0.27723362243E+02 -0.19679586932E+03  0.24470815664E+03  0.00000000000E+00 0. -1.
         22    1    1    2    0    0  0.77469154681E+03 -0.34801970731E+03  0.84877665331E+03  0.12007025096E+04  0.00000000000E+00 0. -1.
<mgrwt>
<rscale>  0 0.25520667E+04</rscale>
<asrwt>0</asrwt>
<pdfrwt beam="1">  1        2 0.21307262E+00 0.25520667E+04</pdfrwt>
<pdfrwt beam="2">  1       -2 0.18087132E+00 0.25520667E+04</pdfrwt>
<totfact> 0.23444814E+00</totfact>
</mgrwt>
</event>
<event>
 6    1  0.1878398E-004  0.4521925E+04  0.7818608E-02  0.7906810E-01
         -1   -1    0    0    0  501 -0.00000000000E+00  0.00000000000E+00  0.13679212007E+04  0.13679212007E+04  0.00000000000E+00 0. -1.
          1   -1    0    0  501    0  0.00000000000E+00 -0.00000000000E+00 -0.37370212224E+04  0.37370212224E+04  0.00000000000E+00 0.  1.
         23    2    1    2    0    0 -0.11442657339E+04  0.18349403894E+04 -0.19261260299E+04  0.28975511439E+04  0.97420974728E+02 0.  0.
         13    1    3    3    0    0 -0.14550322300E+03  0.19523112277E+03 -0.18648080041E+03  0.30669442141E+03  0.00000000000E+00 0. -1.
        -13    1    3    3    0    0 -0.99876251088E+03  0.16397092666E+04 -0.17396452295E+04  0.25908567225E+04  0.00000000000E+00 0.  1.
         22    1    1    2    0    0  0.11442657339E+04 -0.18349403894E+04 -0.44297399180E+03  0.22073912792E+04  0.00000000000E+00 0.  1.
<mgrwt>
<rscale>  0 0.45219246E+04</rscale>
<asrwt>0</asrwt>
<pdfrwt beam="1">  1        1 0.57492633E+00 0.45219246E+04</pdfrwt>
<pdfrwt beam="2">  1       -1 0.21044942E+00 0.45219246E+04</pdfrwt>
<totfact> 0.15366436E-02</totfact>
</mgrwt>
</event>
<event>
 6    1  0.1878398E-004  0.1949334E+04  0.7818608E-02  0.8630682E-01
         -2   -1    0    0    0  501 -0.00000000000E+00  0.00000000000E+00  0.61252908334E+03  0.61252908334E+03  0.00000000000E+00 0. -1.
          2   -1    0    0  501    0  0.00000000000E+00 -0.00000000000E+00 -0.15509066999E+04  0.15509066999E+04  0.00000000000E+00 0.  1.
         23    2    1    2    0    0 -0.75495682459E+03 -0.34761138080E+03 -0.10307970583E+04  0.13271733649E+04  0.89738988443E+02 0.  0.
         11    1    3    3    0    0 -0.49432641145E+03 -0.20830107914E+03 -0.72546821064E+03  0.90224833903E+03  0.00000000000E+00 0. -1.
        -11    1    3    3    0    0 -0.26063041314E+03 -0.13931030166E+03 -0.30532884768E+03  0.42492502589E+03  0.00000000000E+00 0.  1.
         22    1    1    2    0    0  0.75495682459E+03  0.34761138080E+03  0.92419441769E+02  0.83626241831E+03  0.00000000000E+00 0. -1.
<mgrwt>
<rscale>  0 0.19493337E+04</rscale>
<asrwt>0</asrwt>
<pdfrwt beam="1">  1        2 0.23860103E+00 0.19493337E+04</pdfrwt>
<pdfrwt beam="2">  1       -2 0.94235243E-01 0.19493337E+04</pdfrwt>
<totfact> 0.10528418E+01</totfact>
</mgrwt>
</event>
<event>
 6    1  0.1878398E-004  0.2863487E+04  0.7818608E-02  0.8283825E-01
         -2   -1    0    0    0  501 -0.00000000000E+00  0.00000000000E+00  0.63774945134E+03  0.63774945134E+03  0.00000000000E+00 0. -1.
          2   -1    0    0  501    0  0.00000000000E+00 -0.00000000000E+00 -0.32142555490E+04  0.32142555490E+04  0.00000000000E+00 0.  1.
         23    2    1    2    0    0 -0.18302145297E+03  0.11379317990E+04 -0.15019771509E+03  0.11658631577E+04  0.91059967021E+02 0.  0.
         13    1    3    3    0    0 -0.98751096709E+02  0.39382269619E+03 -0.26795866972E+02  0.40689816124E+03  0.00000000000E+00 0. -1.
        -13    1    3    3    0    0 -0.84270356262E+02  0.74410910277E+03 -0.12340184811E+03  0.75896499649E+03  0.00000000000E+00 0.  1.
         22    1    1    2    0    0  0.18302145297E+03 -0.11379317990E+04 -0.24263083826E+04  0.26861418427E+04  0.00000000000E+00 0.  1.
<mgrwt>
<rscale>  0 0.28634872E+04</rscale>
<asrwt>0</asrwt>
<pdfrwt beam="1">  1        2 0.49450085E+00 0.28634872E+04</pdfrwt>
<pdfrwt beam="2">  1       -2 0.98115301E-01 0.28634872E+04</pdfrwt>
<totfact> 0.94880381E-01</totfact>
</mgrwt>
</event>
<event>
 6    1  0.1878398E-004  0.2910155E+04  0.7818608E-02  0.8269862E-01
          2   -1    0    0  501    0  0.00000000000E+00  0.00000000000E+00  0.16029873544E+04  0.16029873544E+04  0.00000000000E+00 0.  1.
         -2   -1    0    0    0  501 -0.00000000000E+00 -0.00000000000E+00 -0.13208154907E+04  0.13208154907E+04  0.00000000000E+00 0. -1.
         23    2    1    2    0    0  0.10794538873E+04  0.17895781942E+02  0.11192115643E+04  0.15577221687E+04  0.91229793914E+02 0.  0.
         11    1    3    3    0    0  0.31619007882E+03  0.45085377682E+02  0.34725324578E+03  0.47179834032E+03  0.00000000000E+00 0. -1.
        -11    1    3    3    0    0  0.76326380852E+03 -0.27189595741E+02  0.77195831854E+03  0.10859238284E+04  0.00000000000E+00 0.  1.
         22    1    1    2    0    0 -0.10794538873E+04 -0.17895781942E+02 -0.83703970069E+03  0.13660806764E+04  0.00000000000E+00 0. -1.
<mgrwt>
<rscale>  0 0.29101550E+04</rscale>
<asrwt>0</asrwt>
<pdfrwt beam="1">  1        2 0.24661344E+00 0.29101550E+04</pdfrwt>
<pdfrwt beam="2">  1       -2 0.20320238E+00 0.29101550E+04</pdfrwt>
<totfact> 0.12141881E+00</totfact>
</mgrwt>
</event>
<event>
 6    1  0.1878398E-004  0.1926778E+04  0.7818608E-02  0.8641641E-01
          1   -1    0    0  501    0  0.00000000000E+00  0.00000000000E+00  0.28692377436E+03  0.28692377436E+03  0.00000000000E+00 0.  1.
         -1   -1    0    0    0  501 -0.00000000000E+00 -0.00000000000E+00 -0.32347204926E+04  0.32347204926E+04  0.00000000000E+00 0. -1.
         23    2    1    2    0    0 -0.33999027276E+03  0.99209924381E+02 -0.31104367415E+04  0.31319164493E+04  0.92994235322E+02 0.  0.
         13    1    3    3    0    0 -0.27719798017E+03  0.46705933632E+02 -0.25678710017E+04  0.25832114985E+04  0.00000000000E+00 0.  1.
        -13    1    3    3    0    0 -0.62792292591E+02  0.52503990749E+02 -0.54256573979E+03  0.54870495081E+03  0.00000000000E+00 0. -1.
         22    1    1    2    0    0  0.33999027276E+03 -0.99209924381E+02  0.16264002329E+03  0.38972781764E+03  0.00000000000E+00 0.  1.
<mgrwt>
<rscale>  0 0.19267778E+04</rscale>
<asrwt>0</asrwt>
<pdfrwt beam="1">  1        1 0.44142122E-01 0.19267778E+04</pdfrwt>
<pdfrwt beam="2">  1       -1 0.49764927E+00 0.19267778E+04</pdfrwt>
<totfact> 0.13340235E-01</totfact>
</mgrwt>
</event>
<event>
 6    1  0.1878398E-004  0.1153440E+04  0.7818608E-02  0.9154616E-01
         -2   -1    0    0    0  501 -0.00000000000E+00  0.00000000000E+00  0.36733816844E+03  0.36733816844E+03  0.00000000000E+00 0. -1.
          2   -1    0    0  501    0  0.00000000000E+00 -0.00000000000E+00 -0.90544876535E+03  0.90544876535E+03  0.00000000000E+00 0.  1.
         23    2    1    2    0    0 -0.36900273468E+03 -0.35516075032E+03  0.13093700132E+02  0.52037191942E+03  0.91177369870E+02 0.  0.
         11    1    3    3    0    0 -0.37378847050E+03 -0.34619082788E+03  0.94243573525E+01  0.50956327232E+03  0.00000000000E+00 0.  1.
        -11    1    3    3    0    0  0.47857358173E+01 -0.89699224378E+01  0.36693427791E+01  0.10808647107E+02  0.00000000000E+00 0. -1.
         22    1    1    2    0    0  0.36900273468E+03  0.35516075032E+03 -0.55120429705E+03  0.75241501437E+03  0.00000000000E+00 0.  1.
<mgrwt>
<rscale>  0 0.11534399E+04</rscale>
<asrwt>0</asrwt>
<pdfrwt beam="1">  1        2 0.13929981E+00 0.11534399E+04</pdfrwt>
<pdfrwt beam="2">  1       -2 0.56513565E-01 0.11534399E+04</pdfrwt>
<totfact> 0.84537287E+01</totfact>
</mgrwt>
</event>
<event>
 6    1  0.1878398E-004  0.9416858E+03  0.7818608E-02  0.9374922E-01
         -2   -1    0    0    0  501 -0.00000000000E+00  0.00000000000E+00  0.32711891192E+03  0.32711891192E+03  0.00000000000E+00 0. -1.
          2   -1    0    0  501    0  0.00000000000E+00 -0.00000000000E+00 -0.67771394607E+03  0.67771394607E+03  0.00000000000E+00 0.  1.
         23    2    1    2    0    0  0.35355685240E+03  0.17007396708E+03 -0.44605259299E+03  0.60105105094E+03  0.91497803046E+02 0.  0.
         11    1    3    3    0    0  0.25712349547E+03  0.14116720560E+03 -0.27227069928E+03  0.40021494918E+03  0.00000000000E+00 0. -1.
        -11    1    3    3    0    0  0.96433356931E+02  0.28906761480E+02 -0.17378189371E+03  0.20083610176E+03  0.00000000000E+00 0.  1.
         22    1    1    2    0    0 -0.35355685240E+03 -0.17007396708E+03  0.95457558840E+02  0.40378180704E+03  0.00000000000E+00 0. -1.
<mgrwt>
<rscale>  0 0.94168583E+03</rscale>
<asrwt>0</asrwt>
<pdfrwt beam="1">  1        2 0.10426368E+00 0.94168583E+03</pdfrwt>
<pdfrwt beam="2">  1       -2 0.50325987E-01 0.94168583E+03</pdfrwt>
<totfact> 0.15960782E+02</totfact>
</mgrwt>
</event>
<event>
 6    1  0.1878398E-004  0.2721180E+04  0.7818608E-02  0.8328165E-01
         -2   -1    0    0    0  501 -0.00000000000E+00  0.00000000000E+00  0.17392493390E+04  0.17392493390E+04  0.00000000000E+00 0. -1.
          2   -1    0    0  501    0  0.00000000000E+00 -0.00000000000E+00 -0.10643704774E+04  0.10643704774E+04  0.00000000000E+00 0.  1.
         23    2    1    2    0    0  0.85719187027E+03  0.91392652263E+03 -0.20444416863E+03  0.12728524981E+04  0.91194695896E+02 0.  0.
         11    1    3    3    0    0  0.33071757076E+03  0.39218165467E+03 -0.47474447326E+02  0.51520324632E+03  0.00000000000E+00 0. -1.
        -11    1    3    3    0    0  0.52647429952E+03  0.52174486795E+03 -0.15696972130E+03  0.75764925176E+03  0.00000000000E+00 0.  1.
         22    1    1    2    0    0 -0.85719187027E+03 -0.91392652263E+03  0.87932303024E+03  0.15307673183E+04  0.00000000000E+00 0. -1.
<mgrwt>
<rscale>  0 0.27211804E+04</rscale>
<asrwt>0</asrwt>
<pdfrwt beam="1">  1        2 0.16374930E+00 0.27211804E+04</pdfrwt>
<pdfrwt beam="2">  1       -2 0.26757682E+00 0.27211804E+04</pdfrwt>
<totfact> 0.10068738E+00</totfact>
</mgrwt>
</event>
<event>
 6    1  0.1878398E-004  0.3028018E+04  0.7818608E-02  0.8235775E-01
          2   -1    0    0  501    0  0.00000000000E+00  0.00000000000E+00  0.12124914333E+04  0.12124914333E+04  0.00000000000E+00 0.  1.
         -2   -1    0    0    0  501 -0.00000000000E+00 -0.00000000000E+00 -0.18905063165E+04  0.18905063165E+04  0.00000000000E+00 0. -1.
         23    2    1    2    0    0 -0.74831278572E+02  0.15095382756E+04 -0.27394688251E+03  0.15385245237E+04  0.87779781242E+02 0.  0.
         11    1    3    3    0    0  0.29539652720E+01  0.79818508747E+03 -0.13345819067E+03  0.80927081279E+03  0.00000000000E+00 0. -1.
        -11    1    3    3    0    0 -0.77785243844E+02  0.71135318811E+03 -0.14048869184E+03  0.72925371094E+03  0.00000000000E+00 0.  1.
         22    1    1    2    0    0  0.74831278572E+02 -0.15095382756E+04 -0.40406800074E+03  0.15644732260E+04  0.00000000000E+00 0. -1.
<mgrwt>
<rscale>  0 0.30280176E+04</rscale>
<asrwt>0</asrwt>
<pdfrwt beam="1">  1        2 0.18653714E+00 0.30280176E+04</pdfrwt>
<pdfrwt beam="2">  1       -2 0.29084712E+00 0.30280176E+04</pdfrwt>
<totfact> 0.57488029E-01</totfact>
</mgrwt>
</event>
<event>
 6    1  0.1878398E-004  0.4031171E+04  0.7818608E-02  0.7998288E-01
          2   -1    0    0  501    0  0.00000000000E+00  0.00000000000E+00  0.37560791347E+04  0.37560791347E+04  0.00000000000E+00 0.  1.
         -2   -1    0    0    0  501 -0.00000000000E+00 -0.00000000000E+00 -0.10816026922E+04  0.10816026922E+04  0.00000000000E+00 0. -1.
         23    2    1    2    0    0  0.24542270193E+03  0.19987343132E+04  0.12688170209E+04  0.23818622963E+04  0.90555003168E+02 0.  0.
         11    1    3    3    0    0  0.10776759311E+03  0.11379218613E+04  0.75723094680E+03  0.13710866943E+04  0.00000000000E+00 0.  1.
        -11    1    3    3    0    0  0.13765510881E+03  0.86081245199E+03  0.51158607407E+03  0.10107756020E+04  0.00000000000E+00 0. -1.
         22    1    1    2    0    0 -0.24542270193E+03 -0.19987343132E+04  0.14056594216E+04  0.24558195307E+04  0.00000000000E+00 0. -1.
<mgrwt>
<rscale>  0 0.40311712E+04</rscale>
<asrwt>0</asrwt>
<pdfrwt beam="1">  1        2 0.57785833E+00 0.40311712E+04</pdfrwt>
<pdfrwt beam="2">  1       -2 0.16640041E+00 0.40311712E+04</pdfrwt>
<totfact> 0.94102249E-02</totfact>
</mgrwt>
</event>
<event>
 6    1  0.1878398E-004  0.3050315E+04  0.7818608E-02  0.8229507E-01
         -2   -1    0    0    0  501 -0.00000000000E+00  0.00000000000E+00  0.13084191591E+04  0.13084191591E+04  0.00000000000E+00 0. -1.
          2   -1    0    0  501    0  0.00000000000E+00 -0.00000000000E+00 -0.17777989128E+04  0.17777989128E+04  0.00000000000E+00 0.  1.
         23    2    1    2    0    0 -0.50359213666E+03  0.13914076598E+04  0.13389006633E+03  0.14882334689E+04  0.85393164200E+02 0.  0.
         11    1    3    3    0    0 -0.15082983310E+03  0.51814679112E+03  0.71182554378E+02  0.54432774295E+03  0.00000000000E+00 0. -1.
        -11    1    3    3    0    0 -0.35276230356E+03  0.87326086864E+03  0.62707511954E+02  0.94390572600E+03  0.00000000000E+00 0.  1.
         22    1    1    2    0    0  0.50359213666E+03 -0.13914076598E+04 -0.60326981999E+03  0.15979846030E+04  0.00000000000E+00 0.  1.
<mgrwt>
<rscale>  0 0.30503155E+04</rscale>
<asrwt>0</asrwt>
<pdfrwt beam="1">  1        2 0.27350752E+00 0.30503155E+04</pdfrwt>
<pdfrwt beam="2">  1       -2 0.20129526E+00 0.30503155E+04</pdfrwt>
<totfact> 0.98711076E-01</totfact>
</mgrwt>
</event>
<event>
 6    1  0.1878398E-004  0.2683556E+04  0.7818608E-02  0.8340360E-01
          2   -1    0    0  501    0  0.00000000000E+00  0.00000000000E+00  0.25334921850E+04  0.25334921850E+04  0.00000000000E+00 0.  1.
         -2   -1    0    0    0  501 -0.00000000000E+00 -0.00000000000E+00 -0.71062687778E+03  0.71062687778E+03  0.00000000000E+00 0. -1.
         23    2    1    2    0    0  0.48081370862E+03 -0.46189724957E+03 -0.49293949523E+03  0.83424712124E+03  0.91913120879E+02 0.  0.
         13    1    3    3    0    0  0.59115240931E+02 -0.10519823686E+03 -0.91943976373E+02  0.15170687374E+03  0.00000000000E+00 0. -1.
        -13    1    3    3    0    0  0.42169846769E+03 -0.35669901271E+03 -0.40099551885E+03  0.68254024750E+03  0.00000000000E+00 0.  1.
         22    1    1    2    0    0 -0.48081370862E+03  0.46189724957E+03  0.23158048025E+04  0.24098719416E+04  0.00000000000E+00 0.  1.
<mgrwt>
<rscale>  0 0.26835556E+04</rscale>
<asrwt>0</asrwt>
<pdfrwt beam="1">  1        2 0.38976802E+00 0.26835556E+04</pdfrwt>
<pdfrwt beam="2">  1       -2 0.10932721E+00 0.26835556E+04</pdfrwt>
<totfact> 0.19493921E+00</totfact>
</mgrwt>
</event>
<event>
 6    1  0.1878398E-004  0.1724005E+04  0.7818608E-02  0.8747791E-01
         -2   -1    0    0    0  501 -0.00000000000E+00  0.00000000000E+00  0.41970442832E+03  0.41970442832E+03  0.00000000000E+00 0. -1.
          2   -1    0    0  501    0  0.00000000000E+00 -0.00000000000E+00 -0.17704089580E+04  0.17704089580E+04  0.00000000000E+00 0.  1.
         23    2    1    2    0    0 -0.29162968119E+03 -0.65495666634E+03 -0.12789922516E+04  0.14695866647E+04  0.99235475113E+02 0.  0.
         11    1    3    3    0    0 -0.25209909150E+03 -0.57183178121E+03 -0.10378937041E+04  0.12115151171E+04  0.00000000000E+00 0.  1.
        -11    1    3    3    0    0 -0.39530589683E+02 -0.83124885135E+02 -0.24109854752E+03  0.25807154757E+03  0.00000000000E+00 0. -1.
         22    1    1    2    0    0  0.29162968119E+03  0.65495666634E+03 -0.71712278021E+02  0.72052672161E+03  0.00000000000E+00 0. -1.
<mgrwt>
<rscale>  0 0.17240052E+04</rscale>
<asrwt>0</asrwt>
<pdfrwt beam="1">  1        2 0.27237060E+00 0.17240052E+04</pdfrwt>
<pdfrwt beam="2">  1       -2 0.64569913E-01 0.17240052E+04</pdfrwt>
<totfact> 0.18846861E+01</totfact>
</mgrwt>
</event>
<event>
 6    1  0.1878398E-004  0.2955764E+04  0.7818608E-02  0.8256477E-01
          2   -1    0    0  501    0  0.00000000000E+00  0.00000000000E+00  0.15370476208E+04  0.15370476208E+04  0.00000000000E+00 0.  1.
         -2   -1    0    0    0  501 -0.00000000000E+00 -0.00000000000E+00 -0.14209939227E+04  0.14209939227E+04  0.00000000000E+00 0. -1.
         23    2    1    2    0    0 -0.70678581726E+03 -0.40557669515E+02  0.13547552637E+04  0.15313065699E+04  0.91361208620E+02 0.  0.
         13    1    3    3    0    0 -0.57802518982E+02 -0.10247032790E+02  0.17366303658E+03  0.18331661997E+03  0.00000000000E+00 0. -1.
        -13    1    3    3    0    0 -0.64898329828E+03 -0.30310636725E+02  0.11810922271E+04  0.13479899499E+04  0.00000000000E+00 0.  1.
         22    1    1    2    0    0  0.70678581726E+03  0.40557669515E+02 -0.12387015656E+04  0.14267349735E+04  0.00000000000E+00 0. -1.
<mgrwt>
<rscale>  0 0.29557641E+04</rscale>
<asrwt>0</asrwt>
<pdfrwt beam="1">  1        2 0.23646886E+00 0.29557641E+04</pdfrwt>
<pdfrwt beam="2">  1       -2 0.21861445E+00 0.29557641E+04</pdfrwt>
<totfact> 0.10483116E+00</totfact>
</mgrwt>
</event>
<event>
 6    1  0.1878398E-004  0.2050203E+04  0.7818608E-02  0.8583502E-01
          2   -1    0    0  501    0  0.00000000000E+00  0.00000000000E+00  0.16188635472E+04  0.16188635472E+04  0.00000000000E+00 0.  1.
         -2   -1    0    0    0  501 -0.00000000000E+00 -0.00000000000E+00 -0.64911745914E+03  0.64911745914E+03  0.00000000000E+00 0. -1.
         23    2    1    2    0    0 -0.72798739284E+03 -0.71119644738E+03  0.60148612835E+03  0.11856772464E+04  0.90988675725E+02 0.  0.
         11    1    3    3    0    0 -0.34339762251E+03 -0.39453812768E+03  0.28851436656E+03  0.59734646650E+03  0.00000000000E+00 0. -1.
        -11    1    3    3    0    0 -0.38458977034E+03 -0.31665831970E+03  0.31297176179E+03  0.58833077989E+03  0.00000000000E+00 0.  1.
         22    1    1    2    0    0  0.72798739284E+03  0.71119644738E+03  0.36825995973E+03  0.10823037600E+04  0.00000000000E+00 0. -1.
<mgrwt>
<rscale>  0 0.20502025E+04</rscale>
<asrwt>0</asrwt>
<pdfrwt beam="1">  1        2 0.24905593E+00 0.20502025E+04</pdfrwt>
<pdfrwt beam="2">  1       -2 0.99864225E-01 0.20502025E+04</pdfrwt>
<totfact> 0.83462080E+00</totfact>
</mgrwt>
</event>
<event>
 6    1  0.1878398E-004  0.3196075E+04  0.7818608E-02  0.8189855E-01
         -1   -1    0    0    0  501 -0.00000000000E+00  0.00000000000E+00  0.66097499868E+03  0.66097499868E+03  0.00000000000E+00 0. -1.
          1   -1    0    0  501    0  0.00000000000E+00 -0.00000000000E+00 -0.38635702237E+04  0.38635702237E+04  0.00000000000E+00 0.  1.
         23    2    1    2    0    0 -0.10672579341E+04 -0.11655096035E+04 -0.19257160532E+04  0.24928285706E+04  0.91432111807E+02 0.  0.
         13    1    3    3    0    0 -0.37311575017E+03 -0.36974222816E+03 -0.69509631113E+03  0.87125401580E+03  0.00000000000E+00 0. -1.
        -13    1    3    3    0    0 -0.69414218393E+03 -0.79576737534E+03 -0.12306197420E+04  0.16215745548E+04  0.00000000000E+00 0.  1.
         22    1    1    2    0    0  0.10672579341E+04  0.11655096035E+04 -0.12768791719E+04  0.20317166518E+04  0.00000000000E+00 0.  1.
<mgrwt>
<rscale>  0 0.31960747E+04</rscale>
<asrwt>0</asrwt>
<pdfrwt beam="1">  1        1 0.59439543E+00 0.31960747E+04</pdfrwt>
<pdfrwt beam="2">  1       -1 0.10168846E+00 0.31960747E+04</pdfrwt>
<totfact> 0.96517547E-02</totfact>
</mgrwt>
</event>
<event>
 6    1  0.1878398E-004  0.5117966E+03  0.7818608E-02  0.1010745E+00
         -2   -1    0    0    0  501 -0.00000000000E+00  0.00000000000E+00  0.64526109127E+02  0.64526109127E+02  0.00000000000E+00 0. -1.
          2   -1    0    0  501    0  0.00000000000E+00 -0.00000000000E+00 -0.10148440777E+04  0.10148440777E+04  0.00000000000E+00 0.  1.
         23    2    1    2    0    0 -0.78879270407E+02 -0.15001165225E+03 -0.11187441777E+03  0.22396792882E+03  0.94447406951E+02 0.  0.
         11    1    3    3    0    0 -0.42036586564E+02 -0.10641043347E+03 -0.20508876998E+02  0.11623626369E+03  0.00000000000E+00 0.  1.
        -11    1    3    3    0    0 -0.36842683843E+02 -0.43601218778E+02 -0.91365540768E+02  0.10773166513E+03  0.00000000000E+00 0. -1.
         22    1    1    2    0    0  0.78879270407E+02  0.15001165225E+03 -0.83844355080E+03  0.85540225799E+03  0.00000000000E+00 0.  1.
<mgrwt>
<rscale>  0 0.51179660E+03</rscale>
<asrwt>0</asrwt>
<pdfrwt beam="1">  1        2 0.15612985E+00 0.51179660E+03</pdfrwt>
<pdfrwt beam="2">  1       -2 0.99270941E-02 0.51179660E+03</pdfrwt>
<totfact> 0.17237243E+03</totfact>
</mgrwt>
</event>
<event>
 6    1  0.1878398E-004  0.2393506E+04  0.7818608E-02  0.8441939E-01
         -2   -1    0    0    0  501 -0.00000000000E+00  0.00000000000E+00  0.48155732631E+03  0.48155732631E+03  0.00000000000E+00 0. -1.
          2   -1    0    0  501    0  0.00000000000E+00 -0.00000000000E+00 -0.29741373756E+04  0.29741373756E+04  0.00000000000E+00 0.  1.
         23    2    1    2    0    0  0.11837897797E+04 -0.11293137008E+02 -0.10141707920E+04  0.15617095622E+04  0.94385295078E+02 0.  0.
         11    1    3    3    0    0  0.37221954820E+03  0.32036749471E+01 -0.37698468168E+03  0.52978779319E+03  0.00000000000E+00 0.  1.
        -11    1    3    3    0    0  0.81157023147E+03 -0.14496811955E+02 -0.63718611033E+03  0.10319217690E+04  0.00000000000E+00 0. -1.
         22    1    1    2    0    0 -0.11837897797E+04  0.11293137008E+02 -0.14784092572E+04  0.18939851397E+04  0.00000000000E+00 0. -1.
<mgrwt>
<rscale>  0 0.23935059E+04</rscale>
<asrwt>0</asrwt>
<pdfrwt beam="1">  1        2 0.45755960E+00 0.23935059E+04</pdfrwt>
<pdfrwt beam="2">  1       -2 0.74085742E-01 0.23935059E+04</pdfrwt>
<totfact> 0.26691428E+00</totfact>
</mgrwt>
</event>
<event>
 6    1  0.1878398E-004  0.2005785E+04  0.7818608E-02  0.8603921E-01
         -1   -1    0    0    0  501 -0.00000000000E+00  0.00000000000E+00  0.11524658470E+04  0.11524658470E+04  0.00000000000E+00 0. -1.
          1   -1    0    0  501    0  0.00000000000E+00 -0.00000000000E+00 -0.87273158180E+03  0.87273158180E+03  0.00000000000E+00 0.  1.
         23    2    1    2    0    0  0.49275588500E+03  0.52781773132E+03  0.83970017176E+03  0.11114350220E+04  0.93763051858E+02 0.  0.
         13    1    3    3    0    0  0.33371088415E+03  0.29509614171E+03  0.48879269054E+03  0.66133424331E+03  0.00000000000E+00 0.  1.
        -13    1    3    3    0    0  0.15904500085E+03  0.23272158961E+03  0.35090748121E+03  0.45010077865E+03  0.00000000000E+00 0. -1.
         22    1    1    2    0    0 -0.49275588500E+03 -0.52781773132E+03 -0.55996590654E+03  0.91376240686E+03  0.00000000000E+00 0.  1.
<mgrwt>
<rscale>  0 0.20057850E+04</rscale>
<asrwt>0</asrwt>
<pdfrwt beam="1">  1        1 0.13426640E+00 0.20057850E+04</pdfrwt>
<pdfrwt beam="2">  1       -1 0.17730244E+00 0.20057850E+04</pdfrwt>
<totfact> 0.38678097E+00</totfact>
</mgrwt>
</event>
<event>
 6    1  0.1878398E-004  0.1583973E+04  0.7818608E-02  0.8830455E-01
          2   -1    0    0  501    0  0.00000000000E+00  0.00000000000E+00  0.26081740249E+04  0.26081740249E+04  0.00000000000E+00 0.  1.
         -2   -1    0    0    0  501 -0.00000000000E+00 -0.00000000000E+00 -0.24049112130E+03  0.24049112130E+03  0.00000000000E+00 0. -1.
         23    2    1    2    0    0  0.72509839845E+03  0.10102253385E+03  0.17192791321E+04  0.18707077388E+04  0.87484113928E+02 0.  0.
         13    1    3    3    0    0  0.39802076530E+03  0.49636181767E+02  0.83119389351E+03  0.92291254665E+03  0.00000000000E+00 0. -1.
        -13    1    3    3    0    0  0.32707763315E+03  0.51386352086E+02  0.88808523854E+03  0.94779519212E+03  0.00000000000E+00 0.  1.
         22    1    1    2    0    0 -0.72509839845E+03 -0.10102253385E+03  0.64840377151E+03  0.97795740740E+03  0.00000000000E+00 0. -1.
<mgrwt>
<rscale>  0 0.15839731E+04</rscale>
<asrwt>0</asrwt>
<pdfrwt beam="1">  1        2 0.40125752E+00 0.15839731E+04</pdfrwt>
<pdfrwt beam="2">  1       -2 0.36998636E-01 0.15839731E+04</pdfrwt>
<totfact> 0.19951355E+01</totfact>
</mgrwt>
</event>
<event>
 6    1  0.1878398E-004  0.2511272E+04  0.7818608E-02  0.8398981E-01
         -2   -1    0    0    0  501 -0.00000000000E+00  0.00000000000E+00  0.94253076816E+03  0.94253076816E+03  0.00000000000E+00 0. -1.
          2   -1    0    0  501    0  0.00000000000E+00 -0.00000000000E+00 -0.16727529877E+04  0.16727529877E+04  0.00000000000E+00 0.  1.
         23    2    1    2    0    0  0.58774861377E+03  0.32068763142E+03 -0.14697862700E+04  0.16176646026E+04  0.90984048523E+02 0.  0.
         11    1    3    3    0    0  0.30468522094E+03  0.21385299168E+03 -0.85208398215E+03  0.92984584665E+03  0.00000000000E+00 0. -1.
        -11    1    3    3    0    0  0.28306339284E+03  0.10683463974E+03 -0.61770228789E+03  0.68781875598E+03  0.00000000000E+00 0.  1.
         22    1    1    2    0    0 -0.58774861377E+03 -0.32068763142E+03  0.73956405054E+03  0.99761915318E+03  0.00000000000E+00 0. -1.
<mgrwt>
<rscale>  0 0.25112715E+04</rscale>
<asrwt>0</asrwt>
<pdfrwt beam="1">  1        2 0.25734661E+00 0.25112715E+04</pdfrwt>
<pdfrwt beam="2">  1       -2 0.14500474E+00 0.25112715E+04</pdfrwt>
<totfact> 0.29654571E+00</totfact>
</mgrwt>
</event>
<event>
 6    1  0.1878398E-004  0.1517115E+04  0.7818608E-02  0.8873151E-01
          2   -1    0    0  501    0  0.00000000000E+00  0.00000000000E+00  0.23055474849E+04  0.23055474849E+04  0.00000000000E+00 0.  1.
         -2   -1    0    0    0  501 -0.00000000000E+00 -0.00000000000E+00 -0.24957605663E+03  0.24957605663E+03  0.00000000000E+00 0. -1.
         23    2    1    2    0    0  0.25587165921E+03  0.67048277243E+03  0.14306888019E+04  0.16032854162E+04  0.92931284281E+02 0.  0.
         11    1    3    3    0    0  0.71704999177E+02  0.27464252316E+03  0.63869354246E+03  0.69892743802E+03  0.00000000000E+00 0. -1.
        -11    1    3    3    0    0  0.18416666003E+03  0.39584024927E+03  0.79199525947E+03  0.90435797814E+03  0.00000000000E+00 0.  1.
         22    1    1    2    0    0 -0.25587165921E+03 -0.67048277243E+03  0.62528262638E+03  0.95183812540E+03  0.00000000000E+00 0.  1.
<mgrwt>
<rscale>  0 0.15171150E+04</rscale>
<asrwt>0</asrwt>
<pdfrwt beam="1">  1        2 0.35469960E+00 0.15171150E+04</pdfrwt>
<pdfrwt beam="2">  1       -2 0.38396318E-01 0.15171150E+04</pdfrwt>
<totfact> 0.27865604E+01</totfact>
</mgrwt>
</event>
<event>
 6    1  0.1878398E-004  0.1471061E+04  0.7818608E-02  0.8903929E-01
         -2   -1    0    0    0  501 -0.00000000000E+00  0.00000000000E+00  0.23540397875E+03  0.23540397875E+03  0.00000000000E+00 0. -1.
          2   -1    0    0  501    0  0.00000000000E+00 -0.00000000000E+00 -0.22981974149E+04  0.22981974149E+04  0.00000000000E+00 0.  1.
         23    2    1    2    0    0  0.50043567122E+03 -0.66510494964E+02 -0.19501303150E+04  0.20163466345E+04  0.88238303128E+02 0.  0.
         11    1    3    3    0    0  0.32209657341E+03 -0.54439805508E+02 -0.10927407615E+04  0.11405228042E+04  0.00000000000E+00 0. -1.
        -11    1    3    3    0    0  0.17833909781E+03 -0.12070689456E+02 -0.85738955347E+03  0.87582383032E+03  0.00000000000E+00 0.  1.
         22    1    1    2    0    0 -0.50043567122E+03  0.66510494964E+02 -0.11266312116E+03  0.51725475913E+03  0.00000000000E+00 0. -1.
<mgrwt>
<rscale>  0 0.14710606E+04</rscale>
<asrwt>0</asrwt>
<pdfrwt beam="1">  1        2 0.35356884E+00 0.14710606E+04</pdfrwt>
<pdfrwt beam="2">  1       -2 0.36215996E-01 0.14710606E+04</pdfrwt>
<totfact> 0.31622045E+01</totfact>
</mgrwt>
</event>
<event>
 6    1  0.1878398E-004  0.4626810E+04  0.7818608E-02  0.7888805E-01
          2   -1    0    0  501    0  0.00000000000E+00  0.00000000000E+00  0.42530172226E+04  0.42530172226E+04  0.00000000000E+00 0.  1.
         -2   -1    0    0    0  501 -0.00000000000E+00 -0.00000000000E+00 -0.12583636789E+04  0.12583636789E+04  0.00000000000E+00 0. -1.
         23    2    1    2    0    0  0.54701550356E+02  0.69258199146E+03  0.41252762395E+04  0.41843655455E+04  0.91372272274E+02 0.  0.
         11    1    3    3    0    0  0.25471044008E+02  0.78749979018E+02  0.37041223126E+03  0.37954651143E+03  0.00000000000E+00 0. -1.
        -11    1    3    3    0    0  0.29230506347E+02  0.61383201245E+03  0.37548640082E+04  0.38048190341E+04  0.00000000000E+00 0.  1.
         22    1    1    2    0    0 -0.54701550356E+02 -0.69258199146E+03 -0.11306226959E+04  0.13270153559E+04  0.00000000000E+00 0. -1.
<mgrwt>
<rscale>  0 0.46268099E+04</rscale>
<asrwt>0</asrwt>
<pdfrwt beam="1">  1        2 0.65431034E+00 0.46268099E+04</pdfrwt>
<pdfrwt beam="2">  1       -2 0.19359441E+00 0.46268099E+04</pdfrwt>
<totfact> 0.22833015E-02</totfact>
</mgrwt>
</event>
<event>
 6    1  0.1878398E-004  0.4012787E+04  0.7818608E-02  0.8001972E-01
          2   -1    0    0  501    0  0.00000000000E+00  0.00000000000E+00  0.30565949185E+04  0.30565949185E+04  0.00000000000E+00 0.  1.
         -2   -1    0    0    0  501 -0.00000000000E+00 -0.00000000000E+00 -0.13170258918E+04  0.13170258918E+04  0.00000000000E+00 0. -1.
         23    2    1    2    0    0 -0.61918694032E+02  0.14902076590E+04 -0.59075973412E+03  0.16068564681E+04  0.91857791676E+02 0.  0.
         13    1    3    3    0    0 -0.50979706377E+02  0.32213591524E+03 -0.13447015962E+03  0.35277854552E+03  0.00000000000E+00 0.  1.
        -13    1    3    3    0    0 -0.10938987655E+02  0.11680717438E+04 -0.45628957450E+03  0.12540779225E+04  0.00000000000E+00 0. -1.
         22    1    1    2    0    0  0.61918694032E+02 -0.14902076590E+04  0.23303287608E+04  0.27667643422E+04  0.00000000000E+00 0.  1.
<mgrwt>
<rscale>  0 0.40127869E+04</rscale>
<asrwt>0</asrwt>
<pdfrwt beam="1">  1        2 0.47024537E+00 0.40127869E+04</pdfrwt>
<pdfrwt beam="2">  1       -2 0.20261937E+00 0.40127869E+04</pdfrwt>
<totfact> 0.16146761E-01</totfact>
</mgrwt>
</event>
<event>
 6    1  0.1878398E-004  0.1818422E+04  0.7818608E-02  0.8696564E-01
         -2   -1    0    0    0  501 -0.00000000000E+00  0.00000000000E+00  0.57283207496E+03  0.57283207496E+03  0.00000000000E+00 0. -1.
          2   -1    0    0  501    0  0.00000000000E+00 -0.00000000000E+00 -0.14431189868E+04  0.14431189868E+04  0.00000000000E+00 0.  1.
         23    2    1    2    0    0  0.62049692035E+02 -0.37975593458E+03  0.47558507768E+03  0.61615245258E+03  0.73470705600E+02 0.  0.
         13    1    3    3    0    0  0.75411765279E+02 -0.30857283846E+03  0.36390556348E+03  0.48304388011E+03  0.00000000000E+00 0. -1.
        -13    1    3    3    0    0 -0.13362073244E+02 -0.71183096124E+02  0.11167951419E+03  0.13310857247E+03  0.00000000000E+00 0.  1.
         22    1    1    2    0    0 -0.62049692035E+02  0.37975593458E+03 -0.13458719895E+04  0.13997986092E+04  0.00000000000E+00 0.  1.
<mgrwt>
<rscale>  0 0.18184222E+04</rscale>
<asrwt>0</asrwt>
<pdfrwt beam="1">  1        2 0.22201831E+00 0.18184222E+04</pdfrwt>
<pdfrwt beam="2">  1       -2 0.88128011E-01 0.18184222E+04</pdfrwt>
<totfact> 0.14298117E+01</totfact>
</mgrwt>
</event>
<event>
 6    1  0.1878398E-004  0.7583466E+03  0.7818608E-02  0.9622346E-01
          2   -1    0    0  501    0  0.00000000000E+00  0.00000000000E+00  0.25961753325E+03  0.25961753325E+03  0.00000000000E+00 0.  1.
         -2   -1    0    0    0  501 -0.00000000000E+00 -0.00000000000E+00 -0.55378537207E+03  0.55378537207E+03  0.00000000000E+00 0. -1.
         23    2    1    2    0    0 -0.19266895224E+03 -0.29651848834E+03 -0.27795382553E+03  0.45941500537E+03  0.93591019577E+02 0.  0.
         11    1    3    3    0    0 -0.71953987085E+02 -0.14158728476E+03 -0.70595427996E+02  0.17380463146E+03  0.00000000000E+00 0.  1.
        -11    1    3    3    0    0 -0.12071496515E+03 -0.15493120358E+03 -0.20735839754E+03  0.28561037391E+03  0.00000000000E+00 0. -1.
         22    1    1    2    0    0  0.19266895224E+03  0.29651848834E+03 -0.16214013291E+02  0.35398789995E+03  0.00000000000E+00 0.  1.
<mgrwt>
<rscale>  0 0.75834660E+03</rscale>
<asrwt>0</asrwt>
<pdfrwt beam="1">  1        2 0.39941159E-01 0.75834660E+03</pdfrwt>
<pdfrwt beam="2">  1       -2 0.85197750E-01 0.75834660E+03</pdfrwt>
<totfact> 0.15596655E+02</totfact>
</mgrwt>
</event>
<event>
 6    1  0.1878398E-004  0.1993575E+04  0.7818608E-02  0.8609631E-01
          2   -1    0    0  501    0  0.00000000000E+00  0.00000000000E+00  0.22072119403E+04  0.22072119403E+04  0.00000000000E+00 0. -1.
         -2   -1    0    0    0  501 -0.00000000000E+00 -0.00000000000E+00 -0.45015390629E+03  0.45015390629E+03  0.00000000000E+00 0.  1.
         23    2    1    2    0    0 -0.67785071887E+03 -0.29597156509E+03  0.17669062001E+04  0.19176512051E+04  0.91366626007E+02 0.  0.
         13    1    3    3    0    0 -0.43833111420E+03 -0.22126532757E+03  0.10807139980E+04  0.11870279088E+04  0.00000000000E+00 0. -1.
        -13    1    3    3    0    0 -0.23951960467E+03 -0.74706237521E+02  0.68619220209E+03  0.73062329633E+03  0.00000000000E+00 0.  1.
         22    1    1    2    0    0  0.67785071887E+03  0.29597156509E+03 -0.98481660464E+01  0.73971464146E+03  0.00000000000E+00 0.  1.
<mgrwt>
<rscale>  0 0.19935748E+04</rscale>
<asrwt>0</asrwt>
<pdfrwt beam="1">  1        2 0.33957106E+00 0.19935748E+04</pdfrwt>
<pdfrwt beam="2">  1       -2 0.69254448E-01 0.19935748E+04</pdfrwt>
<totfact> 0.90492902E+00</totfact>
</mgrwt>
</event>
<event>
 6    1  0.1878398E-004  0.1191405E+04  0.7818608E-02  0.9120413E-01
         -2   -1    0    0    0  501 -0.00000000000E+00  0.00000000000E+00  0.38874709197E+03  0.38874709197E+03  0.00000000000E+00 0. -1.
          2   -1    0    0  501    0  0.00000000000E+00 -0.00000000000E+00 -0.91283378609E+03  0.91283378609E+03  0.00000000000E+00 0.  1.
         23    2    1    2    0    0 -0.55236137932E+03 -0.20754377995E+02 -0.49455529781E+03  0.74804141160E+03  0.97196570431E+02 0.  0.
         13    1    3    3    0    0 -0.47284891767E+03 -0.48952457572E+02 -0.43864431247E+03  0.64683172070E+03  0.00000000000E+00 0.  1.
        -13    1    3    3    0    0 -0.79512461652E+02  0.28198079577E+02 -0.55910985335E+02  0.10120969089E+03  0.00000000000E+00 0. -1.
         22    1    1    2    0    0  0.55236137932E+03  0.20754377995E+02 -0.29531396310E+02  0.55353946647E+03  0.00000000000E+00 0.  1.
<mgrwt>
<rscale>  0 0.11914050E+04</rscale>
<asrwt>0</asrwt>
<pdfrwt beam="1">  1        2 0.14043597E+00 0.11914050E+04</pdfrwt>
<pdfrwt beam="2">  1       -2 0.59807245E-01 0.11914050E+04</pdfrwt>
<totfact> 0.74011489E+01</totfact>
</mgrwt>
</event>
<event>
 6    1  0.1878398E-004  0.4537688E+04  0.7818608E-02  0.7904072E-01
          2   -1    0    0  501    0  0.00000000000E+00  0.00000000000E+00  0.31036467378E+04  0.31036467378E+04  0.00000000000E+00 0.  1.
         -2   -1    0    0    0  501 -0.00000000000E+00 -0.00000000000E+00 -0.16585821638E+04  0.16585821638E+04  0.00000000000E+00 0. -1.
         23    2    1    2    0    0  0.49574606318E+03 -0.21028880880E+04  0.14465019228E+04  0.26016955102E+04  0.92462129639E+02 0.  0.
         11    1    3    3    0    0  0.21566599404E+03 -0.94138919064E+03  0.59190719478E+03  0.11327310168E+04  0.00000000000E+00 0. -1.
        -11    1    3    3    0    0  0.28008006913E+03 -0.11614988973E+04  0.85459472801E+03  0.14689644934E+04  0.00000000000E+00 0.  1.
         22    1    1    2    0    0 -0.49574606318E+03  0.21028880880E+04 -0.14373487802E+01  0.21605333915E+04  0.00000000000E+00 0. -1.
<mgrwt>
<rscale>  0 0.45376880E+04</rscale>
<asrwt>0</asrwt>
<pdfrwt beam="1">  1        2 0.47748411E+00 0.45376880E+04</pdfrwt>
<pdfrwt beam="2">  1       -2 0.25516649E+00 0.45376880E+04</pdfrwt>
<totfact> 0.67486517E-02</totfact>
</mgrwt>
</event>
<event>
 6    1  0.1878398E-004  0.3477643E+04  0.7818608E-02  0.8119109E-01
         -2   -1    0    0    0  501 -0.00000000000E+00  0.00000000000E+00  0.10507704020E+04  0.10507704020E+04  0.00000000000E+00 0. -1.
          2   -1    0    0  501    0  0.00000000000E+00 -0.00000000000E+00 -0.28774124023E+04  0.28774124023E+04  0.00000000000E+00 0.  1.
         23    2    1    2    0    0 -0.17294771159E+03  0.14334622725E+04  0.17798163435E+03  0.14577089804E+04  0.92265984448E+02 0.  0.
         13    1    3    3    0    0 -0.12685879227E+03  0.69081960775E+03  0.70167335348E+02  0.70586708279E+03  0.00000000000E+00 0. -1.
        -13    1    3    3    0    0 -0.46088919315E+02  0.74264266472E+03  0.10781429900E+03  0.75184189762E+03  0.00000000000E+00 0.  1.
         22    1    1    2    0    0  0.17294771159E+03 -0.14334622725E+04 -0.20046236347E+04  0.24704738239E+04  0.00000000000E+00 0.  1.
<mgrwt>
<rscale>  0 0.34776428E+04</rscale>
<asrwt>0</asrwt>
<pdfrwt beam="1">  1        2 0.44267882E+00 0.34776428E+04</pdfrwt>
<pdfrwt beam="2">  1       -2 0.16165699E+00 0.34776428E+04</pdfrwt>
<totfact> 0.41797826E-01</totfact>
</mgrwt>
</event>
<event>
 6    1  0.1878398E-004  0.3762525E+04  0.7818608E-02  0.8054245E-01
         -2   -1    0    0    0  501 -0.00000000000E+00  0.00000000000E+00  0.76383377153E+03  0.76383377153E+03  0.00000000000E+00 0. -1.
          2   -1    0    0  501    0  0.00000000000E+00 -0.00000000000E+00 -0.46334022784E+04  0.46334022784E+04  0.00000000000E+00 0.  1.
         23    2    1    2    0    0 -0.81579648458E+02 -0.13328142493E+04 -0.38345677733E+04  0.40614688122E+04  0.92573439442E+02 0.  0.
         11    1    3    3    0    0 -0.39353740395E+02 -0.82477649936E+03 -0.25010480875E+04  0.26338273533E+04  0.00000000000E+00 0. -1.
        -11    1    3    3    0    0 -0.42225908063E+02 -0.50803774991E+03 -0.13335196858E+04  0.14276414589E+04  0.00000000000E+00 0.  1.
         22    1    1    2    0    0  0.81579648458E+02  0.13328142493E+04 -0.35000733502E+02  0.13357672377E+04  0.00000000000E+00 0. -1.
<mgrwt>
<rscale>  0 0.37625253E+04</rscale>
<asrwt>0</asrwt>
<pdfrwt beam="1">  1        2 0.71283112E+00 0.37625253E+04</pdfrwt>
<pdfrwt beam="2">  1       -2 0.11751289E+00 0.37625253E+04</pdfrwt>
<totfact> 0.40309919E-02</totfact>
</mgrwt>
</event>
<event>
 6    1  0.1878398E-004  0.3384224E+04  0.7818608E-02  0.8141789E-01
         -2   -1    0    0    0  501 -0.00000000000E+00  0.00000000000E+00  0.15845741183E+04  0.15845741183E+04  0.00000000000E+00 0. -1.
          2   -1    0    0  501    0  0.00000000000E+00 -0.00000000000E+00 -0.18069479059E+04  0.18069479059E+04  0.00000000000E+00 0.  1.
         23    2    1    2    0    0  0.90949158491E+03 -0.41498362503E+03 -0.14779113884E+04  0.17866042635E+04  0.91358471576E+02 0.  0.
         13    1    3    3    0    0  0.49704057676E+03 -0.21197117500E+03 -0.87549630393E+03  0.10288220897E+04  0.00000000000E+00 0. -1.
        -13    1    3    3    0    0  0.41245100815E+03 -0.20301245003E+03 -0.60241508443E+03  0.75778217381E+03  0.00000000000E+00 0.  1.
         22    1    1    2    0    0 -0.90949158491E+03  0.41498362503E+03  0.12555376007E+04  0.16049177608E+04  0.00000000000E+00 0. -1.
<mgrwt>
<rscale>  0 0.33842239E+04</rscale>
<asrwt>0</asrwt>
<pdfrwt beam="1">  1        2 0.27799198E+00 0.33842239E+04</pdfrwt>
<pdfrwt beam="2">  1       -2 0.24378063E+00 0.33842239E+04</pdfrwt>
<totfact> 0.49799683E-01</totfact>
</mgrwt>
</event>
<event>
 6    1  0.1878398E-004  0.1916203E+04  0.7818608E-02  0.8646833E-01
         -3   -1    0    0    0  501 -0.00000000000E+00  0.00000000000E+00  0.72285827836E+03  0.72285827836E+03  0.00000000000E+00 0. -1.
          3   -1    0    0  501    0  0.00000000000E+00 -0.00000000000E+00 -0.12699004054E+04  0.12699004054E+04  0.00000000000E+00 0.  1.
         23    2    1    2    0    0 -0.71669026999E+03  0.57016592340E+03 -0.55954902903E+03  0.10768490016E+04  0.88173313027E+02 0.  0.
         11    1    3    3    0    0 -0.51203453065E+03  0.36868195929E+03 -0.41625387825E+03  0.75589221378E+03  0.00000000000E+00 0.  1.
        -11    1    3    3    0    0 -0.20465573934E+03  0.20148396410E+03 -0.14329515077E+03  0.32095678786E+03  0.00000000000E+00 0. -1.
         22    1    1    2    0    0  0.71669026999E+03 -0.57016592340E+03  0.12506901941E+02  0.91590968217E+03  0.00000000000E+00 0. -1.
<mgrwt>
<rscale>  0 0.19162025E+04</rscale>
<asrwt>0</asrwt>
<pdfrwt beam="1">  1        3 0.19536929E+00 0.19162025E+04</pdfrwt>
<pdfrwt beam="2">  1       -3 0.11120897E+00 0.19162025E+04</pdfrwt>
<totfact> 0.26180773E-01</totfact>
</mgrwt>
</event>
<event>
 6    1  0.1878398E-004  0.3847688E+04  0.7818608E-02  0.8035998E-01
         -1   -1    0    0    0  501 -0.00000000000E+00  0.00000000000E+00  0.13182352347E+04  0.13182352347E+04  0.00000000000E+00 0. -1.
          1   -1    0    0  501    0  0.00000000000E+00 -0.00000000000E+00 -0.28076746481E+04  0.28076746481E+04  0.00000000000E+00 0.  1.
         23    2    1    2    0    0  0.65910743918E+03 -0.14959135511E+04  0.34042820032E+03  0.16722197123E+04  0.90815405460E+02 0.  0.
         13    1    3    3    0    0  0.52799108133E+03 -0.11463733789E+04  0.22998348903E+03  0.12829025337E+04  0.00000000000E+00 0.  1.
        -13    1    3    3    0    0  0.13111635785E+03 -0.34954017221E+03  0.11044471129E+03  0.38931717858E+03  0.00000000000E+00 0. -1.
         22    1    1    2    0    0 -0.65910743918E+03  0.14959135511E+04 -0.18298676138E+04  0.24536901705E+04  0.00000000000E+00 0.  1.
<mgrwt>
<rscale>  0 0.38476880E+04</rscale>
<asrwt>0</asrwt>
<pdfrwt beam="1">  1        1 0.43194994E+00 0.38476880E+04</pdfrwt>
<pdfrwt beam="2">  1       -1 0.20280542E+00 0.38476880E+04</pdfrwt>
<totfact> 0.93857237E-02</totfact>
</mgrwt>
</event>
<event>
 6    1  0.1987021E-004  0.3230701E+04  0.7818608E-02  0.8180756E-01
         -1   -1    0    0    0  501 -0.00000000000E+00  0.00000000000E+00  0.15263634416E+04  0.15263634416E+04  0.00000000000E+00 0. -1.
          1   -1    0    0  501    0  0.00000000000E+00 -0.00000000000E+00 -0.17095250509E+04  0.17095250509E+04  0.00000000000E+00 0.  1.
         23    2    1    2    0    0  0.14512938114E+04  0.40125564755E+03  0.49064954356E+03  0.15862578394E+04  0.90648424979E+02 0.  0.
         13    1    3    3    0    0  0.53817750856E+03  0.17523418217E+03  0.22205529489E+03  0.60798898288E+03  0.00000000000E+00 0.  1.
        -13    1    3    3    0    0  0.91311630283E+03  0.22602146537E+03  0.26859424867E+03  0.97826885656E+03  0.00000000000E+00 0. -1.
         22    1    1    2    0    0 -0.14512938114E+04 -0.40125564755E+03 -0.67381115286E+03  0.16496306530E+04  0.00000000000E+00 0.  1.
<mgrwt>
<rscale>  0 0.32307006E+04</rscale>
<asrwt>0</asrwt>
<pdfrwt beam="1">  1        1 0.26300385E+00 0.32307006E+04</pdfrwt>
<pdfrwt beam="2">  1       -1 0.23482514E+00 0.32307006E+04</pdfrwt>
<totfact> 0.34361087E-01</totfact>
</mgrwt>
</event>
<event>
 6    1  0.1878398E-004  0.3898451E+04  0.7818608E-02  0.8025352E-01
          2   -1    0    0  501    0  0.00000000000E+00  0.00000000000E+00  0.11517557398E+04  0.11517557398E+04  0.00000000000E+00 0.  1.
         -2   -1    0    0    0  501 -0.00000000000E+00 -0.00000000000E+00 -0.32988585860E+04  0.32988585860E+04  0.00000000000E+00 0. -1.
         23    2    1    2    0    0  0.45370135144E+03  0.87307801828E+03 -0.29936917549E+04  0.31526070366E+04  0.92901354640E+02 0.  0.
         11    1    3    3    0    0  0.23905938277E+03  0.41123518040E+03 -0.13165804272E+04  0.13998742027E+04  0.00000000000E+00 0.  1.
        -11    1    3    3    0    0  0.21464196867E+03  0.46184283788E+03 -0.16771113277E+04  0.17527328340E+04  0.00000000000E+00 0. -1.
         22    1    1    2    0    0 -0.45370135144E+03 -0.87307801828E+03  0.84658890878E+03  0.12980072892E+04  0.00000000000E+00 0.  1.
<mgrwt>
<rscale>  0 0.38984506E+04</rscale>
<asrwt>0</asrwt>
<pdfrwt beam="1">  1        2 0.17719319E+00 0.38984506E+04</pdfrwt>
<pdfrwt beam="2">  1       -2 0.50751670E+00 0.38984506E+04</pdfrwt>
<totfact> 0.23908129E-02</totfact>
</mgrwt>
</event>
<event>
 6    1  0.1878398E-004  0.2225328E+04  0.7818608E-02  0.8507959E-01
         -2   -1    0    0    0  501 -0.00000000000E+00  0.00000000000E+00  0.67833394863E+03  0.67833394863E+03  0.00000000000E+00 0. -1.
          2   -1    0    0  501    0  0.00000000000E+00 -0.00000000000E+00 -0.18250916359E+04  0.18250916359E+04  0.00000000000E+00 0.  1.
         23    2    1    2    0    0 -0.63429457593E+03  0.87107279350E+03 -0.27095903695E+03  0.11148577265E+04  0.91605294134E+02 0.  0.
         13    1    3    3    0    0 -0.23208953106E+03  0.26126344214E+03 -0.60687618103E+02  0.35469299911E+03  0.00000000000E+00 0.  1.
        -13    1    3    3    0    0 -0.40220504487E+03  0.60980935136E+03 -0.21027141885E+03  0.76016472735E+03  0.00000000000E+00 0. -1.
         22    1    1    2    0    0  0.63429457593E+03 -0.87107279350E+03 -0.87579865037E+03  0.13885678581E+04  0.00000000000E+00 0.  1.
<mgrwt>
<rscale>  0 0.22253284E+04</rscale>
<asrwt>0</asrwt>
<pdfrwt beam="1">  1        2 0.28078332E+00 0.22253284E+04</pdfrwt>
<pdfrwt beam="2">  1       -2 0.10435907E+00 0.22253284E+04</pdfrwt>
<totfact> 0.56860357E+00</totfact>
</mgrwt>
</event>
<event>
 6    1  0.1878398E-004  0.2174934E+04  0.7818608E-02  0.8528934E-01
         -2   -1    0    0    0  501 -0.00000000000E+00  0.00000000000E+00  0.57459160222E+03  0.57459160222E+03  0.00000000000E+00 0. -1.
          2   -1    0    0  501    0  0.00000000000E+00 -0.00000000000E+00 -0.20581303861E+04  0.20581303861E+04  0.00000000000E+00 0.  1.
         23    2    1    2    0    0  0.18432276593E+03 -0.10658387481E+04 -0.63088149905E+03  0.12554015592E+04  0.89635316538E+02 0.  0.
         11    1    3    3    0    0  0.15186345395E+03 -0.72425166119E+03 -0.46805581916E+03  0.87560220833E+03  0.00000000000E+00 0.  1.
        -11    1    3    3    0    0  0.32459311974E+02 -0.34158708694E+03 -0.16282567990E+03  0.37979935088E+03  0.00000000000E+00 0. -1.
         22    1    1    2    0    0 -0.18432276593E+03  0.10658387481E+04 -0.85265728481E+03  0.13773204291E+04  0.00000000000E+00 0.  1.
<mgrwt>
<rscale>  0 0.21749340E+04</rscale>
<asrwt>0</asrwt>
<pdfrwt beam="1">  1        2 0.31663545E+00 0.21749340E+04</pdfrwt>
<pdfrwt beam="2">  1       -2 0.88398706E-01 0.21749340E+04</pdfrwt>
<totfact> 0.62551879E+00</totfact>
</mgrwt>
</event>
<event>
 6    1  0.1878398E-004  0.4387378E+04  0.7818608E-02  0.7930656E-01
         -2   -1    0    0    0  501 -0.00000000000E+00  0.00000000000E+00  0.13747084981E+04  0.13747084981E+04  0.00000000000E+00 0. -1.
          2   -1    0    0  501    0  0.00000000000E+00 -0.00000000000E+00 -0.35005762379E+04  0.35005762379E+04  0.00000000000E+00 0.  1.
         23    2    1    2    0    0  0.15013605182E+04  0.63043586495E+03 -0.26954339229E+04  0.31501938914E+04  0.82611955008E+02 0.  0.
         11    1    3    3    0    0  0.43387192073E+03  0.22268420795E+03 -0.79470991162E+03  0.93241457715E+03  0.00000000000E+00 0.  1.
        -11    1    3    3    0    0  0.10674885975E+04  0.40775165700E+03 -0.19007240112E+04  0.22177793142E+04  0.00000000000E+00 0. -1.
         22    1    1    2    0    0 -0.15013605182E+04 -0.63043586495E+03  0.56956618303E+03  0.17250908447E+04  0.00000000000E+00 0.  1.
<mgrwt>
<rscale>  0 0.43873782E+04</rscale>
<asrwt>0</asrwt>
<pdfrwt beam="1">  1        2 0.53855017E+00 0.43873782E+04</pdfrwt>
<pdfrwt beam="2">  1       -2 0.21149362E+00 0.43873782E+04</pdfrwt>
<totfact> 0.69426906E-02</totfact>
</mgrwt>
</event>
<event>
 6    1  0.1878398E-004  0.3728361E+04  0.7818608E-02  0.8061706E-01
         -2   -1    0    0    0  501 -0.00000000000E+00  0.00000000000E+00  0.30476552729E+04  0.30476552729E+04  0.00000000000E+00 0. -1.
          2   -1    0    0  501    0  0.00000000000E+00 -0.00000000000E+00 -0.11402762136E+04  0.11402762136E+04  0.00000000000E+00 0.  1.
         23    2    1    2    0    0 -0.95127542828E+03  0.56984803230E+03  0.26358433059E+04  0.28611640318E+04  0.94540803435E+02 0.  0.
         13    1    3    3    0    0 -0.28986693727E+03  0.12415911444E+03  0.75505927007E+03  0.81826207803E+03  0.00000000000E+00 0. -1.
        -13    1    3    3    0    0 -0.66140849100E+03  0.44568891786E+03  0.18807840358E+04  0.20429019538E+04  0.00000000000E+00 0.  1.
         22    1    1    2    0    0  0.95127542828E+03 -0.56984803230E+03 -0.72846424656E+03  0.13267674547E+04  0.00000000000E+00 0.  1.
<mgrwt>
<rscale>  0 0.37283609E+04</rscale>
<asrwt>0</asrwt>
<pdfrwt beam="1">  1        2 0.17542711E+00 0.37283609E+04</pdfrwt>
<pdfrwt beam="2">  1       -2 0.46887004E+00 0.37283609E+04</pdfrwt>
<totfact> 0.43269299E-02</totfact>
</mgrwt>
</event>
<event>
 6    1  0.1878398E-004  0.3727823E+04  0.7818608E-02  0.8061824E-01
         -2   -1    0    0    0  501 -0.00000000000E+00  0.00000000000E+00  0.90376407665E+03  0.90376407665E+03  0.00000000000E+00 0. -1.
          2   -1    0    0  501    0  0.00000000000E+00 -0.00000000000E+00 -0.38441075736E+04  0.38441075736E+04  0.00000000000E+00 0.  1.
         23    2    1    2    0    0 -0.56766142169E+03 -0.20658692956E+03 -0.37153453710E+04  0.37652498747E+04  0.91639205070E+02 0.  0.
         11    1    3    3    0    0 -0.40846305474E+03 -0.16769000305E+03 -0.29200931711E+04  0.29532873433E+04  0.00000000000E+00 0.  1.
        -11    1    3    3    0    0 -0.15919836694E+03 -0.38896926506E+02 -0.79525219988E+03  0.81196253137E+03  0.00000000000E+00 0. -1.
         22    1    1    2    0    0  0.56766142169E+03  0.20658692956E+03  0.77500187402E+03  0.98262177560E+03  0.00000000000E+00 0. -1.
<mgrwt>
<rscale>  0 0.37278231E+04</rscale>
<asrwt>0</asrwt>
<pdfrwt beam="1">  1        2 0.59140117E+00 0.37278231E+04</pdfrwt>
<pdfrwt beam="2">  1       -2 0.13904063E+00 0.37278231E+04</pdfrwt>
<totfact> 0.13363255E-01</totfact>
</mgrwt>
</event>
<event>
 6    1  0.1878398E-004  0.3210555E+04  0.7818608E-02  0.8186035E-01
          1   -1    0    0  501    0  0.00000000000E+00  0.00000000000E+00  0.14539974807E+04  0.14539974807E+04  0.00000000000E+00 0.  1.
         -1   -1    0    0    0  501 -0.00000000000E+00 -0.00000000000E+00 -0.17722977480E+04  0.17722977480E+04  0.00000000000E+00 0. -1.
         23    2    1    2    0    0 -0.39919304257E+02  0.10254943677E+04 -0.13980826969E+04  0.17366099116E+04  0.89143191923E+02 0.  0.
         11    1    3    3    0    0 -0.39637506676E+02  0.55078268742E+03 -0.68309645502E+03  0.87838116303E+03  0.00000000000E+00 0.  1.
        -11    1    3    3    0    0 -0.28179758056E+00  0.47471168025E+03 -0.71498624186E+03  0.85822874854E+03  0.00000000000E+00 0. -1.
         22    1    1    2    0    0  0.39919304257E+02 -0.10254943677E+04  0.10797824296E+04  0.14896853172E+04  0.00000000000E+00 0.  1.
<mgrwt>
<rscale>  0 0.32105554E+04</rscale>
<asrwt>0</asrwt>
<pdfrwt beam="1">  1        1 0.22369192E+00 0.32105554E+04</pdfrwt>
<pdfrwt beam="2">  1       -1 0.27266119E+00 0.32105554E+04</pdfrwt>
<totfact> 0.29228050E-01</totfact>
</mgrwt>
</event>
<event>
 6    1  0.1878398E-004  0.2399096E+04  0.7818608E-02  0.8439842E-01
          2   -1    0    0  501    0  0.00000000000E+00  0.00000000000E+00  0.19995689635E+04  0.19995689635E+04  0.00000000000E+00 0.  1.
         -2   -1    0    0    0  501 -0.00000000000E+00 -0.00000000000E+00 -0.71961262562E+03  0.71961262562E+03  0.00000000000E+00 0. -1.
         23    2    1    2    0    0  0.11357667953E+04 -0.35830915506E+03  0.78644039894E+03  0.14300308432E+04  0.90266535502E+02 0.  0.
         13    1    3    3    0    0  0.60348257904E+03 -0.20150354335E+03  0.47232303072E+03  0.79239128373E+03  0.00000000000E+00 0.  1.
        -13    1    3    3    0    0  0.53228421625E+03 -0.15680561171E+03  0.31411736821E+03  0.63763955943E+03  0.00000000000E+00 0. -1.
         22    1    1    2    0    0 -0.11357667953E+04  0.35830915506E+03  0.49351593899E+03  0.12891507460E+04  0.00000000000E+00 0. -1.
<mgrwt>
<rscale>  0 0.23990957E+04</rscale>
<asrwt>0</asrwt>
<pdfrwt beam="1">  1        2 0.30762599E+00 0.23990957E+04</pdfrwt>
<pdfrwt beam="2">  1       -2 0.11070964E+00 0.23990957E+04</pdfrwt>
<totfact> 0.38885650E+00</totfact>
</mgrwt>
</event>
<event>
 6    1  0.1878398E-004  0.3025562E+04  0.7818608E-02  0.8236469E-01
          3   -1    0    0  501    0  0.00000000000E+00  0.00000000000E+00  0.10313893747E+04  0.10313893747E+04  0.00000000000E+00 0.  1.
         -3   -1    0    0    0  501 -0.00000000000E+00 -0.00000000000E+00 -0.22188572707E+04  0.22188572707E+04  0.00000000000E+00 0. -1.
         23    2    1    2    0    0  0.12910154672E+03 -0.11761739517E+04  0.41512301327E+03  0.12581748603E+04  0.10307516132E+03 0.  0.
         11    1    3    3    0    0  0.13197873308E+03 -0.76032039292E+03  0.25971193687E+03  0.81422096266E+03  0.00000000000E+00 0.  1.
        -11    1    3    3    0    0 -0.28771863594E+01 -0.41585355882E+03  0.15541107639E+03  0.44395389767E+03  0.00000000000E+00 0. -1.
         22    1    1    2    0    0 -0.12910154672E+03  0.11761739517E+04 -0.16025909093E+04  0.19920717850E+04  0.00000000000E+00 0. -1.
<mgrwt>
<rscale>  0 0.30255616E+04</rscale>
<asrwt>0</asrwt>
<pdfrwt beam="1">  1        3 0.15867529E+00 0.30255616E+04</pdfrwt>
<pdfrwt beam="2">  1       -3 0.34136265E+00 0.30255616E+04</pdfrwt>
<totfact> 0.13826977E-02</totfact>
</mgrwt>
</event>
<event>
 6    1  0.1878398E-004  0.1993733E+04  0.7818608E-02  0.8609556E-01
         -2   -1    0    0    0  501 -0.00000000000E+00  0.00000000000E+00  0.10538428700E+04  0.10538428700E+04  0.00000000000E+00 0. -1.
          2   -1    0    0  501    0  0.00000000000E+00 -0.00000000000E+00 -0.94297093064E+03  0.94297093064E+03  0.00000000000E+00 0.  1.
         23    2    1    2    0    0 -0.27500370555E+03  0.39294910146E+03 -0.81714998783E+03  0.95217954323E+03  0.94211175232E+02 0.  0.
         11    1    3    3    0    0 -0.14071889470E+03  0.26090752150E+03 -0.43876095634E+03  0.52951460689E+03  0.00000000000E+00 0. -1.
        -11    1    3    3    0    0 -0.13428481085E+03  0.13204157996E+03 -0.37838903149E+03  0.42266493635E+03  0.00000000000E+00 0.  1.
         22    1    1    2    0    0  0.27500370555E+03 -0.39294910146E+03  0.92802192720E+03  0.10446342574E+04  0.00000000000E+00 0.  1.
<mgrwt>
<rscale>  0 0.19937334E+04</rscale>
<asrwt>0</asrwt>
<pdfrwt beam="1">  1        2 0.14507245E+00 0.19937334E+04</pdfrwt>
<pdfrwt beam="2">  1       -2 0.16212967E+00 0.19937334E+04</pdfrwt>
<totfact> 0.61958064E+00</totfact>
</mgrwt>
</event>
<event>
 6    1  0.1878398E-004  0.8472839E+03  0.7818608E-02  0.9493990E-01
          2   -1    0    0  501    0  0.00000000000E+00  0.00000000000E+00  0.47651364134E+03  0.47651364134E+03  0.00000000000E+00 0.  1.
         -2   -1    0    0    0  501 -0.00000000000E+00 -0.00000000000E+00 -0.37663667531E+03  0.37663667531E+03  0.00000000000E+00 0. -1.
         23    2    1    2    0    0 -0.49053256993E+00  0.41680181249E+03  0.91217374017E+02  0.43625826821E+03  0.90976237241E+02 0.  0.
         13    1    3    3    0    0  0.33514500197E+02  0.65265328026E+02  0.12705350899E+02  0.74459456802E+02  0.00000000000E+00 0.  1.
        -13    1    3    3    0    0 -0.34005032766E+02  0.35153648447E+03  0.78512023118E+02  0.36179881141E+03  0.00000000000E+00 0. -1.
         22    1    1    2    0    0  0.49053256993E+00 -0.41680181249E+03  0.86595920088E+01  0.41689204844E+03  0.00000000000E+00 0.  1.
<mgrwt>
<rscale>  0 0.84728393E+03</rscale>
<asrwt>0</asrwt>
<pdfrwt beam="1">  1        2 0.73309791E-01 0.84728393E+03</pdfrwt>
<pdfrwt beam="2">  1       -2 0.57944104E-01 0.84728393E+03</pdfrwt>
<totfact> 0.18259808E+02</totfact>
</mgrwt>
</event>
<event>
 6    1  0.1878398E-004  0.1583378E+04  0.7818608E-02  0.8830825E-01
          2   -1    0    0  501    0  0.00000000000E+00  0.00000000000E+00  0.16179199028E+04  0.16179199028E+04  0.00000000000E+00 0.  1.
         -2   -1    0    0    0  501 -0.00000000000E+00 -0.00000000000E+00 -0.38739356254E+03  0.38739356254E+03  0.00000000000E+00 0. -1.
         23    2    1    2    0    0 -0.78901600086E+03  0.15650717413E+02  0.63662609492E+03  0.10176350278E+04  0.86585625290E+02 0.  0.
         11    1    3    3    0    0 -0.60049091071E+03  0.45344695635E+02  0.50328166224E+03  0.78481711680E+03  0.00000000000E+00 0.  1.
        -11    1    3    3    0    0 -0.18852509015E+03 -0.29693978222E+02  0.13334443268E+03  0.23281791100E+03  0.00000000000E+00 0. -1.
         22    1    1    2    0    0  0.78901600086E+03 -0.15650717413E+02  0.59390024532E+03  0.98767843753E+03  0.00000000000E+00 0.  1.
<mgrwt>
<rscale>  0 0.15833784E+04</rscale>
<asrwt>0</asrwt>
<pdfrwt beam="1">  1        2 0.24891075E+00 0.15833784E+04</pdfrwt>
<pdfrwt beam="2">  1       -2 0.59599011E-01 0.15833784E+04</pdfrwt>
<totfact> 0.27482295E+01</totfact>
</mgrwt>
</event>
<event>
 6    1  0.1878398E-004  0.1922426E+04  0.7818608E-02  0.8643773E-01
         -2   -1    0    0    0  501 -0.00000000000E+00  0.00000000000E+00  0.33920422021E+03  0.33920422021E+03  0.00000000000E+00 0. -1.
          2   -1    0    0  501    0  0.00000000000E+00 -0.00000000000E+00 -0.27238174824E+04  0.27238174824E+04  0.00000000000E+00 0.  1.
         23    2    1    2    0    0 -0.90719301906E+03 -0.30459193698E+03 -0.10938699729E+04  0.14562256170E+04  0.90918139386E+02 0.  0.
         13    1    3    3    0    0 -0.61302993020E+03 -0.23308056834E+03 -0.69660375131E+03  0.95675965268E+03  0.00000000000E+00 0. -1.
        -13    1    3    3    0    0 -0.29416308886E+03 -0.71511368645E+02 -0.39726622154E+03  0.49946596428E+03  0.00000000000E+00 0.  1.
         22    1    1    2    0    0  0.90719301906E+03  0.30459193698E+03 -0.12907432893E+04  0.16067960857E+04  0.00000000000E+00 0. -1.
<mgrwt>
<rscale>  0 0.19224260E+04</rscale>
<asrwt>0</asrwt>
<pdfrwt beam="1">  1        2 0.41904886E+00 0.19224260E+04</pdfrwt>
<pdfrwt beam="2">  1       -2 0.52185263E-01 0.19224260E+04</pdfrwt>
<totfact> 0.83410307E+00</totfact>
</mgrwt>
</event>
<event>
 6    1  0.1878398E-004  0.3136629E+04  0.7818608E-02  0.8205757E-01
         -2   -1    0    0    0  501 -0.00000000000E+00  0.00000000000E+00  0.11921375645E+04  0.11921375645E+04  0.00000000000E+00 0. -1.
          2   -1    0    0  501    0  0.00000000000E+00 -0.00000000000E+00 -0.20631933146E+04  0.20631933146E+04  0.00000000000E+00 0.  1.
         23    2    1    2    0    0  0.46367595998E+03  0.92783164867E+03 -0.16550646457E+04  0.19551243907E+04  0.86054851515E+02 0.  0.
         11    1    3    3    0    0  0.14873311272E+03  0.38996746168E+03 -0.68001457593E+03  0.79788218646E+03  0.00000000000E+00 0. -1.
        -11    1    3    3    0    0  0.31494284727E+03  0.53786418699E+03 -0.97505006974E+03  0.11572422042E+04  0.00000000000E+00 0.  1.
         22    1    1    2    0    0 -0.46367595998E+03 -0.92783164867E+03  0.78400889555E+03  0.13002064884E+04  0.00000000000E+00 0. -1.
<mgrwt>
<rscale>  0 0.31366289E+04</rscale>
<asrwt>0</asrwt>
<pdfrwt beam="1">  1        2 0.31741435E+00 0.31366289E+04</pdfrwt>
<pdfrwt beam="2">  1       -2 0.18340578E+00 0.31366289E+04</pdfrwt>
<totfact> 0.89599108E-01</totfact>
</mgrwt>
</event>
<event>
 6    1  0.1878398E-004  0.1552337E+04  0.7818608E-02  0.8850376E-01
         -1   -1    0    0    0  501 -0.00000000000E+00  0.00000000000E+00  0.34489835996E+03  0.34489835996E+03  0.00000000000E+00 0.  1.
          1   -1    0    0  501    0  0.00000000000E+00 -0.00000000000E+00 -0.17467099543E+04  0.17467099543E+04  0.00000000000E+00 0. -1.
         23    2    1    2    0    0 -0.34259131632E+03  0.35073686235E+03  0.10283740167E+03  0.50909330396E+03  0.90638315989E+02 0.  0.
         13    1    3    3    0    0 -0.95561893792E+02  0.14883253761E+03  0.62118009479E+02  0.18746158780E+03  0.00000000000E+00 0.  1.
        -13    1    3    3    0    0 -0.24702942253E+03  0.20190432474E+03  0.40719392195E+02  0.32163171616E+03  0.00000000000E+00 0. -1.
         22    1    1    2    0    0  0.34259131632E+03 -0.35073686235E+03 -0.15046489960E+04  0.15825150103E+04  0.00000000000E+00 0. -1.
<mgrwt>
<rscale>  0 0.15523368E+04</rscale>
<asrwt>0</asrwt>
<pdfrwt beam="1">  1        1 0.26872460E+00 0.15523368E+04</pdfrwt>
<pdfrwt beam="2">  1       -1 0.53061287E-01 0.15523368E+04</pdfrwt>
<totfact> 0.15280698E+01</totfact>
</mgrwt>
</event>
<event>
 6    1  0.1878398E-004  0.4039344E+04  0.7818608E-02  0.7996656E-01
          2   -1    0    0  501    0  0.00000000000E+00  0.00000000000E+00  0.17527491620E+04  0.17527491620E+04  0.00000000000E+00 0.  1.
         -2   -1    0    0    0  501 -0.00000000000E+00 -0.00000000000E+00 -0.23272442922E+04  0.23272442922E+04  0.00000000000E+00 0. -1.
         23    2    1    2    0    0  0.32866965754E+03 -0.13722331268E+04 -0.17462255304E+04  0.22458725125E+04  0.59935307041E+02 0.  0.
         13    1    3    3    0    0  0.15523508928E+03 -0.75563555729E+03 -0.97980962814E+03  0.12470404708E+04  0.00000000000E+00 0.  1.
        -13    1    3    3    0    0  0.17343456825E+03 -0.61659756955E+03 -0.76641590230E+03  0.99883204171E+03  0.00000000000E+00 0. -1.
         22    1    1    2    0    0 -0.32866965754E+03  0.13722331268E+04  0.11717304002E+04  0.18341209417E+04  0.00000000000E+00 0.  1.
<mgrwt>
<rscale>  0 0.40393442E+04</rscale>
<asrwt>0</asrwt>
<pdfrwt beam="1">  1        2 0.26965372E+00 0.40393442E+04</pdfrwt>
<pdfrwt beam="2">  1       -2 0.35803759E+00 0.40393442E+04</pdfrwt>
<totfact> 0.99727987E-02</totfact>
</mgrwt>
</event>
<event>
 6    1  0.1878398E-004  0.9671832E+03  0.7818608E-02  0.9345289E-01
          1   -1    0    0  501    0  0.00000000000E+00  0.00000000000E+00  0.12847499283E+04  0.12847499283E+04  0.00000000000E+00 0. -1.
         -1   -1    0    0    0  501 -0.00000000000E+00 -0.00000000000E+00 -0.18202829705E+03  0.18202829705E+03  0.00000000000E+00 0.  1.
         23    2    1    2    0    0  0.74643597727E+02 -0.31889101411E+03  0.10887374385E+04  0.11389692822E+04  0.68107784742E+02 0.  0.
         13    1    3    3    0    0  0.56539002993E+02 -0.15896720027E+03  0.65343352349E+03  0.67486487481E+03  0.00000000000E+00 0.  1.
        -13    1    3    3    0    0  0.18104594734E+02 -0.15992381384E+03  0.43530391498E+03  0.46410440742E+03  0.00000000000E+00 0. -1.
         22    1    1    2    0    0 -0.74643597727E+02  0.31889101411E+03  0.13984192808E+02  0.32780894315E+03  0.00000000000E+00 0.  1.
<mgrwt>
<rscale>  0 0.96718321E+03</rscale>
<asrwt>0</asrwt>
<pdfrwt beam="1">  1        1 0.19765383E+00 0.96718321E+03</pdfrwt>
<pdfrwt beam="2">  1       -1 0.28004354E-01 0.96718321E+03</pdfrwt>
<totfact> 0.10714735E+02</totfact>
</mgrwt>
</event>
<event>
 6    1  0.1878398E-004  0.1469902E+04  0.7818608E-02  0.8904718E-01
         -1   -1    0    0    0  501 -0.00000000000E+00  0.00000000000E+00  0.15520604038E+04  0.15520604038E+04  0.00000000000E+00 0. -1.
          1   -1    0    0  501    0  0.00000000000E+00 -0.00000000000E+00 -0.34802310476E+03  0.34802310476E+03  0.00000000000E+00 0.  1.
         23    2    1    2    0    0  0.25313052661E+03  0.85312007938E+02 -0.27669250628E+03  0.39545267060E+03  0.92037326422E+02 0.  0.
         11    1    3    3    0    0  0.11115541656E+03  0.82351580661E+02 -0.11200658226E+03  0.17799658406E+03  0.00000000000E+00 0. -1.
        -11    1    3    3    0    0  0.14197511005E+03  0.29604272770E+01 -0.16468592402E+03  0.21745608654E+03  0.00000000000E+00 0.  1.
         22    1    1    2    0    0 -0.25313052661E+03 -0.85312007938E+02  0.14807298053E+04  0.15046308380E+04  0.00000000000E+00 0. -1.
<mgrwt>
<rscale>  0 0.14699019E+04</rscale>
<asrwt>0</asrwt>
<pdfrwt beam="1">  1        1 0.53542017E-01 0.14699019E+04</pdfrwt>
<pdfrwt beam="2">  1       -1 0.23877852E+00 0.14699019E+04</pdfrwt>
<totfact> 0.57811028E+00</totfact>
</mgrwt>
</event>
<event>
 6    1  0.1878398E-004  0.2827867E+04  0.7818608E-02  0.8294668E-01
          2   -1    0    0  501    0  0.00000000000E+00  0.00000000000E+00  0.48998783368E+03  0.48998783368E+03  0.00000000000E+00 0.  1.
         -2   -1    0    0    0  501 -0.00000000000E+00 -0.00000000000E+00 -0.40801189398E+04  0.40801189398E+04  0.00000000000E+00 0. -1.
         23    2    1    2    0    0  0.10648005306E+04  0.23915734828E+02 -0.32962689529E+04  0.34652415793E+04  0.90211199571E+02 0.  0.
         11    1    3    3    0    0  0.80125052100E+03 -0.32182630202E+01 -0.23668981749E+04  0.24988436775E+04  0.00000000000E+00 0.  1.
        -11    1    3    3    0    0  0.26355000958E+03  0.27133997848E+02 -0.92937077803E+03  0.96639790172E+03  0.00000000000E+00 0. -1.
         22    1    1    2    0    0 -0.10648005306E+04 -0.23915734828E+02 -0.29386215323E+03  0.11048651942E+04  0.00000000000E+00 0.  1.
<mgrwt>
<rscale>  0 0.28278675E+04</rscale>
<asrwt>0</asrwt>
<pdfrwt beam="1">  1        2 0.75382744E-01 0.28278675E+04</pdfrwt>
<pdfrwt beam="2">  1       -2 0.62771060E+00 0.28278675E+04</pdfrwt>
<totfact> 0.21602970E-02</totfact>
</mgrwt>
</event>
<event>
 6    1  0.1878398E-004  0.3655047E+04  0.7818608E-02  0.8077998E-01
          1   -1    0    0  501    0  0.00000000000E+00  0.00000000000E+00  0.31430287456E+04  0.31430287456E+04  0.00000000000E+00 0. -1.
         -1   -1    0    0    0  501 -0.00000000000E+00 -0.00000000000E+00 -0.10626190829E+04  0.10626190829E+04  0.00000000000E+00 0.  1.
         23    2    1    2    0    0 -0.17782950910E+04 -0.15999252950E+03  0.60057768512E+03  0.18866321490E+04  0.10371243714E+03 0.  0.
         13    1    3    3    0    0 -0.29411414320E+03 -0.57663429547E+02  0.12532587075E+03  0.32486116144E+03  0.00000000000E+00 0. -1.
        -13    1    3    3    0    0 -0.14841809478E+04 -0.10232909995E+03  0.47525181437E+03  0.15617709876E+04  0.00000000000E+00 0.  1.
         22    1    1    2    0    0  0.17782950910E+04  0.15999252950E+03  0.14798319776E+04  0.23190156796E+04  0.00000000000E+00 0. -1.
<mgrwt>
<rscale>  0 0.36550471E+04</rscale>
<asrwt>0</asrwt>
<pdfrwt beam="1">  1        1 0.48354288E+00 0.36550471E+04</pdfrwt>
<pdfrwt beam="2">  1       -1 0.16347986E+00 0.36550471E+04</pdfrwt>
<totfact> 0.10378432E-01</totfact>
</mgrwt>
</event>
<event>
 6    1  0.1878398E-004  0.2341802E+04  0.7818608E-02  0.8461619E-01
         -2   -1    0    0    0  501 -0.00000000000E+00  0.00000000000E+00  0.38425456692E+03  0.38425456692E+03  0.00000000000E+00 0.  1.
          2   -1    0    0  501    0  0.00000000000E+00 -0.00000000000E+00 -0.35679699770E+04  0.35679699770E+04  0.00000000000E+00 0. -1.
         23    2    1    2    0    0  0.92061109283E+03  0.61103231086E+03 -0.22394369517E+04  0.24987641640E+04  0.88652226407E+02 0.  0.
         11    1    3    3    0    0  0.37876547129E+03  0.20152713742E+03 -0.84064164522E+03  0.94379809548E+03  0.00000000000E+00 0.  1.
        -11    1    3    3    0    0  0.54184562155E+03  0.40950517344E+03 -0.13987953065E+04  0.15549660685E+04  0.00000000000E+00 0. -1.
         22    1    1    2    0    0 -0.92061109283E+03 -0.61103231086E+03 -0.94427845833E+03  0.14534603799E+04  0.00000000000E+00 0.  1.
<mgrwt>
<rscale>  0 0.23418017E+04</rscale>
<asrwt>0</asrwt>
<pdfrwt beam="1">  1        2 0.54891844E+00 0.23418017E+04</pdfrwt>
<pdfrwt beam="2">  1       -2 0.59116089E-01 0.23418017E+04</pdfrwt>
<totfact> 0.17622384E+00</totfact>
</mgrwt>
</event>
<event>
 6    1  0.1878398E-004  0.2067207E+04  0.7818608E-02  0.8575828E-01
          2   -1    0    0  501    0  0.00000000000E+00  0.00000000000E+00  0.27764123469E+04  0.27764123469E+04  0.00000000000E+00 0.  1.
         -2   -1    0    0    0  501 -0.00000000000E+00 -0.00000000000E+00 -0.38479010914E+03  0.38479010914E+03  0.00000000000E+00 0. -1.
         23    2    1    2    0    0  0.16034883395E+03  0.93004126938E+03  0.18346358099E+04  0.20653364094E+04  0.95065335266E+02 0.  0.
         11    1    3    3    0    0  0.16103344319E+03  0.78172244598E+03  0.14945502196E+04  0.16943146436E+04  0.00000000000E+00 0. -1.
        -11    1    3    3    0    0 -0.68460923745E+00  0.14831882340E+03  0.34008559024E+03  0.37102176587E+03  0.00000000000E+00 0.  1.
         22    1    1    2    0    0 -0.16034883395E+03 -0.93004126938E+03  0.55698642790E+03  0.10958660466E+04  0.00000000000E+00 0. -1.
<mgrwt>
<rscale>  0 0.20672068E+04</rscale>
<asrwt>0</asrwt>
<pdfrwt beam="1">  1        2 0.42714035E+00 0.20672068E+04</pdfrwt>
<pdfrwt beam="2">  1       -2 0.59198480E-01 0.20672068E+04</pdfrwt>
<totfact> 0.58901445E+00</totfact>
</mgrwt>
</event>
<event>
 6    1  0.1878398E-004  0.5082994E+04  0.7818608E-02  0.7815831E-01
          2   -1    0    0  501    0  0.00000000000E+00  0.00000000000E+00  0.30608929128E+04  0.30608929128E+04  0.00000000000E+00 0.  1.
         -2   -1    0    0    0  501 -0.00000000000E+00 -0.00000000000E+00 -0.21102363743E+04  0.21102363743E+04  0.00000000000E+00 0. -1.
         23    2    1    2    0    0  0.13057599540E+04  0.42376697649E+03  0.26504332674E+04  0.29862200359E+04  0.90144828652E+02 0.  0.
         11    1    3    3    0    0  0.91400755937E+03  0.30577176289E+03  0.19459199280E+04  0.21715226353E+04  0.00000000000E+00 0.  1.
        -11    1    3    3    0    0  0.39175239462E+03  0.11799521360E+03  0.70451333944E+03  0.81469740062E+03  0.00000000000E+00 0. -1.
         22    1    1    2    0    0 -0.13057599540E+04 -0.42376697649E+03 -0.16997767289E+04  0.21849092512E+04  0.00000000000E+00 0. -1.
<mgrwt>
<rscale>  0 0.50829942E+04</rscale>
<asrwt>0</asrwt>
<pdfrwt beam="1">  1        2 0.47090660E+00 0.50829942E+04</pdfrwt>
<pdfrwt beam="2">  1       -2 0.32465175E+00 0.50829942E+04</pdfrwt>
<totfact> 0.25813557E-02</totfact>
</mgrwt>
</event>
<event>
 6    1  0.1878398E-004  0.2774313E+04  0.7818608E-02  0.8311288E-01
         -2   -1    0    0    0  501 -0.00000000000E+00  0.00000000000E+00  0.10651427916E+04  0.10651427916E+04  0.00000000000E+00 0. -1.
          2   -1    0    0  501    0  0.00000000000E+00 -0.00000000000E+00 -0.18065208067E+04  0.18065208067E+04  0.00000000000E+00 0.  1.
         23    2    1    2    0    0  0.11388023000E+04 -0.15356457170E+03  0.43070912664E+03  0.12302492619E+04  0.86891532126E+02 0.  0.
         11    1    3    3    0    0  0.55008623001E+03 -0.10142141810E+03  0.24576292032E+03  0.61096692014E+03  0.00000000000E+00 0. -1.
        -11    1    3    3    0    0  0.58871606999E+03 -0.52143153599E+02  0.18494620632E+03  0.61928234171E+03  0.00000000000E+00 0.  1.
         22    1    1    2    0    0 -0.11388023000E+04  0.15356457170E+03 -0.11720871417E+04  0.16414143365E+04  0.00000000000E+00 0.  1.
<mgrwt>
<rscale>  0 0.27743126E+04</rscale>
<asrwt>0</asrwt>
<pdfrwt beam="1">  1        2 0.27792628E+00 0.27743126E+04</pdfrwt>
<pdfrwt beam="2">  1       -2 0.16386812E+00 0.27743126E+04</pdfrwt>
<totfact> 0.17608213E+00</totfact>
</mgrwt>
</event>
<event>
 6    1  0.1878398E-004  0.2953341E+04  0.7818608E-02  0.8257182E-01
          2   -1    0    0  501    0  0.00000000000E+00  0.00000000000E+00  0.16694517901E+04  0.16694517901E+04  0.00000000000E+00 0.  1.
         -2   -1    0    0    0  501 -0.00000000000E+00 -0.00000000000E+00 -0.13061507726E+04  0.13061507726E+04  0.00000000000E+00 0. -1.
         23    2    1    2    0    0 -0.11514532517E+04  0.29032869922E+03  0.10638356743E+04  0.15968770100E+04  0.90191455750E+02 0.  0.
         11    1    3    3    0    0 -0.55498223176E+03  0.18144525559E+03  0.49466165607E+03  0.76525669702E+03  0.00000000000E+00 0. -1.
        -11    1    3    3    0    0 -0.59647101995E+03  0.10888344363E+03  0.56917401821E+03  0.83162031297E+03  0.00000000000E+00 0.  1.
         22    1    1    2    0    0  0.11514532517E+04 -0.29032869922E+03 -0.70053465676E+03  0.13787255527E+04  0.00000000000E+00 0. -1.
<mgrwt>
<rscale>  0 0.29533410E+04</rscale>
<asrwt>0</asrwt>
<pdfrwt beam="1">  1        2 0.25683874E+00 0.29533410E+04</pdfrwt>
<pdfrwt beam="2">  1       -2 0.20094627E+00 0.29533410E+04</pdfrwt>
<totfact> 0.11491679E+00</totfact>
</mgrwt>
</event>
<event>
 6    1  0.2697559E-004  0.5158310E+04  0.7818608E-02  0.7804540E-01
         -1   -1    0    0    0  501 -0.00000000000E+00  0.00000000000E+00  0.30970580815E+04  0.30970580815E+04  0.00000000000E+00 0. -1.
          1   -1    0    0  501    0  0.00000000000E+00 -0.00000000000E+00 -0.21478578406E+04  0.21478578406E+04  0.00000000000E+00 0.  1.
         23    2    1    2    0    0 -0.94275152772E+03 -0.60991273351E+03  0.28347776001E+04  0.30503371555E+04  0.88423610054E+02 0.  0.
         13    1    3    3    0    0 -0.26585765585E+03 -0.20711508135E+03  0.92629809015E+03  0.98570031040E+03  0.00000000000E+00 0. -1.
        -13    1    3    3    0    0 -0.67689387186E+03 -0.40279765217E+03  0.19084795099E+04  0.20646368451E+04  0.00000000000E+00 0.  1.
         22    1    1    2    0    0  0.94275152772E+03  0.60991273351E+03 -0.18855773591E+04  0.21945787666E+04  0.00000000000E+00 0.  1.
<mgrwt>
<rscale>  0 0.51583100E+04</rscale>
<asrwt>0</asrwt>
<pdfrwt beam="1">  1        1 0.33043967E+00 0.51583100E+04</pdfrwt>
<pdfrwt beam="2">  1       -1 0.47647047E+00 0.51583100E+04</pdfrwt>
<totfact> 0.36123885E-03</totfact>
</mgrwt>
</event>
<event>
 6    1  0.1878398E-004  0.1534084E+04  0.7818608E-02  0.8862098E-01
         -1   -1    0    0    0  501 -0.00000000000E+00  0.00000000000E+00  0.22424633573E+03  0.22424633573E+03  0.00000000000E+00 0. -1.
          1   -1    0    0  501    0  0.00000000000E+00 -0.00000000000E+00 -0.26236933417E+04  0.26236933417E+04  0.00000000000E+00 0.  1.
         23    2    1    2    0    0  0.49536674003E+03  0.12646134915E+03 -0.14924440556E+03  0.54038850296E+03  0.91461257273E+02 0.  0.
         11    1    3    3    0    0  0.11394908918E+03  0.35446760153E+02  0.39479813000E+01  0.11940039483E+03  0.00000000000E+00 0.  1.
        -11    1    3    3    0    0  0.38141765085E+03  0.91014588997E+02 -0.15319238686E+03  0.42098810812E+03  0.00000000000E+00 0. -1.
         22    1    1    2    0    0 -0.49536674003E+03 -0.12646134915E+03 -0.22502026004E+04  0.23075511745E+04  0.00000000000E+00 0.  1.
<mgrwt>
<rscale>  0 0.15340842E+04</rscale>
<asrwt>0</asrwt>
<pdfrwt beam="1">  1        1 0.40364513E+00 0.15340842E+04</pdfrwt>
<pdfrwt beam="2">  1       -1 0.34499436E-01 0.15340842E+04</pdfrwt>
<totfact> 0.85573395E+00</totfact>
</mgrwt>
</event>
<event>
 6    1  0.1878398E-004  0.4315355E+04  0.7818608E-02  0.7943785E-01
         -1   -1    0    0    0  501 -0.00000000000E+00  0.00000000000E+00  0.21556021486E+04  0.21556021486E+04  0.00000000000E+00 0.  1.
          1   -1    0    0  501    0  0.00000000000E+00 -0.00000000000E+00 -0.21597544985E+04  0.21597544985E+04  0.00000000000E+00 0. -1.
         23    2    1    2    0    0 -0.11599886820E+04  0.51530897489E+03  0.17414008368E+04  0.21570997093E+04  0.97391988797E+02 0.  0.
         13    1    3    3    0    0 -0.24092639682E+03  0.12504847483E+03  0.31294180302E+03  0.41426467604E+03  0.00000000000E+00 0.  1.
        -13    1    3    3    0    0 -0.91906228517E+03  0.39026050007E+03  0.14284590338E+04  0.17428350333E+04  0.00000000000E+00 0. -1.
         22    1    1    2    0    0  0.11599886820E+04 -0.51530897489E+03 -0.17455531867E+04  0.21582569378E+04  0.00000000000E+00 0. -1.
<mgrwt>
<rscale>  0 0.43153546E+04</rscale>
<asrwt>0</asrwt>
<pdfrwt beam="1">  1        1 0.33226992E+00 0.43153546E+04</pdfrwt>
<pdfrwt beam="2">  1       -1 0.33163110E+00 0.43153546E+04</pdfrwt>
<totfact> 0.36354405E-02</totfact>
</mgrwt>
</event>
<event>
 6    1  0.1878398E-004  0.2780323E+04  0.7818608E-02  0.8309403E-01
          2   -1    0    0  501    0  0.00000000000E+00  0.00000000000E+00  0.10906092316E+04  0.10906092316E+04  0.00000000000E+00 0.  1.
         -2   -1    0    0    0  501 -0.00000000000E+00 -0.00000000000E+00 -0.17719908752E+04  0.17719908752E+04  0.00000000000E+00 0. -1.
         23    2    1    2    0    0 -0.44965154070E+03 -0.94898376060E+03 -0.12766521004E+04  0.16554946421E+04  0.89806673341E+02 0.  0.
         11    1    3    3    0    0 -0.33391358252E+03 -0.66471450085E+03 -0.84390395209E+03  0.11249522339E+04  0.00000000000E+00 0. -1.
        -11    1    3    3    0    0 -0.11573795818E+03 -0.28426925976E+03 -0.43274814832E+03  0.53054240818E+03  0.00000000000E+00 0.  1.
         22    1    1    2    0    0  0.44965154070E+03  0.94898376060E+03  0.59527045683E+03  0.12071054646E+04  0.00000000000E+00 0.  1.
<mgrwt>
<rscale>  0 0.27803234E+04</rscale>
<asrwt>0</asrwt>
<pdfrwt beam="1">  1        2 0.16778604E+00 0.27803234E+04</pdfrwt>
<pdfrwt beam="2">  1       -2 0.27261398E+00 0.27803234E+04</pdfrwt>
<totfact> 0.89899742E-01</totfact>
</mgrwt>
</event>
<event>
 6    1  0.1878398E-004  0.2019627E+04  0.7818608E-02  0.8597499E-01
          2   -1    0    0  501    0  0.00000000000E+00  0.00000000000E+00  0.96733872401E+03  0.96733872401E+03  0.00000000000E+00 0.  1.
         -2   -1    0    0    0  501 -0.00000000000E+00 -0.00000000000E+00 -0.10541537051E+04  0.10541537051E+04  0.00000000000E+00 0. -1.
         23    2    1    2    0    0  0.66964502355E+02  0.86683803757E+03 -0.55347805833E+03  0.10347468410E+04  0.92036057637E+02 0.  0.
         13    1    3    3    0    0  0.48366488377E+02  0.57832296291E+03 -0.41958276759E+03  0.71613299427E+03  0.00000000000E+00 0.  1.
        -13    1    3    3    0    0  0.18598013978E+02  0.28851507466E+03 -0.13389529074E+03  0.31861384671E+03  0.00000000000E+00 0. -1.
         22    1    1    2    0    0 -0.66964502355E+02 -0.86683803757E+03  0.46666307726E+03  0.98674558810E+03  0.00000000000E+00 0.  1.
<mgrwt>
<rscale>  0 0.20196274E+04</rscale>
<asrwt>0</asrwt>
<pdfrwt beam="1">  1        2 0.14882134E+00 0.20196274E+04</pdfrwt>
<pdfrwt beam="2">  1       -2 0.16217749E+00 0.20196274E+04</pdfrwt>
<totfact> 0.59542181E+00</totfact>
</mgrwt>
</event>
<event>
 6    1  0.1878398E-004  0.3900863E+04  0.7818608E-02  0.8024850E-01
         -2   -1    0    0    0  501 -0.00000000000E+00  0.00000000000E+00  0.11008340792E+04  0.11008340792E+04  0.00000000000E+00 0. -1.
          2   -1    0    0  501    0  0.00000000000E+00 -0.00000000000E+00 -0.34557281666E+04  0.34557281666E+04  0.00000000000E+00 0.  1.
         23    2    1    2    0    0 -0.29634953198E+03 -0.18457748671E+04 -0.53254630294E+03  0.19458804665E+04  0.90207093579E+02 0.  0.
         13    1    3    3    0    0 -0.11295534266E+03 -0.55672998022E+03 -0.19764624358E+03  0.60147420387E+03  0.00000000000E+00 0.  1.
        -13    1    3    3    0    0 -0.18339418932E+03 -0.12890448869E+04 -0.33490005937E+03  0.13444062626E+04  0.00000000000E+00 0. -1.
         22    1    1    2    0    0  0.29634953198E+03  0.18457748671E+04 -0.18223477845E+04  0.26106817793E+04  0.00000000000E+00 0. -1.
<mgrwt>
<rscale>  0 0.39008632E+04</rscale>
<asrwt>0</asrwt>
<pdfrwt beam="1">  1        2 0.53165049E+00 0.39008632E+04</pdfrwt>
<pdfrwt beam="2">  1       -2 0.16935909E+00 0.39008632E+04</pdfrwt>
<totfact> 0.14924506E-01</totfact>
</mgrwt>
</event>
<event>
 6    1  0.1878398E-004  0.2576698E+04  0.7818608E-02  0.8376160E-01
         -2   -1    0    0    0  501 -0.00000000000E+00  0.00000000000E+00  0.59288761877E+03  0.59288761877E+03  0.00000000000E+00 0. -1.
          2   -1    0    0  501    0  0.00000000000E+00 -0.00000000000E+00 -0.27995925897E+04  0.27995925897E+04  0.00000000000E+00 0.  1.
         23    2    1    2    0    0  0.50715697757E+03 -0.99357623117E+02 -0.26562038906E+04  0.27075499813E+04  0.91255989123E+02 0.  0.
         13    1    3    3    0    0  0.13720279750E+03 -0.22694423154E+02 -0.94156441693E+03  0.95177896368E+03  0.00000000000E+00 0.  1.
        -13    1    3    3    0    0  0.36995418007E+03 -0.76663199963E+02 -0.17146394737E+04  0.17557710176E+04  0.00000000000E+00 0. -1.
         22    1    1    2    0    0 -0.50715697757E+03  0.99357623117E+02  0.44949891974E+03  0.68493022712E+03  0.00000000000E+00 0. -1.
<mgrwt>
<rscale>  0 0.25766985E+04</rscale>
<asrwt>0</asrwt>
<pdfrwt beam="1">  1        2 0.43070655E+00 0.25766985E+04</pdfrwt>
<pdfrwt beam="2">  1       -2 0.91213480E-01 0.25766985E+04</pdfrwt>
<totfact> 0.21006006E+00</totfact>
</mgrwt>
</event>
<event>
 6    1  0.1878398E-004  0.2163771E+04  0.7818608E-02  0.8533661E-01
          1   -1    0    0  501    0  0.00000000000E+00  0.00000000000E+00  0.40624269214E+04  0.40624269214E+04  0.00000000000E+00 0.  1.
         -1   -1    0    0    0  501 -0.00000000000E+00 -0.00000000000E+00 -0.28812229159E+03  0.28812229159E+03  0.00000000000E+00 0. -1.
         23    2    1    2    0    0 -0.99695473895E+03 -0.14995274002E+03  0.11151211571E+04  0.15066678306E+04  0.10073817993E+03 0.  0.
         13    1    3    3    0    0 -0.46893948884E+03 -0.10658656861E+03  0.47793483898E+03  0.67800195509E+03  0.00000000000E+00 0. -1.
        -13    1    3    3    0    0 -0.52801525011E+03 -0.43366171413E+02  0.63718631811E+03  0.82866587546E+03  0.00000000000E+00 0.  1.
         22    1    1    2    0    0  0.99695473895E+03  0.14995274002E+03  0.26591834727E+04  0.28438813825E+04  0.00000000000E+00 0.  1.
<mgrwt>
<rscale>  0 0.21637706E+04</rscale>
<asrwt>0</asrwt>
<pdfrwt beam="1">  1        1 0.62498871E+00 0.21637706E+04</pdfrwt>
<pdfrwt beam="2">  1       -1 0.44326510E-01 0.21637706E+04</pdfrwt>
<totfact> 0.39162103E-01</totfact>
</mgrwt>
</event>
<event>
 6    1  0.1878398E-004  0.2209198E+04  0.7818608E-02  0.8514610E-01
          2   -1    0    0  501    0  0.00000000000E+00  0.00000000000E+00  0.85731050710E+03  0.85731050710E+03  0.00000000000E+00 0.  1.
         -2   -1    0    0    0  501 -0.00000000000E+00 -0.00000000000E+00 -0.14232166836E+04  0.14232166836E+04  0.00000000000E+00 0. -1.
         23    2    1    2    0    0  0.52576062265E+03 -0.29044327039E+03  0.67055926560E+03  0.90588966933E+03  0.10101900155E+03 0.  0.
         13    1    3    3    0    0  0.43036225155E+03 -0.18964172362E+03  0.51950902699E+03  0.70076050119E+03  0.00000000000E+00 0.  1.
        -13    1    3    3    0    0  0.95398371098E+02 -0.10080154677E+03  0.15105023861E+03  0.20512916814E+03  0.00000000000E+00 0. -1.
         22    1    1    2    0    0 -0.52576062265E+03  0.29044327039E+03 -0.12364654421E+04  0.13746375214E+04  0.00000000000E+00 0. -1.
<mgrwt>
<rscale>  0 0.22091977E+04</rscale>
<asrwt>0</asrwt>
<pdfrwt beam="1">  1        2 0.13189393E+00 0.22091977E+04</pdfrwt>
<pdfrwt beam="2">  1       -2 0.21895641E+00 0.22091977E+04</pdfrwt>
<totfact> 0.28741556E+00</totfact>
</mgrwt>
</event>
<event>
 6    1  0.1878398E-004  0.1787353E+04  0.7818608E-02  0.8713054E-01
          2   -1    0    0  501    0  0.00000000000E+00  0.00000000000E+00  0.13666526022E+04  0.13666526022E+04  0.00000000000E+00 0.  1.
         -2   -1    0    0    0  501 -0.00000000000E+00 -0.00000000000E+00 -0.58438965295E+03  0.58438965295E+03  0.00000000000E+00 0. -1.
         23    2    1    2    0    0 -0.44588191250E+03 -0.50305369059E+03  0.10311888747E+04  0.12342174426E+04  0.89824856582E+02 0.  0.
         13    1    3    3    0    0 -0.18083042574E+03 -0.22086758228E+03  0.36071148729E+03  0.45999446609E+03  0.00000000000E+00 0. -1.
        -13    1    3    3    0    0 -0.26505148677E+03 -0.28218610831E+03  0.67047738740E+03  0.77422297652E+03  0.00000000000E+00 0.  1.
         22    1    1    2    0    0  0.44588191250E+03  0.50305369059E+03 -0.24892592544E+03  0.71682481253E+03  0.00000000000E+00 0. -1.
<mgrwt>
<rscale>  0 0.17873529E+04</rscale>
<asrwt>0</asrwt>
<pdfrwt beam="1">  1        2 0.21025425E+00 0.17873529E+04</pdfrwt>
<pdfrwt beam="2">  1       -2 0.89906101E-01 0.17873529E+04</pdfrwt>
<totfact> 0.15141809E+01</totfact>
</mgrwt>
</event>
<event>
 6    1  0.1878398E-004  0.6088439E+03  0.7818608E-02  0.9887226E-01
         -1   -1    0    0    0  501 -0.00000000000E+00  0.00000000000E+00  0.40365601537E+03  0.40365601537E+03  0.00000000000E+00 0.  1.
          1   -1    0    0  501    0  0.00000000000E+00 -0.00000000000E+00 -0.22958342019E+03  0.22958342019E+03  0.00000000000E+00 0. -1.
         23    2    1    2    0    0 -0.28330756200E+03 -0.62220529146E+01 -0.61067979255E+01  0.29743219572E+03  0.90148374611E+02 0.  0.
         11    1    3    3    0    0 -0.60744760592E+02 -0.35469147463E+02 -0.18108182118E+02  0.72635340027E+02  0.00000000000E+00 0.  1.
        -11    1    3    3    0    0 -0.22256280140E+03  0.29247094549E+02  0.12001384193E+02  0.22479685570E+03  0.00000000000E+00 0. -1.
         22    1    1    2    0    0  0.28330756200E+03  0.62220529146E+01  0.18017939311E+03  0.33580723984E+03  0.00000000000E+00 0.  1.
<mgrwt>
<rscale>  0 0.60884392E+03</rscale>
<asrwt>0</asrwt>
<pdfrwt beam="1">  1        1 0.35320526E-01 0.60884392E+03</pdfrwt>
<pdfrwt beam="2">  1       -1 0.62100925E-01 0.60884392E+03</pdfrwt>
<totfact> 0.33146247E+02</totfact>
</mgrwt>
</event>
<event>
 6    1  0.1878398E-004  0.1960708E+04  0.7818608E-02  0.8625215E-01
         -1   -1    0    0    0  501 -0.00000000000E+00  0.00000000000E+00  0.21655513007E+04  0.21655513007E+04  0.00000000000E+00 0.  1.
          1   -1    0    0  501    0  0.00000000000E+00 -0.00000000000E+00 -0.44381016007E+03  0.44381016007E+03  0.00000000000E+00 0. -1.
         23    2    1    2    0    0 -0.85607817902E+03 -0.36540730329E+03  0.12631306278E+04  0.15717122193E+04  0.91585868869E+02 0.  0.
         11    1    3    3    0    0 -0.53459263154E+03 -0.19137503121E+03  0.71879641761E+03  0.91601417796E+03  0.00000000000E+00 0. -1.
        -11    1    3    3    0    0 -0.32148554748E+03 -0.17403227208E+03  0.54433421023E+03  0.65569804132E+03  0.00000000000E+00 0.  1.
         22    1    1    2    0    0  0.85607817902E+03  0.36540730329E+03  0.45861051278E+03  0.10376492415E+04  0.00000000000E+00 0.  1.
<mgrwt>
<rscale>  0 0.19607077E+04</rscale>
<asrwt>0</asrwt>
<pdfrwt beam="1">  1        1 0.68278488E-01 0.19607077E+04</pdfrwt>
<pdfrwt beam="2">  1       -1 0.33316173E+00 0.19607077E+04</pdfrwt>
<totfact> 0.97599776E-01</totfact>
</mgrwt>
</event>
<event>
 6    1  0.1878398E-004  0.1576384E+04  0.7818608E-02  0.8835189E-01
          2   -1    0    0  501    0  0.00000000000E+00  0.00000000000E+00  0.31449255331E+04  0.31449255331E+04  0.00000000000E+00 0.  1.
         -2   -1    0    0    0  501 -0.00000000000E+00 -0.00000000000E+00 -0.19753947360E+03  0.19753947360E+03  0.00000000000E+00 0. -1.
         23    2    1    2    0    0 -0.10243942673E+03  0.77657474648E+03  0.13511999340E+04  0.15644401699E+04  0.90385898109E+02 0.  0.
         13    1    3    3    0    0 -0.18287494258E+02  0.43665855288E+03  0.70561577768E+03  0.82999924696E+03  0.00000000000E+00 0.  1.
        -13    1    3    3    0    0 -0.84151932477E+02  0.33991619360E+03  0.64558415636E+03  0.73444092298E+03  0.00000000000E+00 0. -1.
         22    1    1    2    0    0  0.10243942673E+03 -0.77657474648E+03  0.15961861255E+04  0.17780248368E+04  0.00000000000E+00 0.  1.
<mgrwt>
<rscale>  0 0.15763844E+04</rscale>
<asrwt>0</asrwt>
<pdfrwt beam="1">  1        2 0.48383466E+00 0.15763844E+04</pdfrwt>
<pdfrwt beam="2">  1       -2 0.30390690E-01 0.15763844E+04</pdfrwt>
<totfact> 0.13645395E+01</totfact>
</mgrwt>
</event>
<event>
 6    1  0.1878398E-004  0.2593286E+04  0.7818608E-02  0.8370485E-01
          2   -1    0    0  501    0  0.00000000000E+00  0.00000000000E+00  0.23437587456E+04  0.23437587456E+04  0.00000000000E+00 0.  1.
         -2   -1    0    0    0  501 -0.00000000000E+00 -0.00000000000E+00 -0.71734484200E+03  0.71734484200E+03  0.00000000000E+00 0. -1.
         23    2    1    2    0    0  0.93520668783E+03 -0.47833577207E+03 -0.79642945001E+02  0.10575950075E+04  0.93528292283E+02 0.  0.
         11    1    3    3    0    0  0.41664555934E+03 -0.20669931394E+03  0.10942274337E+02  0.46522882742E+03  0.00000000000E+00 0. -1.
        -11    1    3    3    0    0  0.51856112849E+03 -0.27163645814E+03 -0.90585219337E+02  0.59236618010E+03  0.00000000000E+00 0.  1.
         22    1    1    2    0    0 -0.93520668783E+03  0.47833577207E+03  0.17060568486E+04  0.20035085801E+04  0.00000000000E+00 0.  1.
<mgrwt>
<rscale>  0 0.25932861E+04</rscale>
<asrwt>0</asrwt>
<pdfrwt beam="1">  1        2 0.36057826E+00 0.25932861E+04</pdfrwt>
<pdfrwt beam="2">  1       -2 0.11036075E+00 0.25932861E+04</pdfrwt>
<totfact> 0.24692866E+00</totfact>
</mgrwt>
</event>
<event>
 6    1  0.1878398E-004  0.2642742E+04  0.7818608E-02  0.8353826E-01
         -2   -1    0    0    0  501 -0.00000000000E+00  0.00000000000E+00  0.12860406971E+04  0.12860406971E+04  0.00000000000E+00 0. -1.
          2   -1    0    0  501    0  0.00000000000E+00 -0.00000000000E+00 -0.13576718732E+04  0.13576718732E+04  0.00000000000E+00 0.  1.
         23    2    1    2    0    0  0.19277873864E+03 -0.12812454133E+04  0.21564203035E+03  0.13165805700E+04  0.90163523244E+02 0.  0.
         13    1    3    3    0    0  0.18938866121E+02 -0.37956289109E+03  0.79408411821E+02  0.38824266227E+03  0.00000000000E+00 0. -1.
        -13    1    3    3    0    0  0.17383987252E+03 -0.90168252219E+03  0.13623361853E+03  0.92833790773E+03  0.00000000000E+00 0.  1.
         22    1    1    2    0    0 -0.19277873864E+03  0.12812454133E+04 -0.28727320646E+03  0.13271320003E+04  0.00000000000E+00 0. -1.
<mgrwt>
<rscale>  0 0.26427420E+04</rscale>
<asrwt>0</asrwt>
<pdfrwt beam="1">  1        2 0.20887260E+00 0.26427420E+04</pdfrwt>
<pdfrwt beam="2">  1       -2 0.19785242E+00 0.26427420E+04</pdfrwt>
<totfact> 0.18537789E+00</totfact>
</mgrwt>
</event>
<event>
 6    1  0.1878398E-004  0.1944294E+04  0.7818608E-02  0.8633117E-01
         -2   -1    0    0    0  501 -0.00000000000E+00  0.00000000000E+00  0.71382059960E+03  0.71382059960E+03  0.00000000000E+00 0.  1.
          2   -1    0    0  501    0  0.00000000000E+00 -0.00000000000E+00 -0.13239601143E+04  0.13239601143E+04  0.00000000000E+00 0. -1.
         23    2    1    2    0    0  0.13022285213E+02 -0.77620101231E+03  0.30351160422E+03  0.83885788132E+03  0.94369803075E+02 0.  0.
         11    1    3    3    0    0  0.15608280720E+02 -0.37354691113E+03  0.96630767892E+02  0.38615854069E+03  0.00000000000E+00 0.  1.
        -11    1    3    3    0    0 -0.25859955067E+01 -0.40265410118E+03  0.20688083633E+03  0.45269934063E+03  0.00000000000E+00 0. -1.
         22    1    1    2    0    0 -0.13022285213E+02  0.77620101231E+03 -0.91365111896E+03  0.11989228326E+04  0.00000000000E+00 0. -1.
<mgrwt>
<rscale>  0 0.19442942E+04</rscale>
<asrwt>0</asrwt>
<pdfrwt beam="1">  1        2 0.20368617E+00 0.19442942E+04</pdfrwt>
<pdfrwt beam="2">  1       -2 0.10981855E+00 0.19442942E+04</pdfrwt>
<totfact> 0.98568903E+00</totfact>
</mgrwt>
</event>
<event>
 6    1  0.1878398E-004  0.1395482E+04  0.7818608E-02  0.8957095E-01
         -2   -1    0    0    0  501 -0.00000000000E+00  0.00000000000E+00  0.17205852787E+03  0.17205852787E+03  0.00000000000E+00 0. -1.
          2   -1    0    0  501    0  0.00000000000E+00 -0.00000000000E+00 -0.28295182325E+04  0.28295182325E+04  0.00000000000E+00 0.  1.
         23    2    1    2    0    0  0.40143447876E+03 -0.14959041130E+03 -0.16262835495E+03  0.47023119029E+03  0.10555784478E+03 0.  0.
         11    1    3    3    0    0  0.18156007471E+03 -0.11385153280E+03 -0.11193406282E+03  0.24177565359E+03  0.00000000000E+00 0. -1.
        -11    1    3    3    0    0  0.21987440405E+03 -0.35738878501E+02 -0.50694292132E+02  0.22845553670E+03  0.00000000000E+00 0.  1.
         22    1    1    2    0    0 -0.40143447876E+03  0.14959041130E+03 -0.24948313497E+04  0.25313455701E+04  0.00000000000E+00 0.  1.
<mgrwt>
<rscale>  0 0.13954823E+04</rscale>
<asrwt>0</asrwt>
<pdfrwt beam="1">  1        2 0.43531047E+00 0.13954823E+04</pdfrwt>
<pdfrwt beam="2">  1       -2 0.26470544E-01 0.13954823E+04</pdfrwt>
<totfact> 0.28124308E+01</totfact>
</mgrwt>
</event>
<event>
 6    1  0.1878398E-004  0.1937135E+04  0.7818608E-02  0.8636590E-01
          1   -1    0    0  501    0  0.00000000000E+00  0.00000000000E+00  0.11659278006E+04  0.11659278006E+04  0.00000000000E+00 0.  1.
         -1   -1    0    0    0  501 -0.00000000000E+00 -0.00000000000E+00 -0.80461479655E+03  0.80461479655E+03  0.00000000000E+00 0. -1.
         23    2    1    2    0    0 -0.67602045919E+03 -0.62957701031E+03 -0.10671267900E+03  0.93496598815E+03  0.96968706204E+02 0.  0.
         13    1    3    3    0    0 -0.40843108839E+03 -0.43498211875E+03 -0.44794074399E+02  0.59835767456E+03  0.00000000000E+00 0.  1.
        -13    1    3    3    0    0 -0.26758937079E+03 -0.19459489156E+03 -0.61918604606E+02  0.33660831359E+03  0.00000000000E+00 0. -1.
         22    1    1    2    0    0  0.67602045919E+03  0.62957701031E+03  0.46802568308E+03  0.10355766090E+04  0.00000000000E+00 0.  1.
<mgrwt>
<rscale>  0 0.19371348E+04</rscale>
<asrwt>0</asrwt>
<pdfrwt beam="1">  1        1 0.17937351E+00 0.19371348E+04</pdfrwt>
<pdfrwt beam="2">  1       -1 0.12378689E+00 0.19371348E+04</pdfrwt>
<totfact> 0.60544359E+00</totfact>
</mgrwt>
</event>
<event>
 6    1  0.1878398E-004  0.9694903E+03  0.7818608E-02  0.9342655E-01
         -1   -1    0    0    0  501 -0.00000000000E+00  0.00000000000E+00  0.16290577766E+03  0.16290577766E+03  0.00000000000E+00 0. -1.
          1   -1    0    0  501    0  0.00000000000E+00 -0.00000000000E+00 -0.14424158822E+04  0.14424158822E+04  0.00000000000E+00 0.  1.
         23    2    1    2    0    0 -0.44736715794E+03 -0.62780080097E+02 -0.37590415048E+03  0.59508286004E+03  0.93493141446E+02 0.  0.
         13    1    3    3    0    0 -0.24579677743E+03 -0.30123286079E+02 -0.26505760210E+03  0.36273819842E+03  0.00000000000E+00 0.  1.
        -13    1    3    3    0    0 -0.20157038051E+03 -0.32656794019E+02 -0.11084654838E+03  0.23234466162E+03  0.00000000000E+00 0. -1.
         22    1    1    2    0    0  0.44736715794E+03  0.62780080097E+02 -0.90360595405E+03  0.10102387998E+04  0.00000000000E+00 0. -1.
<mgrwt>
<rscale>  0 0.96949034E+03</rscale>
<asrwt>0</asrwt>
<pdfrwt beam="1">  1        1 0.22191013E+00 0.96949034E+03</pdfrwt>
<pdfrwt beam="2">  1       -1 0.25062428E-01 0.96949034E+03</pdfrwt>
<totfact> 0.10047710E+02</totfact>
</mgrwt>
</event>
<event>
 6    1  0.1878398E-004  0.1395026E+04  0.7818608E-02  0.8957427E-01
          1   -1    0    0  501    0  0.00000000000E+00  0.00000000000E+00  0.51431387613E+03  0.51431387613E+03  0.00000000000E+00 0.  1.
         -1   -1    0    0    0  501 -0.00000000000E+00 -0.00000000000E+00 -0.94596739199E+03  0.94596739199E+03  0.00000000000E+00 0. -1.
         23    2    1    2    0    0  0.51001260843E+02  0.43072653388E+03  0.35215804678E+03  0.56446485763E+03  0.80491055328E+02 0.  0.
         11    1    3    3    0    0  0.21765973953E+02  0.30514641958E+03  0.20224555467E+03  0.36673063601E+03  0.00000000000E+00 0. -1.
        -11    1    3    3    0    0  0.29235286890E+02  0.12558011429E+03  0.14991249211E+03  0.19773422161E+03  0.00000000000E+00 0.  1.
         22    1    1    2    0    0 -0.51001260843E+02 -0.43072653388E+03 -0.78381156264E+03  0.89581641050E+03  0.00000000000E+00 0. -1.
<mgrwt>
<rscale>  0 0.13950257E+04</rscale>
<asrwt>0</asrwt>
<pdfrwt beam="1">  1        1 0.79125213E-01 0.13950257E+04</pdfrwt>
<pdfrwt beam="2">  1       -1 0.14553344E+00 0.13950257E+04</pdfrwt>
<totfact> 0.15731517E+01</totfact>
</mgrwt>
</event>
<event>
 6    1  0.1878398E-004  0.9082346E+03  0.7818608E-02  0.9415346E-01
         -2   -1    0    0    0  501 -0.00000000000E+00  0.00000000000E+00  0.11016766519E+03  0.11016766519E+03  0.00000000000E+00 0. -1.
          2   -1    0    0  501    0  0.00000000000E+00 -0.00000000000E+00 -0.18718970556E+04  0.18718970556E+04  0.00000000000E+00 0.  1.
         23    2    1    2    0    0  0.15670265772E+03 -0.33538190138E+03 -0.33494710809E+03  0.50804151071E+03  0.94233055084E+02 0.  0.
         13    1    3    3    0    0  0.16270813007E+03 -0.33191941653E+03 -0.33760123722E+03  0.50061864731E+03  0.00000000000E+00 0.  1.
        -13    1    3    3    0    0 -0.60054723481E+01 -0.34624848545E+01  0.26541291371E+01  0.74228633941E+01  0.00000000000E+00 0. -1.
         22    1    1    2    0    0 -0.15670265772E+03  0.33538190138E+03 -0.14267822823E+04  0.14740232101E+04  0.00000000000E+00 0.  1.
<mgrwt>
<rscale>  0 0.90823461E+03</rscale>
<asrwt>0</asrwt>
<pdfrwt beam="1">  1        2 0.28798416E+00 0.90823461E+03</pdfrwt>
<pdfrwt beam="2">  1       -2 0.16948872E-01 0.90823461E+03</pdfrwt>
<totfact> 0.22587794E+02</totfact>
</mgrwt>
</event>
<event>
 6    1  0.1878398E-004  0.4188708E+04  0.7818608E-02  0.7967524E-01
         -2   -1    0    0    0  501 -0.00000000000E+00  0.00000000000E+00  0.15706499109E+04  0.15706499109E+04  0.00000000000E+00 0. -1.
          2   -1    0    0  501    0  0.00000000000E+00 -0.00000000000E+00 -0.27926770668E+04  0.27926770668E+04  0.00000000000E+00 0.  1.
         23    2    1    2    0    0 -0.12510100578E+04 -0.16217630743E+04 -0.16054795922E+03  0.20564070141E+04  0.88839894093E+02 0.  0.
         13    1    3    3    0    0 -0.52355547050E+02 -0.62216584768E+02 -0.23642606417E+02  0.84681636529E+02  0.00000000000E+00 0. -1.
        -13    1    3    3    0    0 -0.11986545107E+04 -0.15595464895E+04 -0.13690535280E+03  0.19717253776E+04  0.00000000000E+00 0.  1.
         22    1    1    2    0    0  0.12510100578E+04  0.16217630743E+04 -0.10614791967E+04  0.23069199636E+04  0.00000000000E+00 0. -1.
<mgrwt>
<rscale>  0 0.41887077E+04</rscale>
<asrwt>0</asrwt>
<pdfrwt beam="1">  1        2 0.42964262E+00 0.41887077E+04</pdfrwt>
<pdfrwt beam="2">  1       -2 0.24163845E+00 0.41887077E+04</pdfrwt>
<totfact> 0.13131918E-01</totfact>
</mgrwt>
</event>
<event>
 6    1  0.1878398E-004  0.3161249E+04  0.7818608E-02  0.8199127E-01
          2   -1    0    0  501    0  0.00000000000E+00  0.00000000000E+00  0.22905217502E+04  0.22905217502E+04  0.00000000000E+00 0.  1.
         -2   -1    0    0    0  501 -0.00000000000E+00 -0.00000000000E+00 -0.10907445303E+04  0.10907445303E+04  0.00000000000E+00 0. -1.
         23    2    1    2    0    0  0.14716373954E+04  0.56796630357E+03  0.68159140579E+03  0.17208991875E+04  0.92869927174E+02 0.  0.
         11    1    3    3    0    0  0.33796955486E+03  0.16866373256E+03  0.14435577107E+03  0.40436303409E+03  0.00000000000E+00 0. -1.
        -11    1    3    3    0    0  0.11336678406E+04  0.39930257100E+03  0.53723563472E+03  0.13165361534E+04  0.00000000000E+00 0.  1.
         22    1    1    2    0    0 -0.14716373954E+04 -0.56796630357E+03  0.51818581414E+03  0.16603670930E+04  0.00000000000E+00 0. -1.
<mgrwt>
<rscale>  0 0.31612492E+04</rscale>
<asrwt>0</asrwt>
<pdfrwt beam="1">  1        2 0.35238796E+00 0.31612492E+04</pdfrwt>
<pdfrwt beam="2">  1       -2 0.16780685E+00 0.31612492E+04</pdfrwt>
<totfact> 0.85676096E-01</totfact>
</mgrwt>
</event>
<event>
 6    1  0.1878398E-004  0.5437398E+04  0.7818608E-02  0.7764362E-01
          2   -1    0    0  501    0  0.00000000000E+00  0.00000000000E+00  0.14919017924E+04  0.14919017924E+04  0.00000000000E+00 0.  1.
         -2   -1    0    0    0  501 -0.00000000000E+00 -0.00000000000E+00 -0.49542972368E+04  0.49542972368E+04  0.00000000000E+00 0. -1.
         23    2    1    2    0    0 -0.46790796246E+03  0.23273229003E+04 -0.33007229175E+04  0.40668067224E+04  0.93677083536E+02 0.  0.
         13    1    3    3    0    0 -0.23872737154E+03  0.13002539598E+04 -0.19075449360E+04  0.23208573418E+04  0.00000000000E+00 0. -1.
        -13    1    3    3    0    0 -0.22918059091E+03  0.10270689404E+04 -0.13931779814E+04  0.17459493806E+04  0.00000000000E+00 0.  1.
         22    1    1    2    0    0  0.46790796246E+03 -0.23273229003E+04 -0.16167252694E+03  0.23793923067E+04  0.00000000000E+00 0.  1.
<mgrwt>
<rscale>  0 0.54373982E+04</rscale>
<asrwt>0</asrwt>
<pdfrwt beam="1">  1        2 0.22952335E+00 0.54373982E+04</pdfrwt>
<pdfrwt beam="2">  1       -2 0.76219959E+00 0.54373982E+04</pdfrwt>
<totfact> 0.11426837E-03</totfact>
</mgrwt>
</event>
<event>
 6    1  0.1878398E-004  0.1366017E+04  0.7818608E-02  0.8978791E-01
         -1   -1    0    0    0  501 -0.00000000000E+00  0.00000000000E+00  0.46062343075E+03  0.46062343075E+03  0.00000000000E+00 0. -1.
          1   -1    0    0  501    0  0.00000000000E+00 -0.00000000000E+00 -0.10127590702E+04  0.10127590702E+04  0.00000000000E+00 0.  1.
         23    2    1    2    0    0  0.40145391627E+03 -0.47009056103E+03  0.28311634026E+02  0.62540289051E+03  0.90425905463E+02 0.  0.
         11    1    3    3    0    0  0.22829062489E+03 -0.25898738134E+03 -0.28853558148E+02  0.34644422484E+03  0.00000000000E+00 0. -1.
        -11    1    3    3    0    0  0.17316329137E+03 -0.21110317969E+03  0.57165192175E+02  0.27895866567E+03  0.00000000000E+00 0.  1.
         22    1    1    2    0    0 -0.40145391627E+03  0.47009056103E+03 -0.58044727351E+03  0.84797961048E+03  0.00000000000E+00 0.  1.
<mgrwt>
<rscale>  0 0.13660169E+04</rscale>
<asrwt>0</asrwt>
<pdfrwt beam="1">  1        1 0.15580909E+00 0.13660169E+04</pdfrwt>
<pdfrwt beam="2">  1       -1 0.70865143E-01 0.13660169E+04</pdfrwt>
<totfact> 0.29087536E+01</totfact>
</mgrwt>
</event>
<event>
 6    1  0.1878398E-004  0.3583795E+04  0.7818608E-02  0.8094214E-01
          2   -1    0    0  501    0  0.00000000000E+00  0.00000000000E+00  0.22728431871E+04  0.22728431871E+04  0.00000000000E+00 0.  1.
         -2   -1    0    0    0  501 -0.00000000000E+00 -0.00000000000E+00 -0.14127226324E+04  0.14127226324E+04  0.00000000000E+00 0. -1.
         23    2    1    2    0    0  0.12168963391E+04  0.10370088917E+04 -0.39905432066E+03  0.16504379345E+04  0.92069991886E+02 0.  0.
         13    1    3    3    0    0  0.26978469935E+03  0.28117885816E+03 -0.90932191899E+02  0.40014247188E+03  0.00000000000E+00 0. -1.
        -13    1    3    3    0    0  0.94711163976E+03  0.75583003349E+03 -0.30812212876E+03  0.12502954626E+04  0.00000000000E+00 0.  1.
         22    1    1    2    0    0 -0.12168963391E+04 -0.10370088917E+04  0.12591748753E+04  0.20351278849E+04  0.00000000000E+00 0.  1.
<mgrwt>
<rscale>  0 0.35837952E+04</rscale>
<asrwt>0</asrwt>
<pdfrwt beam="1">  1        2 0.34966818E+00 0.35837952E+04</pdfrwt>
<pdfrwt beam="2">  1       -2 0.21734194E+00 0.35837952E+04</pdfrwt>
<totfact> 0.39391405E-01</totfact>
</mgrwt>
</event>
<event>
 6    1  0.1878398E-004  0.3081544E+04  0.7818608E-02  0.8220821E-01
         -2   -1    0    0    0  501 -0.00000000000E+00  0.00000000000E+00  0.35350571702E+04  0.35350571702E+04  0.00000000000E+00 0. -1.
          2   -1    0    0  501    0  0.00000000000E+00 -0.00000000000E+00 -0.67155322573E+03  0.67155322573E+03  0.00000000000E+00 0.  1.
         23    2    1    2    0    0  0.14783042932E+04 -0.42434733656E+03  0.13435654761E+04  0.20442812829E+04  0.91997445881E+02 0.  0.
         11    1    3    3    0    0  0.41166404523E+03 -0.11700840508E+03  0.42963141025E+03  0.60641685471E+03  0.00000000000E+00 0.  1.
        -11    1    3    3    0    0  0.10666402479E+04 -0.30733893148E+03  0.91393406582E+03  0.14378644282E+04  0.00000000000E+00 0. -1.
         22    1    1    2    0    0 -0.14783042932E+04  0.42434733656E+03  0.15199384684E+04  0.21623291130E+04  0.00000000000E+00 0. -1.
<mgrwt>
<rscale>  0 0.30815444E+04</rscale>
<asrwt>0</asrwt>
<pdfrwt beam="1">  1        2 0.10331588E+00 0.30815444E+04</pdfrwt>
<pdfrwt beam="2">  1       -2 0.54385494E+00 0.30815444E+04</pdfrwt>
<totfact> 0.33527258E-02</totfact>
</mgrwt>
</event>
<event>
 6    1  0.1878398E-004  0.2267531E+04  0.7818608E-02  0.8490834E-01
          2   -1    0    0  501    0  0.00000000000E+00  0.00000000000E+00  0.98995174598E+03  0.98995174598E+03  0.00000000000E+00 0.  1.
         -2   -1    0    0    0  501 -0.00000000000E+00 -0.00000000000E+00 -0.12984716423E+04  0.12984716423E+04  0.00000000000E+00 0. -1.
         23    2    1    2    0    0  0.41587680643E+03 -0.60826392675E+03  0.71305745994E+03  0.10288366237E+04  0.84352441342E+02 0.  0.
         11    1    3    3    0    0  0.20108517596E+03 -0.30934550001E+03  0.29966672840E+03  0.47532098048E+03  0.00000000000E+00 0. -1.
        -11    1    3    3    0    0  0.21479163047E+03 -0.29891842673E+03  0.41339073154E+03  0.55351564321E+03  0.00000000000E+00 0.  1.
         22    1    1    2    0    0 -0.41587680643E+03  0.60826392675E+03 -0.10215773563E+04  0.12595867646E+04  0.00000000000E+00 0. -1.
<mgrwt>
<rscale>  0 0.22675311E+04</rscale>
<asrwt>0</asrwt>
<pdfrwt beam="1">  1        2 0.15230027E+00 0.22675311E+04</pdfrwt>
<pdfrwt beam="2">  1       -2 0.19976487E+00 0.22675311E+04</pdfrwt>
<totfact> 0.31013346E+00</totfact>
</mgrwt>
</event>
<event>
 6    1  0.1878398E-004  0.2997881E+04  0.7818608E-02  0.8244336E-01
         -2   -1    0    0    0  501 -0.00000000000E+00  0.00000000000E+00  0.10067829012E+04  0.10067829012E+04  0.00000000000E+00 0. -1.
          2   -1    0    0  501    0  0.00000000000E+00 -0.00000000000E+00 -0.22316848970E+04  0.22316848970E+04  0.00000000000E+00 0.  1.
         23    2    1    2    0    0  0.45366943369E+03  0.12317714724E+04  0.16522286910E+03  0.13265253160E+04  0.96404886997E+02 0.  0.
         11    1    3    3    0    0  0.89398306262E+02  0.28289764625E+03  0.75732118172E+02  0.30620008024E+03  0.00000000000E+00 0. -1.
        -11    1    3    3    0    0  0.36427112743E+03  0.94887382612E+03  0.89490750929E+02  0.10203252357E+04  0.00000000000E+00 0.  1.
         22    1    1    2    0    0 -0.45366943369E+03 -0.12317714724E+04 -0.13901248649E+04  0.19119424822E+04  0.00000000000E+00 0.  1.
<mgrwt>
<rscale>  0 0.29978807E+04</rscale>
<asrwt>0</asrwt>
<pdfrwt beam="1">  1        2 0.34333614E+00 0.29978807E+04</pdfrwt>
<pdfrwt beam="2">  1       -2 0.15488968E+00 0.29978807E+04</pdfrwt>
<totfact> 0.11669818E+00</totfact>
</mgrwt>
</event>
<event>
 6    1  0.1878398E-004  0.2205794E+04  0.7818608E-02  0.8516020E-01
          2   -1    0    0  501    0  0.00000000000E+00  0.00000000000E+00  0.69259595864E+03  0.69259595864E+03  0.00000000000E+00 0.  1.
         -2   -1    0    0    0  501 -0.00000000000E+00 -0.00000000000E+00 -0.17562652231E+04  0.17562652231E+04  0.00000000000E+00 0. -1.
         23    2    1    2    0    0  0.92587110211E+03 -0.29761257948E+03  0.40358054255E+02  0.97757369601E+03  0.90614642354E+02 0.  0.
         13    1    3    3    0    0  0.32520853318E+03 -0.13421576717E+03  0.47736567077E+02  0.35503977531E+03  0.00000000000E+00 0.  1.
        -13    1    3    3    0    0  0.60066256892E+03 -0.16339681231E+03 -0.73785128225E+01  0.62253392071E+03  0.00000000000E+00 0. -1.
         22    1    1    2    0    0 -0.92587110211E+03  0.29761257948E+03 -0.11040273187E+04  0.14712874857E+04  0.00000000000E+00 0. -1.
<mgrwt>
<rscale>  0 0.22057944E+04</rscale>
<asrwt>0</asrwt>
<pdfrwt beam="1">  1        2 0.10655322E+00 0.22057944E+04</pdfrwt>
<pdfrwt beam="2">  1       -2 0.27019465E+00 0.22057944E+04</pdfrwt>
<totfact> 0.18339218E+00</totfact>
</mgrwt>
</event>
<event>
 6    1  0.1878398E-004  0.3164587E+04  0.7818608E-02  0.8198233E-01
         -2   -1    0    0    0  501 -0.00000000000E+00  0.00000000000E+00  0.72702378118E+03  0.72702378118E+03  0.00000000000E+00 0. -1.
          2   -1    0    0  501    0  0.00000000000E+00 -0.00000000000E+00 -0.34437001994E+04  0.34437001994E+04  0.00000000000E+00 0.  1.
         23    2    1    2    0    0  0.15162058022E+04  0.11619596802E+03 -0.19296365843E+04  0.24584701332E+04  0.90534584629E+02 0.  0.
         11    1    3    3    0    0  0.83135729648E+03  0.10756559712E+03 -0.10793644638E+04  0.13666575861E+04  0.00000000000E+00 0.  1.
        -11    1    3    3    0    0  0.68484850572E+03  0.86303709047E+01 -0.85027212050E+03  0.10918125471E+04  0.00000000000E+00 0. -1.
         22    1    1    2    0    0 -0.15162058022E+04 -0.11619596802E+03 -0.78703983401E+03  0.17122538474E+04  0.00000000000E+00 0. -1.
<mgrwt>
<rscale>  0 0.31645865E+04</rscale>
<asrwt>0</asrwt>
<pdfrwt beam="1">  1        2 0.52980002E+00 0.31645865E+04</pdfrwt>
<pdfrwt beam="2">  1       -2 0.11184982E+00 0.31645865E+04</pdfrwt>
<totfact> 0.47353242E-01</totfact>
</mgrwt>
</event>
<event>
 6    1  0.1878398E-004  0.2435008E+04  0.7818608E-02  0.8426512E-01
          1   -1    0    0  501    0  0.00000000000E+00  0.00000000000E+00  0.24968470238E+04  0.24968470238E+04  0.00000000000E+00 0. -1.
         -1   -1    0    0    0  501 -0.00000000000E+00 -0.00000000000E+00 -0.59367504979E+03  0.59367504979E+03  0.00000000000E+00 0.  1.
         23    2    1    2    0    0  0.10687632447E+04 -0.29531123337E+03  0.31967794188E+03  0.11574113816E+04  0.89126436975E+02 0.  0.
         11    1    3    3    0    0  0.43204652983E+03 -0.12374463554E+03  0.84436957127E+02  0.45728168397E+03  0.00000000000E+00 0. -1.
        -11    1    3    3    0    0  0.63671671491E+03 -0.17156659783E+03  0.23524098476E+03  0.70012969759E+03  0.00000000000E+00 0.  1.
         22    1    1    2    0    0 -0.10687632447E+04  0.29531123337E+03  0.15834940321E+04  0.19331106920E+04  0.00000000000E+00 0.  1.
<mgrwt>
<rscale>  0 0.24350078E+04</rscale>
<asrwt>0</asrwt>
<pdfrwt beam="1">  1        1 0.38413031E+00 0.24350078E+04</pdfrwt>
<pdfrwt beam="2">  1       -1 0.91334624E-01 0.24350078E+04</pdfrwt>
<totfact> 0.14218938E+00</totfact>
</mgrwt>
</event>
<event>
 6    1  0.1878398E-004  0.7219860E+03  0.7818608E-02  0.9680355E-01
         -2   -1    0    0    0  501 -0.00000000000E+00  0.00000000000E+00  0.10483561963E+03  0.10483561963E+03  0.00000000000E+00 0. -1.
          2   -1    0    0  501    0  0.00000000000E+00 -0.00000000000E+00 -0.12430504154E+04  0.12430504154E+04  0.00000000000E+00 0.  1.
         23    2    1    2    0    0  0.12831141171E+03  0.23576291649E+03 -0.10127066164E+04  0.10515749245E+04  0.90482924867E+02 0.  0.
         13    1    3    3    0    0  0.50110662584E+02  0.49743499977E+02 -0.40865429272E+03  0.41470932621E+03  0.00000000000E+00 0. -1.
        -13    1    3    3    0    0  0.78200749121E+02  0.18601941651E+03 -0.60405232368E+03  0.63686559825E+03  0.00000000000E+00 0.  1.
         22    1    1    2    0    0 -0.12831141171E+03 -0.23576291649E+03 -0.12550817939E+03  0.29631111059E+03  0.00000000000E+00 0. -1.
<mgrwt>
<rscale>  0 0.72198604E+03</rscale>
<asrwt>0</asrwt>
<pdfrwt beam="1">  1        2 0.19123853E+00 0.72198604E+03</pdfrwt>
<pdfrwt beam="2">  1       -2 0.16128556E-01 0.72198604E+03</pdfrwt>
<totfact> 0.55816513E+02</totfact>
</mgrwt>
</event>
<event>
 6    1  0.1878398E-004  0.2880247E+04  0.7818608E-02  0.8278779E-01
         -1   -1    0    0    0  501 -0.00000000000E+00  0.00000000000E+00  0.16993796421E+04  0.16993796421E+04  0.00000000000E+00 0. -1.
          1   -1    0    0  501    0  0.00000000000E+00 -0.00000000000E+00 -0.12204194641E+04  0.12204194641E+04  0.00000000000E+00 0.  1.
         23    2    1    2    0    0  0.29264074250E+03  0.67092653832E+03 -0.10159726656E+04  0.12552855945E+04  0.88093374381E+02 0.  0.
         13    1    3    3    0    0  0.27159284927E+03  0.53969577321E+03 -0.84281572316E+03  0.10370017100E+04  0.00000000000E+00 0.  1.
        -13    1    3    3    0    0  0.21047893232E+02  0.13123076511E+03 -0.17315694243E+03  0.21828388450E+03  0.00000000000E+00 0. -1.
         22    1    1    2    0    0 -0.29264074250E+03 -0.67092653832E+03  0.14949328436E+04  0.16645135118E+04  0.00000000000E+00 0. -1.
<mgrwt>
<rscale>  0 0.28802472E+04</rscale>
<asrwt>0</asrwt>
<pdfrwt beam="1">  1        1 0.18775684E+00 0.28802472E+04</pdfrwt>
<pdfrwt beam="2">  1       -1 0.26144302E+00 0.28802472E+04</pdfrwt>
<totfact> 0.52125617E-01</totfact>
</mgrwt>
</event>
<event>
 6    1  0.1878398E-004  0.2506914E+04  0.7818608E-02  0.8400526E-01
         -2   -1    0    0    0  501 -0.00000000000E+00  0.00000000000E+00  0.10129817825E+04  0.10129817825E+04  0.00000000000E+00 0. -1.
          2   -1    0    0  501    0  0.00000000000E+00 -0.00000000000E+00 -0.15510199251E+04  0.15510199251E+04  0.00000000000E+00 0.  1.
         23    2    1    2    0    0 -0.11600610725E+04 -0.46777743002E+03 -0.21940990940E+03  0.12732339645E+04  0.91796535911E+02 0.  0.
         13    1    3    3    0    0 -0.65266257101E+03 -0.23103829911E+03 -0.86182457091E+02  0.69769229834E+03  0.00000000000E+00 0.  1.
        -13    1    3    3    0    0 -0.50739850147E+03 -0.23673913090E+03 -0.13322745231E+03  0.57554166613E+03  0.00000000000E+00 0. -1.
         22    1    1    2    0    0  0.11600610725E+04  0.46777743002E+03 -0.31862823320E+03  0.12907677432E+04  0.00000000000E+00 0. -1.
<mgrwt>
<rscale>  0 0.25069144E+04</rscale>
<asrwt>0</asrwt>
<pdfrwt beam="1">  1        2 0.23861845E+00 0.25069144E+04</pdfrwt>
<pdfrwt beam="2">  1       -2 0.15584335E+00 0.25069144E+04</pdfrwt>
<totfact> 0.28654379E+00</totfact>
</mgrwt>
</event>
<event>
 6    1  0.1878398E-004  0.1583607E+04  0.7818608E-02  0.8830683E-01
         -2   -1    0    0    0  501 -0.00000000000E+00  0.00000000000E+00  0.15461357513E+03  0.15461357513E+03  0.00000000000E+00 0. -1.
          2   -1    0    0  501    0  0.00000000000E+00 -0.00000000000E+00 -0.40549652855E+04  0.40549652855E+04  0.00000000000E+00 0.  1.
         23    2    1    2    0    0 -0.77022178505E+03  0.15684961639E+03 -0.21388932314E+04  0.22806985187E+04  0.94223550721E+02 0.  0.
         13    1    3    3    0    0 -0.23896593969E+03  0.11326064898E+02 -0.71591329922E+03  0.75482769695E+03  0.00000000000E+00 0. -1.
        -13    1    3    3    0    0 -0.53125584536E+03  0.14552355149E+03 -0.14229799322E+04  0.15258708218E+04  0.00000000000E+00 0.  1.
         22    1    1    2    0    0  0.77022178505E+03 -0.15684961639E+03 -0.17614584789E+04  0.19288803419E+04  0.00000000000E+00 0. -1.
<mgrwt>
<rscale>  0 0.15836069E+04</rscale>
<asrwt>0</asrwt>
<pdfrwt beam="1">  1        2 0.62384083E+00 0.15836069E+04</pdfrwt>
<pdfrwt beam="2">  1       -2 0.23786703E-01 0.15836069E+04</pdfrwt>
<totfact> 0.47518989E+00</totfact>
</mgrwt>
</event>
<event>
 6    1  0.1878398E-004  0.2378878E+04  0.7818608E-02  0.8447454E-01
         -2   -1    0    0    0  501 -0.00000000000E+00  0.00000000000E+00  0.57728738356E+03  0.57728738356E+03  0.00000000000E+00 0. -1.
          2   -1    0    0  501    0  0.00000000000E+00 -0.00000000000E+00 -0.24507116688E+04  0.24507116688E+04  0.00000000000E+00 0.  1.
         23    2    1    2    0    0 -0.74589785174E+03 -0.56925334012E+03 -0.11700851669E+02  0.94319040081E+03  0.95174848524E+02 0.  0.
         13    1    3    3    0    0 -0.26783764430E+03 -0.14869547798E+03 -0.85344853298E+01  0.30646400493E+03  0.00000000000E+00 0. -1.
        -13    1    3    3    0    0 -0.47806020743E+03 -0.42055786213E+03 -0.31663663393E+01  0.63672639588E+03  0.00000000000E+00 0.  1.
         22    1    1    2    0    0  0.74589785174E+03  0.56925334012E+03 -0.18617234335E+04  0.20848086515E+04  0.00000000000E+00 0.  1.
<mgrwt>
<rscale>  0 0.23788778E+04</rscale>
<asrwt>0</asrwt>
<pdfrwt beam="1">  1        2 0.37703257E+00 0.23788778E+04</pdfrwt>
<pdfrwt beam="2">  1       -2 0.88813442E-01 0.23788778E+04</pdfrwt>
<totfact> 0.36482765E+00</totfact>
</mgrwt>
</event>
<event>
 6    1  0.1878398E-004  0.4649352E+04  0.7818608E-02  0.7884999E-01
         -2   -1    0    0    0  501 -0.00000000000E+00  0.00000000000E+00  0.27253990582E+04  0.27253990582E+04  0.00000000000E+00 0. -1.
          2   -1    0    0  501    0  0.00000000000E+00 -0.00000000000E+00 -0.19828727768E+04  0.19828727768E+04  0.00000000000E+00 0.  1.
         23    2    1    2    0    0  0.12699465430E+04  0.17694166041E+04  0.11917567485E+04  0.24844446489E+04  0.92637597516E+02 0.  0.
         13    1    3    3    0    0  0.50979084020E+03  0.66953456557E+03  0.50422277009E+03  0.98102183316E+03  0.00000000000E+00 0. -1.
        -13    1    3    3    0    0  0.76015570284E+03  0.10998820385E+04  0.68753397846E+03  0.15034228157E+04  0.00000000000E+00 0.  1.
         22    1    1    2    0    0 -0.12699465430E+04 -0.17694166041E+04 -0.44923046721E+03  0.22238271861E+04  0.00000000000E+00 0.  1.
<mgrwt>
<rscale>  0 0.46493525E+04</rscale>
<asrwt>0</asrwt>
<pdfrwt beam="1">  1        2 0.30505735E+00 0.46493525E+04</pdfrwt>
<pdfrwt beam="2">  1       -2 0.41929216E+00 0.46493525E+04</pdfrwt>
<totfact> 0.28355610E-02</totfact>
</mgrwt>
</event>
<event>
 6    1  0.1878398E-004  0.7109121E+03  0.7818608E-02  0.9698751E-01
         -1   -1    0    0    0  501 -0.00000000000E+00  0.00000000000E+00  0.32362245175E+03  0.32362245175E+03  0.00000000000E+00 0. -1.
          1   -1    0    0  501    0  0.00000000000E+00 -0.00000000000E+00 -0.39042098047E+03  0.39042098047E+03  0.00000000000E+00 0.  1.
         23    2    1    2    0    0  0.12717290664E+03 -0.31850148710E+03 -0.10210107600E+03  0.36927914272E+03  0.91248616771E+02 0.  0.
         11    1    3    3    0    0  0.79698165170E+02 -0.98788343462E+02 -0.13426299494E+02  0.12763698466E+03  0.00000000000E+00 0. -1.
        -11    1    3    3    0    0  0.47474741470E+02 -0.21971314364E+03 -0.88674776502E+02  0.24164215806E+03  0.00000000000E+00 0.  1.
         22    1    1    2    0    0 -0.12717290664E+03  0.31850148710E+03  0.35302547275E+02  0.34476428949E+03  0.00000000000E+00 0. -1.
<mgrwt>
<rscale>  0 0.71091208E+03</rscale>
<asrwt>0</asrwt>
<pdfrwt beam="1">  1        1 0.60064766E-01 0.71091208E+03</pdfrwt>
<pdfrwt beam="2">  1       -1 0.49788070E-01 0.71091208E+03</pdfrwt>
<totfact> 0.25414107E+02</totfact>
</mgrwt>
</event>
<event>
 6    1  0.1878398E-004  0.3647430E+04  0.7818608E-02  0.8079713E-01
          2   -1    0    0  501    0  0.00000000000E+00  0.00000000000E+00  0.17049851009E+04  0.17049851009E+04  0.00000000000E+00 0.  1.
         -2   -1    0    0    0  501 -0.00000000000E+00 -0.00000000000E+00 -0.19507126306E+04  0.19507126306E+04  0.00000000000E+00 0. -1.
         23    2    1    2    0    0  0.13824034716E+04 -0.36796628121E+03 -0.12548066501E+04  0.19050752098E+04  0.91286818542E+02 0.  0.
         11    1    3    3    0    0  0.65990897837E+03 -0.21313442821E+03 -0.57067292696E+03  0.89809450159E+03  0.00000000000E+00 0. -1.
        -11    1    3    3    0    0  0.72249449323E+03 -0.15483185300E+03 -0.68413372318E+03  0.10069807082E+04  0.00000000000E+00 0.  1.
         22    1    1    2    0    0 -0.13824034716E+04  0.36796628121E+03  0.10090791205E+04  0.17506225218E+04  0.00000000000E+00 0.  1.
<mgrwt>
<rscale>  0 0.36474298E+04</rscale>
<asrwt>0</asrwt>
<pdfrwt beam="1">  1        2 0.26230540E+00 0.36474298E+04</pdfrwt>
<pdfrwt beam="2">  1       -2 0.30010964E+00 0.36474298E+04</pdfrwt>
<totfact> 0.25104667E-01</totfact>
</mgrwt>
</event>
<event>
 6    1  0.1878398E-004  0.2240062E+04  0.7818608E-02  0.8501936E-01
          2   -1    0    0  501    0  0.00000000000E+00  0.00000000000E+00  0.18449908474E+04  0.18449908474E+04  0.00000000000E+00 0.  1.
         -2   -1    0    0    0  501 -0.00000000000E+00 -0.00000000000E+00 -0.67993237402E+03  0.67993237402E+03  0.00000000000E+00 0. -1.
         23    2    1    2    0    0  0.22443081877E+03  0.96642355436E+03  0.20697408883E+01  0.99623539498E+03  0.90205318808E+02 0.  0.
         11    1    3    3    0    0  0.87605108485E+02  0.29744591943E+03  0.38374965940E+02  0.31244418386E+03  0.00000000000E+00 0. -1.
        -11    1    3    3    0    0  0.13682571028E+03  0.66897763493E+03 -0.36305225052E+02  0.68379121112E+03  0.00000000000E+00 0.  1.
         22    1    1    2    0    0 -0.22443081877E+03 -0.96642355436E+03  0.11629887325E+04  0.15286878265E+04  0.00000000000E+00 0.  1.
<mgrwt>
<rscale>  0 0.22400616E+04</rscale>
<asrwt>0</asrwt>
<pdfrwt beam="1">  1        2 0.28384474E+00 0.22400616E+04</pdfrwt>
<pdfrwt beam="2">  1       -2 0.10460498E+00 0.22400616E+04</pdfrwt>
<totfact> 0.55053806E+00</totfact>
</mgrwt>
</event>
<event>
 6    1  0.1878398E-004  0.1151253E+04  0.7818608E-02  0.9156628E-01
          1   -1    0    0  501    0  0.00000000000E+00  0.00000000000E+00  0.70792141773E+03  0.70792141773E+03  0.00000000000E+00 0.  1.
         -1   -1    0    0    0  501 -0.00000000000E+00 -0.00000000000E+00 -0.46805486549E+03  0.46805486549E+03  0.00000000000E+00 0. -1.
         23    2    1    2    0    0 -0.33614589028E+03  0.12147803012E+03  0.57682379443E+03  0.68476232331E+03  0.91775695301E+02 0.  0.
         13    1    3    3    0    0 -0.28363557614E+03  0.79697793101E+02  0.40938718392E+03  0.50437956406E+03  0.00000000000E+00 0. -1.
        -13    1    3    3    0    0 -0.52510314131E+02  0.41780237022E+02  0.16743661050E+03  0.18038275925E+03  0.00000000000E+00 0.  1.
         22    1    1    2    0    0  0.33614589028E+03 -0.12147803012E+03 -0.33695724219E+03  0.49121395992E+03  0.00000000000E+00 0. -1.
<mgrwt>
<rscale>  0 0.11512533E+04</rscale>
<asrwt>0</asrwt>
<pdfrwt beam="1">  1        1 0.10891099E+00 0.11512533E+04</pdfrwt>
<pdfrwt beam="2">  1       -1 0.72008441E-01 0.11512533E+04</pdfrwt>
<totfact> 0.51778686E+01</totfact>
</mgrwt>
</event>
<event>
 6    1  0.1878398E-004  0.1877698E+04  0.7818608E-02  0.8666038E-01
          1   -1    0    0  501    0  0.00000000000E+00  0.00000000000E+00  0.71704744480E+03  0.71704744480E+03  0.00000000000E+00 0.  1.
         -1   -1    0    0    0  501 -0.00000000000E+00 -0.00000000000E+00 -0.12292591983E+04  0.12292591983E+04  0.00000000000E+00 0. -1.
         23    2    1    2    0    0  0.68001393023E+03  0.64383760008E+03 -0.27341522852E+03  0.97988562667E+03  0.92055166047E+02 0.  0.
         11    1    3    3    0    0  0.64213664006E+03  0.59851645335E+03 -0.27762110978E+03  0.92067089127E+03  0.00000000000E+00 0. -1.
        -11    1    3    3    0    0  0.37877290171E+02  0.45321146731E+02  0.42058812684E+01  0.59214735403E+02  0.00000000000E+00 0.  1.
         22    1    1    2    0    0 -0.68001393023E+03 -0.64383760008E+03 -0.23879652494E+03  0.96642101638E+03  0.00000000000E+00 0. -1.
<mgrwt>
<rscale>  0 0.18776977E+04</rscale>
<asrwt>0</asrwt>
<pdfrwt beam="1">  1        1 0.11031499E+00 0.18776977E+04</pdfrwt>
<pdfrwt beam="2">  1       -1 0.18911680E+00 0.18776977E+04</pdfrwt>
<totfact> 0.44116044E+00</totfact>
</mgrwt>
</event>
<event>
 6    1  0.1878398E-004  0.2593101E+04  0.7818608E-02  0.8370548E-01
          2   -1    0    0  501    0  0.00000000000E+00  0.00000000000E+00  0.10150491861E+04  0.10150491861E+04  0.00000000000E+00 0.  1.
         -2   -1    0    0    0  501 -0.00000000000E+00 -0.00000000000E+00 -0.16561201442E+04  0.16561201442E+04  0.00000000000E+00 0. -1.
         23    2    1    2    0    0 -0.86508072223E+03  0.49578845467E+03  0.53022583536E+03  0.11329537972E+04  0.90961652893E+02 0.  0.
         13    1    3    3    0    0 -0.57146051200E+03  0.33751150040E+03  0.30459620416E+03  0.73024651815E+03  0.00000000000E+00 0. -1.
        -13    1    3    3    0    0 -0.29362021023E+03  0.15827695427E+03  0.22562963120E+03  0.40270727903E+03  0.00000000000E+00 0.  1.
         22    1    1    2    0    0  0.86508072223E+03 -0.49578845467E+03 -0.11712967935E+04  0.15382155331E+04  0.00000000000E+00 0.  1.
<mgrwt>
<rscale>  0 0.25931012E+04</rscale>
<asrwt>0</asrwt>
<pdfrwt beam="1">  1        2 0.15616142E+00 0.25931012E+04</pdfrwt>
<pdfrwt beam="2">  1       -2 0.25478771E+00 0.25931012E+04</pdfrwt>
<totfact> 0.13092188E+00</totfact>
</mgrwt>
</event>
<event>
 6    1  0.1878398E-004  0.8835584E+03  0.7818608E-02  0.9446371E-01
         -2   -1    0    0    0  501 -0.00000000000E+00  0.00000000000E+00  0.41431211691E+03  0.41431211691E+03  0.00000000000E+00 0. -1.
          2   -1    0    0  501    0  0.00000000000E+00 -0.00000000000E+00 -0.47106718287E+03  0.47106718287E+03  0.00000000000E+00 0.  1.
         23    2    1    2    0    0  0.24533190963E+03 -0.33495625388E+03  0.10306598135E+03  0.44049031918E+03  0.10500327081E+03 0.  0.
         11    1    3    3    0    0  0.17176122206E+03 -0.20334110128E+03  0.16639695042E+02  0.26669533240E+03  0.00000000000E+00 0.  1.
        -11    1    3    3    0    0  0.73570687566E+02 -0.13161515260E+03  0.86426286307E+02  0.17379498678E+03  0.00000000000E+00 0. -1.
         22    1    1    2    0    0 -0.24533190963E+03  0.33495625388E+03 -0.15982104731E+03  0.44488898060E+03  0.00000000000E+00 0.  1.
<mgrwt>
<rscale>  0 0.88355836E+03</rscale>
<asrwt>0</asrwt>
<pdfrwt beam="1">  1        2 0.72471874E-01 0.88355836E+03</pdfrwt>
<pdfrwt beam="2">  1       -2 0.63740326E-01 0.88355836E+03</pdfrwt>
<totfact> 0.15094433E+02</totfact>
</mgrwt>
</event>
<event>
 6    1  0.1878398E-004  0.1233903E+04  0.7818608E-02  0.9083688E-01
          2   -1    0    0  501    0  0.00000000000E+00  0.00000000000E+00  0.25621927304E+04  0.25621927304E+04  0.00000000000E+00 0.  1.
         -2   -1    0    0    0  501 -0.00000000000E+00 -0.00000000000E+00 -0.14855598239E+03  0.14855598239E+03  0.00000000000E+00 0. -1.
         23    2    1    2    0    0  0.48360133348E+03 -0.11976360962E+03  0.20002785183E+04  0.20633859103E+04  0.90739695467E+02 0.  0.
         13    1    3    3    0    0  0.91701641978E+02 -0.40083702110E+02  0.54731587432E+03  0.55639065466E+03  0.00000000000E+00 0.  1.
        -13    1    3    3    0    0  0.39189969151E+03 -0.79679907509E+02  0.14529626440E+04  0.15069952557E+04  0.00000000000E+00 0. -1.
         22    1    1    2    0    0 -0.48360133348E+03  0.11976360962E+03  0.41335822976E+03  0.64736280249E+03  0.00000000000E+00 0. -1.
<mgrwt>
<rscale>  0 0.12339028E+04</rscale>
<asrwt>0</asrwt>
<pdfrwt beam="1">  1        2 0.39418347E+00 0.12339028E+04</pdfrwt>
<pdfrwt beam="2">  1       -2 0.22854768E-01 0.12339028E+04</pdfrwt>
<totfact> 0.53531215E+01</totfact>
</mgrwt>
</event>
<event>
 6    1  0.1878398E-004  0.4148313E+04  0.7818608E-02  0.7975278E-01
          3   -1    0    0  501    0  0.00000000000E+00  0.00000000000E+00  0.14458626360E+04  0.14458626360E+04  0.00000000000E+00 0. -1.
         -3   -1    0    0    0  501 -0.00000000000E+00 -0.00000000000E+00 -0.29754730213E+04  0.29754730213E+04  0.00000000000E+00 0.  1.
         23    2    1    2    0    0  0.20431002832E+04  0.33187142424E+03 -0.63946494618E+03  0.21681698151E+04  0.87450101228E+02 0.  0.
         11    1    3    3    0    0  0.50797438753E+03  0.11798230907E+03 -0.14571058752E+03  0.54146964730E+03  0.00000000000E+00 0. -1.
        -11    1    3    3    0    0  0.15351258957E+04  0.21388911517E+03 -0.49375435866E+03  0.16267001678E+04  0.00000000000E+00 0.  1.
         22    1    1    2    0    0 -0.20431002832E+04 -0.33187142424E+03 -0.89014543911E+03  0.22531658422E+04  0.00000000000E+00 0.  1.
<mgrwt>
<rscale>  0 0.41483130E+04</rscale>
<asrwt>0</asrwt>
<pdfrwt beam="1">  1        3 0.22244041E+00 0.41483130E+04</pdfrwt>
<pdfrwt beam="2">  1       -3 0.45776507E+00 0.41483130E+04</pdfrwt>
<totfact> 0.10990455E-03</totfact>
</mgrwt>
</event>
<event>
 6    1  0.1878398E-004  0.3144982E+04  0.7818608E-02  0.8203500E-01
         -2   -1    0    0    0  501 -0.00000000000E+00  0.00000000000E+00  0.20582135619E+04  0.20582135619E+04  0.00000000000E+00 0. -1.
          2   -1    0    0  501    0  0.00000000000E+00 -0.00000000000E+00 -0.12013950117E+04  0.12013950117E+04  0.00000000000E+00 0.  1.
         23    2    1    2    0    0 -0.32292207782E+03  0.99394835692E+02  0.20189362853E+04  0.20493707327E+04  0.98278554290E+02 0.  0.
         13    1    3    3    0    0 -0.20454295669E+03  0.25925176347E+02  0.10072071034E+04  0.10280934223E+04  0.00000000000E+00 0. -1.
        -13    1    3    3    0    0 -0.11837912113E+03  0.73469659346E+02  0.10117291819E+04  0.10212773103E+04  0.00000000000E+00 0.  1.
         22    1    1    2    0    0  0.32292207782E+03 -0.99394835692E+02 -0.11621177350E+04  0.12102378409E+04  0.00000000000E+00 0.  1.
<mgrwt>
<rscale>  0 0.31449817E+04</rscale>
<asrwt>0</asrwt>
<pdfrwt beam="1">  1        2 0.18483000E+00 0.31449817E+04</pdfrwt>
<pdfrwt beam="2">  1       -2 0.31664824E+00 0.31449817E+04</pdfrwt>
<totfact> 0.40150604E-01</totfact>
</mgrwt>
</event>
<event>
 6    1  0.1878398E-004  0.2401943E+04  0.7818608E-02  0.8438777E-01
         -1   -1    0    0    0  501 -0.00000000000E+00  0.00000000000E+00  0.79634985378E+03  0.79634985378E+03  0.00000000000E+00 0. -1.
          1   -1    0    0  501    0  0.00000000000E+00 -0.00000000000E+00 -0.18111789837E+04  0.18111789837E+04  0.00000000000E+00 0.  1.
         23    2    1    2    0    0 -0.28816807648E+03 -0.11639901980E+04 -0.48827370589E+03  0.12978820774E+04  0.90402730279E+02 0.  0.
         11    1    3    3    0    0 -0.19584770172E+03 -0.70856591922E+03 -0.34136211249E+03  0.81052456841E+03  0.00000000000E+00 0. -1.
        -11    1    3    3    0    0 -0.92320374762E+02 -0.45542427882E+03 -0.14691159340E+03  0.48735750903E+03  0.00000000000E+00 0.  1.
         22    1    1    2    0    0  0.28816807648E+03  0.11639901980E+04 -0.52655542399E+03  0.13096467600E+04  0.00000000000E+00 0.  1.
<mgrwt>
<rscale>  0 0.24019426E+04</rscale>
<asrwt>0</asrwt>
<pdfrwt beam="1">  1        1 0.27864292E+00 0.24019426E+04</pdfrwt>
<pdfrwt beam="2">  1       -1 0.12251536E+00 0.24019426E+04</pdfrwt>
<totfact> 0.21097087E+00</totfact>
</mgrwt>
</event>
<event>
 6    1  0.1878398E-004  0.1900622E+04  0.7818608E-02  0.8654547E-01
          1   -1    0    0  501    0  0.00000000000E+00  0.00000000000E+00  0.11174978488E+04  0.11174978488E+04  0.00000000000E+00 0.  1.
         -1   -1    0    0    0  501 -0.00000000000E+00 -0.00000000000E+00 -0.80813664258E+03  0.80813664258E+03  0.00000000000E+00 0. -1.
         23    2    1    2    0    0 -0.11828849769E+03  0.54352651999E+03 -0.62287251901E+03  0.84005954461E+03  0.91195487497E+02 0.  0.
         11    1    3    3    0    0 -0.24462820557E+02  0.30911965532E+03 -0.31708457192E+03  0.44350424647E+03  0.00000000000E+00 0.  1.
        -11    1    3    3    0    0 -0.93825677132E+02  0.23440686468E+03 -0.30578794709E+03  0.39655529814E+03  0.00000000000E+00 0. -1.
         22    1    1    2    0    0  0.11828849769E+03 -0.54352651999E+03  0.93223372526E+03  0.10855749468E+04  0.00000000000E+00 0.  1.
<mgrwt>
<rscale>  0 0.19006220E+04</rscale>
<asrwt>0</asrwt>
<pdfrwt beam="1">  1        1 0.17192275E+00 0.19006220E+04</pdfrwt>
<pdfrwt beam="2">  1       -1 0.12432871E+00 0.19006220E+04</pdfrwt>
<totfact> 0.65278353E+00</totfact>
</mgrwt>
</event>
<event>
 6    1  0.1878398E-004  0.9859749E+03  0.7818608E-02  0.9324062E-01
          2   -1    0    0  501    0  0.00000000000E+00  0.00000000000E+00  0.13623115968E+04  0.13623115968E+04  0.00000000000E+00 0.  1.
         -2   -1    0    0    0  501 -0.00000000000E+00 -0.00000000000E+00 -0.17840018659E+03  0.17840018659E+03  0.00000000000E+00 0. -1.
         23    2    1    2    0    0  0.37204270566E+03  0.25792350174E+03  0.30685758313E+03  0.55371445656E+03  0.86589927234E+02 0.  0.
         11    1    3    3    0    0  0.25358547981E+03  0.14827878538E+03  0.15520390872E+03  0.33223552947E+03  0.00000000000E+00 0.  1.
        -11    1    3    3    0    0  0.11845722585E+03  0.10964471636E+03  0.15165367441E+03  0.22147892709E+03  0.00000000000E+00 0. -1.
         22    1    1    2    0    0 -0.37204270566E+03 -0.25792350174E+03  0.87705382711E+03  0.98699732686E+03  0.00000000000E+00 0.  1.
<mgrwt>
<rscale>  0 0.98597493E+03</rscale>
<asrwt>0</asrwt>
<pdfrwt beam="1">  1        2 0.20958639E+00 0.98597493E+03</pdfrwt>
<pdfrwt beam="2">  1       -2 0.27446183E-01 0.98597493E+03</pdfrwt>
<totfact> 0.18356101E+02</totfact>
</mgrwt>
</event>
<event>
 6    1  0.1878398E-004  0.1241382E+04  0.7818608E-02  0.9077386E-01
          1   -1    0    0  501    0  0.00000000000E+00  0.00000000000E+00  0.17203581898E+04  0.17203581898E+04  0.00000000000E+00 0.  1.
         -1   -1    0    0    0  501 -0.00000000000E+00 -0.00000000000E+00 -0.22394026878E+03  0.22394026878E+03  0.00000000000E+00 0. -1.
         23    2    1    2    0    0  0.22242612050E+03  0.19226265251E+03  0.16025233269E+04  0.16317338032E+04  0.89643095825E+02 0.  0.
         11    1    3    3    0    0  0.73108571073E+02  0.64178055434E+02  0.77840213480E+03  0.78445750007E+03  0.00000000000E+00 0.  1.
        -11    1    3    3    0    0  0.14931754943E+03  0.12808459707E+03  0.82412119211E+03  0.84727630314E+03  0.00000000000E+00 0. -1.
         22    1    1    2    0    0 -0.22242612050E+03 -0.19226265251E+03 -0.10610540589E+03  0.31256465537E+03  0.00000000000E+00 0. -1.
<mgrwt>
<rscale>  0 0.12413823E+04</rscale>
<asrwt>0</asrwt>
<pdfrwt beam="1">  1        1 0.26467048E+00 0.12413823E+04</pdfrwt>
<pdfrwt beam="2">  1       -1 0.34452350E-01 0.12413823E+04</pdfrwt>
<totfact> 0.36370938E+01</totfact>
</mgrwt>
</event>
<event>
 6    1  0.1878398E-004  0.2556619E+04  0.7818608E-02  0.8383088E-01
          1   -1    0    0  501    0  0.00000000000E+00  0.00000000000E+00  0.22017224544E+04  0.22017224544E+04  0.00000000000E+00 0. -1.
         -1   -1    0    0    0  501 -0.00000000000E+00 -0.00000000000E+00 -0.74218050143E+03  0.74218050143E+03  0.00000000000E+00 0.  1.
         23    2    1    2    0    0 -0.31994382301E+03  0.59595226352E+03 -0.51623328301E+03  0.85555170822E+03  0.89155889697E+02 0.  0.
         11    1    3    3    0    0 -0.43563336960E+02  0.62855926517E+02 -0.95480902140E+02  0.12233247524E+03  0.00000000000E+00 0. -1.
        -11    1    3    3    0    0 -0.27638048605E+03  0.53309633701E+03 -0.42075238087E+03  0.73321923298E+03  0.00000000000E+00 0.  1.
         22    1    1    2    0    0  0.31994382301E+03 -0.59595226352E+03  0.19757752360E+04  0.20883512476E+04  0.00000000000E+00 0. -1.
<mgrwt>
<rscale>  0 0.25566192E+04</rscale>
<asrwt>0</asrwt>
<pdfrwt beam="1">  1        1 0.33872653E+00 0.25566192E+04</pdfrwt>
<pdfrwt beam="2">  1       -1 0.11418162E+00 0.25566192E+04</pdfrwt>
<totfact> 0.13408340E+00</totfact>
</mgrwt>
</event>
<event>
 6    1  0.1878398E-004  0.4307555E+04  0.7818608E-02  0.7945223E-01
          2   -1    0    0  501    0  0.00000000000E+00  0.00000000000E+00  0.44808672052E+04  0.44808672052E+04  0.00000000000E+00 0.  1.
         -2   -1    0    0    0  501 -0.00000000000E+00 -0.00000000000E+00 -0.10352364980E+04  0.10352364980E+04  0.00000000000E+00 0. -1.
         23    2    1    2    0    0 -0.13119961462E+04  0.89050550813E+02  0.39064175396E+04  0.41226947922E+04  0.85149674756E+02 0.  0.
         13    1    3    3    0    0 -0.78442744052E+03  0.11574888489E+02  0.23123044715E+04  0.24417641894E+04  0.00000000000E+00 0. -1.
        -13    1    3    3    0    0 -0.52756870572E+03  0.77475662324E+02  0.15941130681E+04  0.16809306028E+04  0.00000000000E+00 0.  1.
         22    1    1    2    0    0  0.13119961462E+04 -0.89050550813E+02 -0.46078683250E+03  0.13934089110E+04  0.00000000000E+00 0. -1.
<mgrwt>
<rscale>  0 0.43075549E+04</rscale>
<asrwt>0</asrwt>
<pdfrwt beam="1">  1        2 0.68936418E+00 0.43075549E+04</pdfrwt>
<pdfrwt beam="2">  1       -2 0.15926716E+00 0.43075549E+04</pdfrwt>
<totfact> 0.25020292E-02</totfact>
</mgrwt>
</event>
<event>
 6    1  0.1878398E-004  0.2909833E+04  0.7818608E-02  0.8269958E-01
         -1   -1    0    0    0  501 -0.00000000000E+00  0.00000000000E+00  0.78218678848E+03  0.78218678848E+03  0.00000000000E+00 0. -1.
          1   -1    0    0  501    0  0.00000000000E+00 -0.00000000000E+00 -0.27062350761E+04  0.27062350761E+04  0.00000000000E+00 0.  1.
         23    2    1    2    0    0  0.80652761203E+03 -0.11459659186E+04 -0.50015197763E+03  0.14906217301E+04  0.89869159968E+02 0.  0.
         11    1    3    3    0    0  0.44266875314E+03 -0.59284812244E+03 -0.30611569667E+03  0.80070677594E+03  0.00000000000E+00 0. -1.
        -11    1    3    3    0    0  0.36385885889E+03 -0.55311779621E+03 -0.19403628096E+03  0.68991495418E+03  0.00000000000E+00 0.  1.
         22    1    1    2    0    0 -0.80652761203E+03  0.11459659186E+04 -0.14238963100E+04  0.19978001345E+04  0.00000000000E+00 0.  1.
<mgrwt>
<rscale>  0 0.29098325E+04</rscale>
<asrwt>0</asrwt>
<pdfrwt beam="1">  1        1 0.41634386E+00 0.29098325E+04</pdfrwt>
<pdfrwt beam="2">  1       -1 0.12033643E+00 0.29098325E+04</pdfrwt>
<totfact> 0.51198771E-01</totfact>
</mgrwt>
</event>
<event>
 6    1  0.1878398E-004  0.1020450E+04  0.7818608E-02  0.9286396E-01
          2   -1    0    0  501    0  0.00000000000E+00  0.00000000000E+00  0.87462177131E+03  0.87462177131E+03  0.00000000000E+00 0.  1.
         -2   -1    0    0    0  501 -0.00000000000E+00 -0.00000000000E+00 -0.29764820070E+03  0.29764820070E+03  0.00000000000E+00 0. -1.
         23    2    1    2    0    0  0.49034895003E+03 -0.32267083042E+02  0.42865264018E+03  0.65896464781E+03  0.94910819690E+02 0.  0.
         11    1    3    3    0    0  0.16136328193E+03  0.11177002791E+02  0.19376622239E+03  0.25240519623E+03  0.00000000000E+00 0.  1.
        -11    1    3    3    0    0  0.32898566809E+03 -0.43444085833E+02  0.23488641779E+03  0.40655945158E+03  0.00000000000E+00 0. -1.
         22    1    1    2    0    0 -0.49034895003E+03  0.32267083042E+02  0.14832093043E+03  0.51330532419E+03  0.00000000000E+00 0.  1.
<mgrwt>
<rscale>  0 0.10204501E+04</rscale>
<asrwt>0</asrwt>
<pdfrwt beam="1">  1        2 0.13455719E+00 0.10204501E+04</pdfrwt>
<pdfrwt beam="2">  1       -2 0.45792031E-01 0.10204501E+04</pdfrwt>
<totfact> 0.13757436E+02</totfact>
</mgrwt>
</event>
<event>
 6    1  0.1878398E-004  0.2827221E+04  0.7818608E-02  0.8294867E-01
         -2   -1    0    0    0  501 -0.00000000000E+00  0.00000000000E+00  0.75119881179E+03  0.75119881179E+03  0.00000000000E+00 0. -1.
          2   -1    0    0  501    0  0.00000000000E+00 -0.00000000000E+00 -0.26601411821E+04  0.26601411821E+04  0.00000000000E+00 0.  1.
         23    2    1    2    0    0  0.61673011627E+03  0.10317885902E+04 -0.61096314963E+02  0.12069174447E+04  0.89292929991E+02 0.  0.
         11    1    3    3    0    0  0.39262397770E+03  0.71312267273E+03 -0.71531551700E+02  0.81719905599E+03  0.00000000000E+00 0.  1.
        -11    1    3    3    0    0  0.22410613857E+03  0.31866591748E+03  0.10435236737E+02  0.38971838868E+03  0.00000000000E+00 0. -1.
         22    1    1    2    0    0 -0.61673011627E+03 -0.10317885902E+04 -0.18478460553E+04  0.22044225492E+04  0.00000000000E+00 0.  1.
<mgrwt>
<rscale>  0 0.28272212E+04</rscale>
<asrwt>0</asrwt>
<pdfrwt beam="1">  1        2 0.40925249E+00 0.28272212E+04</pdfrwt>
<pdfrwt beam="2">  1       -2 0.11556905E+00 0.28272212E+04</pdfrwt>
<totfact> 0.14180269E+00</totfact>
</mgrwt>
</event>
<event>
 6    1  0.1878398E-004  0.2112647E+04  0.7818608E-02  0.8555693E-01
         -1   -1    0    0    0  501 -0.00000000000E+00  0.00000000000E+00  0.85026531224E+03  0.85026531224E+03  0.00000000000E+00 0. -1.
          1   -1    0    0  501    0  0.00000000000E+00 -0.00000000000E+00 -0.13123187683E+04  0.13123187683E+04  0.00000000000E+00 0.  1.
         23    2    1    2    0    0  0.95604837518E+03 -0.38389022411E+03 -0.46086112968E+03  0.11323406037E+04  0.91662763102E+02 0.  0.
         11    1    3    3    0    0  0.77627173375E+03 -0.30711710548E+03 -0.33314844497E+03  0.89883625176E+03  0.00000000000E+00 0. -1.
        -11    1    3    3    0    0  0.17977664143E+03 -0.76773118637E+02 -0.12771268472E+03  0.23350435197E+03  0.00000000000E+00 0.  1.
         22    1    1    2    0    0 -0.95604837518E+03  0.38389022411E+03 -0.11923263662E+01  0.10302434768E+04  0.00000000000E+00 0. -1.
<mgrwt>
<rscale>  0 0.21126468E+04</rscale>
<asrwt>0</asrwt>
<pdfrwt beam="1">  1        1 0.20189520E+00 0.21126468E+04</pdfrwt>
<pdfrwt beam="2">  1       -1 0.13081005E+00 0.21126468E+04</pdfrwt>
<totfact> 0.40655556E+00</totfact>
</mgrwt>
</event>
<event>
 6    1  0.1878398E-004  0.2667782E+04  0.7818608E-02  0.8345535E-01
         -1   -1    0    0    0  501 -0.00000000000E+00  0.00000000000E+00  0.75501552651E+03  0.75501552651E+03  0.00000000000E+00 0.  1.
          1   -1    0    0  501    0  0.00000000000E+00 -0.00000000000E+00 -0.23565934687E+04  0.23565934687E+04  0.00000000000E+00 0. -1.
         23    2    1    2    0    0  0.47641352048E+03  0.68248169345E+03 -0.20151432951E+04  0.21822073568E+04  0.92061632091E+02 0.  0.
         13    1    3    3    0    0  0.15816248756E+03  0.21649339934E+03 -0.76450629485E+03  0.81015716950E+03  0.00000000000E+00 0.  1.
        -13    1    3    3    0    0  0.31825103292E+03  0.46598829411E+03 -0.12506370002E+04  0.13720501873E+04  0.00000000000E+00 0. -1.
         22    1    1    2    0    0 -0.47641352048E+03 -0.68248169345E+03  0.41356535286E+03  0.92940163841E+03  0.00000000000E+00 0.  1.
<mgrwt>
<rscale>  0 0.26677816E+04</rscale>
<asrwt>0</asrwt>
<pdfrwt beam="1">  1        1 0.36255284E+00 0.26677816E+04</pdfrwt>
<pdfrwt beam="2">  1       -1 0.11615624E+00 0.26677816E+04</pdfrwt>
<totfact> 0.99813732E-01</totfact>
</mgrwt>
</event>
<event>
 6    1  0.1878398E-004  0.2134168E+04  0.7818608E-02  0.8546339E-01
          1   -1    0    0  501    0  0.00000000000E+00  0.00000000000E+00  0.15822582592E+04  0.15822582592E+04  0.00000000000E+00 0.  1.
         -1   -1    0    0    0  501 -0.00000000000E+00 -0.00000000000E+00 -0.71964784559E+03  0.71964784559E+03  0.00000000000E+00 0. -1.
         23    2    1    2    0    0  0.34509423898E+03 -0.67962887520E+03  0.12345560286E+04  0.14537734605E+04  0.91341365217E+02 0.  0.
         13    1    3    3    0    0  0.16159058352E+03 -0.40750282349E+03  0.66742827978E+03  0.79851773712E+03  0.00000000000E+00 0. -1.
        -13    1    3    3    0    0  0.18350365546E+03 -0.27212605170E+03  0.56712774878E+03  0.65525572338E+03  0.00000000000E+00 0.  1.
         22    1    1    2    0    0 -0.34509423898E+03  0.67962887520E+03 -0.37194561498E+03  0.84813264427E+03  0.00000000000E+00 0. -1.
<mgrwt>
<rscale>  0 0.21341685E+04</rscale>
<asrwt>0</asrwt>
<pdfrwt beam="1">  1        1 0.24342435E+00 0.21341685E+04</pdfrwt>
<pdfrwt beam="2">  1       -1 0.11071505E+00 0.21341685E+04</pdfrwt>
<totfact> 0.39548493E+00</totfact>
</mgrwt>
</event>
<event>
 6    1  0.1878398E-004  0.4563772E+04  0.7818608E-02  0.7899566E-01
          2   -1    0    0  501    0  0.00000000000E+00  0.00000000000E+00  0.20393374373E+04  0.20393374373E+04  0.00000000000E+00 0.  1.
         -2   -1    0    0    0  501 -0.00000000000E+00 -0.00000000000E+00 -0.25532815447E+04  0.25532815447E+04  0.00000000000E+00 0. -1.
         23    2    1    2    0    0 -0.16566389885E+03 -0.14920803291E+04  0.14711413502E+04  0.21037813999E+04  0.88831696549E+02 0.  0.
         13    1    3    3    0    0 -0.15166490984E+03 -0.12958532481E+04  0.12360282072E+04  0.17972210811E+04  0.00000000000E+00 0. -1.
        -13    1    3    3    0    0 -0.13998989013E+02 -0.19622708101E+03  0.23511314303E+03  0.30656031877E+03  0.00000000000E+00 0.  1.
         22    1    1    2    0    0  0.16566389885E+03  0.14920803291E+04 -0.19850854576E+04  0.24888375821E+04  0.00000000000E+00 0. -1.
<mgrwt>
<rscale>  0 0.45637715E+04</rscale>
<asrwt>0</asrwt>
<pdfrwt beam="1">  1        2 0.31374422E+00 0.45637715E+04</pdfrwt>
<pdfrwt beam="2">  1       -2 0.39281254E+00 0.45637715E+04</pdfrwt>
<totfact> 0.39603358E-02</totfact>
</mgrwt>
</event>
<event>
 6    1  0.1878398E-004  0.3552871E+04  0.7818608E-02  0.8101373E-01
         -2   -1    0    0    0  501 -0.00000000000E+00  0.00000000000E+00  0.22909232611E+04  0.22909232611E+04  0.00000000000E+00 0. -1.
          2   -1    0    0  501    0  0.00000000000E+00 -0.00000000000E+00 -0.13774899074E+04  0.13774899074E+04  0.00000000000E+00 0.  1.
         23    2    1    2    0    0 -0.33870057376E+03 -0.80011667352E+03  0.20554218164E+04  0.22334767870E+04  0.93567862767E+02 0.  0.
         13    1    3    3    0    0 -0.11843566320E+03 -0.25598201550E+03  0.56150868171E+03  0.62836756617E+03  0.00000000000E+00 0. -1.
        -13    1    3    3    0    0 -0.22026491055E+03 -0.54413465801E+03  0.14939131347E+04  0.16051092208E+04  0.00000000000E+00 0.  1.
         22    1    1    2    0    0  0.33870057376E+03  0.80011667352E+03 -0.11419884627E+04  0.14349363815E+04  0.00000000000E+00 0.  1.
<mgrwt>
<rscale>  0 0.35528713E+04</rscale>
<asrwt>0</asrwt>
<pdfrwt beam="1">  1        2 0.21192152E+00 0.35528713E+04</pdfrwt>
<pdfrwt beam="2">  1       -2 0.35244973E+00 0.35528713E+04</pdfrwt>
<totfact> 0.18304544E-01</totfact>
</mgrwt>
</event>
<event>
 6    1  0.1878398E-004  0.3383415E+04  0.7818608E-02  0.8141989E-01
         -2   -1    0    0    0  501 -0.00000000000E+00  0.00000000000E+00  0.10581766940E+04  0.10581766940E+04  0.00000000000E+00 0. -1.
          2   -1    0    0  501    0  0.00000000000E+00 -0.00000000000E+00 -0.27045332207E+04  0.27045332207E+04  0.00000000000E+00 0.  1.
         23    2    1    2    0    0  0.29921932696E+03  0.91035281288E+03 -0.23726746877E+04  0.25602904702E+04  0.85015696322E+02 0.  0.
         11    1    3    3    0    0  0.11574144228E+03  0.30209900112E+03 -0.90170446191E+03  0.95798268490E+03  0.00000000000E+00 0. -1.
        -11    1    3    3    0    0  0.18347788468E+03  0.60825381176E+03 -0.14709702258E+04  0.16023077853E+04  0.00000000000E+00 0.  1.
         22    1    1    2    0    0 -0.29921932696E+03 -0.91035281288E+03  0.72631816100E+03  0.12024194445E+04  0.00000000000E+00 0. -1.
<mgrwt>
<rscale>  0 0.33834149E+04</rscale>
<asrwt>0</asrwt>
<pdfrwt beam="1">  1        2 0.41608203E+00 0.33834149E+04</pdfrwt>
<pdfrwt beam="2">  1       -2 0.16279641E+00 0.33834149E+04</pdfrwt>
<totfact> 0.52575068E-01</totfact>
</mgrwt>
</event>
<event>
 6    1  0.1878398E-004  0.1566879E+04  0.7818608E-02  0.8841158E-01
          2   -1    0    0  501    0  0.00000000000E+00  0.00000000000E+00  0.20714844828E+04  0.20714844828E+04  0.00000000000E+00 0.  1.
         -2   -1    0    0    0  501 -0.00000000000E+00 -0.00000000000E+00 -0.29629838235E+03  0.29629838235E+03  0.00000000000E+00 0. -1.
         23    2    1    2    0    0  0.10648075787E+03  0.62860956608E+03  0.20986646798E+03  0.67760130977E+03  0.92797964738E+02 0.  0.
         11    1    3    3    0    0 -0.15679489239E+02  0.12844275776E+03  0.40174989928E+02  0.13548955023E+03  0.00000000000E+00 0. -1.
        -11    1    3    3    0    0  0.12216024711E+03  0.50016680832E+03  0.16969147805E+03  0.54211175955E+03  0.00000000000E+00 0.  1.
         22    1    1    2    0    0 -0.10648075787E+03 -0.62860956608E+03  0.15653196324E+04  0.16901815554E+04  0.00000000000E+00 0.  1.
<mgrwt>
<rscale>  0 0.15668791E+04</rscale>
<asrwt>0</asrwt>
<pdfrwt beam="1">  1        2 0.31868991E+00 0.15668791E+04</pdfrwt>
<pdfrwt beam="2">  1       -2 0.45584368E-01 0.15668791E+04</pdfrwt>
<totfact> 0.26753817E+01</totfact>
</mgrwt>
</event>
<event>
 6    1  0.1878398E-004  0.3992024E+04  0.7818608E-02  0.8006158E-01
          2   -1    0    0  501    0  0.00000000000E+00  0.00000000000E+00  0.24258859027E+04  0.24258859027E+04  0.00000000000E+00 0.  1.
         -2   -1    0    0    0  501 -0.00000000000E+00 -0.00000000000E+00 -0.16423125999E+04  0.16423125999E+04  0.00000000000E+00 0. -1.
         23    2    1    2    0    0 -0.42408838543E+03  0.19416569749E+04  0.56915824433E+03  0.20692346249E+04  0.88927266720E+02 0.  0.
         13    1    3    3    0    0 -0.17316009822E+03  0.95864280607E+03  0.30678939375E+03  0.10213227606E+04  0.00000000000E+00 0. -1.
        -13    1    3    3    0    0 -0.25092828721E+03  0.98301416887E+03  0.26236885058E+03  0.10479118643E+04  0.00000000000E+00 0.  1.
         22    1    1    2    0    0  0.42408838543E+03 -0.19416569749E+04  0.21441505847E+03  0.19989638777E+04  0.00000000000E+00 0. -1.
<mgrwt>
<rscale>  0 0.39920235E+04</rscale>
<asrwt>0</asrwt>
<pdfrwt beam="1">  1        2 0.37321322E+00 0.39920235E+04</pdfrwt>
<pdfrwt beam="2">  1       -2 0.25266348E+00 0.39920235E+04</pdfrwt>
<totfact> 0.18767329E-01</totfact>
</mgrwt>
</event>
<event>
 6    1  0.1878398E-004  0.4645661E+04  0.7818608E-02  0.7885621E-01
          2   -1    0    0  501    0  0.00000000000E+00  0.00000000000E+00  0.36398702979E+04  0.36398702979E+04  0.00000000000E+00 0.  1.
         -2   -1    0    0    0  501 -0.00000000000E+00 -0.00000000000E+00 -0.14823446170E+04  0.14823446170E+04  0.00000000000E+00 0. -1.
         23    2    1    2    0    0 -0.19665835015E+04  0.94084815806E+03  0.19794380740E+03  0.21909000148E+04  0.90637736223E+02 0.  0.
         13    1    3    3    0    0 -0.16642692654E+04  0.77609850451E+03  0.13886254514E+03  0.18415764668E+04  0.00000000000E+00 0.  1.
        -13    1    3    3    0    0 -0.30231423605E+03  0.16474965355E+03  0.59081262268E+02  0.34932354804E+03  0.00000000000E+00 0. -1.
         22    1    1    2    0    0  0.19665835015E+04 -0.94084815806E+03  0.19595818734E+04  0.29313149001E+04  0.00000000000E+00 0.  1.
<mgrwt>
<rscale>  0 0.46456613E+04</rscale>
<asrwt>0</asrwt>
<pdfrwt beam="1">  1        2 0.55998004E+00 0.46456613E+04</pdfrwt>
<pdfrwt beam="2">  1       -2 0.22805302E+00 0.46456613E+04</pdfrwt>
<totfact> 0.42436905E-02</totfact>
</mgrwt>
</event>
<event>
 6    1  0.1878398E-004  0.7297544E+03  0.7818608E-02  0.9667659E-01
         -1   -1    0    0    0  501 -0.00000000000E+00  0.00000000000E+00  0.41162654916E+03  0.41162654916E+03  0.00000000000E+00 0. -1.
          1   -1    0    0  501    0  0.00000000000E+00 -0.00000000000E+00 -0.32343726228E+03  0.32343726228E+03  0.00000000000E+00 0.  1.
         23    2    1    2    0    0 -0.16610648963E+03 -0.14993015497E+03  0.32824258948E+03  0.40689311598E+03  0.88024956822E+02 0.  0.
         11    1    3    3    0    0 -0.14303270667E+02  0.57111523557E+01  0.58218233126E+02  0.60220955500E+02  0.00000000000E+00 0. -1.
        -11    1    3    3    0    0 -0.15180321896E+03 -0.15564130732E+03  0.27002435635E+03  0.34667216048E+03  0.00000000000E+00 0.  1.
         22    1    1    2    0    0  0.16610648963E+03  0.14993015497E+03 -0.24005330261E+03  0.32817069546E+03  0.00000000000E+00 0.  1.
<mgrwt>
<rscale>  0 0.72975438E+03</rscale>
<asrwt>0</asrwt>
<pdfrwt beam="1">  1        1 0.49759579E-01 0.72975438E+03</pdfrwt>
<pdfrwt beam="2">  1       -1 0.63327161E-01 0.72975438E+03</pdfrwt>
<totfact> 0.20374685E+02</totfact>
</mgrwt>
</event>
<event>
 6    1  0.1878398E-004  0.1296474E+04  0.7818608E-02  0.9032366E-01
         -2   -1    0    0    0  501 -0.00000000000E+00  0.00000000000E+00  0.75231126763E+03  0.75231126763E+03  0.00000000000E+00 0. -1.
          2   -1    0    0  501    0  0.00000000000E+00 -0.00000000000E+00 -0.55855991082E+03  0.55855991082E+03  0.00000000000E+00 0.  1.
         23    2    1    2    0    0 -0.23671264554E+02  0.27795566863E+03  0.68531735484E+03  0.74566607151E+03  0.92403089082E+02 0.  0.
         13    1    3    3    0    0  0.31442003748E+02  0.66334124437E+02  0.13869187384E+03  0.15692116343E+03  0.00000000000E+00 0. -1.
        -13    1    3    3    0    0 -0.55113268302E+02  0.21162154419E+03  0.54662548100E+03  0.58874490807E+03  0.00000000000E+00 0.  1.
         22    1    1    2    0    0  0.23671264554E+02 -0.27795566863E+03 -0.49156599803E+03  0.56520510694E+03  0.00000000000E+00 0.  1.
<mgrwt>
<rscale>  0 0.12964735E+04</rscale>
<asrwt>0</asrwt>
<pdfrwt beam="1">  1        2 0.85932294E-01 0.12964735E+04</pdfrwt>
<pdfrwt beam="2">  1       -2 0.11574019E+00 0.12964735E+04</pdfrwt>
<totfact> 0.30755454E+01</totfact>
</mgrwt>
</event>
<event>
 6    1  0.1878398E-004  0.2539857E+04  0.7818608E-02  0.8388922E-01
          2   -1    0    0  501    0  0.00000000000E+00  0.00000000000E+00  0.98923340685E+03  0.98923340685E+03  0.00000000000E+00 0.  1.
         -2   -1    0    0    0  501 -0.00000000000E+00 -0.00000000000E+00 -0.16302709070E+04  0.16302709070E+04  0.00000000000E+00 0. -1.
         23    2    1    2    0    0  0.19773472953E+03 -0.12436989471E+04 -0.47745089464E+03  0.13496040533E+04  0.87095633747E+02 0.  0.
         11    1    3    3    0    0  0.10236997510E+03 -0.73612175557E+03 -0.32462028548E+03  0.81100750957E+03  0.00000000000E+00 0.  1.
        -11    1    3    3    0    0  0.95364754427E+02 -0.50757719157E+03 -0.15283060916E+03  0.53859654369E+03  0.00000000000E+00 0. -1.
         22    1    1    2    0    0 -0.19773472953E+03  0.12436989471E+04 -0.16358660554E+03  0.12699002606E+04  0.00000000000E+00 0.  1.
<mgrwt>
<rscale>  0 0.25398570E+04</rscale>
<asrwt>0</asrwt>
<pdfrwt beam="1">  1        2 0.15218976E+00 0.25398570E+04</pdfrwt>
<pdfrwt beam="2">  1       -2 0.25081091E+00 0.25398570E+04</pdfrwt>
<totfact> 0.14452571E+00</totfact>
</mgrwt>
</event>
<event>
 6    1  0.1878398E-004  0.5979014E+04  0.7818608E-02  0.7693009E-01
          2   -1    0    0  501    0  0.00000000000E+00  0.00000000000E+00  0.28324576698E+04  0.28324576698E+04  0.00000000000E+00 0.  1.
         -2   -1    0    0    0  501 -0.00000000000E+00 -0.00000000000E+00 -0.31552639730E+04  0.31552639730E+04  0.00000000000E+00 0. -1.
         23    2    1    2    0    0  0.15837071697E+04  0.23487501494E+04 -0.11154862881E+04  0.30461069124E+04  0.98498728230E+02 0.  0.
         13    1    3    3    0    0  0.11721753702E+04  0.17398115892E+04 -0.77935495333E+03  0.22379306530E+04  0.00000000000E+00 0.  1.
        -13    1    3    3    0    0  0.41153179951E+03  0.60893856017E+03 -0.33613133479E+03  0.80817625942E+03  0.00000000000E+00 0. -1.
         22    1    1    2    0    0 -0.15837071697E+04 -0.23487501494E+04  0.79267998491E+03  0.29416147304E+04  0.00000000000E+00 0.  1.
<mgrwt>
<rscale>  0 0.59790138E+04</rscale>
<asrwt>0</asrwt>
<pdfrwt beam="1">  1        2 0.43576272E+00 0.59790138E+04</pdfrwt>
<pdfrwt beam="2">  1       -2 0.48542522E+00 0.59790138E+04</pdfrwt>
<totfact> 0.30640591E-03</totfact>
</mgrwt>
</event>
<event>
 6    1  0.1878398E-004  0.3006307E+04  0.7818608E-02  0.8241932E-01
         -2   -1    0    0    0  501 -0.00000000000E+00  0.00000000000E+00  0.59414389543E+03  0.59414389543E+03  0.00000000000E+00 0. -1.
          2   -1    0    0  501    0  0.00000000000E+00 -0.00000000000E+00 -0.38028998673E+04  0.38028998673E+04  0.00000000000E+00 0.  1.
         23    2    1    2    0    0  0.11215262848E+04  0.22122922445E+03 -0.18160462780E+03  0.11612426506E+04  0.93491580123E+02 0.  0.
         13    1    3    3    0    0  0.86074317699E+03  0.20967660803E+03 -0.13941967697E+03  0.89681711793E+03  0.00000000000E+00 0. -1.
        -13    1    3    3    0    0  0.26078310780E+03  0.11552616415E+02 -0.42184950836E+02  0.26442553268E+03  0.00000000000E+00 0.  1.
         22    1    1    2    0    0 -0.11215262848E+04 -0.22122922445E+03 -0.30271513441E+04  0.32358011121E+04  0.00000000000E+00 0.  1.
<mgrwt>
<rscale>  0 0.30063065E+04</rscale>
<asrwt>0</asrwt>
<pdfrwt beam="1">  1        2 0.58506155E+00 0.30063065E+04</pdfrwt>
<pdfrwt beam="2">  1       -2 0.91406749E-01 0.30063065E+04</pdfrwt>
<totfact> 0.42591869E-01</totfact>
</mgrwt>
</event>
<event>
 6    1  0.1878398E-004  0.5190454E+03  0.7818608E-02  0.1008924E+00
          2   -1    0    0  501    0  0.00000000000E+00  0.00000000000E+00  0.16340631131E+04  0.16340631131E+04  0.00000000000E+00 0.  1.
         -2   -1    0    0    0  501 -0.00000000000E+00 -0.00000000000E+00 -0.41217525868E+02  0.41217525868E+02  0.00000000000E+00 0. -1.
         23    2    1    2    0    0  0.15893781101E+03  0.18915601232E+03  0.97120125082E+03  0.10063390079E+04  0.91897249610E+02 0.  0.
         13    1    3    3    0    0  0.31440910202E+02  0.78356977506E+02  0.46769996551E+03  0.47525951279E+03  0.00000000000E+00 0. -1.
        -13    1    3    3    0    0  0.12749690081E+03  0.11079903482E+03  0.50350128531E+03  0.53107949513E+03  0.00000000000E+00 0.  1.
         22    1    1    2    0    0 -0.15893781101E+03 -0.18915601232E+03  0.62164433645E+03  0.66894163109E+03  0.00000000000E+00 0. -1.
<mgrwt>
<rscale>  0 0.51904543E+03</rscale>
<asrwt>0</asrwt>
<pdfrwt beam="1">  1        2 0.25139428E+00 0.51904543E+03</pdfrwt>
<pdfrwt beam="2">  1       -2 0.63411591E-02 0.51904543E+03</pdfrwt>
<totfact> 0.15550713E+03</totfact>
</mgrwt>
</event>
<event>
 6    1  0.1878398E-004  0.1265155E+04  0.7818608E-02  0.9057663E-01
         -1   -1    0    0    0  501 -0.00000000000E+00  0.00000000000E+00  0.20649724958E+03  0.20649724958E+03  0.00000000000E+00 0.  1.
          1   -1    0    0  501    0  0.00000000000E+00 -0.00000000000E+00 -0.19378196013E+04  0.19378196013E+04  0.00000000000E+00 0. -1.
         23    2    1    2    0    0 -0.33710297432E+03 -0.53096391159E+03 -0.90549694823E+03  0.11062664245E+04  0.91321344458E+02 0.  0.
         11    1    3    3    0    0 -0.21793613693E+03 -0.41465064492E+03 -0.64693392771E+03  0.79872074215E+03  0.00000000000E+00 0.  1.
        -11    1    3    3    0    0 -0.11916683739E+03 -0.11631326667E+03 -0.25856302052E+03  0.30754568232E+03  0.00000000000E+00 0. -1.
         22    1    1    2    0    0  0.33710297432E+03  0.53096391159E+03 -0.82582540344E+03  0.10380504264E+04  0.00000000000E+00 0. -1.
<mgrwt>
<rscale>  0 0.12651552E+04</rscale>
<asrwt>0</asrwt>
<pdfrwt beam="1">  1        1 0.29812611E+00 0.12651552E+04</pdfrwt>
<pdfrwt beam="2">  1       -1 0.31768806E-01 0.12651552E+04</pdfrwt>
<totfact> 0.29870159E+01</totfact>
</mgrwt>
</event>
<event>
 6    1  0.1878398E-004  0.1958106E+04  0.7818608E-02  0.8626462E-01
         -1   -1    0    0    0  501 -0.00000000000E+00  0.00000000000E+00  0.71189108338E+03  0.71189108338E+03  0.00000000000E+00 0.  1.
          1   -1    0    0  501    0  0.00000000000E+00 -0.00000000000E+00 -0.13464761882E+04  0.13464761882E+04  0.00000000000E+00 0. -1.
         23    2    1    2    0    0  0.96727677653E+03 -0.60883595837E+02 -0.44838485068E+03  0.10714520223E+04  0.87345790281E+02 0.  0.
         13    1    3    3    0    0  0.87036356427E+03 -0.57364569072E+02 -0.37316861865E+03  0.94872453628E+03  0.00000000000E+00 0.  1.
        -13    1    3    3    0    0  0.96913212257E+02 -0.35190267655E+01 -0.75216232031E+02  0.12272748600E+03  0.00000000000E+00 0. -1.
         22    1    1    2    0    0 -0.96727677653E+03  0.60883595837E+02 -0.18620025415E+03  0.98691524930E+03  0.00000000000E+00 0.  1.
<mgrwt>
<rscale>  0 0.19581056E+04</rscale>
<asrwt>0</asrwt>
<pdfrwt beam="1">  1        1 0.20715018E+00 0.19581056E+04</pdfrwt>
<pdfrwt beam="2">  1       -1 0.10952171E+00 0.19581056E+04</pdfrwt>
<totfact> 0.60171255E+00</totfact>
</mgrwt>
</event>
<event>
 6    1  0.1878398E-004  0.1205087E+04  0.7818608E-02  0.9108416E-01
         -2   -1    0    0    0  501 -0.00000000000E+00  0.00000000000E+00  0.73059343782E+03  0.73059343782E+03  0.00000000000E+00 0. -1.
          2   -1    0    0  501    0  0.00000000000E+00 -0.00000000000E+00 -0.49693648654E+03  0.49693648654E+03  0.00000000000E+00 0.  1.
         23    2    1    2    0    0  0.18074282415E+03  0.96212539074E+02  0.69145782534E+03  0.72602572552E+03  0.84110693354E+02 0.  0.
         11    1    3    3    0    0  0.16272250911E+03  0.49095864468E+02  0.50340079353E+03  0.53132040974E+03  0.00000000000E+00 0.  1.
        -11    1    3    3    0    0  0.18020315040E+02  0.47116674607E+02  0.18805703182E+03  0.19470531579E+03  0.00000000000E+00 0. -1.
         22    1    1    2    0    0 -0.18074282415E+03 -0.96212539074E+02 -0.45780087407E+03  0.50150419884E+03  0.00000000000E+00 0.  1.
<mgrwt>
<rscale>  0 0.12050868E+04</rscale>
<asrwt>0</asrwt>
<pdfrwt beam="1">  1        2 0.76451767E-01 0.12050868E+04</pdfrwt>
<pdfrwt beam="2">  1       -2 0.11239899E+00 0.12050868E+04</pdfrwt>
<totfact> 0.38140832E+01</totfact>
</mgrwt>
</event>
<event>
 6    1  0.1878398E-004  0.1781372E+04  0.7818608E-02  0.8716269E-01
          1   -1    0    0  501    0  0.00000000000E+00  0.00000000000E+00  0.14384106725E+04  0.14384106725E+04  0.00000000000E+00 0. -1.
         -1   -1    0    0    0  501 -0.00000000000E+00 -0.00000000000E+00 -0.55152626625E+03  0.55152626625E+03  0.00000000000E+00 0.  1.
         23    2    1    2    0    0 -0.24738991708E+02 -0.36856647801E+03  0.13471401228E+04  0.13997771375E+04  0.90201207367E+02 0.  0.
         13    1    3    3    0    0  0.70156658538E+01 -0.19613610792E+03  0.56152874957E+03  0.59483874201E+03  0.00000000000E+00 0.  1.
        -13    1    3    3    0    0 -0.31754657562E+02 -0.17243037008E+03  0.78561137319E+03  0.80493839546E+03  0.00000000000E+00 0. -1.
         22    1    1    2    0    0  0.24738991708E+02  0.36856647801E+03 -0.46025571653E+03  0.59015980126E+03  0.00000000000E+00 0.  1.
<mgrwt>
<rscale>  0 0.17813717E+04</rscale>
<asrwt>0</asrwt>
<pdfrwt beam="1">  1        1 0.22129395E+00 0.17813717E+04</pdfrwt>
<pdfrwt beam="2">  1       -1 0.84850195E-01 0.17813717E+04</pdfrwt>
<totfact> 0.93789676E+00</totfact>
</mgrwt>
</event>
<event>
 6    1  0.1878398E-004  0.1499483E+04  0.7818608E-02  0.8884797E-01
         -2   -1    0    0    0  501 -0.00000000000E+00  0.00000000000E+00  0.45436940093E+03  0.45436940093E+03  0.00000000000E+00 0. -1.
          2   -1    0    0  501    0  0.00000000000E+00 -0.00000000000E+00 -0.12371264001E+04  0.12371264001E+04  0.00000000000E+00 0.  1.
         23    2    1    2    0    0 -0.37350323391E+03 -0.27826518321E+03  0.26595545587E+03  0.54400549985E+03  0.90958789762E+02 0.  0.
         11    1    3    3    0    0 -0.36402307065E+03 -0.24970093029E+03  0.26281409337E+03  0.51374565519E+03  0.00000000000E+00 0. -1.
        -11    1    3    3    0    0 -0.94801632554E+01 -0.28564252924E+02  0.31413624951E+01  0.30259844659E+02  0.00000000000E+00 0.  1.
         22    1    1    2    0    0  0.37350323391E+03  0.27826518321E+03 -0.10487124550E+04  0.11474903011E+04  0.00000000000E+00 0.  1.
<mgrwt>
<rscale>  0 0.14994831E+04</rscale>
<asrwt>0</asrwt>
<pdfrwt beam="1">  1        2 0.19032714E+00 0.14994831E+04</pdfrwt>
<pdfrwt beam="2">  1       -2 0.69902986E-01 0.14994831E+04</pdfrwt>
<totfact> 0.32431953E+01</totfact>
</mgrwt>
</event>
<event>
 6    1  0.1878398E-004  0.1963089E+04  0.7818608E-02  0.8624075E-01
          2   -1    0    0  501    0  0.00000000000E+00  0.00000000000E+00  0.12174743947E+04  0.12174743947E+04  0.00000000000E+00 0.  1.
         -2   -1    0    0    0  501 -0.00000000000E+00 -0.00000000000E+00 -0.79133457113E+03  0.79133457113E+03  0.00000000000E+00 0. -1.
         23    2    1    2    0    0  0.34379861847E+02  0.80467654097E+03 -0.35667298092E+03  0.88565172066E+03  0.92070866753E+02 0.  0.
         13    1    3    3    0    0 -0.21043731121E+01  0.56414593767E+03 -0.28487792186E+03  0.63199722922E+03  0.00000000000E+00 0. -1.
        -13    1    3    3    0    0  0.36484234960E+02  0.24053060330E+03 -0.71795059062E+02  0.25365449144E+03  0.00000000000E+00 0.  1.
         22    1    1    2    0    0 -0.34379861847E+02 -0.80467654097E+03  0.78281280449E+03  0.11231572452E+04  0.00000000000E+00 0.  1.
<mgrwt>
<rscale>  0 0.19630890E+04</rscale>
<asrwt>0</asrwt>
<pdfrwt beam="1">  1        2 0.18730375E+00 0.19630890E+04</pdfrwt>
<pdfrwt beam="2">  1       -2 0.12174378E+00 0.19630890E+04</pdfrwt>
<totfact> 0.88278094E+00</totfact>
</mgrwt>
</event>
<event>
 6    1  0.1878398E-004  0.2617756E+04  0.7818608E-02  0.8362195E-01
         -3   -1    0    0    0  501 -0.00000000000E+00  0.00000000000E+00  0.45971237608E+03  0.45971237608E+03  0.00000000000E+00 0. -1.
          3   -1    0    0  501    0  0.00000000000E+00 -0.00000000000E+00 -0.37265949788E+04  0.37265949788E+04  0.00000000000E+00 0.  1.
         23    2    1    2    0    0  0.77667751983E+03  0.64402885923E+03 -0.29649679503E+04  0.31331437405E+04  0.86911512551E+02 0.  0.
         11    1    3    3    0    0  0.58127114577E+03  0.49916189029E+03 -0.21379305896E+04  0.22710759440E+04  0.00000000000E+00 0.  1.
        -11    1    3    3    0    0  0.19540637406E+03  0.14486696894E+03 -0.82703736073E+03  0.86206779650E+03  0.00000000000E+00 0. -1.
         22    1    1    2    0    0 -0.77667751983E+03 -0.64402885923E+03 -0.30191465243E+03  0.10531636144E+04  0.00000000000E+00 0. -1.
<mgrwt>
<rscale>  0 0.26177562E+04</rscale>
<asrwt>0</asrwt>
<pdfrwt beam="1">  1        3 0.57332230E+00 0.26177562E+04</pdfrwt>
<pdfrwt beam="2">  1       -3 0.70724982E-01 0.26177562E+04</pdfrwt>
<totfact> 0.66699070E-03</totfact>
</mgrwt>
</event>
<event>
 6    1  0.1878398E-004  0.1724356E+04  0.7818608E-02  0.8747594E-01
          2   -1    0    0  501    0  0.00000000000E+00  0.00000000000E+00  0.15235049343E+04  0.15235049343E+04  0.00000000000E+00 0.  1.
         -2   -1    0    0    0  501 -0.00000000000E+00 -0.00000000000E+00 -0.48792181724E+03  0.48792181724E+03  0.00000000000E+00 0. -1.
         23    2    1    2    0    0  0.16066300317E+03 -0.84410728084E+03  0.55341454427E+03  0.10261266781E+04  0.91315932161E+02 0.  0.
         13    1    3    3    0    0  0.13498094149E+02 -0.10456351326E+03  0.10514101922E+03  0.14889714830E+03  0.00000000000E+00 0. -1.
        -13    1    3    3    0    0  0.14716490902E+03 -0.73954376759E+03  0.44827352504E+03  0.87722952976E+03  0.00000000000E+00 0.  1.
         22    1    1    2    0    0 -0.16066300317E+03  0.84410728084E+03  0.48216857274E+03  0.98530007343E+03  0.00000000000E+00 0.  1.
<mgrwt>
<rscale>  0 0.17243565E+04</rscale>
<asrwt>0</asrwt>
<pdfrwt beam="1">  1        2 0.23438537E+00 0.17243565E+04</pdfrwt>
<pdfrwt beam="2">  1       -2 0.75064896E-01 0.17243565E+04</pdfrwt>
<totfact> 0.18634807E+01</totfact>
</mgrwt>
</event>
<event>
 6    1  0.1878398E-004  0.1847681E+04  0.7818608E-02  0.8681346E-01
         -2   -1    0    0    0  501 -0.00000000000E+00  0.00000000000E+00  0.86321343685E+03  0.86321343685E+03  0.00000000000E+00 0. -1.
          2   -1    0    0  501    0  0.00000000000E+00 -0.00000000000E+00 -0.98872579495E+03  0.98872579495E+03  0.00000000000E+00 0.  1.
         23    2    1    2    0    0  0.19025124570E+03 -0.61574575643E+03 -0.72340644015E+03  0.97283985948E+03  0.88103016307E+02 0.  0.
         11    1    3    3    0    0  0.55590373211E+02 -0.20166350414E+03 -0.17600945753E+03  0.27338212750E+03  0.00000000000E+00 0. -1.
        -11    1    3    3    0    0  0.13466087249E+03 -0.41408225229E+03 -0.54739698261E+03  0.69945773197E+03  0.00000000000E+00 0.  1.
         22    1    1    2    0    0 -0.19025124570E+03  0.61574575643E+03  0.59789408205E+03  0.87909937232E+03  0.00000000000E+00 0. -1.
<mgrwt>
<rscale>  0 0.18476811E+04</rscale>
<asrwt>0</asrwt>
<pdfrwt beam="1">  1        2 0.15211166E+00 0.18476811E+04</pdfrwt>
<pdfrwt beam="2">  1       -2 0.13280207E+00 0.18476811E+04</pdfrwt>
<totfact> 0.99100629E+00</totfact>
</mgrwt>
</event>
<event>
 6    1  0.1878398E-004  0.2356963E+04  0.7818608E-02  0.8455794E-01
          2   -1    0    0  501    0  0.00000000000E+00  0.00000000000E+00  0.19681930674E+04  0.19681930674E+04  0.00000000000E+00 0.  1.
         -2   -1    0    0    0  501 -0.00000000000E+00 -0.00000000000E+00 -0.70563119431E+03  0.70563119431E+03  0.00000000000E+00 0. -1.
         23    2    1    2    0    0  0.60653019059E+03  0.65291862226E+03  0.15038953166E+04  0.17505564618E+04  0.92548382858E+02 0.  0.
         11    1    3    3    0    0  0.45896237568E+03  0.43750378316E+03  0.10976799780E+04  0.12676582176E+04  0.00000000000E+00 0. -1.
        -11    1    3    3    0    0  0.14756781491E+03  0.21541483910E+03  0.40621533858E+03  0.48289824414E+03  0.00000000000E+00 0.  1.
         22    1    1    2    0    0 -0.60653019059E+03 -0.65291862226E+03 -0.24133344353E+03  0.92326779991E+03  0.00000000000E+00 0. -1.
<mgrwt>
<rscale>  0 0.23569628E+04</rscale>
<asrwt>0</asrwt>
<pdfrwt beam="1">  1        2 0.30279893E+00 0.23569628E+04</pdfrwt>
<pdfrwt beam="2">  1       -2 0.10855865E+00 0.23569628E+04</pdfrwt>
<totfact> 0.42597594E+00</totfact>
</mgrwt>
</event>
<event>
 6    1  0.1878398E-004  0.1170821E+04  0.7818608E-02  0.9138787E-01
         -2   -1    0    0    0  501 -0.00000000000E+00  0.00000000000E+00  0.13729319087E+03  0.13729319087E+03  0.00000000000E+00 0. -1.
          2   -1    0    0  501    0  0.00000000000E+00 -0.00000000000E+00 -0.24961580332E+04  0.24961580332E+04  0.00000000000E+00 0.  1.
         23    2    1    2    0    0 -0.10688476944E+03 -0.53970935116E+03 -0.16224975618E+04  0.17142410689E+04  0.58425733729E+02 0.  0.
         13    1    3    3    0    0 -0.11793423048E+02 -0.16739229469E+03 -0.44244005202E+03  0.47319389766E+03  0.00000000000E+00 0. -1.
        -13    1    3    3    0    0 -0.95091346387E+02 -0.37231705647E+03 -0.11800575098E+04  0.12410471712E+04  0.00000000000E+00 0.  1.
         22    1    1    2    0    0  0.10688476944E+03  0.53970935116E+03 -0.73636728052E+03  0.91921015524E+03  0.00000000000E+00 0. -1.
<mgrwt>
<rscale>  0 0.11708211E+04</rscale>
<asrwt>0</asrwt>
<pdfrwt beam="1">  1        2 0.38402429E+00 0.11708211E+04</pdfrwt>
<pdfrwt beam="2">  1       -2 0.21122030E-01 0.11708211E+04</pdfrwt>
<totfact> 0.67613422E+01</totfact>
</mgrwt>
</event>
<event>
 6    1  0.1878398E-004  0.2963907E+04  0.7818608E-02  0.8254113E-01
         -2   -1    0    0    0  501 -0.00000000000E+00  0.00000000000E+00  0.17994886394E+04  0.17994886394E+04  0.00000000000E+00 0.  1.
          2   -1    0    0  501    0  0.00000000000E+00 -0.00000000000E+00 -0.12204505188E+04  0.12204505188E+04  0.00000000000E+00 0. -1.
         23    2    1    2    0    0  0.33409946133E+03  0.13082032171E+04 -0.32913882155E+03  0.13927318987E+04  0.91387474171E+02 0.  0.
         11    1    3    3    0    0  0.31526700243E+03  0.11292066401E+04 -0.30248887086E+03  0.12107850494E+04  0.00000000000E+00 0. -1.
        -11    1    3    3    0    0  0.18832458894E+02  0.17899657702E+03 -0.26649950693E+02  0.18194684929E+03  0.00000000000E+00 0.  1.
         22    1    1    2    0    0 -0.33409946133E+03 -0.13082032171E+04  0.90817694220E+03  0.16272072596E+04  0.00000000000E+00 0.  1.
<mgrwt>
<rscale>  0 0.29639075E+04</rscale>
<asrwt>0</asrwt>
<pdfrwt beam="1">  1        2 0.18776162E+00 0.29639075E+04</pdfrwt>
<pdfrwt beam="2">  1       -2 0.27684441E+00 0.29639075E+04</pdfrwt>
<totfact> 0.69600086E-01</totfact>
</mgrwt>
</event>
<event>
 6    1  0.1878398E-004  0.4395732E+04  0.7818608E-02  0.7929150E-01
         -2   -1    0    0    0  501 -0.00000000000E+00  0.00000000000E+00  0.17772587730E+04  0.17772587730E+04  0.00000000000E+00 0. -1.
          2   -1    0    0  501    0  0.00000000000E+00 -0.00000000000E+00 -0.27180139051E+04  0.27180139051E+04  0.00000000000E+00 0.  1.
         23    2    1    2    0    0  0.14709198495E+04  0.15828567111E+04 -0.64502983622E+02  0.21635654926E+04  0.88399291067E+02 0.  0.
         13    1    3    3    0    0  0.12578486929E+04  0.13279710831E+04 -0.81284747308E+02  0.18309281094E+04  0.00000000000E+00 0. -1.
        -13    1    3    3    0    0  0.21307115661E+03  0.25488562793E+03  0.16781763686E+02  0.33263738319E+03  0.00000000000E+00 0.  1.
         22    1    1    2    0    0 -0.14709198495E+04 -0.15828567111E+04 -0.87625214839E+03  0.23317071855E+04  0.00000000000E+00 0. -1.
<mgrwt>
<rscale>  0 0.43957316E+04</rscale>
<asrwt>0</asrwt>
<pdfrwt beam="1">  1        2 0.41815598E+00 0.43957316E+04</pdfrwt>
<pdfrwt beam="2">  1       -2 0.27342443E+00 0.43957316E+04</pdfrwt>
<totfact> 0.91416427E-02</totfact>
</mgrwt>
</event>
<event>
 6    1  0.1878398E-004  0.1798968E+04  0.7818608E-02  0.8706848E-01
          1   -1    0    0  501    0  0.00000000000E+00  0.00000000000E+00  0.10892632654E+04  0.10892632654E+04  0.00000000000E+00 0.  1.
         -1   -1    0    0    0  501 -0.00000000000E+00 -0.00000000000E+00 -0.74276967450E+03  0.74276967450E+03  0.00000000000E+00 0. -1.
         23    2    1    2    0    0  0.43967207631E+03  0.66553353203E+03  0.59184551850E+03  0.99750074438E+03  0.92088003075E+02 0.  0.
         13    1    3    3    0    0  0.22801233877E+03  0.37328447833E+03  0.27039761855E+03  0.51424293919E+03  0.00000000000E+00 0.  1.
        -13    1    3    3    0    0  0.21165973755E+03  0.29224905371E+03  0.32144789995E+03  0.48325780518E+03  0.00000000000E+00 0. -1.
         22    1    1    2    0    0 -0.43967207631E+03 -0.66553353203E+03 -0.24535192762E+03  0.83453219551E+03  0.00000000000E+00 0. -1.
<mgrwt>
<rscale>  0 0.17989683E+04</rscale>
<asrwt>0</asrwt>
<pdfrwt beam="1">  1        1 0.16757896E+00 0.17989683E+04</pdfrwt>
<pdfrwt beam="2">  1       -1 0.11427226E+00 0.17989683E+04</pdfrwt>
<totfact> 0.84973085E+00</totfact>
</mgrwt>
</event>
<event>
 6    1  0.1878398E-004  0.3746342E+04  0.7818608E-02  0.8057769E-01
          2   -1    0    0  501    0  0.00000000000E+00  0.00000000000E+00  0.22718850660E+04  0.22718850660E+04  0.00000000000E+00 0.  1.
         -2   -1    0    0    0  501 -0.00000000000E+00 -0.00000000000E+00 -0.15444306558E+04  0.15444306558E+04  0.00000000000E+00 0. -1.
         23    2    1    2    0    0  0.78243607077E+03  0.14648505285E+04 -0.51623459472E+03  0.17415252222E+04  0.91753295384E+02 0.  0.
         13    1    3    3    0    0  0.42050518929E+03  0.82386950216E+03 -0.24321526194E+03  0.95642000943E+03  0.00000000000E+00 0.  1.
        -13    1    3    3    0    0  0.36193088148E+03  0.64098102636E+03 -0.27301933278E+03  0.78510521282E+03  0.00000000000E+00 0. -1.
         22    1    1    2    0    0 -0.78243607077E+03 -0.14648505285E+04  0.12436890049E+04  0.20747904995E+04  0.00000000000E+00 0.  1.
<mgrwt>
<rscale>  0 0.37463417E+04</rscale>
<asrwt>0</asrwt>
<pdfrwt beam="1">  1        2 0.34952078E+00 0.37463417E+04</pdfrwt>
<pdfrwt beam="2">  1       -2 0.23760471E+00 0.37463417E+04</pdfrwt>
<totfact> 0.29034862E-01</totfact>
</mgrwt>
</event>
<event>
 6    1  0.1878398E-004  0.1010727E+04  0.7818608E-02  0.9296858E-01
         -2   -1    0    0    0  501 -0.00000000000E+00  0.00000000000E+00  0.23183415515E+03  0.23183415515E+03  0.00000000000E+00 0. -1.
          2   -1    0    0  501    0  0.00000000000E+00 -0.00000000000E+00 -0.11016155176E+04  0.11016155176E+04  0.00000000000E+00 0.  1.
         23    2    1    2    0    0 -0.39656984583E+03  0.30558344876E+03 -0.39184315797E+03  0.64129808957E+03  0.84102868374E+02 0.  0.
         11    1    3    3    0    0 -0.13203874715E+03  0.11559487437E+03 -0.18750450703E+03  0.25681578200E+03  0.00000000000E+00 0. -1.
        -11    1    3    3    0    0 -0.26453109868E+03  0.18998857439E+03 -0.20433865093E+03  0.38448230757E+03  0.00000000000E+00 0.  1.
         22    1    1    2    0    0  0.39656984583E+03 -0.30558344876E+03 -0.47793820444E+03  0.69215158314E+03  0.00000000000E+00 0. -1.
<mgrwt>
<rscale>  0 0.10107267E+04</rscale>
<asrwt>0</asrwt>
<pdfrwt beam="1">  1        2 0.16947931E+00 0.10107267E+04</pdfrwt>
<pdfrwt beam="2">  1       -2 0.35666793E-01 0.10107267E+04</pdfrwt>
<totfact> 0.16005253E+02</totfact>
</mgrwt>
</event>
<event>
 6    1  0.1878398E-004  0.3048846E+04  0.7818608E-02  0.8229919E-01
         -2   -1    0    0    0  501 -0.00000000000E+00  0.00000000000E+00  0.11288715821E+04  0.11288715821E+04  0.00000000000E+00 0. -1.
          2   -1    0    0  501    0  0.00000000000E+00 -0.00000000000E+00 -0.20585734961E+04  0.20585734961E+04  0.00000000000E+00 0.  1.
         23    2    1    2    0    0  0.95105430971E+02  0.14778156585E+04 -0.94692791579E+02  0.14873790801E+04  0.10171351711E+03 0.  0.
         13    1    3    3    0    0  0.21043016716E+02  0.10459302784E+04 -0.71058332772E+02  0.10485524510E+04  0.00000000000E+00 0.  1.
        -13    1    3    3    0    0  0.74062414255E+02  0.43188538008E+03 -0.23634458807E+02  0.43882662907E+03  0.00000000000E+00 0. -1.
         22    1    1    2    0    0 -0.95105430971E+02 -0.14778156585E+04 -0.83500912234E+03  0.17000659981E+04  0.00000000000E+00 0. -1.
<mgrwt>
<rscale>  0 0.30488458E+04</rscale>
<asrwt>0</asrwt>
<pdfrwt beam="1">  1        2 0.31670361E+00 0.30488458E+04</pdfrwt>
<pdfrwt beam="2">  1       -2 0.17367255E+00 0.30488458E+04</pdfrwt>
<totfact> 0.10608250E+00</totfact>
</mgrwt>
</event>
<event>
 6    1  0.1878398E-004  0.5099858E+04  0.7818608E-02  0.7813285E-01
         -2   -1    0    0    0  501 -0.00000000000E+00  0.00000000000E+00  0.35907929023E+04  0.35907929023E+04  0.00000000000E+00 0. -1.
          2   -1    0    0  501    0  0.00000000000E+00 -0.00000000000E+00 -0.18107805026E+04  0.18107805026E+04  0.00000000000E+00 0.  1.
         23    2    1    2    0    0 -0.88350215998E+03 -0.90943674304E+03  0.32325308325E+04  0.34735015561E+04  0.91138472912E+02 0.  0.
         13    1    3    3    0    0 -0.70231158101E+03 -0.72967855407E+03  0.24778173198E+04  0.26767986512E+04  0.00000000000E+00 0.  1.
        -13    1    3    3    0    0 -0.18119057897E+03 -0.17975818897E+03  0.75471351272E+03  0.79670290491E+03  0.00000000000E+00 0. -1.
         22    1    1    2    0    0  0.88350215998E+03  0.90943674304E+03 -0.14525184328E+04  0.19280718487E+04  0.00000000000E+00 0.  1.
<mgrwt>
<rscale>  0 0.50998579E+04</rscale>
<asrwt>0</asrwt>
<pdfrwt beam="1">  1        2 0.27858162E+00 0.50998579E+04</pdfrwt>
<pdfrwt beam="2">  1       -2 0.55242968E+00 0.50998579E+04</pdfrwt>
<totfact> 0.51563487E-03</totfact>
</mgrwt>
</event>
<event>
 6    1  0.1878398E-004  0.4085425E+04  0.7818608E-02  0.7987532E-01
         -1   -1    0    0    0  501 -0.00000000000E+00  0.00000000000E+00  0.10600636544E+04  0.10600636544E+04  0.00000000000E+00 0. -1.
          1   -1    0    0  501    0  0.00000000000E+00 -0.00000000000E+00 -0.39362485186E+04  0.39362485186E+04  0.00000000000E+00 0.  1.
         23    2    1    2    0    0  0.88251989501E+03  0.16786650021E+04 -0.51422153295E+03  0.19671822100E+04  0.92868228484E+02 0.  0.
         13    1    3    3    0    0  0.19401721707E+03  0.33122210435E+03 -0.13843637087E+03  0.40806297518E+03  0.00000000000E+00 0.  1.
        -13    1    3    3    0    0  0.68850267795E+03  0.13474428978E+04 -0.37578516207E+03  0.15591192348E+04  0.00000000000E+00 0. -1.
         22    1    1    2    0    0 -0.88251989501E+03 -0.16786650021E+04 -0.23619633313E+04  0.30291299630E+04  0.00000000000E+00 0.  1.
<mgrwt>
<rscale>  0 0.40854248E+04</rscale>
<asrwt>0</asrwt>
<pdfrwt beam="1">  1        1 0.60557671E+00 0.40854248E+04</pdfrwt>
<pdfrwt beam="2">  1       -1 0.16308671E+00 0.40854248E+04</pdfrwt>
<totfact> 0.23409319E-02</totfact>
</mgrwt>
</event>
<event>
 6    1  0.1878398E-004  0.1144021E+04  0.7818608E-02  0.9163317E-01
         -1   -1    0    0    0  501 -0.00000000000E+00  0.00000000000E+00  0.46321727088E+03  0.46321727088E+03  0.00000000000E+00 0. -1.
          1   -1    0    0  501    0  0.00000000000E+00 -0.00000000000E+00 -0.70635557722E+03  0.70635557722E+03  0.00000000000E+00 0.  1.
         23    2    1    2    0    0 -0.29938277148E+03 -0.39963952537E+03  0.15422038642E+03  0.53142261124E+03  0.96354917111E+02 0.  0.
         11    1    3    3    0    0 -0.24091776742E+03 -0.24834000521E+03  0.95730111979E+02  0.35899635539E+03  0.00000000000E+00 0. -1.
        -11    1    3    3    0    0 -0.58465004058E+02 -0.15129952016E+03  0.58490274437E+02  0.17242625584E+03  0.00000000000E+00 0.  1.
         22    1    1    2    0    0  0.29938277148E+03  0.39963952537E+03 -0.39735869276E+03  0.63815023686E+03  0.00000000000E+00 0.  1.
<mgrwt>
<rscale>  0 0.11440212E+04</rscale>
<asrwt>0</asrwt>
<pdfrwt beam="1">  1        1 0.10867009E+00 0.11440212E+04</pdfrwt>
<pdfrwt beam="2">  1       -1 0.71264196E-01 0.11440212E+04</pdfrwt>
<totfact> 0.53109139E+01</totfact>
</mgrwt>
</event>
<event>
 6    1  0.2058080E-004  0.3099658E+04  0.7818608E-02  0.8215832E-01
          1   -1    0    0  501    0  0.00000000000E+00  0.00000000000E+00  0.24691049101E+04  0.24691049101E+04  0.00000000000E+00 0. -1.
         -1   -1    0    0    0  501 -0.00000000000E+00 -0.00000000000E+00 -0.97281005597E+03  0.97281005597E+03  0.00000000000E+00 0.  1.
         23    2    1    2    0    0  0.13081822197E+04 -0.38839022496E+03  0.15614113619E+04  0.20757422660E+04  0.92264983198E+02 0.  0.
         13    1    3    3    0    0  0.33877244142E+03 -0.61770895383E+02  0.37106490912E+03  0.50623273044E+03  0.00000000000E+00 0.  1.
        -13    1    3    3    0    0  0.96940977828E+03 -0.32661932957E+03  0.11903464528E+04  0.15695095356E+04  0.00000000000E+00 0. -1.
         22    1    1    2    0    0 -0.13081822197E+04  0.38839022496E+03 -0.65116507758E+02  0.13661727001E+04  0.00000000000E+00 0.  1.
<mgrwt>
<rscale>  0 0.30996581E+04</rscale>
<asrwt>0</asrwt>
<pdfrwt beam="1">  1        1 0.37986229E+00 0.30996581E+04</pdfrwt>
<pdfrwt beam="2">  1       -1 0.14966309E+00 0.30996581E+04</pdfrwt>
<totfact> 0.42144220E-01</totfact>
</mgrwt>
</event>
<event>
 6    1  0.1878398E-004  0.2710017E+04  0.7818608E-02  0.8331762E-01
          1   -1    0    0  501    0  0.00000000000E+00  0.00000000000E+00  0.97316201657E+03  0.97316201657E+03  0.00000000000E+00 0.  1.
         -1   -1    0    0    0  501 -0.00000000000E+00 -0.00000000000E+00 -0.18866826877E+04  0.18866826877E+04  0.00000000000E+00 0. -1.
         23    2    1    2    0    0  0.34095491776E+03 -0.83316988380E+03  0.60923311395E+03  0.10908898147E+04  0.91941772467E+02 0.  0.
         11    1    3    3    0    0  0.11380949295E+03 -0.19843762251E+03  0.12340357677E+03  0.25992024445E+03  0.00000000000E+00 0. -1.
        -11    1    3    3    0    0  0.22714542481E+03 -0.63473226129E+03  0.48582953718E+03  0.83096957028E+03  0.00000000000E+00 0.  1.
         22    1    1    2    0    0 -0.34095491776E+03  0.83316988380E+03 -0.15227537851E+04  0.17689548895E+04  0.00000000000E+00 0. -1.
<mgrwt>
<rscale>  0 0.27100169E+04</rscale>
<asrwt>0</asrwt>
<pdfrwt beam="1">  1        1 0.14971723E+00 0.27100169E+04</pdfrwt>
<pdfrwt beam="2">  1       -1 0.29025887E+00 0.27100169E+04</pdfrwt>
<totfact> 0.52927321E-01</totfact>
</mgrwt>
</event>
<event>
 6    1  0.1878398E-004  0.1057658E+04  0.7818608E-02  0.9247473E-01
         -2   -1    0    0    0  501 -0.00000000000E+00  0.00000000000E+00  0.35781571372E+03  0.35781571372E+03  0.00000000000E+00 0. -1.
          2   -1    0    0  501    0  0.00000000000E+00 -0.00000000000E+00 -0.78157654800E+03  0.78157654800E+03  0.00000000000E+00 0.  1.
         23    2    1    2    0    0 -0.42237644136E+03 -0.58691442117E+02  0.11721122629E+03  0.45055460746E+03  0.86107137549E+02 0.  0.
         11    1    3    3    0    0 -0.24677378145E+03  0.79004886504E+01  0.75330212626E+02  0.25813631645E+03  0.00000000000E+00 0. -1.
        -11    1    3    3    0    0 -0.17560265991E+03 -0.66591930768E+02  0.41881013667E+02  0.19241829101E+03  0.00000000000E+00 0.  1.
         22    1    1    2    0    0  0.42237644136E+03  0.58691442117E+02 -0.54097206058E+03  0.68883765425E+03  0.00000000000E+00 0.  1.
<mgrwt>
<rscale>  0 0.10576585E+04</rscale>
<asrwt>0</asrwt>
<pdfrwt beam="1">  1        2 0.12024255E+00 0.10576585E+04</pdfrwt>
<pdfrwt beam="2">  1       -2 0.55048572E-01 0.10576585E+04</pdfrwt>
<totfact> 0.10975807E+02</totfact>
</mgrwt>
</event>
<event>
 6    1  0.1878398E-004  0.4759894E+04  0.7818608E-02  0.7866652E-01
         -2   -1    0    0    0  501 -0.00000000000E+00  0.00000000000E+00  0.19586212675E+04  0.19586212675E+04  0.00000000000E+00 0. -1.
          2   -1    0    0  501    0  0.00000000000E+00 -0.00000000000E+00 -0.28919049887E+04  0.28919049887E+04  0.00000000000E+00 0.  1.
         23    2    1    2    0    0 -0.65976375103E+03 -0.14802650065E+04 -0.22414535899E+04  0.27677922112E+04  0.10043322201E+03 0.  0.
         11    1    3    3    0    0 -0.41860053220E+03 -0.81731125535E+03 -0.12606647847E+04  0.15596473297E+04  0.00000000000E+00 0.  1.
        -11    1    3    3    0    0 -0.24116321883E+03 -0.66295375117E+03 -0.98078880521E+03  0.12081448815E+04  0.00000000000E+00 0. -1.
         22    1    1    2    0    0  0.65976375103E+03  0.14802650065E+04  0.13081698687E+04  0.20827340450E+04  0.00000000000E+00 0. -1.
<mgrwt>
<rscale>  0 0.47598935E+04</rscale>
<asrwt>0</asrwt>
<pdfrwt beam="1">  1        2 0.44490846E+00 0.47598935E+04</pdfrwt>
<pdfrwt beam="2">  1       -2 0.30132635E+00 0.47598935E+04</pdfrwt>
<totfact> 0.47025716E-02</totfact>
</mgrwt>
</event>
<event>
 6    1  0.2452033E-004  0.3507596E+04  0.7818608E-02  0.8111992E-01
          2   -1    0    0  501    0  0.00000000000E+00  0.00000000000E+00  0.23423731794E+04  0.23423731794E+04  0.00000000000E+00 0.  1.
         -2   -1    0    0    0  501 -0.00000000000E+00 -0.00000000000E+00 -0.13131161740E+04  0.13131161740E+04  0.00000000000E+00 0. -1.
         23    2    1    2    0    0  0.14670533946E+04 -0.58723392557E+03 -0.27493766714E+03  0.16065840140E+04  0.91826614800E+02 0.  0.
         13    1    3    3    0    0  0.62404684997E+03 -0.22926723923E+03 -0.15744523592E+03  0.68321807665E+03  0.00000000000E+00 0.  1.
        -13    1    3    3    0    0  0.84300654464E+03 -0.35796668634E+03 -0.11749243122E+03  0.92336593734E+03  0.00000000000E+00 0. -1.
         22    1    1    2    0    0 -0.14670533946E+04  0.58723392557E+03  0.13041946725E+04  0.20489053394E+04  0.00000000000E+00 0.  1.
<mgrwt>
<rscale>  0 0.35075964E+04</rscale>
<asrwt>0</asrwt>
<pdfrwt beam="1">  1        2 0.36036510E+00 0.35075964E+04</pdfrwt>
<pdfrwt beam="2">  1       -2 0.20201787E+00 0.35075964E+04</pdfrwt>
<totfact> 0.45435956E-01</totfact>
</mgrwt>
</event>
<event>
 6    1  0.1878398E-004  0.1975350E+04  0.7818608E-02  0.8618233E-01
         -2   -1    0    0    0  501 -0.00000000000E+00  0.00000000000E+00  0.98073147234E+03  0.98073147234E+03  0.00000000000E+00 0. -1.
          2   -1    0    0  501    0  0.00000000000E+00 -0.00000000000E+00 -0.99466782468E+03  0.99466782468E+03  0.00000000000E+00 0.  1.
         23    2    1    2    0    0  0.87541079046E+03  0.17557417670E+03  0.41037602480E+03  0.98685929430E+03  0.91172591417E+02 0.  0.
         13    1    3    3    0    0  0.53285459170E+03  0.11729732198E+03  0.20268615873E+03  0.58204326006E+03  0.00000000000E+00 0. -1.
        -13    1    3    3    0    0  0.34255619876E+03  0.58276854723E+02  0.20768986607E+03  0.40481603423E+03  0.00000000000E+00 0.  1.
         22    1    1    2    0    0 -0.87541079046E+03 -0.17557417670E+03 -0.42431237715E+03  0.98854000272E+03  0.00000000000E+00 0.  1.
<mgrwt>
<rscale>  0 0.19753501E+04</rscale>
<asrwt>0</asrwt>
<pdfrwt beam="1">  1        2 0.15302582E+00 0.19753501E+04</pdfrwt>
<pdfrwt beam="2">  1       -2 0.15088177E+00 0.19753501E+04</pdfrwt>
<totfact> 0.69711007E+00</totfact>
</mgrwt>
</event>
<event>
 6    1  0.1878398E-004  0.5923268E+03  0.7818608E-02  0.9921455E-01
          1   -1    0    0  501    0  0.00000000000E+00  0.00000000000E+00  0.45574022635E+03  0.45574022635E+03  0.00000000000E+00 0.  1.
         -1   -1    0    0    0  501 -0.00000000000E+00 -0.00000000000E+00 -0.19246215502E+03  0.19246215502E+03  0.00000000000E+00 0. -1.
         23    2    1    2    0    0  0.14792065472E+03 -0.16182655806E+03 -0.72200323500E+02  0.24743548106E+03  0.89123933864E+02 0.  0.
         11    1    3    3    0    0  0.15575289946E+03 -0.14393370901E+03 -0.79638491420E+02  0.22653513545E+03  0.00000000000E+00 0. -1.
        -11    1    3    3    0    0 -0.78322447313E+01 -0.17892849049E+02  0.74381679205E+01  0.20900345611E+02  0.00000000000E+00 0.  1.
         22    1    1    2    0    0 -0.14792065472E+03  0.16182655806E+03  0.33547839483E+03  0.40076690031E+03  0.00000000000E+00 0.  1.
<mgrwt>
<rscale>  0 0.59232675E+03</rscale>
<asrwt>0</asrwt>
<pdfrwt beam="1">  1        1 0.70113880E-01 0.59232675E+03</pdfrwt>
<pdfrwt beam="2">  1       -1 0.29609563E-01 0.59232675E+03</pdfrwt>
<totfact> 0.53083206E+02</totfact>
</mgrwt>
</event>
<event>
 6    1  0.1878398E-004  0.2050599E+04  0.7818608E-02  0.8583323E-01
         -2   -1    0    0    0  501 -0.00000000000E+00  0.00000000000E+00  0.20631705752E+04  0.20631705752E+04  0.00000000000E+00 0. -1.
          2   -1    0    0  501    0  0.00000000000E+00 -0.00000000000E+00 -0.50952600248E+03  0.50952600248E+03  0.00000000000E+00 0.  1.
         23    2    1    2    0    0  0.22253305106E+03 -0.11429839073E+03  0.20231863372E+04  0.20406678665E+04  0.91963608725E+02 0.  0.
         11    1    3    3    0    0  0.20859254928E+01 -0.25908177194E+02  0.31145518284E+03  0.31253786274E+03  0.00000000000E+00 0.  1.
        -11    1    3    3    0    0  0.22044712556E+03 -0.88390213531E+02  0.17117311544E+04  0.17281300038E+04  0.00000000000E+00 0. -1.
         22    1    1    2    0    0 -0.22253305106E+03  0.11429839073E+03 -0.46954176449E+03  0.53202871119E+03  0.00000000000E+00 0.  1.
<mgrwt>
<rscale>  0 0.20505990E+04</rscale>
<asrwt>0</asrwt>
<pdfrwt beam="1">  1        2 0.78388617E-01 0.20505990E+04</pdfrwt>
<pdfrwt beam="2">  1       -2 0.31741085E+00 0.20505990E+04</pdfrwt>
<totfact> 0.13864692E+00</totfact>
</mgrwt>
</event>
<event>
 6    1  0.1878398E-004  0.3773223E+04  0.7818608E-02  0.8051926E-01
          2   -1    0    0  501    0  0.00000000000E+00  0.00000000000E+00  0.26093205977E+04  0.26093205977E+04  0.00000000000E+00 0.  1.
         -2   -1    0    0    0  501 -0.00000000000E+00 -0.00000000000E+00 -0.13640726462E+04  0.13640726462E+04  0.00000000000E+00 0. -1.
         23    2    1    2    0    0  0.64324564090E+03  0.72431512126E+00  0.24894102461E+04  0.25727843427E+04  0.91051751521E+02 0.  0.
         13    1    3    3    0    0  0.47706640491E+03  0.36382742266E+02  0.19046643717E+04  0.19638386969E+04  0.00000000000E+00 0.  1.
        -13    1    3    3    0    0  0.16617923599E+03 -0.35658427145E+02  0.58474587441E+03  0.60894564580E+03  0.00000000000E+00 0. -1.
         22    1    1    2    0    0 -0.64324564090E+03 -0.72431512126E+00 -0.12441622946E+04  0.14006089013E+04  0.00000000000E+00 0. -1.
<mgrwt>
<rscale>  0 0.37732229E+04</rscale>
<asrwt>0</asrwt>
<pdfrwt beam="1">  1        2 0.40143394E+00 0.37732229E+04</pdfrwt>
<pdfrwt beam="2">  1       -2 0.20985733E+00 0.37732229E+04</pdfrwt>
<totfact> 0.27706625E-01</totfact>
</mgrwt>
</event>
<event>
 6    1  0.1878398E-004  0.2469150E+04  0.7818608E-02  0.8414059E-01
          2   -1    0    0  501    0  0.00000000000E+00  0.00000000000E+00  0.14336720139E+04  0.14336720139E+04  0.00000000000E+00 0.  1.
         -2   -1    0    0    0  501 -0.00000000000E+00 -0.00000000000E+00 -0.10631273410E+04  0.10631273410E+04  0.00000000000E+00 0. -1.
         23    2    1    2    0    0  0.53536906274E+03  0.14610821434E+03 -0.92766708149E+03  0.10849490078E+04  0.92630944150E+02 0.  0.
         11    1    3    3    0    0  0.30508593968E+03  0.46310260027E+02 -0.56733421482E+03  0.64582519468E+03  0.00000000000E+00 0. -1.
        -11    1    3    3    0    0  0.23028312305E+03  0.99797954313E+02 -0.36033286667E+03  0.43912381313E+03  0.00000000000E+00 0.  1.
         22    1    1    2    0    0 -0.53536906274E+03 -0.14610821434E+03  0.12982117544E+04  0.14118503472E+04  0.00000000000E+00 0.  1.
<mgrwt>
<rscale>  0 0.24691504E+04</rscale>
<asrwt>0</asrwt>
<pdfrwt beam="1">  1        2 0.22056493E+00 0.24691504E+04</pdfrwt>
<pdfrwt beam="2">  1       -2 0.16355805E+00 0.24691504E+04</pdfrwt>
<totfact> 0.29362047E+00</totfact>
</mgrwt>
</event>
<event>
 6    1  0.1878398E-004  0.9889478E+03  0.7818608E-02  0.9320750E-01
          2   -1    0    0  501    0  0.00000000000E+00  0.00000000000E+00  0.29513122886E+04  0.29513122886E+04  0.00000000000E+00 0.  1.
         -2   -1    0    0    0  501 -0.00000000000E+00 -0.00000000000E+00 -0.82846001368E+02  0.82846001368E+02  0.00000000000E+00 0. -1.
         23    2    1    2    0    0  0.26571308551E+02  0.48752679785E+03  0.13215186703E+04  0.14119883412E+04  0.94398446765E+02 0.  0.
         11    1    3    3    0    0 -0.49924308145E+01  0.14641355055E+03  0.52204304196E+03  0.54220917533E+03  0.00000000000E+00 0.  1.
        -11    1    3    3    0    0  0.31563739365E+02  0.34111324730E+03  0.79947562835E+03  0.86977916591E+03  0.00000000000E+00 0. -1.
         22    1    1    2    0    0 -0.26571308551E+02 -0.48752679785E+03  0.15469476169E+04  0.16221699487E+04  0.00000000000E+00 0.  1.
<mgrwt>
<rscale>  0 0.98894777E+03</rscale>
<asrwt>0</asrwt>
<pdfrwt beam="1">  1        2 0.45404796E+00 0.98894777E+03</pdfrwt>
<pdfrwt beam="2">  1       -2 0.12745541E-01 0.98894777E+03</pdfrwt>
<totfact> 0.88178160E+01</totfact>
</mgrwt>
</event>
<event>
 6    1  0.1878398E-004  0.1601509E+04  0.7818608E-02  0.8819622E-01
          2   -1    0    0  501    0  0.00000000000E+00  0.00000000000E+00  0.28376874640E+04  0.28376874640E+04  0.00000000000E+00 0.  1.
         -2   -1    0    0    0  501 -0.00000000000E+00 -0.00000000000E+00 -0.22596133532E+03  0.22596133532E+03  0.00000000000E+00 0. -1.
         23    2    1    2    0    0 -0.74812340052E+03  0.20388581910E+03  0.94868419478E+03  0.12287192302E+04  0.92147684048E+02 0.  0.
         11    1    3    3    0    0 -0.33426912466E+03  0.77275165793E+02  0.48909247143E+03  0.59742676920E+03  0.00000000000E+00 0. -1.
        -11    1    3    3    0    0 -0.41385427586E+03  0.12661065330E+03  0.45959172334E+03  0.63129246102E+03  0.00000000000E+00 0.  1.
         22    1    1    2    0    0  0.74812340052E+03 -0.20388581910E+03  0.16630419339E+04  0.18349295691E+04  0.00000000000E+00 0. -1.
<mgrwt>
<rscale>  0 0.16015088E+04</rscale>
<asrwt>0</asrwt>
<pdfrwt beam="1">  1        2 0.43656728E+00 0.16015088E+04</pdfrwt>
<pdfrwt beam="2">  1       -2 0.34763284E-01 0.16015088E+04</pdfrwt>
<totfact> 0.16397650E+01</totfact>
</mgrwt>
</event>
<event>
 6    1  0.1878398E-004  0.2440531E+04  0.7818608E-02  0.8424483E-01
          2   -1    0    0  501    0  0.00000000000E+00  0.00000000000E+00  0.20486182798E+04  0.20486182798E+04  0.00000000000E+00 0.  1.
         -2   -1    0    0    0  501 -0.00000000000E+00 -0.00000000000E+00 -0.72685490363E+03  0.72685490363E+03  0.00000000000E+00 0. -1.
         23    2    1    2    0    0  0.86621786189E+03 -0.65819572541E+03  0.37597832611E+02  0.10924294702E+04  0.91834379442E+02 0.  0.
         13    1    3    3    0    0  0.69956995964E+03 -0.48802698916E+03  0.14074843101E+02  0.85309235830E+03  0.00000000000E+00 0. -1.
        -13    1    3    3    0    0  0.16664790225E+03 -0.17016873625E+03  0.23522989509E+02  0.23933711195E+03  0.00000000000E+00 0.  1.
         22    1    1    2    0    0 -0.86621786189E+03  0.65819572541E+03  0.12841655435E+04  0.16830437132E+04  0.00000000000E+00 0.  1.
<mgrwt>
<rscale>  0 0.24405313E+04</rscale>
<asrwt>0</asrwt>
<pdfrwt beam="1">  1        2 0.31517204E+00 0.24405313E+04</pdfrwt>
<pdfrwt beam="2">  1       -2 0.11182383E+00 0.24405313E+04</pdfrwt>
<totfact> 0.35515253E+00</totfact>
</mgrwt>
</event>
<event>
 6    1  0.1878398E-004  0.1322798E+04  0.7818608E-02  0.9011679E-01
         -2   -1    0    0    0  501 -0.00000000000E+00  0.00000000000E+00  0.11493253799E+04  0.11493253799E+04  0.00000000000E+00 0. -1.
          2   -1    0    0  501    0  0.00000000000E+00 -0.00000000000E+00 -0.38061358010E+03  0.38061358010E+03  0.00000000000E+00 0.  1.
         23    2    1    2    0    0 -0.10121084790E+03 -0.43449436094E+03  0.94606901127E+03  0.10498508787E+04  0.90062799737E+02 0.  0.
         13    1    3    3    0    0 -0.76518557972E+02 -0.14044878530E+03  0.34341221728E+03  0.37883096756E+03  0.00000000000E+00 0.  1.
        -13    1    3    3    0    0 -0.24692289930E+02 -0.29404557565E+03  0.60265679399E+03  0.67101991109E+03  0.00000000000E+00 0. -1.
         22    1    1    2    0    0  0.10121084790E+03  0.43449436094E+03 -0.17735721144E+03  0.48008808137E+03  0.00000000000E+00 0.  1.
<mgrwt>
<rscale>  0 0.13227983E+04</rscale>
<asrwt>0</asrwt>
<pdfrwt beam="1">  1        2 0.58555936E-01 0.13227983E+04</pdfrwt>
<pdfrwt beam="2">  1       -2 0.17681929E+00 0.13227983E+04</pdfrwt>
<totfact> 0.15684683E+01</totfact>
</mgrwt>
</event>
<event>
 6    1  0.1878398E-004  0.1012166E+04  0.7818608E-02  0.9295301E-01
         -2   -1    0    0    0  501 -0.00000000000E+00  0.00000000000E+00  0.11883212778E+04  0.11883212778E+04  0.00000000000E+00 0. -1.
          2   -1    0    0  501    0  0.00000000000E+00 -0.00000000000E+00 -0.21553096836E+03  0.21553096836E+03  0.00000000000E+00 0.  1.
         23    2    1    2    0    0 -0.30416473178E+03 -0.11237933165E+03 -0.41441804430E+02  0.33904612342E+03  0.89941939089E+02 0.  0.
         11    1    3    3    0    0 -0.13811130647E+03 -0.10511376862E+02 -0.40222154224E+02  0.14423260280E+03  0.00000000000E+00 0.  1.
        -11    1    3    3    0    0 -0.16605342531E+03 -0.10186795479E+03 -0.12196502058E+01  0.19481352062E+03  0.00000000000E+00 0. -1.
         22    1    1    2    0    0  0.30416473178E+03  0.11237933165E+03  0.10142321139E+04  0.10648061228E+04  0.00000000000E+00 0. -1.
<mgrwt>
<rscale>  0 0.10121661E+04</rscale>
<asrwt>0</asrwt>
<pdfrwt beam="1">  1        2 0.33158611E-01 0.10121661E+04</pdfrwt>
<pdfrwt beam="2">  1       -2 0.18281865E+00 0.10121661E+04</pdfrwt>
<totfact> 0.27505254E+01</totfact>
</mgrwt>
</event>
<event>
 6    1  0.1878398E-004  0.9701445E+03  0.7818608E-02  0.9341910E-01
          2   -1    0    0  501    0  0.00000000000E+00  0.00000000000E+00  0.68802046006E+03  0.68802046006E+03  0.00000000000E+00 0.  1.
         -2   -1    0    0    0  501 -0.00000000000E+00 -0.00000000000E+00 -0.34198853151E+03  0.34198853151E+03  0.00000000000E+00 0. -1.
         23    2    1    2    0    0 -0.42434519446E+03 -0.11093813942E+03  0.38296397767E+03  0.58984982594E+03  0.94261838139E+02 0.  0.
         13    1    3    3    0    0 -0.34584292211E+03 -0.55606051254E+02  0.32398543911E+03  0.47714350511E+03  0.00000000000E+00 0.  1.
        -13    1    3    3    0    0 -0.78502272350E+02 -0.55332088170E+02  0.58978538560E+02  0.11270632083E+03  0.00000000000E+00 0. -1.
         22    1    1    2    0    0  0.42434519446E+03  0.11093813942E+03 -0.36932049125E+02  0.44015916563E+03  0.00000000000E+00 0. -1.
<mgrwt>
<rscale>  0 0.97014454E+03</rscale>
<asrwt>0</asrwt>
<pdfrwt beam="1">  1        2 0.10584930E+00 0.97014454E+03</pdfrwt>
<pdfrwt beam="2">  1       -2 0.52613620E-01 0.97014454E+03</pdfrwt>
<totfact> 0.14275610E+02</totfact>
</mgrwt>
</event>
<event>
 6    1  0.1878398E-004  0.1116853E+04  0.7818608E-02  0.9188920E-01
         -2   -1    0    0    0  501 -0.00000000000E+00  0.00000000000E+00  0.86764961978E+03  0.86764961978E+03  0.00000000000E+00 0. -1.
          2   -1    0    0  501    0  0.00000000000E+00 -0.00000000000E+00 -0.35940786127E+03  0.35940786127E+03  0.00000000000E+00 0.  1.
         23    2    1    2    0    0 -0.26771455371E+03 -0.24785952642E+03 -0.20312357371E+03  0.42759136983E+03  0.92031332977E+02 0.  0.
         13    1    3    3    0    0 -0.18688586390E+03 -0.13922502380E+03 -0.85509114667E+02  0.24823726970E+03  0.00000000000E+00 0. -1.
        -13    1    3    3    0    0 -0.80828689804E+02 -0.10863450262E+03 -0.11761445904E+03  0.17935410012E+03  0.00000000000E+00 0.  1.
         22    1    1    2    0    0  0.26771455371E+03  0.24785952642E+03  0.71136533222E+03  0.79946611122E+03  0.00000000000E+00 0. -1.
<mgrwt>
<rscale>  0 0.11168529E+04</rscale>
<asrwt>0</asrwt>
<pdfrwt beam="1">  1        2 0.55293517E-01 0.11168529E+04</pdfrwt>
<pdfrwt beam="2">  1       -2 0.13348456E+00 0.11168529E+04</pdfrwt>
<totfact> 0.36099013E+01</totfact>
</mgrwt>
</event>
<event>
 6    1  0.1878398E-004  0.7573606E+03  0.7818608E-02  0.9623873E-01
          1   -1    0    0  501    0  0.00000000000E+00  0.00000000000E+00  0.23858602483E+03  0.23858602483E+03  0.00000000000E+00 0.  1.
         -1   -1    0    0    0  501 -0.00000000000E+00 -0.00000000000E+00 -0.60103586850E+03  0.60103586850E+03  0.00000000000E+00 0. -1.
         23    2    1    2    0    0  0.28088651436E+03 -0.24585902782E+03 -0.19068902289E+03  0.42871353973E+03  0.89939425092E+02 0.  0.
         11    1    3    3    0    0  0.24378328042E+03 -0.16979414573E+03 -0.16710013521E+03  0.34085597387E+03  0.00000000000E+00 0. -1.
        -11    1    3    3    0    0  0.37103233941E+02 -0.76064882092E+02 -0.23588887677E+02  0.87857565857E+02  0.00000000000E+00 0.  1.
         22    1    1    2    0    0 -0.28088651436E+03  0.24585902782E+03 -0.17176082078E+03  0.41090835361E+03  0.00000000000E+00 0. -1.
<mgrwt>
<rscale>  0 0.75736057E+03</rscale>
<asrwt>0</asrwt>
<pdfrwt beam="1">  1        1 0.36705543E-01 0.75736057E+03</pdfrwt>
<pdfrwt beam="2">  1       -1 0.92467055E-01 0.75736057E+03</pdfrwt>
<totfact> 0.13633094E+02</totfact>
</mgrwt>
</event>
<event>
 6    1  0.1878398E-004  0.2624522E+04  0.7818608E-02  0.8359919E-01
         -2   -1    0    0    0  501 -0.00000000000E+00  0.00000000000E+00  0.49921209838E+03  0.49921209838E+03  0.00000000000E+00 0. -1.
          2   -1    0    0  501    0  0.00000000000E+00 -0.00000000000E+00 -0.34494942416E+04  0.34494942416E+04  0.00000000000E+00 0.  1.
         23    2    1    2    0    0  0.13347107539E+03  0.10824432406E+04 -0.25708126004E+04  0.27939357866E+04  0.86613255890E+02 0.  0.
         13    1    3    3    0    0  0.72006316244E+02  0.83199812004E+03 -0.20158515980E+04  0.21819861243E+04  0.00000000000E+00 0. -1.
        -13    1    3    3    0    0  0.61464759141E+02  0.25044512054E+03 -0.55496100246E+03  0.61194966237E+03  0.00000000000E+00 0.  1.
         22    1    1    2    0    0 -0.13347107539E+03 -0.10824432406E+04 -0.37946954278E+03  0.11547705534E+04  0.00000000000E+00 0. -1.
<mgrwt>
<rscale>  0 0.26245222E+04</rscale>
<asrwt>0</asrwt>
<pdfrwt beam="1">  1        2 0.53069141E+00 0.26245222E+04</pdfrwt>
<pdfrwt beam="2">  1       -2 0.76801863E-01 0.26245222E+04</pdfrwt>
<totfact> 0.11792476E+00</totfact>
</mgrwt>
</event>
<event>
 6    1  0.1878398E-004  0.2068838E+04  0.7818608E-02  0.8575096E-01
         -4   -1    0    0    0  501 -0.00000000000E+00  0.00000000000E+00  0.24147599527E+04  0.24147599527E+04  0.00000000000E+00 0. -1.
          4   -1    0    0  501    0  0.00000000000E+00 -0.00000000000E+00 -0.44311770225E+03  0.44311770225E+03  0.00000000000E+00 0.  1.
         23    2    1    2    0    0  0.60775659053E+03  0.16107990034E+03 -0.14341080555E+03  0.65135001240E+03  0.91517057881E+02 0.  0.
         11    1    3    3    0    0  0.39405743305E+03  0.59149446375E+02 -0.83573539580E+02  0.40714181075E+03  0.00000000000E+00 0. -1.
        -11    1    3    3    0    0  0.21369915748E+03  0.10193045396E+03 -0.59837265971E+02  0.24420820165E+03  0.00000000000E+00 0.  1.
         22    1    1    2    0    0 -0.60775659053E+03 -0.16107990034E+03  0.21150530560E+04  0.22065276426E+04  0.00000000000E+00 0. -1.
<mgrwt>
<rscale>  0 0.20688382E+04</rscale>
<asrwt>0</asrwt>
<pdfrwt beam="1">  1        4 0.68171956E-01 0.20688382E+04</pdfrwt>
<pdfrwt beam="2">  1       -4 0.37150152E+00 0.20688382E+04</pdfrwt>
<totfact> 0.39317076E-02</totfact>
</mgrwt>
</event>
<event>
 6    1  0.1878398E-004  0.3720337E+04  0.7818608E-02  0.8063470E-01
          1   -1    0    0  501    0  0.00000000000E+00  0.00000000000E+00  0.80692726173E+03  0.80692726173E+03  0.00000000000E+00 0.  1.
         -1   -1    0    0    0  501 -0.00000000000E+00 -0.00000000000E+00 -0.42881509997E+04  0.42881509997E+04  0.00000000000E+00 0. -1.
         23    2    1    2    0    0 -0.11263496709E+04 -0.14774714718E+04 -0.18352989475E+04  0.26130117943E+04  0.89010558619E+02 0.  0.
         13    1    3    3    0    0 -0.45105244286E+03 -0.54797846476E+03 -0.74916420154E+03  0.10319766010E+04  0.00000000000E+00 0.  1.
        -13    1    3    3    0    0 -0.67529722803E+03 -0.92949300705E+03 -0.10861347459E+04  0.15810351934E+04  0.00000000000E+00 0. -1.
         22    1    1    2    0    0  0.11263496709E+04  0.14774714718E+04 -0.16459247905E+04  0.24820664671E+04  0.00000000000E+00 0.  1.
<mgrwt>
<rscale>  0 0.37203365E+04</rscale>
<asrwt>0</asrwt>
<pdfrwt beam="1">  1        1 0.12414265E+00 0.37203365E+04</pdfrwt>
<pdfrwt beam="2">  1       -1 0.65971555E+00 0.37203365E+04</pdfrwt>
<totfact> 0.47385301E-03</totfact>
</mgrwt>
</event>
<event>
 6    1  0.1878398E-004  0.3689723E+04  0.7818608E-02  0.8070243E-01
         -1   -1    0    0    0  501 -0.00000000000E+00  0.00000000000E+00  0.15575602147E+04  0.15575602147E+04  0.00000000000E+00 0. -1.
          1   -1    0    0  501    0  0.00000000000E+00 -0.00000000000E+00 -0.21851570880E+04  0.21851570880E+04  0.00000000000E+00 0.  1.
         23    2    1    2    0    0  0.81947385316E+03 -0.77137752898E+03  0.11678182527E+04  0.16237373210E+04  0.78503045386E+02 0.  0.
         11    1    3    3    0    0  0.46797985921E+03 -0.43413795216E+03  0.60641146019E+03  0.88046338321E+03  0.00000000000E+00 0.  1.
        -11    1    3    3    0    0  0.35149399395E+03 -0.33723957682E+03  0.56140679254E+03  0.74327393784E+03  0.00000000000E+00 0. -1.
         22    1    1    2    0    0 -0.81947385316E+03  0.77137752898E+03 -0.17954151260E+04  0.21189799817E+04  0.00000000000E+00 0.  1.
<mgrwt>
<rscale>  0 0.36897229E+04</rscale>
<asrwt>0</asrwt>
<pdfrwt beam="1">  1        1 0.33617802E+00 0.36897229E+04</pdfrwt>
<pdfrwt beam="2">  1       -1 0.23962465E+00 0.36897229E+04</pdfrwt>
<totfact> 0.14601454E-01</totfact>
</mgrwt>
</event>
<event>
 6    1  0.1878398E-004  0.1834649E+04  0.7818608E-02  0.8688087E-01
          2   -1    0    0  501    0  0.00000000000E+00  0.00000000000E+00  0.99184469972E+03  0.99184469972E+03  0.00000000000E+00 0.  1.
         -2   -1    0    0    0  501 -0.00000000000E+00 -0.00000000000E+00 -0.84840367790E+03  0.84840367790E+03  0.00000000000E+00 0. -1.
         23    2    1    2    0    0 -0.33071591781E+03  0.74752953503E+03 -0.34082142650E+03  0.89015178101E+03  0.89652241650E+02 0.  0.
         11    1    3    3    0    0 -0.11315347181E+03  0.16138520746E+03 -0.82068619691E+02  0.21350445360E+03  0.00000000000E+00 0. -1.
        -11    1    3    3    0    0 -0.21756244600E+03  0.58614432757E+03 -0.25875280681E+03  0.67664732741E+03  0.00000000000E+00 0.  1.
         22    1    1    2    0    0  0.33071591781E+03 -0.74752953503E+03  0.48426244832E+03  0.95009659661E+03  0.00000000000E+00 0.  1.
<mgrwt>
<rscale>  0 0.18346495E+04</rscale>
<asrwt>0</asrwt>
<pdfrwt beam="1">  1        2 0.15259149E+00 0.18346495E+04</pdfrwt>
<pdfrwt beam="2">  1       -2 0.13052364E+00 0.18346495E+04</pdfrwt>
<totfact> 0.10318699E+01</totfact>
</mgrwt>
</event>
<event>
 6    1  0.1878398E-004  0.4152148E+04  0.7818608E-02  0.7974538E-01
          1   -1    0    0  501    0  0.00000000000E+00  0.00000000000E+00  0.23609502656E+04  0.23609502656E+04  0.00000000000E+00 0.  1.
         -1   -1    0    0    0  501 -0.00000000000E+00 -0.00000000000E+00 -0.18255713003E+04  0.18255713003E+04  0.00000000000E+00 0. -1.
         23    2    1    2    0    0 -0.12820058869E+03  0.11898439858E+04 -0.14414292881E+04  0.18756916344E+04  0.91305054510E+02 0.  0.
         13    1    3    3    0    0  0.10988012078E+02  0.17829727501E+03 -0.23422921179E+03  0.29457423231E+03  0.00000000000E+00 0. -1.
        -13    1    3    3    0    0 -0.13918860077E+03  0.10115467108E+04 -0.12072000763E+04  0.15811174021E+04  0.00000000000E+00 0.  1.
         22    1    1    2    0    0  0.12820058869E+03 -0.11898439858E+04  0.19768082535E+04  0.23108299315E+04  0.00000000000E+00 0.  1.
<mgrwt>
<rscale>  0 0.41521479E+04</rscale>
<asrwt>0</asrwt>
<pdfrwt beam="1">  1        1 0.36322312E+00 0.41521479E+04</pdfrwt>
<pdfrwt beam="2">  1       -1 0.28085712E+00 0.41521479E+04</pdfrwt>
<totfact> 0.57413330E-02</totfact>
</mgrwt>
</event>
<event>
 6    1  0.1878398E-004  0.1408112E+04  0.7818608E-02  0.8947968E-01
         -2   -1    0    0    0  501 -0.00000000000E+00  0.00000000000E+00  0.28605852309E+03  0.28605852309E+03  0.00000000000E+00 0. -1.
          2   -1    0    0  501    0  0.00000000000E+00 -0.00000000000E+00 -0.17328436847E+04  0.17328436847E+04  0.00000000000E+00 0.  1.
         23    2    1    2    0    0 -0.32711022409E+03 -0.61945656426E+03 -0.68978981243E+03  0.98751019096E+03  0.92945458229E+02 0.  0.
         13    1    3    3    0    0 -0.60923770633E+02 -0.60501786079E+02 -0.62826928185E+02  0.10639264473E+03  0.00000000000E+00 0. -1.
        -13    1    3    3    0    0 -0.26618645346E+03 -0.55895477818E+03 -0.62696288425E+03  0.88111754623E+03  0.00000000000E+00 0.  1.
         22    1    1    2    0    0  0.32711022409E+03  0.61945656426E+03 -0.75699534916E+03  0.10313920168E+04  0.00000000000E+00 0.  1.
<mgrwt>
<rscale>  0 0.14081118E+04</rscale>
<asrwt>0</asrwt>
<pdfrwt beam="1">  1        2 0.26659134E+00 0.14081118E+04</pdfrwt>
<pdfrwt beam="2">  1       -2 0.44009003E-01 0.14081118E+04</pdfrwt>
<totfact> 0.44780675E+01</totfact>
</mgrwt>
</event>
<event>
 6    1  0.1878398E-004  0.4182691E+04  0.7818608E-02  0.7968673E-01
          1   -1    0    0  501    0  0.00000000000E+00  0.00000000000E+00  0.20735607446E+04  0.20735607446E+04  0.00000000000E+00 0. -1.
         -1   -1    0    0    0  501 -0.00000000000E+00 -0.00000000000E+00 -0.21092826149E+04  0.21092826149E+04  0.00000000000E+00 0.  1.
         23    2    1    2    0    0 -0.76615836228E+03 -0.14242727890E+04  0.13065707427E+04  0.20811057277E+04  0.91226809734E+02 0.  0.
         11    1    3    3    0    0 -0.19248891652E+03 -0.44402644364E+03  0.37927232174E+03  0.61486499305E+03  0.00000000000E+00 0. -1.
        -11    1    3    3    0    0 -0.57366944577E+03 -0.98024634538E+03  0.92729842092E+03  0.14662407347E+04  0.00000000000E+00 0.  1.
         22    1    1    2    0    0  0.76615836228E+03  0.14242727890E+04 -0.13422926130E+04  0.21017376317E+04  0.00000000000E+00 0.  1.
<mgrwt>
<rscale>  0 0.41826908E+04</rscale>
<asrwt>0</asrwt>
<pdfrwt beam="1">  1        1 0.31900935E+00 0.41826908E+04</pdfrwt>
<pdfrwt beam="2">  1       -1 0.32450502E+00 0.41826908E+04</pdfrwt>
<totfact> 0.46836990E-02</totfact>
</mgrwt>
</event>
<event>
 6    1  0.1878398E-004  0.5065265E+04  0.7818608E-02  0.7818518E-01
          2   -1    0    0  501    0  0.00000000000E+00  0.00000000000E+00  0.23982254289E+04  0.23982254289E+04  0.00000000000E+00 0.  1.
         -2   -1    0    0    0  501 -0.00000000000E+00 -0.00000000000E+00 -0.26745725019E+04  0.26745725019E+04  0.00000000000E+00 0. -1.
         23    2    1    2    0    0  0.14317382333E+04  0.28223813612E+03  0.19338391267E+04  0.24243161446E+04  0.89678685745E+02 0.  0.
         13    1    3    3    0    0  0.80968890879E+03  0.19683814086E+03  0.10608202503E+04  0.13489555167E+04  0.00000000000E+00 0.  1.
        -13    1    3    3    0    0  0.62204932454E+03  0.85399995255E+02  0.87301887642E+03  0.10753606279E+04  0.00000000000E+00 0. -1.
         22    1    1    2    0    0 -0.14317382333E+04 -0.28223813612E+03 -0.22101861997E+04  0.26484817862E+04  0.00000000000E+00 0. -1.
<mgrwt>
<rscale>  0 0.50652652E+04</rscale>
<asrwt>0</asrwt>
<pdfrwt beam="1">  1        2 0.36895776E+00 0.50652652E+04</pdfrwt>
<pdfrwt beam="2">  1       -2 0.41147269E+00 0.50652652E+04</pdfrwt>
<totfact> 0.18031923E-02</totfact>
</mgrwt>
</event>
<event>
 6    1  0.1878398E-004  0.2714925E+04  0.7818608E-02  0.8330178E-01
         -2   -1    0    0    0  501 -0.00000000000E+00  0.00000000000E+00  0.11144861255E+04  0.11144861255E+04  0.00000000000E+00 0. -1.
          2   -1    0    0  501    0  0.00000000000E+00 -0.00000000000E+00 -0.16534121207E+04  0.16534121207E+04  0.00000000000E+00 0.  1.
         23    2    1    2    0    0  0.76659547102E+03 -0.33430604030E+03  0.81832326190E+03  0.11736728260E+04  0.91792138732E+02 0.  0.
         11    1    3    3    0    0  0.48791733821E+03 -0.25353365260E+03  0.50381301161E+03  0.74576818958E+03  0.00000000000E+00 0.  1.
        -11    1    3    3    0    0  0.27867813282E+03 -0.80772387698E+02  0.31451025029E+03  0.42790463641E+03  0.00000000000E+00 0. -1.
         22    1    1    2    0    0 -0.76659547102E+03  0.33430604030E+03 -0.13572492570E+04  0.15942254202E+04  0.00000000000E+00 0.  1.
<mgrwt>
<rscale>  0 0.27149253E+04</rscale>
<asrwt>0</asrwt>
<pdfrwt beam="1">  1        2 0.25437110E+00 0.27149253E+04</pdfrwt>
<pdfrwt beam="2">  1       -2 0.17145940E+00 0.27149253E+04</pdfrwt>
<totfact> 0.18987620E+00</totfact>
</mgrwt>
</event>
<event>
 6    1  0.1878398E-004  0.1394958E+04  0.7818608E-02  0.8957476E-01
          2   -1    0    0  501    0  0.00000000000E+00  0.00000000000E+00  0.89210969811E+03  0.89210969811E+03  0.00000000000E+00 0.  1.
         -2   -1    0    0    0  501 -0.00000000000E+00 -0.00000000000E+00 -0.54531089003E+03  0.54531089003E+03  0.00000000000E+00 0. -1.
         23    2    1    2    0    0 -0.67048891472E+03  0.93217441700E+02  0.14085966083E+02  0.68313767608E+03  0.90740254830E+02 0.  0.
         13    1    3    3    0    0 -0.41473233546E+03  0.26286761995E+02 -0.22892876406E+02  0.41619465124E+03  0.00000000000E+00 0.  1.
        -13    1    3    3    0    0 -0.25575657926E+03  0.66930679705E+02  0.36978842489E+02  0.26694302485E+03  0.00000000000E+00 0. -1.
         22    1    1    2    0    0  0.67048891472E+03 -0.93217441700E+02  0.33271284200E+03  0.75428291206E+03  0.00000000000E+00 0.  1.
<mgrwt>
<rscale>  0 0.13949583E+04</rscale>
<asrwt>0</asrwt>
<pdfrwt beam="1">  1        2 0.13724765E+00 0.13949583E+04</pdfrwt>
<pdfrwt beam="2">  1       -2 0.83893983E-01 0.13949583E+04</pdfrwt>
<totfact> 0.35891854E+01</totfact>
</mgrwt>
</event>
<event>
 6    1  0.2196968E-004  0.3376085E+04  0.7818608E-02  0.8143801E-01
         -1   -1    0    0    0  501 -0.00000000000E+00  0.00000000000E+00  0.13818439809E+04  0.13818439809E+04  0.00000000000E+00 0. -1.
          1   -1    0    0  501    0  0.00000000000E+00 -0.00000000000E+00 -0.20620910233E+04  0.20620910233E+04  0.00000000000E+00 0.  1.
         23    2    1    2    0    0 -0.15593588786E+03 -0.60053356916E+03  0.12597242420E+04  0.14071617834E+04  0.90788489999E+02 0.  0.
         11    1    3    3    0    0 -0.15406430501E+03 -0.44627249223E+03  0.92084569582E+03  0.10348196669E+04  0.00000000000E+00 0.  1.
        -11    1    3    3    0    0 -0.18715828471E+01 -0.15426107693E+03  0.33887854620E+03  0.37234211655E+03  0.00000000000E+00 0. -1.
         22    1    1    2    0    0  0.15593588786E+03  0.60053356916E+03 -0.19399712844E+04  0.20367732209E+04  0.00000000000E+00 0.  1.
<mgrwt>
<rscale>  0 0.33760853E+04</rscale>
<asrwt>0</asrwt>
<pdfrwt beam="1">  1        1 0.31724477E+00 0.33760853E+04</pdfrwt>
<pdfrwt beam="2">  1       -1 0.21259138E+00 0.33760853E+04</pdfrwt>
<totfact> 0.27523350E-01</totfact>
</mgrwt>
</event>
<event>
 6    1  0.1878398E-004  0.2429032E+04  0.7818608E-02  0.8428714E-01
         -1   -1    0    0    0  501 -0.00000000000E+00  0.00000000000E+00  0.13572138893E+04  0.13572138893E+04  0.00000000000E+00 0. -1.
          1   -1    0    0  501    0  0.00000000000E+00 -0.00000000000E+00 -0.10868217705E+04  0.10868217705E+04  0.00000000000E+00 0.  1.
         23    2    1    2    0    0 -0.33098994308E+03  0.97845986123E+03  0.77463739468E+03  0.12946004329E+04  0.94811103110E+02 0.  0.
         13    1    3    3    0    0 -0.32004488264E+03  0.95321472633E+03  0.73151542607E+03  0.12434475703E+04  0.00000000000E+00 0. -1.
        -13    1    3    3    0    0 -0.10945060445E+02  0.25245134906E+02  0.43121968611E+02  0.51152862690E+02  0.00000000000E+00 0.  1.
         22    1    1    2    0    0  0.33098994308E+03 -0.97845986123E+03 -0.50424527594E+03  0.11494352269E+04  0.00000000000E+00 0.  1.
<mgrwt>
<rscale>  0 0.24290324E+04</rscale>
<asrwt>0</asrwt>
<pdfrwt beam="1">  1        1 0.16720335E+00 0.24290324E+04</pdfrwt>
<pdfrwt beam="2">  1       -1 0.20880214E+00 0.24290324E+04</pdfrwt>
<totfact> 0.15189789E+00</totfact>
</mgrwt>
</event>
<event>
 6    1  0.1878398E-004  0.2756517E+04  0.7818608E-02  0.8316897E-01
         -1   -1    0    0    0  501 -0.00000000000E+00  0.00000000000E+00  0.64116572248E+03  0.64116572248E+03  0.00000000000E+00 0. -1.
          1   -1    0    0  501    0  0.00000000000E+00 -0.00000000000E+00 -0.29627232866E+04  0.29627232866E+04  0.00000000000E+00 0.  1.
         23    2    1    2    0    0 -0.88637904383E+03 -0.60980444131E+03 -0.38711846940E+02  0.10802183027E+04  0.88564712646E+02 0.  0.
         11    1    3    3    0    0 -0.35559980763E+03 -0.19612986909E+03  0.10240034000E+01  0.40610244683E+03  0.00000000000E+00 0.  1.
        -11    1    3    3    0    0 -0.53077923619E+03 -0.41367457223E+03 -0.39735850340E+02  0.67411585583E+03  0.00000000000E+00 0. -1.
         22    1    1    2    0    0  0.88637904383E+03  0.60980444131E+03 -0.22828457172E+04  0.25236707064E+04  0.00000000000E+00 0.  1.
<mgrwt>
<rscale>  0 0.27565171E+04</rscale>
<asrwt>0</asrwt>
<pdfrwt beam="1">  1        1 0.45580359E+00 0.27565171E+04</pdfrwt>
<pdfrwt beam="2">  1       -1 0.98640880E-01 0.27565171E+04</pdfrwt>
<totfact> 0.54344717E-01</totfact>
</mgrwt>
</event>
<event>
 6    1  0.1878398E-004  0.9968987E+03  0.7818608E-02  0.9311953E-01
          3   -1    0    0  501    0  0.00000000000E+00  0.00000000000E+00  0.41121493458E+03  0.41121493458E+03  0.00000000000E+00 0.  1.
         -3   -1    0    0    0  501 -0.00000000000E+00 -0.00000000000E+00 -0.60418952527E+03  0.60418952527E+03  0.00000000000E+00 0. -1.
         23    2    1    2    0    0  0.31527850061E+02  0.28406720728E+03 -0.50804722158E+03  0.59001176325E+03  0.91179591137E+02 0.  0.
         11    1    3    3    0    0  0.44696178508E+02  0.56624084900E+02 -0.11809103111E+03  0.13838181597E+03  0.00000000000E+00 0. -1.
        -11    1    3    3    0    0 -0.13168328447E+02  0.22744312238E+03 -0.38995619047E+03  0.45162994728E+03  0.00000000000E+00 0.  1.
         22    1    1    2    0    0 -0.31527850061E+02 -0.28406720728E+03  0.31507263089E+03  0.42539269659E+03  0.00000000000E+00 0.  1.
<mgrwt>
<rscale>  0 0.99689870E+03</rscale>
<asrwt>0</asrwt>
<pdfrwt beam="1">  1        3 0.63263836E-01 0.99689870E+03</pdfrwt>
<pdfrwt beam="2">  1       -3 0.92952234E-01 0.99689870E+03</pdfrwt>
<totfact> 0.65742207E+00</totfact>
</mgrwt>
</event>
<event>
 6    1  0.1878398E-004  0.2270886E+04  0.7818608E-02  0.8489490E-01
          1   -1    0    0  501    0  0.00000000000E+00  0.00000000000E+00  0.14084348795E+04  0.14084348795E+04  0.00000000000E+00 0. -1.
         -1   -1    0    0    0  501 -0.00000000000E+00 -0.00000000000E+00 -0.91536396431E+03  0.91536396431E+03  0.00000000000E+00 0.  1.
         23    2    1    2    0    0 -0.50492784271E+03 -0.35081352787E+03  0.12215765927E+04  0.13705188327E+04  0.89723136450E+02 0.  0.
         11    1    3    3    0    0 -0.18244543428E+03 -0.10807760372E+03  0.33636361258E+03  0.39762744471E+03  0.00000000000E+00 0. -1.
        -11    1    3    3    0    0 -0.32248240843E+03 -0.24273592414E+03  0.88521298009E+03  0.97289138795E+03  0.00000000000E+00 0.  1.
         22    1    1    2    0    0  0.50492784271E+03  0.35081352787E+03 -0.72850567744E+03  0.95328001119E+03  0.00000000000E+00 0.  1.
<mgrwt>
<rscale>  0 0.22708858E+04</rscale>
<asrwt>0</asrwt>
<pdfrwt beam="1">  1        1 0.21668229E+00 0.22708858E+04</pdfrwt>
<pdfrwt beam="2">  1       -1 0.14082522E+00 0.22708858E+04</pdfrwt>
<totfact> 0.28346922E+00</totfact>
</mgrwt>
</event>
<event>
 6    1  0.1878398E-004  0.2533035E+04  0.7818608E-02  0.8391310E-01
         -2   -1    0    0    0  501 -0.00000000000E+00  0.00000000000E+00  0.19953332237E+04  0.19953332237E+04  0.00000000000E+00 0.  1.
          2   -1    0    0  501    0  0.00000000000E+00 -0.00000000000E+00 -0.80390937355E+03  0.80390937355E+03  0.00000000000E+00 0. -1.
         23    2    1    2    0    0 -0.60279266634E+03 -0.82488990667E+03 -0.22811896230E+03  0.10502702838E+04  0.85012066407E+02 0.  0.
         11    1    3    3    0    0 -0.28375185904E+03 -0.39582464681E+03 -0.65515322287E+02  0.49141075079E+03  0.00000000000E+00 0. -1.
        -11    1    3    3    0    0 -0.31904080730E+03 -0.42906525986E+03 -0.16260364002E+03  0.55885953305E+03  0.00000000000E+00 0.  1.
         22    1    1    2    0    0  0.60279266634E+03  0.82488990667E+03  0.14195428125E+04  0.17489723134E+04  0.00000000000E+00 0.  1.
<mgrwt>
<rscale>  0 0.25330354E+04</rscale>
<asrwt>0</asrwt>
<pdfrwt beam="1">  1        2 0.12367837E+00 0.25330354E+04</pdfrwt>
<pdfrwt beam="2">  1       -2 0.30697434E+00 0.25330354E+04</pdfrwt>
<totfact> 0.87691007E-01</totfact>
</mgrwt>
</event>
<event>
 6    1  0.1878398E-004  0.3466132E+04  0.7818608E-02  0.8121863E-01
          2   -1    0    0  501    0  0.00000000000E+00  0.00000000000E+00  0.10455985964E+04  0.10455985964E+04  0.00000000000E+00 0.  1.
         -2   -1    0    0    0  501 -0.00000000000E+00 -0.00000000000E+00 -0.28725343592E+04  0.28725343592E+04  0.00000000000E+00 0. -1.
         23    2    1    2    0    0 -0.92630879219E+03  0.14089297479E+04 -0.13604155308E+04  0.21686266996E+04  0.95290778899E+02 0.  0.
         11    1    3    3    0    0 -0.42808650739E+03  0.57756179217E+03 -0.61054051204E+03  0.94318365042E+03  0.00000000000E+00 0. -1.
        -11    1    3    3    0    0 -0.49822228480E+03  0.83136795575E+03 -0.74987501879E+03  0.12254430492E+04  0.00000000000E+00 0.  1.
         22    1    1    2    0    0  0.92630879219E+03 -0.14089297479E+04 -0.46652023192E+03  0.17495062560E+04  0.00000000000E+00 0.  1.
<mgrwt>
<rscale>  0 0.34661321E+04</rscale>
<asrwt>0</asrwt>
<pdfrwt beam="1">  1        2 0.16086133E+00 0.34661321E+04</pdfrwt>
<pdfrwt beam="2">  1       -2 0.44192836E+00 0.34661321E+04</pdfrwt>
<totfact> 0.76108363E-02</totfact>
</mgrwt>
</event>
<event>
 6    1  0.1878398E-004  0.3564118E+04  0.7818608E-02  0.8098761E-01
         -2   -1    0    0    0  501 -0.00000000000E+00  0.00000000000E+00  0.14998767106E+04  0.14998767106E+04  0.00000000000E+00 0. -1.
          2   -1    0    0  501    0  0.00000000000E+00 -0.00000000000E+00 -0.21173304459E+04  0.21173304459E+04  0.00000000000E+00 0.  1.
         23    2    1    2    0    0 -0.13083420264E+04  0.32682211578E+03 -0.14894218975E+04  0.20113117585E+04  0.91792416135E+02 0.  0.
         11    1    3    3    0    0 -0.35407780484E+03  0.75852030176E+02 -0.34353540601E+03  0.49914045873E+03  0.00000000000E+00 0. -1.
        -11    1    3    3    0    0 -0.95426422158E+03  0.25097008561E+03 -0.11458864914E+04  0.15121712997E+04  0.00000000000E+00 0.  1.
         22    1    1    2    0    0  0.13083420264E+04 -0.32682211578E+03  0.87196816221E+03  0.16058953980E+04  0.00000000000E+00 0. -1.
<mgrwt>
<rscale>  0 0.35641182E+04</rscale>
<asrwt>0</asrwt>
<pdfrwt beam="1">  1        2 0.32574314E+00 0.35641182E+04</pdfrwt>
<pdfrwt beam="2">  1       -2 0.23075026E+00 0.35641182E+04</pdfrwt>
<totfact> 0.39729305E-01</totfact>
</mgrwt>
</event>
<event>
 6    1  0.1878398E-004  0.1273795E+04  0.7818608E-02  0.9050608E-01
          2   -1    0    0  501    0  0.00000000000E+00  0.00000000000E+00  0.12280435009E+04  0.12280435009E+04  0.00000000000E+00 0.  1.
         -2   -1    0    0    0  501 -0.00000000000E+00 -0.00000000000E+00 -0.33031263222E+03  0.33031263222E+03  0.00000000000E+00 0. -1.
         23    2    1    2    0    0 -0.15056307229E+03 -0.60219656811E+03  0.60721788823E+03  0.87300386077E+03  0.90067928519E+02 0.  0.
         13    1    3    3    0    0 -0.54548964325E+02 -0.25665198446E+03  0.19692142185E+03  0.32806078251E+03  0.00000000000E+00 0. -1.
        -13    1    3    3    0    0 -0.96014107969E+02 -0.34554458365E+03  0.41029646639E+03  0.54494307826E+03  0.00000000000E+00 0.  1.
         22    1    1    2    0    0  0.15056307229E+03  0.60219656811E+03  0.29051298041E+03  0.68535227232E+03  0.00000000000E+00 0.  1.
<mgrwt>
<rscale>  0 0.12737948E+04</rscale>
<asrwt>0</asrwt>
<pdfrwt beam="1">  1        2 0.18892977E+00 0.12737948E+04</pdfrwt>
<pdfrwt beam="2">  1       -2 0.50817329E-01 0.12737948E+04</pdfrwt>
<totfact> 0.65497046E+01</totfact>
</mgrwt>
</event>
<event>
 6    1  0.1878398E-004  0.6798130E+03  0.7818608E-02  0.9752391E-01
          1   -1    0    0  501    0  0.00000000000E+00  0.00000000000E+00  0.11988636387E+04  0.11988636387E+04  0.00000000000E+00 0.  1.
         -1   -1    0    0    0  501 -0.00000000000E+00 -0.00000000000E+00 -0.96371625792E+02  0.96371625792E+02  0.00000000000E+00 0. -1.
         23    2    1    2    0    0  0.65141196804E+02 -0.93453822336E+02  0.11591290123E+04  0.11680159966E+04  0.87774191605E+02 0.  0.
         13    1    3    3    0    0 -0.25104588438E+01 -0.42497800534E+02  0.68935135263E+03  0.69066464571E+03  0.00000000000E+00 0.  1.
        -13    1    3    3    0    0  0.67651655648E+02 -0.50956021802E+02  0.46977765964E+03  0.47735135086E+03  0.00000000000E+00 0. -1.
         22    1    1    2    0    0 -0.65141196804E+02  0.93453822336E+02 -0.56636999377E+02  0.12721926791E+03  0.00000000000E+00 0. -1.
<mgrwt>
<rscale>  0 0.67981303E+03</rscale>
<asrwt>0</asrwt>
<pdfrwt beam="1">  1        1 0.18444055E+00 0.67981303E+03</pdfrwt>
<pdfrwt beam="2">  1       -1 0.14826405E-01 0.67981303E+03</pdfrwt>
<totfact> 0.36477598E+02</totfact>
</mgrwt>
</event>
<event>
 6    1  0.1878398E-004  0.1888146E+04  0.7818608E-02  0.8660779E-01
         -2   -1    0    0    0  501 -0.00000000000E+00  0.00000000000E+00  0.11991971394E+04  0.11991971394E+04  0.00000000000E+00 0. -1.
          2   -1    0    0  501    0  0.00000000000E+00 -0.00000000000E+00 -0.74322554479E+03  0.74322554479E+03  0.00000000000E+00 0.  1.
         23    2    1    2    0    0 -0.78161549578E+03 -0.65453737714E+02 -0.30789626094E+03  0.84757060478E+03  0.91481405555E+02 0.  0.
         11    1    3    3    0    0 -0.19975917846E+03  0.23119801205E+02 -0.80778957840E+02  0.21671062414E+03  0.00000000000E+00 0. -1.
        -11    1    3    3    0    0 -0.58185631732E+03 -0.88573538920E+02 -0.22711730310E+03  0.63085998064E+03  0.00000000000E+00 0.  1.
         22    1    1    2    0    0  0.78161549578E+03  0.65453737714E+02  0.76386785556E+03  0.10948520794E+04  0.00000000000E+00 0.  1.
<mgrwt>
<rscale>  0 0.18881461E+04</rscale>
<asrwt>0</asrwt>
<pdfrwt beam="1">  1        2 0.11434239E+00 0.18881461E+04</pdfrwt>
<pdfrwt beam="2">  1       -2 0.18449187E+00 0.18881461E+04</pdfrwt>
<totfact> 0.60038738E+00</totfact>
</mgrwt>
</event>
<event>
 6    1  0.1878398E-004  0.6134848E+03  0.7818608E-02  0.9877818E-01
          2   -1    0    0  501    0  0.00000000000E+00  0.00000000000E+00  0.16472831711E+03  0.16472831711E+03  0.00000000000E+00 0.  1.
         -2   -1    0    0    0  501 -0.00000000000E+00 -0.00000000000E+00 -0.57118836665E+03  0.57118836665E+03  0.00000000000E+00 0. -1.
         23    2    1    2    0    0 -0.20412916366E+03 -0.26395250039E+02  0.53504388316E+02  0.23199932073E+03  0.92712138194E+02 0.  0.
         11    1    3    3    0    0  0.58245443018E+01 -0.12126309113E+02  0.10847965508E+02  0.17281523216E+02  0.00000000000E+00 0.  1.
        -11    1    3    3    0    0 -0.20995370796E+03 -0.14268940926E+02  0.42656422809E+02  0.21471779751E+03  0.00000000000E+00 0. -1.
         22    1    1    2    0    0  0.20412916366E+03  0.26395250039E+02 -0.45996443786E+03  0.50391736304E+03  0.00000000000E+00 0. -1.
<mgrwt>
<rscale>  0 0.61348479E+03</rscale>
<asrwt>0</asrwt>
<pdfrwt beam="1">  1        2 0.25342818E-01 0.61348479E+03</pdfrwt>
<pdfrwt beam="2">  1       -2 0.87875134E-01 0.61348479E+03</pdfrwt>
<totfact> 0.24363260E+02</totfact>
</mgrwt>
</event>
<event>
 6    1  0.1878398E-004  0.2428213E+04  0.7818608E-02  0.8429016E-01
         -2   -1    0    0    0  501 -0.00000000000E+00  0.00000000000E+00  0.76879121512E+03  0.76879121512E+03  0.00000000000E+00 0. -1.
          2   -1    0    0  501    0  0.00000000000E+00 -0.00000000000E+00 -0.19173667720E+04  0.19173667720E+04  0.00000000000E+00 0.  1.
         23    2    1    2    0    0 -0.10511865074E+04  0.60360358839E+03 -0.60105878448E+03  0.13560809287E+04  0.91397251121E+02 0.  0.
         11    1    3    3    0    0 -0.70900004235E+02  0.42434384319E+02 -0.68286466628E+02  0.10719388554E+03  0.00000000000E+00 0. -1.
        -11    1    3    3    0    0 -0.98028650319E+03  0.56116920407E+03 -0.53277231785E+03  0.12488870432E+04  0.00000000000E+00 0.  1.
         22    1    1    2    0    0  0.10511865074E+04 -0.60360358839E+03 -0.54751677243E+03  0.13300770584E+04  0.00000000000E+00 0. -1.
<mgrwt>
<rscale>  0 0.24282131E+04</rscale>
<asrwt>0</asrwt>
<pdfrwt beam="1">  1        2 0.29497950E+00 0.24282131E+04</pdfrwt>
<pdfrwt beam="2">  1       -2 0.11827557E+00 0.24282131E+04</pdfrwt>
<totfact> 0.36675567E+00</totfact>
</mgrwt>
</event>
<event>
 6    1  0.1878398E-004  0.3746683E+04  0.7818608E-02  0.8057694E-01
         -2   -1    0    0    0  501 -0.00000000000E+00  0.00000000000E+00  0.18501371649E+04  0.18501371649E+04  0.00000000000E+00 0. -1.
          2   -1    0    0  501    0  0.00000000000E+00 -0.00000000000E+00 -0.18968366432E+04  0.18968366432E+04  0.00000000000E+00 0.  1.
         23    2    1    2    0    0  0.84403164751E+02  0.18329055603E+04 -0.39447282137E+03  0.18794586179E+04  0.10044502287E+03 0.  0.
         11    1    3    3    0    0  0.18337431661E+02  0.75910128487E+03 -0.11564405110E+03  0.76807849120E+03  0.00000000000E+00 0.  1.
        -11    1    3    3    0    0  0.66065733090E+02  0.10738042754E+04 -0.27882877027E+03  0.11113801267E+04  0.00000000000E+00 0. -1.
         22    1    1    2    0    0 -0.84403164751E+02 -0.18329055603E+04  0.34777334311E+03  0.18675151901E+04  0.00000000000E+00 0. -1.
<mgrwt>
<rscale>  0 0.37466828E+04</rscale>
<asrwt>0</asrwt>
<pdfrwt beam="1">  1        2 0.29182102E+00 0.37466828E+04</pdfrwt>
<pdfrwt beam="2">  1       -2 0.28463649E+00 0.37466828E+04</pdfrwt>
<totfact> 0.24226837E-01</totfact>
</mgrwt>
</event>
<event>
 6    1  0.1878398E-004  0.3844459E+04  0.7818608E-02  0.8036681E-01
          2   -1    0    0  501    0  0.00000000000E+00  0.00000000000E+00  0.36396644045E+04  0.36396644045E+04  0.00000000000E+00 0.  1.
         -2   -1    0    0    0  501 -0.00000000000E+00 -0.00000000000E+00 -0.10151941924E+04  0.10151941924E+04  0.00000000000E+00 0. -1.
         23    2    1    2    0    0  0.83647692891E+03  0.16049850455E+04  0.53282847308E+03  0.18888803227E+04  0.91060655153E+02 0.  0.
         13    1    3    3    0    0  0.85436491195E+02  0.11748134040E+03  0.30146247625E+02  0.14835786334E+03  0.00000000000E+00 0. -1.
        -13    1    3    3    0    0  0.75104043771E+03  0.14875037051E+04  0.50268222546E+03  0.17405224594E+04  0.00000000000E+00 0.  1.
         22    1    1    2    0    0 -0.83647692891E+03 -0.16049850455E+04  0.20916417390E+04  0.27659782741E+04  0.00000000000E+00 0.  1.
<mgrwt>
<rscale>  0 0.38444590E+04</rscale>
<asrwt>0</asrwt>
<pdfrwt beam="1">  1        2 0.55994837E+00 0.38444590E+04</pdfrwt>
<pdfrwt beam="2">  1       -2 0.15618372E+00 0.38444590E+04</pdfrwt>
<totfact> 0.13855595E-01</totfact>
</mgrwt>
</event>
<event>
 6    1  0.1878398E-004  0.3239934E+04  0.7818608E-02  0.8178350E-01
          2   -1    0    0  501    0  0.00000000000E+00  0.00000000000E+00  0.25350454978E+04  0.25350454978E+04  0.00000000000E+00 0.  1.
         -2   -1    0    0    0  501 -0.00000000000E+00 -0.00000000000E+00 -0.10352056475E+04  0.10352056475E+04  0.00000000000E+00 0. -1.
         23    2    1    2    0    0  0.15093303893E+04  0.28347351690E+03  0.13154538709E+04  0.20235017642E+04  0.75531745306E+02 0.  0.
         11    1    3    3    0    0  0.70546358270E+03  0.94918010207E+02  0.59931245927E+03  0.93051798425E+03  0.00000000000E+00 0. -1.
        -11    1    3    3    0    0  0.80386680655E+03  0.18855550669E+03  0.71614141160E+03  0.10929837799E+04  0.00000000000E+00 0.  1.
         22    1    1    2    0    0 -0.15093303893E+04 -0.28347351690E+03  0.18438597944E+03  0.15467493812E+04  0.00000000000E+00 0. -1.
<mgrwt>
<rscale>  0 0.32399342E+04</rscale>
<asrwt>0</asrwt>
<pdfrwt beam="1">  1        2 0.39000700E+00 0.32399342E+04</pdfrwt>
<pdfrwt beam="2">  1       -2 0.15926241E+00 0.32399342E+04</pdfrwt>
<totfact> 0.71096080E-01</totfact>
</mgrwt>
</event>
<event>
 6    1  0.1878398E-004  0.1571395E+04  0.7818608E-02  0.8838316E-01
         -2   -1    0    0    0  501 -0.00000000000E+00  0.00000000000E+00  0.27175070115E+03  0.27175070115E+03  0.00000000000E+00 0. -1.
          2   -1    0    0  501    0  0.00000000000E+00 -0.00000000000E+00 -0.22716438930E+04  0.22716438930E+04  0.00000000000E+00 0.  1.
         23    2    1    2    0    0  0.77544896109E+03 -0.91623896261E+02 -0.89925568998E+03  0.11939061947E+04  0.83875957558E+02 0.  0.
         13    1    3    3    0    0  0.10809471036E+03 -0.40950210001E+02 -0.11819910165E+03  0.16532517575E+03  0.00000000000E+00 0.  1.
        -13    1    3    3    0    0  0.66735425073E+03 -0.50673686260E+02 -0.78105658834E+03  0.10285810190E+04  0.00000000000E+00 0. -1.
         22    1    1    2    0    0 -0.77544896109E+03  0.91623896261E+02 -0.11006375019E+04  0.13494883994E+04  0.00000000000E+00 0.  1.
<mgrwt>
<rscale>  0 0.15713953E+04</rscale>
<asrwt>0</asrwt>
<pdfrwt beam="1">  1        2 0.34948368E+00 0.15713953E+04</pdfrwt>
<pdfrwt beam="2">  1       -2 0.41807800E-01 0.15713953E+04</pdfrwt>
<totfact> 0.24539262E+01</totfact>
</mgrwt>
</event>
<event>
 6    1  0.1878398E-004  0.1218653E+04  0.7818608E-02  0.9096684E-01
          2   -1    0    0  501    0  0.00000000000E+00  0.00000000000E+00  0.24046640065E+04  0.24046640065E+04  0.00000000000E+00 0.  1.
         -2   -1    0    0    0  501 -0.00000000000E+00 -0.00000000000E+00 -0.15439944417E+03  0.15439944417E+03  0.00000000000E+00 0. -1.
         23    2    1    2    0    0 -0.30139914924E+03 -0.35661744569E+03  0.31994169540E+03  0.57307155231E+03  0.89615098481E+02 0.  0.
         11    1    3    3    0    0 -0.54254957200E+02 -0.11633058067E+03  0.62020125061E+02  0.14255841011E+03  0.00000000000E+00 0. -1.
        -11    1    3    3    0    0 -0.24714419204E+03 -0.24028686502E+03  0.25792157034E+03  0.43051314220E+03  0.00000000000E+00 0.  1.
         22    1    1    2    0    0  0.30139914924E+03  0.35661744569E+03  0.19303228669E+04  0.19859918983E+04  0.00000000000E+00 0.  1.
<mgrwt>
<rscale>  0 0.12186530E+04</rscale>
<asrwt>0</asrwt>
<pdfrwt beam="1">  1        2 0.36994828E+00 0.12186530E+04</pdfrwt>
<pdfrwt beam="2">  1       -2 0.23753762E-01 0.12186530E+04</pdfrwt>
<totfact> 0.61578026E+01</totfact>
</mgrwt>
</event>
<event>
 6    1  0.1878398E-004  0.6195946E+04  0.7818608E-02  0.7666571E-01
         -2   -1    0    0    0  501 -0.00000000000E+00  0.00000000000E+00  0.34338232326E+04  0.34338232326E+04  0.00000000000E+00 0. -1.
          2   -1    0    0  501    0  0.00000000000E+00 -0.00000000000E+00 -0.27949710173E+04  0.27949710173E+04  0.00000000000E+00 0.  1.
         23    2    1    2    0    0  0.52869571998E+03  0.21615351227E+04  0.24853108698E+04  0.33372267140E+04  0.92513620857E+02 0.  0.
         11    1    3    3    0    0  0.35650417546E+03  0.13288552602E+04  0.14863783559E+04  0.20254066621E+04  0.00000000000E+00 0.  1.
        -11    1    3    3    0    0  0.17219154452E+03  0.83267986250E+03  0.99893251393E+03  0.13118200520E+04  0.00000000000E+00 0. -1.
         22    1    1    2    0    0 -0.52869571998E+03 -0.21615351227E+04 -0.18464586546E+04  0.28915675359E+04  0.00000000000E+00 0.  1.
<mgrwt>
<rscale>  0 0.61959459E+04</rscale>
<asrwt>0</asrwt>
<pdfrwt beam="1">  1        2 0.42999554E+00 0.61959459E+04</pdfrwt>
<pdfrwt beam="2">  1       -2 0.52828050E+00 0.61959459E+04</pdfrwt>
<totfact> 0.17569211E-03</totfact>
</mgrwt>
</event>
<event>
 6    1  0.1878398E-004  0.2829255E+04  0.7818608E-02  0.8294243E-01
          2   -1    0    0  501    0  0.00000000000E+00  0.00000000000E+00  0.10597620701E+04  0.10597620701E+04  0.00000000000E+00 0.  1.
         -2   -1    0    0    0  501 -0.00000000000E+00 -0.00000000000E+00 -0.18883215982E+04  0.18883215982E+04  0.00000000000E+00 0. -1.
         23    2    1    2    0    0 -0.86427452436E+03  0.10853825986E+04 -0.69457829368E+03  0.15541766377E+04  0.89443704695E+02 0.  0.
         13    1    3    3    0    0 -0.26770907340E+03  0.39335097456E+03 -0.21216132162E+03  0.52096599079E+03  0.00000000000E+00 0. -1.
        -13    1    3    3    0    0 -0.59656545096E+03  0.69203162403E+03 -0.48241697206E+03  0.10332106469E+04  0.00000000000E+00 0.  1.
         22    1    1    2    0    0  0.86427452436E+03 -0.10853825986E+04 -0.13398123437E+03  0.13939070306E+04  0.00000000000E+00 0.  1.
<mgrwt>
<rscale>  0 0.28292555E+04</rscale>
<asrwt>0</asrwt>
<pdfrwt beam="1">  1        2 0.16304032E+00 0.28292555E+04</pdfrwt>
<pdfrwt beam="2">  1       -2 0.29051101E+00 0.28292555E+04</pdfrwt>
<totfact> 0.72780989E-01</totfact>
</mgrwt>
</event>
<event>
 6    1  0.1878398E-004  0.1487806E+04  0.7818608E-02  0.8892603E-01
          2   -1    0    0  501    0  0.00000000000E+00  0.00000000000E+00  0.78031687734E+03  0.78031687734E+03  0.00000000000E+00 0.  1.
         -2   -1    0    0    0  501 -0.00000000000E+00 -0.00000000000E+00 -0.70918834685E+03  0.70918834685E+03  0.00000000000E+00 0. -1.
         23    2    1    2    0    0  0.53359375994E+03 -0.23051689286E+03 -0.42504117971E+03  0.72527703846E+03  0.86639711029E+02 0.  0.
         13    1    3    3    0    0  0.22738269093E+03 -0.88892804247E+02 -0.23087163129E+03  0.33601566767E+03  0.00000000000E+00 0. -1.
        -13    1    3    3    0    0  0.30621106901E+03 -0.14162408861E+03 -0.19416954842E+03  0.38926137080E+03  0.00000000000E+00 0.  1.
         22    1    1    2    0    0 -0.53359375994E+03  0.23051689286E+03  0.49616971020E+03  0.76422818573E+03  0.00000000000E+00 0.  1.
<mgrwt>
<rscale>  0 0.14878060E+04</rscale>
<asrwt>0</asrwt>
<pdfrwt beam="1">  1        2 0.12004875E+00 0.14878060E+04</pdfrwt>
<pdfrwt beam="2">  1       -2 0.10910590E+00 0.14878060E+04</pdfrwt>
<totfact> 0.23075837E+01</totfact>
</mgrwt>
</event>
<event>
 6    1  0.1878398E-004  0.1682327E+04  0.7818608E-02  0.8771509E-01
          2   -1    0    0  501    0  0.00000000000E+00  0.00000000000E+00  0.82104082335E+03  0.82104082335E+03  0.00000000000E+00 0.  1.
         -2   -1    0    0    0  501 -0.00000000000E+00 -0.00000000000E+00 -0.86177915913E+03  0.86177915913E+03  0.00000000000E+00 0. -1.
         23    2    1    2    0    0 -0.23855439612E+03 -0.73874954799E+03  0.29770907290E+03  0.83593997740E+03  0.86636361704E+02 0.  0.
         11    1    3    3    0    0 -0.14699657296E+03 -0.55150510836E+03  0.19164236318E+03  0.60207364365E+03  0.00000000000E+00 0. -1.
        -11    1    3    3    0    0 -0.91557823154E+02 -0.18724443963E+03  0.10606670972E+03  0.23386633376E+03  0.00000000000E+00 0.  1.
         22    1    1    2    0    0  0.23855439612E+03  0.73874954799E+03 -0.33844740868E+03  0.84688000508E+03  0.00000000000E+00 0. -1.
<mgrwt>
<rscale>  0 0.16823268E+04</rscale>
<asrwt>0</asrwt>
<pdfrwt beam="1">  1        2 0.12631397E+00 0.16823268E+04</pdfrwt>
<pdfrwt beam="2">  1       -2 0.13258141E+00 0.16823268E+04</pdfrwt>
<totfact> 0.13093990E+01</totfact>
</mgrwt>
</event>
<event>
 6    1  0.1878398E-004  0.2675977E+04  0.7818608E-02  0.8342842E-01
         -2   -1    0    0    0  501 -0.00000000000E+00  0.00000000000E+00  0.16556397013E+04  0.16556397013E+04  0.00000000000E+00 0. -1.
          2   -1    0    0  501    0  0.00000000000E+00 -0.00000000000E+00 -0.10812819762E+04  0.10812819762E+04  0.00000000000E+00 0.  1.
         23    2    1    2    0    0 -0.61658239844E+03 -0.40971595139E+03 -0.85049912690E+03  0.11312261697E+04  0.91010258896E+02 0.  0.
         11    1    3    3    0    0 -0.38760282272E+03 -0.21708066345E+03 -0.46331678500E+03  0.64188971473E+03  0.00000000000E+00 0. -1.
        -11    1    3    3    0    0 -0.22897957572E+03 -0.19263528794E+03 -0.38718234190E+03  0.48933645494E+03  0.00000000000E+00 0.  1.
         22    1    1    2    0    0  0.61658239844E+03  0.40971595139E+03  0.14248568520E+04  0.16056955078E+04  0.00000000000E+00 0. -1.
<mgrwt>
<rscale>  0 0.26759771E+04</rscale>
<asrwt>0</asrwt>
<pdfrwt beam="1">  1        2 0.16635107E+00 0.26759771E+04</pdfrwt>
<pdfrwt beam="2">  1       -2 0.25471380E+00 0.26759771E+04</pdfrwt>
<totfact> 0.11823425E+00</totfact>
</mgrwt>
</event>
<event>
 6    1  0.1878398E-004  0.3724667E+04  0.7818608E-02  0.8062517E-01
         -2   -1    0    0    0  501 -0.00000000000E+00  0.00000000000E+00  0.99640156366E+03  0.99640156366E+03  0.00000000000E+00 0. -1.
          2   -1    0    0  501    0  0.00000000000E+00 -0.00000000000E+00 -0.34808116128E+04  0.34808116128E+04  0.00000000000E+00 0.  1.
         23    2    1    2    0    0 -0.79532719745E+03 -0.48892226207E+02 -0.32647785728E+04  0.33619056703E+04  0.93245942578E+02 0.  0.
         13    1    3    3    0    0 -0.51868150290E+03 -0.28715849000E+02 -0.19358715203E+04  0.20043586617E+04  0.00000000000E+00 0. -1.
        -13    1    3    3    0    0 -0.27664569455E+03 -0.20176377207E+02 -0.13289070524E+04  0.13575470086E+04  0.00000000000E+00 0.  1.
         22    1    1    2    0    0  0.79532719745E+03  0.48892226207E+02  0.78036852360E+03  0.11153075062E+04  0.00000000000E+00 0. -1.
<mgrwt>
<rscale>  0 0.37246670E+04</rscale>
<asrwt>0</asrwt>
<pdfrwt beam="1">  1        2 0.53550947E+00 0.37246670E+04</pdfrwt>
<pdfrwt beam="2">  1       -2 0.15329255E+00 0.37246670E+04</pdfrwt>
<totfact> 0.19096912E-01</totfact>
</mgrwt>
</event>
<event>
 6    1  0.1878398E-004  0.9739477E+03  0.7818608E-02  0.9337589E-01
         -1   -1    0    0    0  501 -0.00000000000E+00  0.00000000000E+00  0.21230568245E+03  0.21230568245E+03  0.00000000000E+00 0. -1.
          1   -1    0    0  501    0  0.00000000000E+00 -0.00000000000E+00 -0.11169910801E+04  0.11169910801E+04  0.00000000000E+00 0.  1.
         23    2    1    2    0    0  0.33472086550E+03  0.29119591609E+03 -0.71558233669E+03  0.84701770740E+03  0.92454295298E+02 0.  0.
         11    1    3    3    0    0  0.11551665108E+03  0.15749440411E+03 -0.33876726302E+03  0.39103943854E+03  0.00000000000E+00 0.  1.
        -11    1    3    3    0    0  0.21920421442E+03  0.13370151198E+03 -0.37681507367E+03  0.45597826886E+03  0.00000000000E+00 0. -1.
         22    1    1    2    0    0 -0.33472086550E+03 -0.29119591609E+03 -0.18910306093E+03  0.48227905512E+03  0.00000000000E+00 0. -1.
<mgrwt>
<rscale>  0 0.97394775E+03</rscale>
<asrwt>0</asrwt>
<pdfrwt beam="1">  1        1 0.17184478E+00 0.97394775E+03</pdfrwt>
<pdfrwt beam="2">  1       -1 0.32662413E-01 0.97394775E+03</pdfrwt>
<totfact> 0.10839597E+02</totfact>
</mgrwt>
</event>
<event>
 6    1  0.1878398E-004  0.2629907E+04  0.7818608E-02  0.8358113E-01
          2   -1    0    0  501    0  0.00000000000E+00  0.00000000000E+00  0.36401184922E+04  0.36401184922E+04  0.00000000000E+00 0.  1.
         -2   -1    0    0    0  501 -0.00000000000E+00 -0.00000000000E+00 -0.47501278415E+03  0.47501278415E+03  0.00000000000E+00 0. -1.
         23    2    1    2    0    0 -0.70182181976E+03 -0.18803266614E+03 -0.12741696347E+03  0.74339349107E+03  0.92133868680E+02 0.  0.
         11    1    3    3    0    0 -0.26832663491E+03 -0.40436312835E+02 -0.80599141140E+02  0.28307331197E+03  0.00000000000E+00 0.  1.
        -11    1    3    3    0    0 -0.43349518485E+03 -0.14759635331E+03 -0.46817822327E+02  0.46032017910E+03  0.00000000000E+00 0. -1.
         22    1    1    2    0    0  0.70182181976E+03  0.18803266614E+03  0.32925226716E+04  0.33717377853E+04  0.00000000000E+00 0.  1.
<mgrwt>
<rscale>  0 0.26299071E+04</rscale>
<asrwt>0</asrwt>
<pdfrwt beam="1">  1        2 0.56001821E+00 0.26299071E+04</pdfrwt>
<pdfrwt beam="2">  1       -2 0.73078892E-01 0.26299071E+04</pdfrwt>
<totfact> 0.96455918E-01</totfact>
</mgrwt>
</event>
<event>
 6    1  0.1878398E-004  0.3776640E+04  0.7818608E-02  0.8051186E-01
          2   -1    0    0  501    0  0.00000000000E+00  0.00000000000E+00  0.21106838994E+04  0.21106838994E+04  0.00000000000E+00 0.  1.
         -2   -1    0    0    0  501 -0.00000000000E+00 -0.00000000000E+00 -0.16893826289E+04  0.16893826289E+04  0.00000000000E+00 0. -1.
         23    2    1    2    0    0  0.12192058748E+04  0.13038615821E+04 -0.40608409504E+03  0.18325593405E+04  0.82773509856E+02 0.  0.
         13    1    3    3    0    0  0.11136634168E+04  0.11944159651E+04 -0.34751053086E+03  0.16696224940E+04  0.00000000000E+00 0.  1.
        -13    1    3    3    0    0  0.10554245803E+03  0.10944561701E+03 -0.58573564182E+02  0.16293684651E+03  0.00000000000E+00 0. -1.
         22    1    1    2    0    0 -0.12192058748E+04 -0.13038615821E+04  0.82738536554E+03  0.19675071877E+04  0.00000000000E+00 0.  1.
<mgrwt>
<rscale>  0 0.37766402E+04</rscale>
<asrwt>0</asrwt>
<pdfrwt beam="1">  1        2 0.32472060E+00 0.37766402E+04</pdfrwt>
<pdfrwt beam="2">  1       -2 0.25990502E+00 0.37766402E+04</pdfrwt>
<totfact> 0.26012975E-01</totfact>
</mgrwt>
</event>
<event>
 6    1  0.1878398E-004  0.4607015E+04  0.7818608E-02  0.7892165E-01
         -1   -1    0    0    0  501 -0.00000000000E+00  0.00000000000E+00  0.29576537747E+04  0.29576537747E+04  0.00000000000E+00 0.  1.
          1   -1    0    0  501    0  0.00000000000E+00 -0.00000000000E+00 -0.17940395151E+04  0.17940395151E+04  0.00000000000E+00 0. -1.
         23    2    1    2    0    0  0.15759558606E+04  0.87197827238E+03  0.20616117009E+04  0.27391371075E+04  0.92985518977E+02 0.  0.
         11    1    3    3    0    0  0.11758367048E+04  0.69447960278E+03  0.15449295624E+04  0.20619653799E+04  0.00000000000E+00 0.  1.
        -11    1    3    3    0    0  0.40011915583E+03  0.17749866960E+03  0.51668213846E+03  0.67717172768E+03  0.00000000000E+00 0. -1.
         22    1    1    2    0    0 -0.15759558606E+04 -0.87197827238E+03 -0.89799744127E+03  0.20125561822E+04  0.00000000000E+00 0. -1.
<mgrwt>
<rscale>  0 0.46070154E+04</rscale>
<asrwt>0</asrwt>
<pdfrwt beam="1">  1        1 0.27600608E+00 0.46070154E+04</pdfrwt>
<pdfrwt beam="2">  1       -1 0.45502366E+00 0.46070154E+04</pdfrwt>
<totfact> 0.91665540E-03</totfact>
</mgrwt>
</event>
<event>
 6    1  0.1878398E-004  0.8747511E+03  0.7818608E-02  0.9457706E-01
          1   -1    0    0  501    0  0.00000000000E+00  0.00000000000E+00  0.11287101770E+04  0.11287101770E+04  0.00000000000E+00 0.  1.
         -1   -1    0    0    0  501 -0.00000000000E+00 -0.00000000000E+00 -0.16948317340E+03  0.16948317340E+03  0.00000000000E+00 0. -1.
         23    2    1    2    0    0 -0.40043447811E+03 -0.79311982531E+02  0.27305234777E+03  0.49977377389E+03  0.92617917375E+02 0.  0.
         11    1    3    3    0    0 -0.18359538393E+03  0.10295410581E+02  0.12482969837E+03  0.22225146585E+03  0.00000000000E+00 0. -1.
        -11    1    3    3    0    0 -0.21683909418E+03 -0.89607393112E+02  0.14822264939E+03  0.27752230804E+03  0.00000000000E+00 0.  1.
         22    1    1    2    0    0  0.40043447811E+03  0.79311982531E+02  0.68617465583E+03  0.79841957650E+03  0.00000000000E+00 0.  1.
<mgrwt>
<rscale>  0 0.87475112E+03</rscale>
<asrwt>0</asrwt>
<pdfrwt beam="1">  1        1 0.17364772E+00 0.87475112E+03</pdfrwt>
<pdfrwt beam="2">  1       -1 0.26074335E-01 0.87475112E+03</pdfrwt>
<totfact> 0.15835658E+02</totfact>
</mgrwt>
</event>
<event>
 6    1  0.1878398E-004  0.8927721E+03  0.7818608E-02  0.9434662E-01
         -2   -1    0    0    0  501 -0.00000000000E+00  0.00000000000E+00  0.27077998392E+03  0.27077998392E+03  0.00000000000E+00 0. -1.
          2   -1    0    0  501    0  0.00000000000E+00 -0.00000000000E+00 -0.73587605746E+03  0.73587605746E+03  0.00000000000E+00 0.  1.
         23    2    1    2    0    0 -0.41259668950E+03  0.15242092001E+03 -0.18956140397E+03  0.48763049367E+03  0.91552211518E+02 0.  0.
         11    1    3    3    0    0 -0.81148928817E+02  0.53885069302E+02 -0.76410504657E+02  0.12380353211E+03  0.00000000000E+00 0.  1.
        -11    1    3    3    0    0 -0.33144776068E+03  0.98535850711E+02 -0.11315089931E+03  0.36382696155E+03  0.00000000000E+00 0. -1.
         22    1    1    2    0    0  0.41259668950E+03 -0.15242092001E+03 -0.27553466957E+03  0.51902554771E+03  0.00000000000E+00 0.  1.
<mgrwt>
<rscale>  0 0.89277210E+03</rscale>
<asrwt>0</asrwt>
<pdfrwt beam="1">  1        2 0.11321170E+00 0.89277210E+03</pdfrwt>
<pdfrwt beam="2">  1       -2 0.41658459E-01 0.89277210E+03</pdfrwt>
<totfact> 0.21043423E+02</totfact>
</mgrwt>
</event>
<event>
 6    1  0.1878398E-004  0.4912948E+04  0.7818608E-02  0.7842078E-01
         -2   -1    0    0    0  501 -0.00000000000E+00  0.00000000000E+00  0.28694513746E+04  0.28694513746E+04  0.00000000000E+00 0. -1.
          2   -1    0    0  501    0  0.00000000000E+00 -0.00000000000E+00 -0.21029330561E+04  0.21029330561E+04  0.00000000000E+00 0.  1.
         23    2    1    2    0    0  0.16680581640E+04  0.17934313893E+04  0.56206229694E+03  0.25146178731E+04  0.92600405842E+02 0.  0.
         13    1    3    3    0    0  0.34494041979E+03  0.31741751916E+03  0.10779806420E+03  0.48099708661E+03  0.00000000000E+00 0. -1.
        -13    1    3    3    0    0  0.13231177443E+04  0.14760138702E+04  0.45426423273E+03  0.20336207865E+04  0.00000000000E+00 0.  1.
         22    1    1    2    0    0 -0.16680581640E+04 -0.17934313893E+04  0.20445602161E+03  0.24577665576E+04  0.00000000000E+00 0.  1.
<mgrwt>
<rscale>  0 0.49129479E+04</rscale>
<asrwt>0</asrwt>
<pdfrwt beam="1">  1        2 0.32352816E+00 0.49129479E+04</pdfrwt>
<pdfrwt beam="2">  1       -2 0.44145406E+00 0.49129479E+04</pdfrwt>
<totfact> 0.17000371E-02</totfact>
</mgrwt>
</event>
<event>
 6    1  0.1878398E-004  0.1773663E+04  0.7818608E-02  0.8720432E-01
          1   -1    0    0  501    0  0.00000000000E+00  0.00000000000E+00  0.71756820990E+03  0.71756820990E+03  0.00000000000E+00 0. -1.
         -1   -1    0    0    0  501 -0.00000000000E+00 -0.00000000000E+00 -0.10960210181E+04  0.10960210181E+04  0.00000000000E+00 0.  1.
         23    2    1    2    0    0 -0.59986661681E+03  0.13144895261E+03 -0.84080660392E+03  0.10448956496E+04  0.87933999581E+02 0.  0.
         13    1    3    3    0    0 -0.60008868476E+03  0.13405153330E+03 -0.82531115780E+03  0.10291815925E+04  0.00000000000E+00 0. -1.
        -13    1    3    3    0    0  0.22206795250E+00 -0.26025806909E+01 -0.15495446116E+02  0.15714057107E+02  0.00000000000E+00 0.  1.
         22    1    1    2    0    0  0.59986661681E+03 -0.13144895261E+03  0.46235379570E+03  0.76869357841E+03  0.00000000000E+00 0. -1.
<mgrwt>
<rscale>  0 0.17736627E+04</rscale>
<asrwt>0</asrwt>
<pdfrwt beam="1">  1        1 0.11039511E+00 0.17736627E+04</pdfrwt>
<pdfrwt beam="2">  1       -1 0.16861862E+00 0.17736627E+04</pdfrwt>
<totfact> 0.62485528E+00</totfact>
</mgrwt>
</event>
<event>
 6    1  0.1878398E-004  0.3438488E+04  0.7818608E-02  0.8128524E-01
         -2   -1    0    0    0  501 -0.00000000000E+00  0.00000000000E+00  0.17953192003E+04  0.17953192003E+04  0.00000000000E+00 0. -1.
          2   -1    0    0  501    0  0.00000000000E+00 -0.00000000000E+00 -0.16463920034E+04  0.16463920034E+04  0.00000000000E+00 0.  1.
         23    2    1    2    0    0 -0.52652095611E+03  0.16249115815E+04  0.26204236255E+03  0.17298826476E+04  0.79156867849E+02 0.  0.
         11    1    3    3    0    0 -0.13925142131E+03  0.33820590973E+03  0.39887575981E+02  0.36792011963E+03  0.00000000000E+00 0.  1.
        -11    1    3    3    0    0 -0.38726953480E+03  0.12867056717E+04  0.22215478657E+03  0.13619625279E+04  0.00000000000E+00 0. -1.
         22    1    1    2    0    0  0.52652095611E+03 -0.16249115815E+04 -0.11311516561E+03  0.17118285561E+04  0.00000000000E+00 0.  1.
<mgrwt>
<rscale>  0 0.34384876E+04</rscale>
<asrwt>0</asrwt>
<pdfrwt beam="1">  1        2 0.25329107E+00 0.34384876E+04</pdfrwt>
<pdfrwt beam="2">  1       -2 0.27620296E+00 0.34384876E+04</pdfrwt>
<totfact> 0.38537447E-01</totfact>
</mgrwt>
</event>
<event>
 6    1  0.1878398E-004  0.9931944E+03  0.7818608E-02  0.9316041E-01
          2   -1    0    0  501    0  0.00000000000E+00  0.00000000000E+00  0.23767187553E+04  0.23767187553E+04  0.00000000000E+00 0.  1.
         -2   -1    0    0    0  501 -0.00000000000E+00 -0.00000000000E+00 -0.10376017935E+03  0.10376017935E+03  0.00000000000E+00 0. -1.
         23    2    1    2    0    0  0.18209654344E+03  0.14992157753E+03  0.22256202154E+04  0.22399034768E+04  0.90258580800E+02 0.  0.
         13    1    3    3    0    0  0.35363286191E+02  0.84104186926E+02  0.73933196201E+03  0.74494014949E+03  0.00000000000E+00 0.  1.
        -13    1    3    3    0    0  0.14673325725E+03  0.65817390608E+02  0.14862882534E+04  0.14949633273E+04  0.00000000000E+00 0. -1.
         22    1    1    2    0    0 -0.18209654344E+03 -0.14992157753E+03  0.47338360503E+02  0.24057545785E+03  0.00000000000E+00 0. -1.
<mgrwt>
<rscale>  0 0.99319437E+03</rscale>
<asrwt>0</asrwt>
<pdfrwt beam="1">  1        2 0.36564900E+00 0.99319437E+03</pdfrwt>
<pdfrwt beam="2">  1       -2 0.15963106E-01 0.99319437E+03</pdfrwt>
<totfact> 0.13064815E+02</totfact>
</mgrwt>
</event>
<event>
 6    1  0.1878398E-004  0.7970438E+04  0.7818608E-02  0.7484872E-01
          2   -1    0    0  501    0  0.00000000000E+00  0.00000000000E+00  0.41802364482E+04  0.41802364482E+04  0.00000000000E+00 0.  1.
         -2   -1    0    0    0  501 -0.00000000000E+00 -0.00000000000E+00 -0.37992997618E+04  0.37992997618E+04  0.00000000000E+00 0. -1.
         23    2    1    2    0    0 -0.84729549640E+03 -0.29830680684E+04  0.26955900092E+04  0.41098818631E+04  0.91206754324E+02 0.  0.
         13    1    3    3    0    0 -0.29032329345E+03 -0.11145283862E+04  0.95333656425E+03  0.14950958976E+04  0.00000000000E+00 0.  1.
        -13    1    3    3    0    0 -0.55697220295E+03 -0.18685396823E+04  0.17422534450E+04  0.26147859655E+04  0.00000000000E+00 0. -1.
         22    1    1    2    0    0  0.84729549640E+03  0.29830680684E+04 -0.23146533229E+04  0.38696543468E+04  0.00000000000E+00 0. -1.
<mgrwt>
<rscale>  0 0.79704382E+04</rscale>
<asrwt>0</asrwt>
<pdfrwt beam="1">  1        2 0.64311330E+00 0.79704382E+04</pdfrwt>
<pdfrwt beam="2">  1       -2 0.58450765E+00 0.79704382E+04</pdfrwt>
<totfact> 0.84641936E-05</totfact>
</mgrwt>
</event>
<event>
 6    1  0.1878398E-004  0.1811876E+04  0.7818608E-02  0.8700009E-01
          2   -1    0    0  501    0  0.00000000000E+00  0.00000000000E+00  0.31595947707E+04  0.31595947707E+04  0.00000000000E+00 0.  1.
         -2   -1    0    0    0  501 -0.00000000000E+00 -0.00000000000E+00 -0.25975601458E+03  0.25975601458E+03  0.00000000000E+00 0. -1.
         23    2    1    2    0    0  0.50766061360E+03  0.44145714886E+03  0.25922521682E+04  0.26796121679E+04  0.89142326275E+02 0.  0.
         11    1    3    3    0    0  0.33234499013E+03  0.24558433464E+03  0.16949302827E+04  0.17445783219E+04  0.00000000000E+00 0.  1.
        -11    1    3    3    0    0  0.17531562348E+03  0.19587281422E+03  0.89732188546E+03  0.93503384608E+03  0.00000000000E+00 0. -1.
         22    1    1    2    0    0 -0.50766061360E+03 -0.44145714886E+03  0.30758658794E+03  0.73973861733E+03  0.00000000000E+00 0. -1.
<mgrwt>
<rscale>  0 0.18118761E+04</rscale>
<asrwt>0</asrwt>
<pdfrwt beam="1">  1        2 0.48609148E+00 0.18118761E+04</pdfrwt>
<pdfrwt beam="2">  1       -2 0.39962466E-01 0.18118761E+04</pdfrwt>
<totfact> 0.77370010E+00</totfact>
</mgrwt>
</event>
<event>
 6    1  0.2110299E-004  0.2367367E+04  0.7818608E-02  0.8451823E-01
          2   -1    0    0  501    0  0.00000000000E+00  0.00000000000E+00  0.15933468725E+04  0.15933468725E+04  0.00000000000E+00 0.  1.
         -2   -1    0    0    0  501 -0.00000000000E+00 -0.00000000000E+00 -0.87934778958E+03  0.87934778958E+03  0.00000000000E+00 0. -1.
         23    2    1    2    0    0  0.36167683345E+02  0.38843587880E+03 -0.80775881064E+03  0.90172756507E+03  0.91911763083E+02 0.  0.
         13    1    3    3    0    0  0.25861571008E+02  0.30200719540E+03 -0.52889919727E+03  0.60959948146E+03  0.00000000000E+00 0.  1.
        -13    1    3    3    0    0  0.10306112336E+02  0.86428683402E+02 -0.27885961337E+03  0.29212808361E+03  0.00000000000E+00 0. -1.
         22    1    1    2    0    0 -0.36167683345E+02 -0.38843587880E+03  0.15217578936E+04  0.15709670970E+04  0.00000000000E+00 0.  1.
<mgrwt>
<rscale>  0 0.23673665E+04</rscale>
<asrwt>0</asrwt>
<pdfrwt beam="1">  1        2 0.24513029E+00 0.23673665E+04</pdfrwt>
<pdfrwt beam="2">  1       -2 0.13528428E+00 0.23673665E+04</pdfrwt>
<totfact> 0.39801981E+00</totfact>
</mgrwt>
</event>
<event>
 6    1  0.1878398E-004  0.1479823E+04  0.7818608E-02  0.8897982E-01
          1   -1    0    0  501    0  0.00000000000E+00  0.00000000000E+00  0.18894593440E+04  0.18894593440E+04  0.00000000000E+00 0. -1.
         -1   -1    0    0    0  501 -0.00000000000E+00 -0.00000000000E+00 -0.28974897064E+03  0.28974897064E+03  0.00000000000E+00 0.  1.
         23    2    1    2    0    0  0.23774696667E+02 -0.52487507260E+03  0.41968654612E+02  0.53524409959E+03  0.93090279530E+02 0.  0.
         13    1    3    3    0    0  0.58999804313E+02 -0.36180845111E+03  0.22375872142E+02  0.36726967184E+03  0.00000000000E+00 0.  1.
        -13    1    3    3    0    0 -0.35225107646E+02 -0.16306662149E+03  0.19592782470E+02  0.16797442775E+03  0.00000000000E+00 0. -1.
         22    1    1    2    0    0 -0.23774696667E+02  0.52487507260E+03  0.15577417187E+04  0.16439642150E+04  0.00000000000E+00 0. -1.
<mgrwt>
<rscale>  0 0.14798228E+04</rscale>
<asrwt>0</asrwt>
<pdfrwt beam="1">  1        1 0.29068604E+00 0.14798228E+04</pdfrwt>
<pdfrwt beam="2">  1       -1 0.44576766E-01 0.14798228E+04</pdfrwt>
<totfact> 0.17113923E+01</totfact>
</mgrwt>
</event>
<event>
 6    1  0.1878398E-004  0.8825093E+03  0.7818608E-02  0.9447714E-01
          2   -1    0    0  501    0  0.00000000000E+00  0.00000000000E+00  0.10193021222E+04  0.10193021222E+04  0.00000000000E+00 0.  1.
         -2   -1    0    0    0  501 -0.00000000000E+00 -0.00000000000E+00 -0.19101859562E+03  0.19101859562E+03  0.00000000000E+00 0. -1.
         23    2    1    2    0    0  0.34466453633E+03  0.26395404857E+03  0.36402384541E+03  0.57470885990E+03  0.96496275926E+02 0.  0.
         13    1    3    3    0    0  0.97650139877E+02  0.94819512135E+02  0.62381086299E+02  0.14972538071E+03  0.00000000000E+00 0. -1.
        -13    1    3    3    0    0  0.24701439645E+03  0.16913453644E+03  0.30164275911E+03  0.42498347920E+03  0.00000000000E+00 0.  1.
         22    1    1    2    0    0 -0.34466453633E+03 -0.26395404857E+03  0.46425968117E+03  0.63561185791E+03  0.00000000000E+00 0. -1.
<mgrwt>
<rscale>  0 0.88250929E+03</rscale>
<asrwt>0</asrwt>
<pdfrwt beam="1">  1        2 0.15681571E+00 0.88250929E+03</pdfrwt>
<pdfrwt beam="2">  1       -2 0.29387477E-01 0.88250929E+03</pdfrwt>
<totfact> 0.26133253E+02</totfact>
</mgrwt>
</event>
<event>
 6    1  0.1878398E-004  0.2287645E+04  0.7818608E-02  0.8482808E-01
          2   -1    0    0  501    0  0.00000000000E+00  0.00000000000E+00  0.23929846381E+04  0.23929846381E+04  0.00000000000E+00 0.  1.
         -2   -1    0    0    0  501 -0.00000000000E+00 -0.00000000000E+00 -0.54673576257E+03  0.54673576257E+03  0.00000000000E+00 0. -1.
         23    2    1    2    0    0  0.28141520595E+02  0.11262975916E+04  0.11626991722E+04  0.16219273945E+04  0.97164283729E+02 0.  0.
         11    1    3    3    0    0  0.57495049698E+02  0.43218880306E+03  0.43756162835E+03  0.61769978212E+03  0.00000000000E+00 0. -1.
        -11    1    3    3    0    0 -0.29353529103E+02  0.69410878858E+03  0.72513754384E+03  0.10042276124E+04  0.00000000000E+00 0.  1.
         22    1    1    2    0    0 -0.28141520595E+02 -0.11262975916E+04  0.68354970338E+03  0.13177930062E+04  0.00000000000E+00 0. -1.
<mgrwt>
<rscale>  0 0.22876453E+04</rscale>
<asrwt>0</asrwt>
<pdfrwt beam="1">  1        2 0.36815148E+00 0.22876453E+04</pdfrwt>
<pdfrwt beam="2">  1       -2 0.84113195E-01 0.22876453E+04</pdfrwt>
<totfact> 0.44932399E+00</totfact>
</mgrwt>
</event>
<event>
 6    1  0.1878398E-004  0.2908961E+04  0.7818608E-02  0.8270216E-01
          2   -1    0    0  501    0  0.00000000000E+00  0.00000000000E+00  0.12204430760E+04  0.12204430760E+04  0.00000000000E+00 0.  1.
         -2   -1    0    0    0  501 -0.00000000000E+00 -0.00000000000E+00 -0.17333975659E+04  0.17333975659E+04  0.00000000000E+00 0. -1.
         23    2    1    2    0    0  0.11232155289E+04  0.44941744956E+03  0.56050661731E+03  0.13364637789E+04  0.91534671591E+02 0.  0.
         11    1    3    3    0    0  0.49837934843E+03  0.17845427988E+03  0.20009924598E+03  0.56592191439E+03  0.00000000000E+00 0. -1.
        -11    1    3    3    0    0  0.62483618046E+03  0.27096316968E+03  0.36040737132E+03  0.77054186456E+03  0.00000000000E+00 0.  1.
         22    1    1    2    0    0 -0.11232155289E+04 -0.44941744956E+03 -0.10734611071E+04  0.16173768630E+04  0.00000000000E+00 0. -1.
<mgrwt>
<rscale>  0 0.29089607E+04</rscale>
<asrwt>0</asrwt>
<pdfrwt beam="1">  1        2 0.18776047E+00 0.29089607E+04</pdfrwt>
<pdfrwt beam="2">  1       -2 0.26667655E+00 0.29089607E+04</pdfrwt>
<totfact> 0.80661753E-01</totfact>
</mgrwt>
</event>
<event>
 6    1  0.1878398E-004  0.4151429E+04  0.7818608E-02  0.7974676E-01
         -1   -1    0    0    0  501 -0.00000000000E+00  0.00000000000E+00  0.15937886505E+04  0.15937886505E+04  0.00000000000E+00 0. -1.
          1   -1    0    0  501    0  0.00000000000E+00 -0.00000000000E+00 -0.27033640939E+04  0.27033640939E+04  0.00000000000E+00 0.  1.
         23    2    1    2    0    0 -0.16436164506E+04 -0.83258942215E+03 -0.15424297012E+04  0.24045241515E+04  0.89257097243E+02 0.  0.
         11    1    3    3    0    0 -0.84753919776E+03 -0.39291927243E+03 -0.82145218087E+03  0.12439822876E+04  0.00000000000E+00 0.  1.
        -11    1    3    3    0    0 -0.79607725284E+03 -0.43967014972E+03 -0.72097752031E+03  0.11605418639E+04  0.00000000000E+00 0. -1.
         22    1    1    2    0    0  0.16436164506E+04  0.83258942215E+03  0.43285425777E+03  0.18926285930E+04  0.00000000000E+00 0. -1.
<mgrwt>
<rscale>  0 0.41514292E+04</rscale>
<asrwt>0</asrwt>
<pdfrwt beam="1">  1        1 0.41590217E+00 0.41514292E+04</pdfrwt>
<pdfrwt beam="2">  1       -1 0.24519826E+00 0.41514292E+04</pdfrwt>
<totfact> 0.56545965E-02</totfact>
</mgrwt>
</event>
<event>
 6    1  0.1878398E-004  0.3149308E+04  0.7818608E-02  0.8202335E-01
          1   -1    0    0  501    0  0.00000000000E+00  0.00000000000E+00  0.10764766321E+04  0.10764766321E+04  0.00000000000E+00 0. -1.
         -1   -1    0    0    0  501 -0.00000000000E+00 -0.00000000000E+00 -0.23033802896E+04  0.23033802896E+04  0.00000000000E+00 0.  1.
         23    2    1    2    0    0 -0.10695115002E+04  0.11531072051E+04 -0.56663573564E+03  0.16741415867E+04  0.90348877750E+02 0.  0.
         11    1    3    3    0    0 -0.28486072716E+03  0.27437565503E+03 -0.17701572651E+03  0.43331536020E+03  0.00000000000E+00 0. -1.
        -11    1    3    3    0    0 -0.78465077307E+03  0.87873155008E+03 -0.38962000913E+03  0.12408262265E+04  0.00000000000E+00 0.  1.
         22    1    1    2    0    0  0.10695115002E+04 -0.11531072051E+04 -0.66026792190E+03  0.17057153351E+04  0.00000000000E+00 0.  1.
<mgrwt>
<rscale>  0 0.31493079E+04</rscale>
<asrwt>0</asrwt>
<pdfrwt beam="1">  1        1 0.16561179E+00 0.31493079E+04</pdfrwt>
<pdfrwt beam="2">  1       -1 0.35436619E+00 0.31493079E+04</pdfrwt>
<totfact> 0.16125996E-01</totfact>
</mgrwt>
</event>
<event>
 6    1  0.1878398E-004  0.1495521E+04  0.7818608E-02  0.8887437E-01
         -1   -1    0    0    0  501 -0.00000000000E+00  0.00000000000E+00  0.44168530091E+03  0.44168530091E+03  0.00000000000E+00 0. -1.
          1   -1    0    0  501    0  0.00000000000E+00 -0.00000000000E+00 -0.12659372681E+04  0.12659372681E+04  0.00000000000E+00 0.  1.
         23    2    1    2    0    0  0.38148163157E+03  0.51910604068E+03 -0.84083558139E+03  0.10632047442E+04  0.91654440101E+02 0.  0.
         11    1    3    3    0    0  0.15617949765E+03  0.14533932758E+03 -0.30315096746E+03  0.37069672874E+03  0.00000000000E+00 0. -1.
        -11    1    3    3    0    0  0.22530213392E+03  0.37376671310E+03 -0.53768461393E+03  0.69250801543E+03  0.00000000000E+00 0.  1.
         22    1    1    2    0    0 -0.38148163157E+03 -0.51910604068E+03  0.16583614219E+02  0.64441782483E+03  0.00000000000E+00 0. -1.
<mgrwt>
<rscale>  0 0.14955212E+04</rscale>
<asrwt>0</asrwt>
<pdfrwt beam="1">  1        1 0.19475958E+00 0.14955212E+04</pdfrwt>
<pdfrwt beam="2">  1       -1 0.67951583E-01 0.14955212E+04</pdfrwt>
<totfact> 0.20306490E+01</totfact>
</mgrwt>
</event>
<event>
 6    1  0.1878398E-004  0.2824692E+04  0.7818608E-02  0.8295643E-01
          3   -1    0    0  501    0  0.00000000000E+00  0.00000000000E+00  0.10823255978E+04  0.10823255978E+04  0.00000000000E+00 0.  1.
         -3   -1    0    0    0  501 -0.00000000000E+00 -0.00000000000E+00 -0.18429955889E+04  0.18429955889E+04  0.00000000000E+00 0. -1.
         23    2    1    2    0    0 -0.69330433578E+03  0.11940904628E+04 -0.80377564917E+02  0.13860613903E+04  0.90458219448E+02 0.  0.
         13    1    3    3    0    0 -0.11859829240E+03  0.26472985587E+03  0.39651152657E+01  0.29010889970E+03  0.00000000000E+00 0.  1.
        -13    1    3    3    0    0 -0.57470604338E+03  0.92936060693E+03 -0.84342680183E+02  0.10959524906E+04  0.00000000000E+00 0. -1.
         22    1    1    2    0    0  0.69330433578E+03 -0.11940904628E+04 -0.68029242620E+03  0.15392597963E+04  0.00000000000E+00 0. -1.
<mgrwt>
<rscale>  0 0.28246921E+04</rscale>
<asrwt>0</asrwt>
<pdfrwt beam="1">  1        3 0.16651163E+00 0.28246921E+04</pdfrwt>
<pdfrwt beam="2">  1       -3 0.28353778E+00 0.28246921E+04</pdfrwt>
<totfact> 0.26053750E-02</totfact>
</mgrwt>
</event>
<event>
 6    1  0.1878398E-004  0.2334002E+04  0.7818608E-02  0.8464634E-01
          2   -1    0    0  501    0  0.00000000000E+00  0.00000000000E+00  0.15899419599E+04  0.15899419599E+04  0.00000000000E+00 0.  1.
         -2   -1    0    0    0  501 -0.00000000000E+00 -0.00000000000E+00 -0.85656703500E+03  0.85656703500E+03  0.00000000000E+00 0. -1.
         23    2    1    2    0    0 -0.72409851661E+03  0.69458749207E+03 -0.25390750087E+03  0.10388524196E+04  0.89302210187E+02 0.  0.
         11    1    3    3    0    0 -0.30371605899E+03  0.23606390850E+03 -0.11464900744E+03  0.40139009491E+03  0.00000000000E+00 0. -1.
        -11    1    3    3    0    0 -0.42038245762E+03  0.45852358356E+03 -0.13925849343E+03  0.63746232465E+03  0.00000000000E+00 0.  1.
         22    1    1    2    0    0  0.72409851661E+03 -0.69458749207E+03  0.98728242581E+03  0.14076565754E+04  0.00000000000E+00 0.  1.
<mgrwt>
<rscale>  0 0.23340025E+04</rscale>
<asrwt>0</asrwt>
<pdfrwt beam="1">  1        2 0.24460646E+00 0.23340025E+04</pdfrwt>
<pdfrwt beam="2">  1       -2 0.13177954E+00 0.23340025E+04</pdfrwt>
<totfact> 0.42862038E+00</totfact>
</mgrwt>
</event>
<event>
 6    1  0.1878398E-004  0.2262061E+04  0.7818608E-02  0.8493032E-01
          2   -1    0    0  501    0  0.00000000000E+00  0.00000000000E+00  0.72345322754E+03  0.72345322754E+03  0.00000000000E+00 0.  1.
         -2   -1    0    0    0  501 -0.00000000000E+00 -0.00000000000E+00 -0.17682274179E+04  0.17682274179E+04  0.00000000000E+00 0. -1.
         23    2    1    2    0    0 -0.79081743253E+03 -0.49000821109E+03 -0.12273062294E+04  0.15436204133E+04  0.10480048235E+03 0.  0.
         11    1    3    3    0    0 -0.36024121602E+03 -0.21803888047E+03 -0.47050128601E+03  0.63141598590E+03  0.00000000000E+00 0. -1.
        -11    1    3    3    0    0 -0.43057621651E+03 -0.27196933062E+03 -0.75680494341E+03  0.91220442741E+03  0.00000000000E+00 0.  1.
         22    1    1    2    0    0  0.79081743253E+03  0.49000821109E+03  0.18253203904E+03  0.94806023216E+03  0.00000000000E+00 0.  1.
<mgrwt>
<rscale>  0 0.22620609E+04</rscale>
<asrwt>0</asrwt>
<pdfrwt beam="1">  1        2 0.11130050E+00 0.22620609E+04</pdfrwt>
<pdfrwt beam="2">  1       -2 0.27203498E+00 0.22620609E+04</pdfrwt>
<totfact> 0.16828259E+00</totfact>
</mgrwt>
</event>
<event>
 6    1  0.1878398E-004  0.3255565E+04  0.7818608E-02  0.8174295E-01
          1   -1    0    0  501    0  0.00000000000E+00  0.00000000000E+00  0.13573782519E+04  0.13573782519E+04  0.00000000000E+00 0.  1.
         -1   -1    0    0    0  501 -0.00000000000E+00 -0.00000000000E+00 -0.19520546807E+04  0.19520546807E+04  0.00000000000E+00 0. -1.
         23    2    1    2    0    0  0.73625054610E+03  0.11387198926E+03  0.11722805679E+04  0.13918384174E+04  0.89110905749E+02 0.  0.
         11    1    3    3    0    0  0.50656581474E+03  0.76823731714E+02  0.72645696000E+03  0.88896036197E+03  0.00000000000E+00 0. -1.
        -11    1    3    3    0    0  0.22968473136E+03  0.37048257546E+02  0.44582360794E+03  0.50287805541E+03  0.00000000000E+00 0.  1.
         22    1    1    2    0    0 -0.73625054610E+03 -0.11387198926E+03 -0.17669569967E+04  0.19175945152E+04  0.00000000000E+00 0. -1.
<mgrwt>
<rscale>  0 0.32555654E+04</rscale>
<asrwt>0</asrwt>
<pdfrwt beam="1">  1        1 0.20882742E+00 0.32555654E+04</pdfrwt>
<pdfrwt beam="2">  1       -1 0.30031610E+00 0.32555654E+04</pdfrwt>
<totfact> 0.22533167E-01</totfact>
</mgrwt>
</event>
<event>
 6    1  0.1878398E-004  0.2776080E+04  0.7818608E-02  0.8310733E-01
         -1   -1    0    0    0  501 -0.00000000000E+00  0.00000000000E+00  0.92805824792E+03  0.92805824792E+03  0.00000000000E+00 0. -1.
          1   -1    0    0  501    0  0.00000000000E+00 -0.00000000000E+00 -0.20760061030E+04  0.20760061030E+04  0.00000000000E+00 0.  1.
         23    2    1    2    0    0  0.11182521536E+04  0.86720159827E+02 -0.14566667395E+04  0.18407434086E+04  0.91924106913E+02 0.  0.
         13    1    3    3    0    0  0.61034003229E+03  0.92896667020E+02 -0.80790139566E+03  0.10167838565E+04  0.00000000000E+00 0.  1.
        -13    1    3    3    0    0  0.50791212128E+03 -0.61765071935E+01 -0.64876534383E+03  0.82395955213E+03  0.00000000000E+00 0. -1.
         22    1    1    2    0    0 -0.11182521536E+04 -0.86720159827E+02  0.30871888443E+03  0.11633209423E+04  0.00000000000E+00 0. -1.
<mgrwt>
<rscale>  0 0.27760797E+04</rscale>
<asrwt>0</asrwt>
<pdfrwt beam="1">  1        1 0.31938555E+00 0.27760797E+04</pdfrwt>
<pdfrwt beam="2">  1       -1 0.14277819E+00 0.27760797E+04</pdfrwt>
<totfact> 0.91352919E-01</totfact>
</mgrwt>
</event>
<event>
 6    1  0.1878398E-004  0.1774097E+04  0.7818608E-02  0.8720197E-01
          1   -1    0    0  501    0  0.00000000000E+00  0.00000000000E+00  0.16221982988E+04  0.16221982988E+04  0.00000000000E+00 0.  1.
         -1   -1    0    0    0  501 -0.00000000000E+00 -0.00000000000E+00 -0.48505480316E+03  0.48505480316E+03  0.00000000000E+00 0. -1.
         23    2    1    2    0    0  0.56377903605E+03  0.39175548566E+03  0.12332493475E+04  0.14140319996E+04  0.85225470614E+02 0.  0.
         11    1    3    3    0    0  0.39159882779E+03  0.22279927100E+03  0.80865480242E+03  0.92569527738E+03  0.00000000000E+00 0.  1.
        -11    1    3    3    0    0  0.17218020825E+03  0.16895621467E+03  0.42459454504E+03  0.48833672222E+03  0.00000000000E+00 0. -1.
         22    1    1    2    0    0 -0.56377903605E+03 -0.39175548566E+03 -0.96105851813E+02  0.69322110238E+03  0.00000000000E+00 0. -1.
<mgrwt>
<rscale>  0 0.17740970E+04</rscale>
<asrwt>0</asrwt>
<pdfrwt beam="1">  1        1 0.24956897E+00 0.17740970E+04</pdfrwt>
<pdfrwt beam="2">  1       -1 0.74623817E-01 0.17740970E+04</pdfrwt>
<totfact> 0.92052596E+00</totfact>
</mgrwt>
</event>
<event>
 6    1  0.1878398E-004  0.6318519E+04  0.7818608E-02  0.7652117E-01
         -2   -1    0    0    0  501 -0.00000000000E+00  0.00000000000E+00  0.50434812997E+04  0.50434812997E+04  0.00000000000E+00 0.  1.
          2   -1    0    0  501    0  0.00000000000E+00 -0.00000000000E+00 -0.19789743749E+04  0.19789743749E+04  0.00000000000E+00 0. -1.
         23    2    1    2    0    0  0.54905721240E+03 -0.77626548392E+03  0.48802695999E+04  0.49728103354E+04  0.88087117591E+02 0.  0.
         11    1    3    3    0    0  0.29062389115E+03 -0.37518208760E+03  0.22309474462E+04  0.22808661409E+04  0.00000000000E+00 0. -1.
        -11    1    3    3    0    0  0.25843332125E+03 -0.40108339632E+03  0.26493221537E+04  0.26919441945E+04  0.00000000000E+00 0.  1.
         22    1    1    2    0    0 -0.54905721240E+03  0.77626548392E+03 -0.18157626751E+04  0.20496453391E+04  0.00000000000E+00 0. -1.
<mgrwt>
<rscale>  0 0.63185189E+04</rscale>
<asrwt>0</asrwt>
<pdfrwt beam="1">  1        2 0.30445760E+00 0.63185189E+04</pdfrwt>
<pdfrwt beam="2">  1       -2 0.77592020E+00 0.63185189E+04</pdfrwt>
<totfact> 0.48829768E-04</totfact>
</mgrwt>
</event>
<event>
 6    1  0.1878398E-004  0.3148272E+04  0.7818608E-02  0.8202614E-01
          1   -1    0    0  501    0  0.00000000000E+00  0.00000000000E+00  0.22652739867E+04  0.22652739867E+04  0.00000000000E+00 0. -1.
         -1   -1    0    0    0  501 -0.00000000000E+00 -0.00000000000E+00 -0.10938651762E+04  0.10938651762E+04  0.00000000000E+00 0.  1.
         23    2    1    2    0    0 -0.90977807464E+02  0.86113524718E+03  0.19871850994E+04  0.21694661704E+04  0.88588767503E+02 0.  0.
         13    1    3    3    0    0 -0.31553947475E+02  0.35906588542E+03  0.93647606877E+03  0.10034497442E+04  0.00000000000E+00 0. -1.
        -13    1    3    3    0    0 -0.59423859990E+02  0.50206936176E+03  0.10507090307E+04  0.11660164263E+04  0.00000000000E+00 0.  1.
         22    1    1    2    0    0  0.90977807464E+02 -0.86113524718E+03 -0.81577628899E+03  0.11896729925E+04  0.00000000000E+00 0.  1.
<mgrwt>
<rscale>  0 0.31482721E+04</rscale>
<asrwt>0</asrwt>
<pdfrwt beam="1">  1        1 0.34850369E+00 0.31482721E+04</pdfrwt>
<pdfrwt beam="2">  1       -1 0.16828695E+00 0.31482721E+04</pdfrwt>
<totfact> 0.41845893E-01</totfact>
</mgrwt>
</event>
<event>
 6    1  0.1878398E-004  0.2884303E+04  0.7818608E-02  0.8277563E-01
          2   -1    0    0  501    0  0.00000000000E+00  0.00000000000E+00  0.22947995240E+04  0.22947995240E+04  0.00000000000E+00 0.  1.
         -2   -1    0    0    0  501 -0.00000000000E+00 -0.00000000000E+00 -0.90631029770E+03  0.90631029770E+03  0.00000000000E+00 0. -1.
         23    2    1    2    0    0 -0.25568259613E+03 -0.63584907020E+03  0.21018862789E+04  0.22118611247E+04  0.68746457276E+02 0.  0.
         11    1    3    3    0    0 -0.12338482564E+03 -0.23355362188E+03  0.86999828482E+03  0.90921291515E+03  0.00000000000E+00 0.  1.
        -11    1    3    3    0    0 -0.13229777049E+03 -0.40229544832E+03  0.12318879941E+04  0.13026482095E+04  0.00000000000E+00 0. -1.
         22    1    1    2    0    0  0.25568259613E+03  0.63584907020E+03 -0.71339705256E+03  0.98924869706E+03  0.00000000000E+00 0. -1.
<mgrwt>
<rscale>  0 0.28843026E+04</rscale>
<asrwt>0</asrwt>
<pdfrwt beam="1">  1        2 0.35304608E+00 0.28843026E+04</pdfrwt>
<pdfrwt beam="2">  1       -2 0.13943235E+00 0.28843026E+04</pdfrwt>
<totfact> 0.14316363E+00</totfact>
</mgrwt>
</event>
<event>
 6    1  0.1878398E-004  0.1115090E+04  0.7818608E-02  0.9190607E-01
          2   -1    0    0  501    0  0.00000000000E+00  0.00000000000E+00  0.27383665526E+03  0.27383665526E+03  0.00000000000E+00 0.  1.
         -2   -1    0    0    0  501 -0.00000000000E+00 -0.00000000000E+00 -0.11351901689E+04  0.11351901689E+04  0.00000000000E+00 0. -1.
         23    2    1    2    0    0 -0.28543669185E+03 -0.46122127083E+03 -0.57639512837E+03  0.79632751208E+03  0.87789502543E+02 0.  0.
         13    1    3    3    0    0 -0.23270391802E+03 -0.33948648743E+03 -0.48023391645E+03  0.63247672140E+03  0.00000000000E+00 0. -1.
        -13    1    3    3    0    0 -0.52732773831E+02 -0.12173478340E+03 -0.96161211923E+02  0.16385079067E+03  0.00000000000E+00 0.  1.
         22    1    1    2    0    0  0.28543669185E+03  0.46122127083E+03 -0.28495838531E+03  0.61269931213E+03  0.00000000000E+00 0. -1.
<mgrwt>
<rscale>  0 0.11150905E+04</rscale>
<asrwt>0</asrwt>
<pdfrwt beam="1">  1        2 0.42128717E-01 0.11150905E+04</pdfrwt>
<pdfrwt beam="2">  1       -2 0.17464464E+00 0.11150905E+04</pdfrwt>
<totfact> 0.23805278E+01</totfact>
</mgrwt>
</event>
<event>
 6    1  0.1878398E-004  0.3149012E+04  0.7818608E-02  0.8202414E-01
          2   -1    0    0  501    0  0.00000000000E+00  0.00000000000E+00  0.24687560306E+04  0.24687560306E+04  0.00000000000E+00 0.  1.
         -2   -1    0    0    0  501 -0.00000000000E+00 -0.00000000000E+00 -0.10041772946E+04  0.10041772946E+04  0.00000000000E+00 0. -1.
         23    2    1    2    0    0  0.11989791921E+04 -0.31166350131E+03  0.18025022247E+04  0.21888470643E+04  0.85743569099E+02 0.  0.
         11    1    3    3    0    0  0.26771212216E+03 -0.34921406789E+02  0.37266394017E+03  0.46018224358E+03  0.00000000000E+00 0.  1.
        -11    1    3    3    0    0  0.93126706995E+03 -0.27674209452E+03  0.14298382845E+04  0.17286648207E+04  0.00000000000E+00 0. -1.
         22    1    1    2    0    0 -0.11989791921E+04  0.31166350131E+03 -0.33792348868E+03  0.12840862609E+04  0.00000000000E+00 0. -1.
<mgrwt>
<rscale>  0 0.31490118E+04</rscale>
<asrwt>0</asrwt>
<pdfrwt beam="1">  1        2 0.37980862E+00 0.31490118E+04</pdfrwt>
<pdfrwt beam="2">  1       -2 0.15448882E+00 0.31490118E+04</pdfrwt>
<totfact> 0.84982093E-01</totfact>
</mgrwt>
</event>
<event>
 6    1  0.1878398E-004  0.3699817E+04  0.7818608E-02  0.8068002E-01
          2   -1    0    0  501    0  0.00000000000E+00  0.00000000000E+00  0.24136079208E+04  0.24136079208E+04  0.00000000000E+00 0.  1.
         -2   -1    0    0    0  501 -0.00000000000E+00 -0.00000000000E+00 -0.14178613972E+04  0.14178613972E+04  0.00000000000E+00 0. -1.
         23    2    1    2    0    0 -0.10221907103E+04  0.75101865141E+03 -0.89421200843E+03  0.15553221093E+04  0.10251285117E+03 0.  0.
         13    1    3    3    0    0 -0.28822198358E+03  0.16954703079E+03 -0.19964320879E+03  0.38945541245E+03  0.00000000000E+00 0.  1.
        -13    1    3    3    0    0 -0.73396872675E+03  0.58147162062E+03 -0.69456879964E+03  0.11658666969E+04  0.00000000000E+00 0. -1.
         22    1    1    2    0    0  0.10221907103E+04 -0.75101865141E+03  0.18899585320E+04  0.22761472087E+04  0.00000000000E+00 0.  1.
<mgrwt>
<rscale>  0 0.36998170E+04</rscale>
<asrwt>0</asrwt>
<pdfrwt beam="1">  1        2 0.37132429E+00 0.36998170E+04</pdfrwt>
<pdfrwt beam="2">  1       -2 0.21813252E+00 0.36998170E+04</pdfrwt>
<totfact> 0.32061065E-01</totfact>
</mgrwt>
</event>
<event>
 6    1  0.3244658E-004  0.4131242E+04  0.7818608E-02  0.7978582E-01
          2   -1    0    0  501    0  0.00000000000E+00  0.00000000000E+00  0.23034787640E+04  0.23034787640E+04  0.00000000000E+00 0.  1.
         -2   -1    0    0    0  501 -0.00000000000E+00 -0.00000000000E+00 -0.18523248261E+04  0.18523248261E+04  0.00000000000E+00 0. -1.
         23    2    1    2    0    0 -0.10273700682E+04 -0.11515068046E+04 -0.11540226901E+04  0.19291358589E+04  0.91321490276E+02 0.  0.
         11    1    3    3    0    0 -0.64891629596E+03 -0.67167442633E+03 -0.72854079468E+03  0.11844874772E+04  0.00000000000E+00 0. -1.
        -11    1    3    3    0    0 -0.37845377220E+03 -0.47983237830E+03 -0.42548189543E+03  0.74464838165E+03  0.00000000000E+00 0.  1.
         22    1    1    2    0    0  0.10273700682E+04  0.11515068046E+04  0.16051766280E+04  0.22266677312E+04  0.00000000000E+00 0.  1.
<mgrwt>
<rscale>  0 0.41312424E+04</rscale>
<asrwt>0</asrwt>
<pdfrwt beam="1">  1        2 0.35438135E+00 0.41312424E+04</pdfrwt>
<pdfrwt beam="2">  1       -2 0.28497305E+00 0.41312424E+04</pdfrwt>
<totfact> 0.13834900E-01</totfact>
</mgrwt>
</event>
<event>
 6    1  0.1878398E-004  0.2017314E+04  0.7818608E-02  0.8598568E-01
          2   -1    0    0  501    0  0.00000000000E+00  0.00000000000E+00  0.11961497009E+04  0.11961497009E+04  0.00000000000E+00 0.  1.
         -2   -1    0    0    0  501 -0.00000000000E+00 -0.00000000000E+00 -0.85055354706E+03  0.85055354706E+03  0.00000000000E+00 0. -1.
         23    2    1    2    0    0 -0.45555695707E+03  0.33449535353E+03 -0.67174970924E+03  0.88291121852E+03  0.94155537638E+02 0.  0.
         11    1    3    3    0    0 -0.11389912513E+03  0.10887916438E+03 -0.24682758367E+03  0.29283363741E+03  0.00000000000E+00 0. -1.
        -11    1    3    3    0    0 -0.34165783194E+03  0.22561618915E+03 -0.42492212557E+03  0.59007758111E+03  0.00000000000E+00 0.  1.
         22    1    1    2    0    0  0.45555695707E+03 -0.33449535353E+03  0.10173458631E+04  0.11637920295E+04  0.00000000000E+00 0.  1.
<mgrwt>
<rscale>  0 0.20173144E+04</rscale>
<asrwt>0</asrwt>
<pdfrwt beam="1">  1        2 0.18402303E+00 0.20173144E+04</pdfrwt>
<pdfrwt beam="2">  1       -2 0.13085439E+00 0.20173144E+04</pdfrwt>
<totfact> 0.75469987E+00</totfact>
</mgrwt>
</event>
<event>
 6    1  0.1878398E-004  0.1708790E+04  0.7818608E-02  0.8756367E-01
         -2   -1    0    0    0  501 -0.00000000000E+00  0.00000000000E+00  0.69348537347E+03  0.69348537347E+03  0.00000000000E+00 0. -1.
          2   -1    0    0  501    0  0.00000000000E+00 -0.00000000000E+00 -0.10526404523E+04  0.10526404523E+04  0.00000000000E+00 0.  1.
         23    2    1    2    0    0  0.57917754743E+03  0.47996230903E+03  0.22886383836E+03  0.79136056849E+03  0.89791109382E+02 0.  0.
         11    1    3    3    0    0  0.45393565163E+03  0.33925482932E+03  0.19905152906E+03  0.60064375987E+03  0.00000000000E+00 0. -1.
        -11    1    3    3    0    0  0.12524189579E+03  0.14070747970E+03  0.29812309291E+02  0.19071680862E+03  0.00000000000E+00 0.  1.
         22    1    1    2    0    0 -0.57917754743E+03 -0.47996230903E+03 -0.58801891715E+03  0.95476525725E+03  0.00000000000E+00 0.  1.
<mgrwt>
<rscale>  0 0.17087899E+04</rscale>
<asrwt>0</asrwt>
<pdfrwt beam="1">  1        2 0.16194468E+00 0.17087899E+04</pdfrwt>
<pdfrwt beam="2">  1       -2 0.10669006E+00 0.17087899E+04</pdfrwt>
<totfact> 0.15687766E+01</totfact>
</mgrwt>
</event>
<event>
 6    1  0.1878398E-004  0.2213143E+04  0.7818608E-02  0.8512977E-01
          2   -1    0    0  501    0  0.00000000000E+00  0.00000000000E+00  0.76452479343E+03  0.76452479343E+03  0.00000000000E+00 0.  1.
         -2   -1    0    0    0  501 -0.00000000000E+00 -0.00000000000E+00 -0.16016494027E+04  0.16016494027E+04  0.00000000000E+00 0. -1.
         23    2    1    2    0    0 -0.79602152054E+03 -0.73505243996E+03 -0.18903077874E+03  0.11036457949E+04  0.91373161679E+02 0.  0.
         13    1    3    3    0    0 -0.28782993872E+03 -0.21701409365E+03 -0.86968379311E+02  0.37081624758E+03  0.00000000000E+00 0. -1.
        -13    1    3    3    0    0 -0.50819158181E+03 -0.51803834631E+03 -0.10206239943E+03  0.73282954734E+03  0.00000000000E+00 0.  1.
         22    1    1    2    0    0  0.79602152054E+03  0.73505243996E+03 -0.64809383050E+03  0.12625284012E+04  0.00000000000E+00 0. -1.
<mgrwt>
<rscale>  0 0.22131432E+04</rscale>
<asrwt>0</asrwt>
<pdfrwt beam="1">  1        2 0.11761920E+00 0.22131432E+04</pdfrwt>
<pdfrwt beam="2">  1       -2 0.24640760E+00 0.22131432E+04</pdfrwt>
<totfact> 0.22576164E+00</totfact>
</mgrwt>
</event>
<event>
 6    1  0.1878398E-004  0.1246032E+04  0.7818608E-02  0.9073492E-01
          2   -1    0    0  501    0  0.00000000000E+00  0.00000000000E+00  0.79436080364E+03  0.79436080364E+03  0.00000000000E+00 0.  1.
         -2   -1    0    0    0  501 -0.00000000000E+00 -0.00000000000E+00 -0.48863078741E+03  0.48863078741E+03  0.00000000000E+00 0. -1.
         23    2    1    2    0    0  0.11798902241E+03 -0.55876250492E+03  0.40141525484E+03  0.70394702350E+03  0.90940963060E+02 0.  0.
         11    1    3    3    0    0  0.10088535541E+03 -0.29338022968E+03  0.18611303924E+03  0.36178429689E+03  0.00000000000E+00 0.  1.
        -11    1    3    3    0    0  0.17103667000E+02 -0.26538227524E+03  0.21530221561E+03  0.34216272661E+03  0.00000000000E+00 0. -1.
         22    1    1    2    0    0 -0.11798902241E+03  0.55876250492E+03 -0.95685238616E+02  0.57904456754E+03  0.00000000000E+00 0. -1.
<mgrwt>
<rscale>  0 0.12460323E+04</rscale>
<asrwt>0</asrwt>
<pdfrwt beam="1">  1        2 0.12220935E+00 0.12460323E+04</pdfrwt>
<pdfrwt beam="2">  1       -2 0.75173967E-01 0.12460323E+04</pdfrwt>
<totfact> 0.54366874E+01</totfact>
</mgrwt>
</event>
<event>
 6    1  0.1878398E-004  0.1795902E+04  0.7818608E-02  0.8708482E-01
          2   -1    0    0  501    0  0.00000000000E+00  0.00000000000E+00  0.71001588709E+03  0.71001588709E+03  0.00000000000E+00 0.  1.
         -2   -1    0    0    0  501 -0.00000000000E+00 -0.00000000000E+00 -0.11356313055E+04  0.11356313055E+04  0.00000000000E+00 0. -1.
         23    2    1    2    0    0 -0.46431019253E+03  0.35564390900E+03 -0.91007326825E+03  0.10861961058E+04  0.97581154855E+02 0.  0.
         11    1    3    3    0    0 -0.13264087812E+03  0.63948962321E+02 -0.28531821062E+03  0.32107561982E+03  0.00000000000E+00 0.  1.
        -11    1    3    3    0    0 -0.33166931441E+03  0.29169494668E+03 -0.62475505763E+03  0.76512048599E+03  0.00000000000E+00 0. -1.
         22    1    1    2    0    0  0.46431019253E+03 -0.35564390900E+03  0.48445784986E+03  0.75945108677E+03  0.00000000000E+00 0.  1.
<mgrwt>
<rscale>  0 0.17959023E+04</rscale>
<asrwt>0</asrwt>
<pdfrwt beam="1">  1        2 0.10923321E+00 0.17959023E+04</pdfrwt>
<pdfrwt beam="2">  1       -2 0.17471251E+00 0.17959023E+04</pdfrwt>
<totfact> 0.74960679E+00</totfact>
</mgrwt>
</event>
<event>
 6    1  0.1878398E-004  0.6659303E+03  0.7818608E-02  0.9777338E-01
          2   -1    0    0  501    0  0.00000000000E+00  0.00000000000E+00  0.43301849405E+03  0.43301849405E+03  0.00000000000E+00 0.  1.
         -2   -1    0    0    0  501 -0.00000000000E+00 -0.00000000000E+00 -0.25603015609E+03  0.25603015609E+03  0.00000000000E+00 0. -1.
         23    2    1    2    0    0 -0.18438007362E+03 -0.11299014769E+03  0.34359525384E+03  0.41606394464E+03  0.91042421686E+02 0.  0.
         13    1    3    3    0    0 -0.27891316751E+02 -0.47032009980E+02  0.38447124906E+02  0.66843974496E+02  0.00000000000E+00 0. -1.
        -13    1    3    3    0    0 -0.15648875686E+03 -0.65958137705E+02  0.30514812893E+03  0.34921997014E+03  0.00000000000E+00 0.  1.
         22    1    1    2    0    0  0.18438007362E+03  0.11299014769E+03 -0.16660691588E+03  0.27298470551E+03  0.00000000000E+00 0. -1.
<mgrwt>
<rscale>  0 0.66593030E+03</rscale>
<asrwt>0</asrwt>
<pdfrwt beam="1">  1        2 0.66618230E-01 0.66593030E+03</pdfrwt>
<pdfrwt beam="2">  1       -2 0.39389255E-01 0.66593030E+03</pdfrwt>
<totfact> 0.44651937E+02</totfact>
</mgrwt>
</event>
<event>
 6    1  0.1878398E-004  0.2837834E+04  0.7818608E-02  0.8291618E-01
         -2   -1    0    0    0  501 -0.00000000000E+00  0.00000000000E+00  0.54351429952E+03  0.54351429952E+03  0.00000000000E+00 0. -1.
          2   -1    0    0  501    0  0.00000000000E+00 -0.00000000000E+00 -0.37042729354E+04  0.37042729354E+04  0.00000000000E+00 0.  1.
         23    2    1    2    0    0  0.11944464316E+04 -0.76075115687E+03 -0.16721763387E+04  0.21932016670E+04  0.92278077730E+02 0.  0.
         13    1    3    3    0    0  0.59409768298E+03 -0.32427752992E+03 -0.80751341488E+03  0.10536535904E+04  0.00000000000E+00 0. -1.
        -13    1    3    3    0    0  0.60034874859E+03 -0.43647362695E+03 -0.86466292382E+03  0.11395480766E+04  0.00000000000E+00 0.  1.
         22    1    1    2    0    0 -0.11944464316E+04  0.76075115687E+03 -0.14885822971E+04  0.20545855679E+04  0.00000000000E+00 0.  1.
<mgrwt>
<rscale>  0 0.28378339E+04</rscale>
<asrwt>0</asrwt>
<pdfrwt beam="1">  1        2 0.56988815E+00 0.28378339E+04</pdfrwt>
<pdfrwt beam="2">  1       -2 0.83617584E-01 0.28378339E+04</pdfrwt>
<totfact> 0.62865393E-01</totfact>
</mgrwt>
</event>
<event>
 6    1  0.1878398E-004  0.1740296E+04  0.7818608E-02  0.8738710E-01
          2   -1    0    0  501    0  0.00000000000E+00  0.00000000000E+00  0.11419344870E+04  0.11419344870E+04  0.00000000000E+00 0.  1.
         -2   -1    0    0    0  501 -0.00000000000E+00 -0.00000000000E+00 -0.66304783700E+03  0.66304783700E+03  0.00000000000E+00 0. -1.
         23    2    1    2    0    0  0.86164588699E+03 -0.18708782747E+02  0.34582920818E+03  0.93292272972E+03  0.89237465715E+02 0.  0.
         13    1    3    3    0    0  0.41084262886E+03 -0.22339898477E+02  0.21086222806E+03  0.46233496080E+03  0.00000000000E+00 0.  1.
        -13    1    3    3    0    0  0.45080325813E+03  0.36311157300E+01  0.13496698012E+03  0.47058776893E+03  0.00000000000E+00 0. -1.
         22    1    1    2    0    0 -0.86164588699E+03  0.18708782747E+02  0.13305744180E+03  0.87205959426E+03  0.00000000000E+00 0.  1.
<mgrwt>
<rscale>  0 0.17402956E+04</rscale>
<asrwt>0</asrwt>
<pdfrwt beam="1">  1        2 0.17568223E+00 0.17402956E+04</pdfrwt>
<pdfrwt beam="2">  1       -2 0.10200736E+00 0.17402956E+04</pdfrwt>
<totfact> 0.15346521E+01</totfact>
</mgrwt>
</event>
<event>
 6    1  0.1878398E-004  0.1017138E+04  0.7818608E-02  0.9289945E-01
         -1   -1    0    0    0  501 -0.00000000000E+00  0.00000000000E+00  0.38661753013E+03  0.38661753013E+03  0.00000000000E+00 0. -1.
          1   -1    0    0  501    0  0.00000000000E+00 -0.00000000000E+00 -0.66898804541E+03  0.66898804541E+03  0.00000000000E+00 0.  1.
         23    2    1    2    0    0 -0.29312917146E+03  0.14770279399E+03 -0.53989921079E+03  0.63839836620E+03  0.91216717962E+02 0.  0.
         13    1    3    3    0    0 -0.65367885125E+02 -0.21475989673E+01 -0.13848370163E+03  0.15315125923E+03  0.00000000000E+00 0. -1.
        -13    1    3    3    0    0 -0.22776128634E+03  0.14985039296E+03 -0.40141550916E+03  0.48524710697E+03  0.00000000000E+00 0.  1.
         22    1    1    2    0    0  0.29312917146E+03 -0.14770279399E+03  0.25752869551E+03  0.41720720934E+03  0.00000000000E+00 0. -1.
<mgrwt>
<rscale>  0 0.10171382E+04</rscale>
<asrwt>0</asrwt>
<pdfrwt beam="1">  1        1 0.10292124E+00 0.10171382E+04</pdfrwt>
<pdfrwt beam="2">  1       -1 0.59479620E-01 0.10171382E+04</pdfrwt>
<totfact> 0.83748920E+01</totfact>
</mgrwt>
</event>
<event>
 6    1  0.2123957E-004  0.4070446E+04  0.7818608E-02  0.7990484E-01
         -2   -1    0    0    0  501 -0.00000000000E+00  0.00000000000E+00  0.17126598037E+04  0.17126598037E+04  0.00000000000E+00 0.  1.
          2   -1    0    0  501    0  0.00000000000E+00 -0.00000000000E+00 -0.24185375006E+04  0.24185375006E+04  0.00000000000E+00 0. -1.
         23    2    1    2    0    0 -0.15955685620E+04 -0.12451532578E+04 -0.56108582842E+03  0.21021062870E+04  0.88248871409E+02 0.  0.
         13    1    3    3    0    0 -0.78475184363E+03 -0.66133844527E+03 -0.30651759366E+03  0.10710541679E+04  0.00000000000E+00 0.  1.
        -13    1    3    3    0    0 -0.81081671836E+03 -0.58381481258E+03 -0.25456823476E+03  0.10310521191E+04  0.00000000000E+00 0. -1.
         22    1    1    2    0    0  0.15955685620E+04  0.12451532578E+04 -0.14479186852E+03  0.20290910174E+04  0.00000000000E+00 0.  1.
<mgrwt>
<rscale>  0 0.40704457E+04</rscale>
<asrwt>0</asrwt>
<pdfrwt beam="1">  1        2 0.37208269E+00 0.40704457E+04</pdfrwt>
<pdfrwt beam="2">  1       -2 0.26348613E+00 0.40704457E+04</pdfrwt>
<totfact> 0.16164760E-01</totfact>
</mgrwt>
</event>
<event>
 6    1  0.1878398E-004  0.2590389E+04  0.7818608E-02  0.8371473E-01
         -2   -1    0    0    0  501 -0.00000000000E+00  0.00000000000E+00  0.76489385197E+03  0.76489385197E+03  0.00000000000E+00 0. -1.
          2   -1    0    0  501    0  0.00000000000E+00 -0.00000000000E+00 -0.21931526040E+04  0.21931526040E+04  0.00000000000E+00 0.  1.
         23    2    1    2    0    0  0.37519181443E+03  0.12248288648E+04 -0.92007547794E+03  0.15799227730E+04  0.92964712463E+02 0.  0.
         13    1    3    3    0    0  0.27892136103E+03  0.76668963550E+03 -0.56604282775E+03  0.99298268145E+03  0.00000000000E+00 0.  1.
        -13    1    3    3    0    0  0.96270453406E+02  0.45813922930E+03 -0.35403265020E+03  0.58694009152E+03  0.00000000000E+00 0. -1.
         22    1    1    2    0    0 -0.37519181443E+03 -0.12248288648E+04 -0.50818327414E+03  0.13781236830E+04  0.00000000000E+00 0.  1.
<mgrwt>
<rscale>  0 0.25903891E+04</rscale>
<asrwt>0</asrwt>
<pdfrwt beam="1">  1        2 0.33740809E+00 0.25903891E+04</pdfrwt>
<pdfrwt beam="2">  1       -2 0.11767598E+00 0.25903891E+04</pdfrwt>
<totfact> 0.25702784E+00</totfact>
</mgrwt>
</event>
<event>
 6    1  0.1878398E-004  0.2324614E+04  0.7818608E-02  0.8468279E-01
          4   -1    0    0  501    0  0.00000000000E+00  0.00000000000E+00  0.13497951584E+04  0.13497951584E+04  0.00000000000E+00 0.  1.
         -4   -1    0    0    0  501 -0.00000000000E+00 -0.00000000000E+00 -0.10008607578E+04  0.10008607578E+04  0.00000000000E+00 0. -1.
         23    2    1    2    0    0  0.17477695133E+03  0.57577322956E+03 -0.82868392979E+03  0.10282162289E+04  0.91922593670E+02 0.  0.
         11    1    3    3    0    0  0.46938403723E+02  0.30144176574E+03 -0.38702439260E+03  0.49280648570E+03  0.00000000000E+00 0. -1.
        -11    1    3    3    0    0  0.12783854761E+03  0.27433146382E+03 -0.44165953719E+03  0.53540974317E+03  0.00000000000E+00 0.  1.
         22    1    1    2    0    0 -0.17477695133E+03 -0.57577322956E+03  0.11776183303E+04  0.13224396873E+04  0.00000000000E+00 0.  1.
<mgrwt>
<rscale>  0 0.23246135E+04</rscale>
<asrwt>0</asrwt>
<pdfrwt beam="1">  1        4 0.20766079E+00 0.23246135E+04</pdfrwt>
<pdfrwt beam="2">  1       -4 0.15397858E+00 0.23246135E+04</pdfrwt>
<totfact> 0.58807481E-02</totfact>
</mgrwt>
</event>
<event>
 6    1  0.1878398E-004  0.4759286E+03  0.7818608E-02  0.1020260E+00
         -1   -1    0    0    0  501 -0.00000000000E+00  0.00000000000E+00  0.30709359686E+02  0.30709359686E+02  0.00000000000E+00 0. -1.
          1   -1    0    0  501    0  0.00000000000E+00 -0.00000000000E+00 -0.18439654761E+04  0.18439654761E+04  0.00000000000E+00 0.  1.
         23    2    1    2    0    0  0.47839338120E+02 -0.21336187049E+03 -0.12109336123E+04  0.12338907153E+04  0.91182201956E+02 0.  0.
         11    1    3    3    0    0  0.30521281566E+02 -0.74757047798E+02 -0.68429306554E+03  0.68904075668E+03  0.00000000000E+00 0.  1.
        -11    1    3    3    0    0  0.17318056555E+02 -0.13860482270E+03 -0.52664054674E+03  0.54484995863E+03  0.00000000000E+00 0. -1.
         22    1    1    2    0    0 -0.47839338120E+02  0.21336187049E+03 -0.60232250413E+03  0.64078412046E+03  0.00000000000E+00 0.  1.
<mgrwt>
<rscale>  0 0.47592856E+03</rscale>
<asrwt>0</asrwt>
<pdfrwt beam="1">  1        1 0.28368695E+00 0.47592856E+03</pdfrwt>
<pdfrwt beam="2">  1       -1 0.47245176E-02 0.47592856E+03</pdfrwt>
<totfact> 0.80264896E+02</totfact>
</mgrwt>
</event>
<event>
 6    1  0.1878398E-004  0.1457737E+04  0.7818608E-02  0.8913054E-01
          2   -1    0    0  501    0  0.00000000000E+00  0.00000000000E+00  0.84383935045E+03  0.84383935045E+03  0.00000000000E+00 0.  1.
         -2   -1    0    0    0  501 -0.00000000000E+00 -0.00000000000E+00 -0.62956206121E+03  0.62956206121E+03  0.00000000000E+00 0. -1.
         23    2    1    2    0    0  0.62009162123E+03 -0.58605350061E+02  0.48470043961E+03  0.79437498653E+03  0.90271242859E+02 0.  0.
         11    1    3    3    0    0  0.20768629565E+03  0.18848465992E+02  0.18438990008E+03  0.27836755796E+03  0.00000000000E+00 0.  1.
        -11    1    3    3    0    0  0.41240532558E+03 -0.77453816053E+02  0.30031053952E+03  0.51600742857E+03  0.00000000000E+00 0. -1.
         22    1    1    2    0    0 -0.62009162123E+03  0.58605350061E+02 -0.27042315037E+03  0.67902642514E+03  0.00000000000E+00 0. -1.
<mgrwt>
<rscale>  0 0.14577369E+04</rscale>
<asrwt>0</asrwt>
<pdfrwt beam="1">  1        2 0.12982144E+00 0.14577369E+04</pdfrwt>
<pdfrwt beam="2">  1       -2 0.96855702E-01 0.14577369E+04</pdfrwt>
<totfact> 0.27679534E+01</totfact>
</mgrwt>
</event>
<event>
 6    1  0.1878398E-004  0.3319810E+04  0.7818608E-02  0.8157873E-01
          2   -1    0    0  501    0  0.00000000000E+00  0.00000000000E+00  0.34308019853E+04  0.34308019853E+04  0.00000000000E+00 0.  1.
         -2   -1    0    0    0  501 -0.00000000000E+00 -0.00000000000E+00 -0.80310222471E+03  0.80310222471E+03  0.00000000000E+00 0. -1.
         23    2    1    2    0    0 -0.10370865668E+04  0.86827478684E+02 -0.33230598737E+03  0.10962742787E+04  0.91117872583E+02 0.  0.
         13    1    3    3    0    0 -0.51621101894E+03  0.60823944850E+02 -0.12175556383E+03  0.53385183868E+03  0.00000000000E+00 0. -1.
        -13    1    3    3    0    0 -0.52087554789E+03  0.26003533834E+02 -0.21055042353E+03  0.56242243999E+03  0.00000000000E+00 0.  1.
         22    1    1    2    0    0  0.10370865668E+04 -0.86827478684E+02  0.29600057480E+04  0.31376299314E+04  0.00000000000E+00 0.  1.
<mgrwt>
<rscale>  0 0.33198101E+04</rscale>
<asrwt>0</asrwt>
<pdfrwt beam="1">  1        2 0.52781568E+00 0.33198101E+04</pdfrwt>
<pdfrwt beam="2">  1       -2 0.12355419E+00 0.33198101E+04</pdfrwt>
<totfact> 0.37333788E-01</totfact>
</mgrwt>
</event>
<event>
 6    1  0.1878398E-004  0.8389311E+03  0.7818608E-02  0.9505315E-01
         -1   -1    0    0    0  501 -0.00000000000E+00  0.00000000000E+00  0.27959865926E+03  0.27959865926E+03  0.00000000000E+00 0. -1.
          1   -1    0    0  501    0  0.00000000000E+00 -0.00000000000E+00 -0.62929973335E+03  0.62929973335E+03  0.00000000000E+00 0.  1.
         23    2    1    2    0    0  0.39554772955E+03  0.99952562677E+02 -0.25705680006E+03  0.49053075207E+03  0.89964988390E+02 0.  0.
         11    1    3    3    0    0  0.12302174537E+03  0.22986790260E+02 -0.12901535279E+03  0.17974343832E+03  0.00000000000E+00 0.  1.
        -11    1    3    3    0    0  0.27252598417E+03  0.76965772417E+02 -0.12804144726E+03  0.31078731375E+03  0.00000000000E+00 0. -1.
         22    1    1    2    0    0 -0.39554772955E+03 -0.99952562677E+02 -0.92644274035E+02  0.41836764053E+03  0.00000000000E+00 0. -1.
<mgrwt>
<rscale>  0 0.83893113E+03</rscale>
<asrwt>0</asrwt>
<pdfrwt beam="1">  1        1 0.96815344E-01 0.83893113E+03</pdfrwt>
<pdfrwt beam="2">  1       -1 0.43015178E-01 0.83893113E+03</pdfrwt>
<totfact> 0.17180782E+02</totfact>
</mgrwt>
</event>
<event>
 6    1  0.1878398E-004  0.1525272E+04  0.7818608E-02  0.8867819E-01
          1   -1    0    0  501    0  0.00000000000E+00  0.00000000000E+00  0.17221954335E+04  0.17221954335E+04  0.00000000000E+00 0.  1.
         -1   -1    0    0    0  501 -0.00000000000E+00 -0.00000000000E+00 -0.33771623898E+03  0.33771623898E+03  0.00000000000E+00 0. -1.
         23    2    1    2    0    0 -0.65384584681E+03  0.25635427593E+03  0.30280184820E+03  0.77023815267E+03  0.91356151316E+02 0.  0.
         13    1    3    3    0    0 -0.24941794347E+03  0.14565026531E+03  0.11764982577E+03  0.31187303797E+03  0.00000000000E+00 0. -1.
        -13    1    3    3    0    0 -0.40442790333E+03  0.11070401062E+03  0.18515202243E+03  0.45836511470E+03  0.00000000000E+00 0.  1.
         22    1    1    2    0    0  0.65384584681E+03 -0.25635427593E+03  0.10816773463E+04  0.12896735198E+04  0.00000000000E+00 0.  1.
<mgrwt>
<rscale>  0 0.15252716E+04</rscale>
<asrwt>0</asrwt>
<pdfrwt beam="1">  1        1 0.26495314E+00 0.15252716E+04</pdfrwt>
<pdfrwt beam="2">  1       -1 0.51956345E-01 0.15252716E+04</pdfrwt>
<totfact> 0.16572643E+01</totfact>
</mgrwt>
</event>
<event>
 6    1  0.1878398E-004  0.5808921E+04  0.7818608E-02  0.7714555E-01
         -2   -1    0    0    0  501 -0.00000000000E+00  0.00000000000E+00  0.18094928259E+04  0.18094928259E+04  0.00000000000E+00 0. -1.
          2   -1    0    0  501    0  0.00000000000E+00 -0.00000000000E+00 -0.46620196186E+04  0.46620196186E+04  0.00000000000E+00 0.  1.
         23    2    1    2    0    0  0.24160474885E+04 -0.13109576698E+04 -0.24692803950E+04  0.36961253939E+04  0.90009885840E+02 0.  0.
         11    1    3    3    0    0  0.17141142034E+04 -0.89823003699E+03 -0.17781204199E+04  0.26280633419E+04  0.00000000000E+00 0. -1.
        -11    1    3    3    0    0  0.70193328512E+03 -0.41272763282E+03 -0.69115997516E+03  0.10680620520E+04  0.00000000000E+00 0.  1.
         22    1    1    2    0    0 -0.24160474885E+04  0.13109576698E+04 -0.38324639771E+03  0.27753870505E+04  0.00000000000E+00 0.  1.
<mgrwt>
<rscale>  0 0.58089211E+04</rscale>
<asrwt>0</asrwt>
<pdfrwt beam="1">  1        2 0.71723377E+00 0.58089211E+04</pdfrwt>
<pdfrwt beam="2">  1       -2 0.27838352E+00 0.58089211E+04</pdfrwt>
<totfact> 0.24441008E-03</totfact>
</mgrwt>
</event>
<event>
 6    1  0.1878398E-004  0.7627001E+03  0.7818608E-02  0.9615634E-01
          1   -1    0    0  501    0  0.00000000000E+00  0.00000000000E+00  0.12964926103E+04  0.12964926103E+04  0.00000000000E+00 0.  1.
         -1   -1    0    0    0  501 -0.00000000000E+00 -0.00000000000E+00 -0.11217021990E+03  0.11217021990E+03  0.00000000000E+00 0. -1.
         23    2    1    2    0    0  0.73302544911E+02  0.33240596238E+03  0.30528339582E+03  0.46601945070E+03  0.90051039728E+02 0.  0.
         11    1    3    3    0    0  0.93128156386E+02  0.29892296705E+03  0.26805181149E+03  0.41216449069E+03  0.00000000000E+00 0.  1.
        -11    1    3    3    0    0 -0.19825611475E+02  0.33482995329E+02  0.37231584328E+02  0.53854960014E+02  0.00000000000E+00 0. -1.
         22    1    1    2    0    0 -0.73302544911E+02 -0.33240596238E+03  0.87903899456E+03  0.94264337948E+03  0.00000000000E+00 0.  1.
<mgrwt>
<rscale>  0 0.76270010E+03</rscale>
<asrwt>0</asrwt>
<pdfrwt beam="1">  1        1 0.19946039E+00 0.76270010E+03</pdfrwt>
<pdfrwt beam="2">  1       -1 0.17256958E-01 0.76270010E+03</pdfrwt>
<totfact> 0.24117552E+02</totfact>
</mgrwt>
</event>
<event>
 6    1  0.1878398E-004  0.3493386E+04  0.7818608E-02  0.8115359E-01
          2   -1    0    0  501    0  0.00000000000E+00  0.00000000000E+00  0.24466990872E+04  0.24466990872E+04  0.00000000000E+00 0.  1.
         -2   -1    0    0    0  501 -0.00000000000E+00 -0.00000000000E+00 -0.12469600575E+04  0.12469600575E+04  0.00000000000E+00 0. -1.
         23    2    1    2    0    0 -0.11897247624E+04 -0.11568139209E+04  0.11727009498E+04  0.20340222821E+04  0.91409345918E+02 0.  0.
         13    1    3    3    0    0 -0.50290060287E+03 -0.43242753585E+03  0.49139949963E+03  0.82545506138E+03  0.00000000000E+00 0. -1.
        -13    1    3    3    0    0 -0.68682415953E+03 -0.72438638504E+03  0.68130145013E+03  0.12085672207E+04  0.00000000000E+00 0.  1.
         22    1    1    2    0    0  0.11897247624E+04  0.11568139209E+04  0.27038079955E+02  0.16596368626E+04  0.00000000000E+00 0. -1.
<mgrwt>
<rscale>  0 0.34933858E+04</rscale>
<asrwt>0</asrwt>
<pdfrwt beam="1">  1        2 0.37641524E+00 0.34933858E+04</pdfrwt>
<pdfrwt beam="2">  1       -2 0.19184001E+00 0.34933858E+04</pdfrwt>
<totfact> 0.46287726E-01</totfact>
</mgrwt>
</event>
<event>
 6    1  0.1878398E-004  0.2125638E+04  0.7818608E-02  0.8550033E-01
          1   -1    0    0  501    0  0.00000000000E+00  0.00000000000E+00  0.10239428647E+04  0.10239428647E+04  0.00000000000E+00 0.  1.
         -1   -1    0    0    0  501 -0.00000000000E+00 -0.00000000000E+00 -0.11031715265E+04  0.11031715265E+04  0.00000000000E+00 0. -1.
         23    2    1    2    0    0  0.15383237802E+03 -0.19969501805E+03 -0.10708884172E+04  0.11039176500E+04  0.91047653274E+02 0.  0.
         11    1    3    3    0    0  0.83570765116E+02 -0.12798148518E+03 -0.45726806361E+03  0.48213837778E+03  0.00000000000E+00 0.  1.
        -11    1    3    3    0    0  0.70261612902E+02 -0.71713532874E+02 -0.61362035362E+03  0.62177927226E+03  0.00000000000E+00 0. -1.
         22    1    1    2    0    0 -0.15383237802E+03  0.19969501805E+03  0.99165975538E+03  0.10231967412E+04  0.00000000000E+00 0.  1.
<mgrwt>
<rscale>  0 0.21256384E+04</rscale>
<asrwt>0</asrwt>
<pdfrwt beam="1">  1        1 0.15752967E+00 0.21256384E+04</pdfrwt>
<pdfrwt beam="2">  1       -1 0.16971870E+00 0.21256384E+04</pdfrwt>
<totfact> 0.32886589E+00</totfact>
</mgrwt>
</event>
<event>
 6    1  0.2050837E-004  0.4259346E+04  0.7818608E-02  0.7954178E-01
         -1   -1    0    0    0  501 -0.00000000000E+00  0.00000000000E+00  0.20189277702E+04  0.20189277702E+04  0.00000000000E+00 0.  1.
          1   -1    0    0  501    0  0.00000000000E+00 -0.00000000000E+00 -0.22464928193E+04  0.22464928193E+04  0.00000000000E+00 0. -1.
         23    2    1    2    0    0  0.10354416830E+04  0.98425924056E+02  0.17461014605E+04  0.20344596681E+04  0.91261653115E+02 0.  0.
         13    1    3    3    0    0  0.53591877617E+03  0.47054683054E+02  0.81435156989E+03  0.97600796986E+03  0.00000000000E+00 0. -1.
        -13    1    3    3    0    0  0.49952290688E+03  0.51371241001E+02  0.93174989060E+03  0.10584516983E+04  0.00000000000E+00 0.  1.
         22    1    1    2    0    0 -0.10354416830E+04 -0.98425924056E+02 -0.19736665096E+04  0.22309609214E+04  0.00000000000E+00 0. -1.
<mgrwt>
<rscale>  0 0.42593458E+04</rscale>
<asrwt>0</asrwt>
<pdfrwt beam="1">  1        1 0.34561428E+00 0.42593458E+04</pdfrwt>
<pdfrwt beam="2">  1       -1 0.31060427E+00 0.42593458E+04</pdfrwt>
<totfact> 0.43726763E-02</totfact>
</mgrwt>
</event>
<event>
 6    1  0.1878398E-004  0.1988385E+04  0.7818608E-02  0.8612070E-01
          2   -1    0    0  501    0  0.00000000000E+00  0.00000000000E+00  0.76478112314E+03  0.76478112314E+03  0.00000000000E+00 0.  1.
         -2   -1    0    0    0  501 -0.00000000000E+00 -0.00000000000E+00 -0.12924207616E+04  0.12924207616E+04  0.00000000000E+00 0. -1.
         23    2    1    2    0    0 -0.50405462363E+03 -0.71546998863E+03  0.21900206647E+03  0.90679230387E+03  0.91334599142E+02 0.  0.
         11    1    3    3    0    0 -0.16345402835E+03 -0.24262714119E+03  0.11755848444E+03  0.31528581682E+03  0.00000000000E+00 0. -1.
        -11    1    3    3    0    0 -0.34060059528E+03 -0.47284284744E+03  0.10144358203E+03  0.59150648705E+03  0.00000000000E+00 0.  1.
         22    1    1    2    0    0  0.50405462363E+03  0.71546998863E+03 -0.74664170491E+03  0.11504095809E+04  0.00000000000E+00 0. -1.
<mgrwt>
<rscale>  0 0.19883853E+04</rscale>
<asrwt>0</asrwt>
<pdfrwt beam="1">  1        2 0.11765863E+00 0.19883853E+04</pdfrwt>
<pdfrwt beam="2">  1       -2 0.19883396E+00 0.19883853E+04</pdfrwt>
<totfact> 0.45994363E+00</totfact>
</mgrwt>
</event>
<event>
 6    1  0.1878398E-004  0.8545816E+03  0.7818608E-02  0.9484208E-01
          1   -1    0    0  501    0  0.00000000000E+00  0.00000000000E+00  0.76037545215E+03  0.76037545215E+03  0.00000000000E+00 0.  1.
         -1   -1    0    0    0  501 -0.00000000000E+00 -0.00000000000E+00 -0.24011485200E+03  0.24011485200E+03  0.00000000000E+00 0. -1.
         23    2    1    2    0    0  0.14244093848E+03  0.96092532773E+02 -0.18876771005E+03  0.27093952424E+03  0.90839317646E+02 0.  0.
         13    1    3    3    0    0  0.76561313123E+02  0.18603743232E+02 -0.34157348214E+02  0.85874666616E+02  0.00000000000E+00 0.  1.
        -13    1    3    3    0    0  0.65879625354E+02  0.77488789542E+02 -0.15461036184E+03  0.18506485763E+03  0.00000000000E+00 0. -1.
         22    1    1    2    0    0 -0.14244093848E+03 -0.96092532773E+02  0.70902831020E+03  0.72955077991E+03  0.00000000000E+00 0.  1.
<mgrwt>
<rscale>  0 0.85458163E+03</rscale>
<asrwt>0</asrwt>
<pdfrwt beam="1">  1        1 0.11698084E+00 0.85458163E+03</pdfrwt>
<pdfrwt beam="2">  1       -1 0.36940747E-01 0.85458163E+03</pdfrwt>
<totfact> 0.17018401E+02</totfact>
</mgrwt>
</event>
<event>
 6    1  0.1878398E-004  0.7236855E+03  0.7818608E-02  0.9677563E-01
         -2   -1    0    0    0  501 -0.00000000000E+00  0.00000000000E+00  0.20549772334E+03  0.20549772334E+03  0.00000000000E+00 0. -1.
          2   -1    0    0  501    0  0.00000000000E+00 -0.00000000000E+00 -0.63713681197E+03  0.63713681197E+03  0.00000000000E+00 0.  1.
         23    2    1    2    0    0  0.14446268362E+03  0.22418137451E+03 -0.49428901960E+03  0.56867875514E+03  0.89146710591E+02 0.  0.
         11    1    3    3    0    0  0.43631569649E+02  0.14945743971E+03 -0.27509284406E+03  0.31609699936E+03  0.00000000000E+00 0. -1.
        -11    1    3    3    0    0  0.10083111397E+03  0.74723934802E+02 -0.21919617554E+03  0.25258175577E+03  0.00000000000E+00 0.  1.
         22    1    1    2    0    0 -0.14446268362E+03 -0.22418137451E+03  0.62649930977E+02  0.27395578017E+03  0.00000000000E+00 0. -1.
<mgrwt>
<rscale>  0 0.72368547E+03</rscale>
<asrwt>0</asrwt>
<pdfrwt beam="1">  1        2 0.98021047E-01 0.72368547E+03</pdfrwt>
<pdfrwt beam="2">  1       -2 0.31615035E-01 0.72368547E+03</pdfrwt>
<totfact> 0.43093568E+02</totfact>
</mgrwt>
</event>
<event>
 6    1  0.1878398E-004  0.1539065E+04  0.7818608E-02  0.8858883E-01
          1   -1    0    0  501    0  0.00000000000E+00  0.00000000000E+00  0.65160816532E+03  0.65160816532E+03  0.00000000000E+00 0.  1.
         -1   -1    0    0    0  501 -0.00000000000E+00 -0.00000000000E+00 -0.90879794778E+03  0.90879794778E+03  0.00000000000E+00 0. -1.
         23    2    1    2    0    0 -0.65761664413E+03 -0.38978080062E+03 -0.18992924446E+03  0.79299963467E+03  0.91578269945E+02 0.  0.
         11    1    3    3    0    0 -0.26123415351E+02 -0.40690292249E+02 -0.11206283304E+02  0.49635808631E+02  0.00000000000E+00 0. -1.
        -11    1    3    3    0    0 -0.63149322877E+03 -0.34909050837E+03 -0.17872296116E+03  0.74336382604E+03  0.00000000000E+00 0.  1.
         22    1    1    2    0    0  0.65761664413E+03  0.38978080062E+03 -0.67260538004E+02  0.76740647843E+03  0.00000000000E+00 0. -1.
<mgrwt>
<rscale>  0 0.15390649E+04</rscale>
<asrwt>0</asrwt>
<pdfrwt beam="1">  1        1 0.10024741E+00 0.15390649E+04</pdfrwt>
<pdfrwt beam="2">  1       -1 0.13981507E+00 0.15390649E+04</pdfrwt>
<totfact> 0.12309783E+01</totfact>
</mgrwt>
</event>
<event>
 6    1  0.1878398E-004  0.2469775E+04  0.7818608E-02  0.8413833E-01
         -2   -1    0    0    0  501 -0.00000000000E+00  0.00000000000E+00  0.14207051590E+04  0.14207051590E+04  0.00000000000E+00 0. -1.
          2   -1    0    0  501    0  0.00000000000E+00 -0.00000000000E+00 -0.10733733487E+04  0.10733733487E+04  0.00000000000E+00 0.  1.
         23    2    1    2    0    0 -0.15139205617E+03 -0.33426307754E+03  0.13628069535E+04  0.14143372765E+04  0.91955312660E+02 0.  0.
         11    1    3    3    0    0 -0.14452244694E+02 -0.77573938437E+02  0.43114923568E+03  0.43831067375E+03  0.00000000000E+00 0.  1.
        -11    1    3    3    0    0 -0.13693981148E+03 -0.25668913911E+03  0.93165771785E+03  0.97602660278E+03  0.00000000000E+00 0. -1.
         22    1    1    2    0    0  0.15139205617E+03  0.33426307754E+03 -0.10154751433E+04  0.10797412312E+04  0.00000000000E+00 0.  1.
<mgrwt>
<rscale>  0 0.24697749E+04</rscale>
<asrwt>0</asrwt>
<pdfrwt beam="1">  1        2 0.16513436E+00 0.24697749E+04</pdfrwt>
<pdfrwt beam="2">  1       -2 0.21857003E+00 0.24697749E+04</pdfrwt>
<totfact> 0.20418837E+00</totfact>
</mgrwt>
</event>
<event>
 6    1  0.1878398E-004  0.3014062E+04  0.7818608E-02  0.8239727E-01
          2   -1    0    0  501    0  0.00000000000E+00  0.00000000000E+00  0.22023082565E+04  0.22023082565E+04  0.00000000000E+00 0.  1.
         -2   -1    0    0    0  501 -0.00000000000E+00 -0.00000000000E+00 -0.10312555573E+04  0.10312555573E+04  0.00000000000E+00 0. -1.
         23    2    1    2    0    0  0.32764331145E+03 -0.10612713311E+04  0.16766334860E+04  0.20132118523E+04  0.90967785871E+02 0.  0.
         13    1    3    3    0    0  0.28538224013E+03 -0.10000653579E+04  0.15694057368E+04  0.18827129653E+04  0.00000000000E+00 0.  1.
        -13    1    3    3    0    0  0.42261071314E+02 -0.61205973230E+02  0.10722774923E+03  0.13049888702E+03  0.00000000000E+00 0. -1.
         22    1    1    2    0    0 -0.32764331145E+03  0.10612713311E+04 -0.50558078683E+03  0.12203519615E+04  0.00000000000E+00 0. -1.
<mgrwt>
<rscale>  0 0.30140621E+04</rscale>
<asrwt>0</asrwt>
<pdfrwt beam="1">  1        2 0.33881665E+00 0.30140621E+04</pdfrwt>
<pdfrwt beam="2">  1       -2 0.15865470E+00 0.30140621E+04</pdfrwt>
<totfact> 0.11345912E+00</totfact>
</mgrwt>
</event>
<event>
 6    1  0.1878398E-004  0.5384131E+04  0.7818608E-02  0.7771837E-01
          2   -1    0    0  501    0  0.00000000000E+00  0.00000000000E+00  0.35978279166E+04  0.35978279166E+04  0.00000000000E+00 0.  1.
         -2   -1    0    0    0  501 -0.00000000000E+00 -0.00000000000E+00 -0.20143312877E+04  0.20143312877E+04  0.00000000000E+00 0. -1.
         23    2    1    2    0    0 -0.16202720679E+04 -0.19608937706E+04 -0.12411823401E+03  0.25484466731E+04  0.93750496765E+02 0.  0.
         11    1    3    3    0    0 -0.10986072185E+04 -0.13378586433E+04 -0.12788637369E+03  0.17358451816E+04  0.00000000000E+00 0. -1.
        -11    1    3    3    0    0 -0.52166484947E+03 -0.62303512732E+03  0.37681396799E+01  0.81260149146E+03  0.00000000000E+00 0.  1.
         22    1    1    2    0    0  0.16202720679E+04  0.19608937706E+04  0.17076148630E+04  0.30637125312E+04  0.00000000000E+00 0. -1.
<mgrwt>
<rscale>  0 0.53841313E+04</rscale>
<asrwt>0</asrwt>
<pdfrwt beam="1">  1        2 0.55351199E+00 0.53841313E+04</pdfrwt>
<pdfrwt beam="2">  1       -2 0.30989712E+00 0.53841313E+04</pdfrwt>
<totfact> 0.13489180E-02</totfact>
</mgrwt>
</event>
<event>
 6    1  0.1878398E-004  0.2652305E+04  0.7818608E-02  0.8350648E-01
         -2   -1    0    0    0  501 -0.00000000000E+00  0.00000000000E+00  0.69382168262E+03  0.69382168262E+03  0.00000000000E+00 0. -1.
          2   -1    0    0  501    0  0.00000000000E+00 -0.00000000000E+00 -0.25347721444E+04  0.25347721444E+04  0.00000000000E+00 0.  1.
         23    2    1    2    0    0  0.91470080293E+03 -0.46942208921E+03  0.95240838640E+02  0.10363640470E+04  0.89134526371E+02 0.  0.
         11    1    3    3    0    0  0.46990312815E+03 -0.25351368958E+03  0.92775472131E+02  0.54192751257E+03  0.00000000000E+00 0.  1.
        -11    1    3    3    0    0  0.44479767477E+03 -0.21590839963E+03  0.24653665084E+01  0.49443653440E+03  0.00000000000E+00 0. -1.
         22    1    1    2    0    0 -0.91470080293E+03  0.46942208921E+03 -0.19361913004E+04  0.21922297800E+04  0.00000000000E+00 0.  1.
<mgrwt>
<rscale>  0 0.26523046E+04</rscale>
<asrwt>0</asrwt>
<pdfrwt beam="1">  1        2 0.38996495E+00 0.26523046E+04</pdfrwt>
<pdfrwt beam="2">  1       -2 0.10674180E+00 0.26523046E+04</pdfrwt>
<totfact> 0.20672296E+00</totfact>
</mgrwt>
</event>
<event>
 6    1  0.1878398E-004  0.2052056E+04  0.7818608E-02  0.8582662E-01
         -2   -1    0    0    0  501 -0.00000000000E+00  0.00000000000E+00  0.14462947904E+04  0.14462947904E+04  0.00000000000E+00 0. -1.
          2   -1    0    0  501    0  0.00000000000E+00 -0.00000000000E+00 -0.72788302560E+03  0.72788302560E+03  0.00000000000E+00 0.  1.
         23    2    1    2    0    0 -0.81433493730E+03  0.29924934577E+03  0.93631466068E+03  0.12796537900E+04  0.90205971802E+02 0.  0.
         11    1    3    3    0    0 -0.45002315487E+03  0.12098087966E+03  0.52546315122E+03  0.70233093087E+03  0.00000000000E+00 0.  1.
        -11    1    3    3    0    0 -0.36431178243E+03  0.17826846611E+03  0.41085150946E+03  0.57732285911E+03  0.00000000000E+00 0. -1.
         22    1    1    2    0    0  0.81433493730E+03 -0.29924934577E+03 -0.21790289591E+03  0.89452402600E+03  0.00000000000E+00 0.  1.
<mgrwt>
<rscale>  0 0.20520560E+04</rscale>
<asrwt>0</asrwt>
<pdfrwt beam="1">  1        2 0.11198200E+00 0.20520560E+04</pdfrwt>
<pdfrwt beam="2">  1       -2 0.22250689E+00 0.20520560E+04</pdfrwt>
<totfact> 0.34346951E+00</totfact>
</mgrwt>
</event>
<event>
 6    1  0.1878398E-004  0.5694160E+03  0.7818608E-02  0.9970972E-01
         -2   -1    0    0    0  501 -0.00000000000E+00  0.00000000000E+00  0.11577582556E+03  0.11577582556E+03  0.00000000000E+00 0. -1.
          2   -1    0    0  501    0  0.00000000000E+00 -0.00000000000E+00 -0.70013436387E+03  0.70013436387E+03  0.00000000000E+00 0.  1.
         23    2    1    2    0    0  0.17643624353E+03  0.11214605797E+03 -0.56064190359E+03  0.60550827615E+03  0.92814018751E+02 0.  0.
         11    1    3    3    0    0  0.14594267755E+03  0.41516099868E+02 -0.36471399275E+03  0.39501790869E+03  0.00000000000E+00 0. -1.
        -11    1    3    3    0    0  0.30493565982E+02  0.70629958098E+02 -0.19592791084E+03  0.21049036746E+03  0.00000000000E+00 0.  1.
         22    1    1    2    0    0 -0.17643624353E+03 -0.11214605797E+03 -0.23716634720E+02  0.21040191328E+03  0.00000000000E+00 0. -1.
<mgrwt>
<rscale>  0 0.56941596E+03</rscale>
<asrwt>0</asrwt>
<pdfrwt beam="1">  1        2 0.10771298E+00 0.56941596E+03</pdfrwt>
<pdfrwt beam="2">  1       -2 0.17811666E-01 0.56941596E+03</pdfrwt>
<totfact> 0.10738923E+03</totfact>
</mgrwt>
</event>
<event>
 6    1  0.1878398E-004  0.1712167E+04  0.7818608E-02  0.8754455E-01
          2   -1    0    0  501    0  0.00000000000E+00  0.00000000000E+00  0.75260717054E+03  0.75260717054E+03  0.00000000000E+00 0.  1.
         -2   -1    0    0    0  501 -0.00000000000E+00 -0.00000000000E+00 -0.97378726084E+03  0.97378726084E+03  0.00000000000E+00 0. -1.
         23    2    1    2    0    0 -0.41822430114E+03 -0.59131049599E+03 -0.56612871706E+03  0.92417923342E+03  0.95109739158E+02 0.  0.
         13    1    3    3    0    0 -0.23189480950E+03 -0.40039256399E+03 -0.38229501779E+03  0.60019904082E+03  0.00000000000E+00 0.  1.
        -13    1    3    3    0    0 -0.18632949165E+03 -0.19091793200E+03 -0.18383369927E+03  0.32398019261E+03  0.00000000000E+00 0. -1.
         22    1    1    2    0    0  0.41822430114E+03  0.59131049599E+03  0.34494862677E+03  0.80221519796E+03  0.00000000000E+00 0.  1.
<mgrwt>
<rscale>  0 0.17121674E+04</rscale>
<asrwt>0</asrwt>
<pdfrwt beam="1">  1        2 0.11578572E+00 0.17121674E+04</pdfrwt>
<pdfrwt beam="2">  1       -2 0.14981342E+00 0.17121674E+04</pdfrwt>
<totfact> 0.10663218E+01</totfact>
</mgrwt>
</event>
<event>
 6    1  0.1878398E-004  0.6881307E+04  0.7818608E-02  0.7589802E-01
          2   -1    0    0  501    0  0.00000000000E+00  0.00000000000E+00  0.38216567835E+04  0.38216567835E+04  0.00000000000E+00 0.  1.
         -2   -1    0    0    0  501 -0.00000000000E+00 -0.00000000000E+00 -0.30976349655E+04  0.30976349655E+04  0.00000000000E+00 0. -1.
         23    2    1    2    0    0  0.33186465701E+04 -0.46301289009E+03 -0.42073222189E+03  0.33783515059E+04  0.91909201078E+02 0.  0.
         11    1    3    3    0    0  0.13589071910E+04 -0.22223006122E+03 -0.14100591385E+03  0.13841595362E+04  0.00000000000E+00 0.  1.
        -11    1    3    3    0    0  0.19597393791E+04 -0.24078282888E+03 -0.27972630804E+03  0.19941919697E+04  0.00000000000E+00 0. -1.
         22    1    1    2    0    0 -0.33186465701E+04  0.46301289009E+03  0.11447540399E+04  0.35409402431E+04  0.00000000000E+00 0. -1.
<mgrwt>
<rscale>  0 0.68813073E+04</rscale>
<asrwt>0</asrwt>
<pdfrwt beam="1">  1        2 0.58794720E+00 0.68813073E+04</pdfrwt>
<pdfrwt beam="2">  1       -2 0.47655922E+00 0.68813073E+04</pdfrwt>
<totfact> 0.69538959E-04</totfact>
</mgrwt>
</event>
<event>
 6    1  0.1878398E-004  0.2476894E+04  0.7818608E-02  0.8411264E-01
         -2   -1    0    0    0  501 -0.00000000000E+00  0.00000000000E+00  0.59498933292E+03  0.59498933292E+03  0.00000000000E+00 0. -1.
          2   -1    0    0  501    0  0.00000000000E+00 -0.00000000000E+00 -0.25777781559E+04  0.25777781559E+04  0.00000000000E+00 0.  1.
         23    2    1    2    0    0 -0.19980569636E+02 -0.56507130385E+03  0.41626726791E+03  0.70798049419E+03  0.90846795322E+02 0.  0.
         11    1    3    3    0    0  0.28769766969E+02 -0.22306389720E+03  0.19548090775E+03  0.29798991093E+03  0.00000000000E+00 0.  1.
        -11    1    3    3    0    0 -0.48750336606E+02 -0.34200740665E+03  0.22078636017E+03  0.40999058326E+03  0.00000000000E+00 0. -1.
         22    1    1    2    0    0  0.19980569636E+02  0.56507130385E+03 -0.23990560909E+04  0.24647869946E+04  0.00000000000E+00 0.  1.
<mgrwt>
<rscale>  0 0.24768936E+04</rscale>
<asrwt>0</asrwt>
<pdfrwt beam="1">  1        2 0.39658126E+00 0.24768936E+04</pdfrwt>
<pdfrwt beam="2">  1       -2 0.91536820E-01 0.24768936E+04</pdfrwt>
<totfact> 0.28472405E+00</totfact>
</mgrwt>
</event>
<event>
 6    1  0.1878398E-004  0.8809101E+03  0.7818608E-02  0.9449764E-01
          2   -1    0    0  501    0  0.00000000000E+00  0.00000000000E+00  0.93759011673E+03  0.93759011673E+03  0.00000000000E+00 0.  1.
         -2   -1    0    0    0  501 -0.00000000000E+00 -0.00000000000E+00 -0.20691412176E+03  0.20691412176E+03  0.00000000000E+00 0. -1.
         23    2    1    2    0    0  0.36395428477E+03  0.17244305445E+03  0.58474456785E+03  0.71614071314E+03  0.93445079884E+02 0.  0.
         11    1    3    3    0    0  0.12402233351E+03  0.10631789921E+03  0.25880444086E+03  0.30604701192E+03  0.00000000000E+00 0. -1.
        -11    1    3    3    0    0  0.23993195126E+03  0.66125155247E+02  0.32594012700E+03  0.41009370122E+03  0.00000000000E+00 0.  1.
         22    1    1    2    0    0 -0.36395428477E+03 -0.17244305445E+03  0.14593142711E+03  0.42836352535E+03  0.00000000000E+00 0. -1.
<mgrwt>
<rscale>  0 0.88091006E+03</rscale>
<asrwt>0</asrwt>
<pdfrwt beam="1">  1        2 0.14424463E+00 0.88091006E+03</pdfrwt>
<pdfrwt beam="2">  1       -2 0.31832942E-01 0.88091006E+03</pdfrwt>
<totfact> 0.25433837E+02</totfact>
</mgrwt>
</event>
<event>
 6    1  0.1878398E-004  0.1938471E+04  0.7818608E-02  0.8635940E-01
         -1   -1    0    0    0  501 -0.00000000000E+00  0.00000000000E+00  0.67912781806E+03  0.67912781806E+03  0.00000000000E+00 0. -1.
          1   -1    0    0  501    0  0.00000000000E+00 -0.00000000000E+00 -0.13832704137E+04  0.13832704137E+04  0.00000000000E+00 0.  1.
         23    2    1    2    0    0 -0.97381392646E+02  0.64681789805E+03  0.40500858159E+03  0.77473645053E+03  0.91258357137E+02 0.  0.
         13    1    3    3    0    0 -0.33031991154E+02  0.27701073560E+03  0.22520973578E+03  0.35853240463E+03  0.00000000000E+00 0.  1.
        -13    1    3    3    0    0 -0.64349401493E+02  0.36980716245E+03  0.17979884581E+03  0.41620404590E+03  0.00000000000E+00 0. -1.
         22    1    1    2    0    0  0.97381392646E+02 -0.64681789805E+03 -0.11091511772E+04  0.12876617812E+04  0.00000000000E+00 0.  1.
<mgrwt>
<rscale>  0 0.19384710E+04</rscale>
<asrwt>0</asrwt>
<pdfrwt beam="1">  1        1 0.21281083E+00 0.19384710E+04</pdfrwt>
<pdfrwt beam="2">  1       -1 0.10448120E+00 0.19384710E+04</pdfrwt>
<totfact> 0.63403123E+00</totfact>
</mgrwt>
</event>
<event>
 6    1  0.1878398E-004  0.1243751E+04  0.7818608E-02  0.9075400E-01
          2   -1    0    0  501    0  0.00000000000E+00  0.00000000000E+00  0.72791851842E+03  0.72791851842E+03  0.00000000000E+00 0.  1.
         -2   -1    0    0    0  501 -0.00000000000E+00 -0.00000000000E+00 -0.53128071924E+03  0.53128071924E+03  0.00000000000E+00 0. -1.
         23    2    1    2    0    0  0.90844697065E+02  0.22049921896E+03  0.67665831758E+03  0.72320263075E+03  0.91010449033E+02 0.  0.
         11    1    3    3    0    0  0.92351691133E+02  0.11444477342E+03  0.43823780548E+03  0.46225405912E+03  0.00000000000E+00 0. -1.
        -11    1    3    3    0    0 -0.15069940679E+01  0.10605444553E+03  0.23842051209E+03  0.26094857163E+03  0.00000000000E+00 0.  1.
         22    1    1    2    0    0 -0.90844697065E+02 -0.22049921896E+03 -0.48002051839E+03  0.53599660692E+03  0.00000000000E+00 0. -1.
<mgrwt>
<rscale>  0 0.12437509E+04</rscale>
<asrwt>0</asrwt>
<pdfrwt beam="1">  1        2 0.11198746E+00 0.12437509E+04</pdfrwt>
<pdfrwt beam="2">  1       -2 0.81735496E-01 0.12437509E+04</pdfrwt>
<totfact> 0.50528578E+01</totfact>
</mgrwt>
</event>
<event>
 6    1  0.1878398E-004  0.3743255E+04  0.7818608E-02  0.8058443E-01
          2   -1    0    0  501    0  0.00000000000E+00  0.00000000000E+00  0.25388269471E+04  0.25388269471E+04  0.00000000000E+00 0. -1.
         -2   -1    0    0    0  501 -0.00000000000E+00 -0.00000000000E+00 -0.13797666641E+04  0.13797666641E+04  0.00000000000E+00 0.  1.
         23    2    1    2    0    0  0.13123332307E+04  0.58922841217E+03  0.18315078730E+04  0.23306407179E+04  0.89757657923E+02 0.  0.
         13    1    3    3    0    0  0.11103091491E+04  0.46232062770E+03  0.15353159675E+04  0.19503132798E+04  0.00000000000E+00 0.  1.
        -13    1    3    3    0    0  0.20202408159E+03  0.12690778447E+03  0.29619190550E+03  0.38032743811E+03  0.00000000000E+00 0. -1.
         22    1    1    2    0    0 -0.13123332307E+04 -0.58922841217E+03 -0.67244758997E+03  0.15879528933E+04  0.00000000000E+00 0.  1.
<mgrwt>
<rscale>  0 0.37432546E+04</rscale>
<asrwt>0</asrwt>
<pdfrwt beam="1">  1        2 0.39058876E+00 0.37432546E+04</pdfrwt>
<pdfrwt beam="2">  1       -2 0.21227179E+00 0.37432546E+04</pdfrwt>
<totfact> 0.29472596E-01</totfact>
</mgrwt>
</event>
<event>
 6    1  0.1878398E-004  0.2813968E+04  0.7818608E-02  0.8298945E-01
          2   -1    0    0  501    0  0.00000000000E+00  0.00000000000E+00  0.24084381127E+04  0.24084381127E+04  0.00000000000E+00 0.  1.
         -2   -1    0    0    0  501 -0.00000000000E+00 -0.00000000000E+00 -0.82194524129E+03  0.82194524129E+03  0.00000000000E+00 0. -1.
         23    2    1    2    0    0  0.79439372813E+03  0.69280508279E+02 -0.53467288574E+03  0.96428420493E+03  0.90043039825E+02 0.  0.
         11    1    3    3    0    0  0.25770380187E+03  0.10469080299E+02 -0.12537730870E+03  0.28677573237E+03  0.00000000000E+00 0.  1.
        -11    1    3    3    0    0  0.53668992626E+03  0.58811427980E+02 -0.40929557704E+03  0.67750847256E+03  0.00000000000E+00 0. -1.
         22    1    1    2    0    0 -0.79439372813E+03 -0.69280508279E+02  0.21211657571E+04  0.22660991491E+04  0.00000000000E+00 0.  1.
<mgrwt>
<rscale>  0 0.28139682E+04</rscale>
<asrwt>0</asrwt>
<pdfrwt beam="1">  1        2 0.37052894E+00 0.28139682E+04</pdfrwt>
<pdfrwt beam="2">  1       -2 0.12645311E+00 0.28139682E+04</pdfrwt>
<totfact> 0.15911826E+00</totfact>
</mgrwt>
</event>
<event>
 6    1  0.1878398E-004  0.1816073E+04  0.7818608E-02  0.8697798E-01
          2   -1    0    0  501    0  0.00000000000E+00  0.00000000000E+00  0.35598180769E+04  0.35598180769E+04  0.00000000000E+00 0.  1.
         -2   -1    0    0    0  501 -0.00000000000E+00 -0.00000000000E+00 -0.23162144765E+03  0.23162144765E+03  0.00000000000E+00 0. -1.
         23    2    1    2    0    0 -0.48373385293E+03 -0.67424046884E+02  0.32608282405E+04  0.32984051015E+04  0.89055920869E+02 0.  0.
         13    1    3    3    0    0 -0.29254583886E+03 -0.82646006218E+02  0.20820841253E+04  0.21041596268E+04  0.00000000000E+00 0.  1.
        -13    1    3    3    0    0 -0.19118801408E+03  0.15221959334E+02  0.11787441152E+04  0.11942454747E+04  0.00000000000E+00 0. -1.
         22    1    1    2    0    0  0.48373385293E+03  0.67424046884E+02  0.67368388844E+02  0.49303442313E+03  0.00000000000E+00 0. -1.
<mgrwt>
<rscale>  0 0.18160729E+04</rscale>
<asrwt>0</asrwt>
<pdfrwt beam="1">  1        2 0.54766428E+00 0.18160729E+04</pdfrwt>
<pdfrwt beam="2">  1       -2 0.35634071E-01 0.18160729E+04</pdfrwt>
<totfact> 0.51922400E+00</totfact>
</mgrwt>
</event>
<event>
 6    1  0.1878398E-004  0.2784741E+03  0.7818608E-02  0.1096525E+00
         -2   -1    0    0    0  501 -0.00000000000E+00  0.00000000000E+00  0.36623962923E+02  0.36623962923E+02  0.00000000000E+00 0. -1.
          2   -1    0    0  501    0  0.00000000000E+00 -0.00000000000E+00 -0.52935185462E+03  0.52935185462E+03  0.00000000000E+00 0.  1.
         23    2    1    2    0    0 -0.29983816147E+02  0.66481411264E+02 -0.56257791135E+02  0.12345468137E+03  0.82202871086E+02 0.  0.
         13    1    3    3    0    0 -0.19386678563E+02 -0.11423671526E+02  0.58619277653E+01  0.23253080956E+02  0.00000000000E+00 0. -1.
        -13    1    3    3    0    0 -0.10597137584E+02  0.77905082790E+02 -0.62119718900E+02  0.10020160042E+03  0.00000000000E+00 0.  1.
         22    1    1    2    0    0  0.29983816147E+02 -0.66481411264E+02 -0.43647010056E+03  0.44252113617E+03  0.00000000000E+00 0.  1.
<mgrwt>
<rscale>  0 0.27847415E+03</rscale>
<asrwt>0</asrwt>
<pdfrwt beam="1">  1        2 0.81438746E-01 0.27847415E+03</pdfrwt>
<pdfrwt beam="2">  1       -2 0.56344559E-02 0.27847415E+03</pdfrwt>
<totfact> 0.94665707E+03</totfact>
</mgrwt>
</event>
<event>
 6    1  0.1878398E-004  0.1939112E+04  0.7818608E-02  0.8635629E-01
         -1   -1    0    0    0  501 -0.00000000000E+00  0.00000000000E+00  0.16711913511E+04  0.16711913511E+04  0.00000000000E+00 0. -1.
          1   -1    0    0  501    0  0.00000000000E+00 -0.00000000000E+00 -0.56249649198E+03  0.56249649198E+03  0.00000000000E+00 0.  1.
         23    2    1    2    0    0  0.24681572599E+03 -0.52365875300E+03 -0.33718778846E+03  0.67621773975E+03  0.91860408657E+02 0.  0.
         13    1    3    3    0    0  0.10676689777E+03 -0.33217456052E+03 -0.19904108234E+03  0.40169199839E+03  0.00000000000E+00 0. -1.
        -13    1    3    3    0    0  0.14004882822E+03 -0.19148419248E+03 -0.13814670612E+03  0.27452574136E+03  0.00000000000E+00 0.  1.
         22    1    1    2    0    0 -0.24681572599E+03  0.52365875300E+03  0.14458826476E+04  0.15574701033E+04  0.00000000000E+00 0. -1.
<mgrwt>
<rscale>  0 0.19391124E+04</rscale>
<asrwt>0</asrwt>
<pdfrwt beam="1">  1        1 0.86537923E-01 0.19391124E+04</pdfrwt>
<pdfrwt beam="2">  1       -1 0.25710636E+00 0.19391124E+04</pdfrwt>
<totfact> 0.21956616E+00</totfact>
</mgrwt>
</event>
<event>
 6    1  0.1878398E-004  0.4100746E+04  0.7818608E-02  0.7984526E-01
          2   -1    0    0  501    0  0.00000000000E+00  0.00000000000E+00  0.18346881595E+04  0.18346881595E+04  0.00000000000E+00 0.  1.
         -2   -1    0    0    0  501 -0.00000000000E+00 -0.00000000000E+00 -0.22914136581E+04  0.22914136581E+04  0.00000000000E+00 0. -1.
         23    2    1    2    0    0  0.14633250914E+04  0.27241916455E+03 -0.16458277448E+04  0.22209780222E+04  0.91988505900E+02 0.  0.
         11    1    3    3    0    0  0.10402771475E+04  0.21267759306E+03 -0.11171521067E+04  0.15412453184E+04  0.00000000000E+00 0. -1.
        -11    1    3    3    0    0  0.42304794388E+03  0.59741571486E+02 -0.52867563808E+03  0.67973270371E+03  0.00000000000E+00 0.  1.
         22    1    1    2    0    0 -0.14633250914E+04 -0.27241916455E+03  0.11891022461E+04  0.19051237954E+04  0.00000000000E+00 0.  1.
<mgrwt>
<rscale>  0 0.41007460E+04</rscale>
<asrwt>0</asrwt>
<pdfrwt beam="1">  1        2 0.28225972E+00 0.41007460E+04</pdfrwt>
<pdfrwt beam="2">  1       -2 0.35252518E+00 0.41007460E+04</pdfrwt>
<totfact> 0.96850351E-02</totfact>
</mgrwt>
</event>
<event>
 6    1  0.1878398E-004  0.6592134E+04  0.7818608E-02  0.7621027E-01
         -2   -1    0    0    0  501 -0.00000000000E+00  0.00000000000E+00  0.30711267218E+04  0.30711267218E+04  0.00000000000E+00 0. -1.
          2   -1    0    0  501    0  0.00000000000E+00 -0.00000000000E+00 -0.35374831990E+04  0.35374831990E+04  0.00000000000E+00 0.  1.
         23    2    1    2    0    0  0.97788755862E+03  0.28736021339E+04 -0.15194132204E+04  0.33957013000E+04  0.91200234769E+02 0.  0.
         11    1    3    3    0    0  0.18948976500E+03  0.67482461651E+03 -0.34446123795E+03  0.78099179159E+03  0.00000000000E+00 0.  1.
        -11    1    3    3    0    0  0.78839779362E+03  0.21987775174E+04 -0.11749519825E+04  0.26147095084E+04  0.00000000000E+00 0. -1.
         22    1    1    2    0    0 -0.97788755862E+03 -0.28736021339E+04  0.10530567432E+04  0.32129086208E+04  0.00000000000E+00 0. -1.
<mgrwt>
<rscale>  0 0.65921345E+04</rscale>
<asrwt>0</asrwt>
<pdfrwt beam="1">  1        2 0.54422819E+00 0.65921345E+04</pdfrwt>
<pdfrwt beam="2">  1       -2 0.47248103E+00 0.65921345E+04</pdfrwt>
<totfact> 0.12234559E-03</totfact>
</mgrwt>
</event>
<event>
 6    1  0.1878398E-004  0.2687849E+04  0.7818608E-02  0.8338958E-01
         -2   -1    0    0    0  501 -0.00000000000E+00  0.00000000000E+00  0.69981502221E+03  0.69981502221E+03  0.00000000000E+00 0. -1.
          2   -1    0    0  501    0  0.00000000000E+00 -0.00000000000E+00 -0.25808724010E+04  0.25808724010E+04  0.00000000000E+00 0.  1.
         23    2    1    2    0    0 -0.61108037704E+03 -0.47041651939E+03 -0.22828343521E+04  0.24111268071E+04  0.86538266649E+02 0.  0.
         11    1    3    3    0    0 -0.33083947282E+03 -0.29744637479E+03 -0.13921615508E+04  0.14615207443E+04  0.00000000000E+00 0. -1.
        -11    1    3    3    0    0 -0.28024090422E+03 -0.17297014460E+03 -0.89067280136E+03  0.94960606275E+03  0.00000000000E+00 0.  1.
         22    1    1    2    0    0  0.61108037704E+03  0.47041651939E+03  0.40177697330E+03  0.86956061617E+03  0.00000000000E+00 0. -1.
<mgrwt>
<rscale>  0 0.26878492E+04</rscale>
<asrwt>0</asrwt>
<pdfrwt beam="1">  1        2 0.39705730E+00 0.26878492E+04</pdfrwt>
<pdfrwt beam="2">  1       -2 0.10766385E+00 0.26878492E+04</pdfrwt>
<totfact> 0.18973647E+00</totfact>
</mgrwt>
</event>
<event>
 6    1  0.1878398E-004  0.5861049E+04  0.7818608E-02  0.7707873E-01
          2   -1    0    0  501    0  0.00000000000E+00  0.00000000000E+00  0.38467140983E+04  0.38467140983E+04  0.00000000000E+00 0.  1.
         -2   -1    0    0    0  501 -0.00000000000E+00 -0.00000000000E+00 -0.22325476550E+04  0.22325476550E+04  0.00000000000E+00 0. -1.
         23    2    1    2    0    0 -0.18356045719E+04  0.21172185208E+04  0.16946337210E+04  0.32759541726E+04  0.89631932785E+02 0.  0.
         11    1    3    3    0    0 -0.14688533162E+04  0.17189349092E+04  0.14035874912E+04  0.26612638223E+04  0.00000000000E+00 0.  1.
        -11    1    3    3    0    0 -0.36675125571E+03  0.39828361161E+03  0.29104622981E+03  0.61469035028E+03  0.00000000000E+00 0. -1.
         22    1    1    2    0    0  0.18356045719E+04 -0.21172185208E+04 -0.80467277806E+02  0.28033075807E+04  0.00000000000E+00 0. -1.
<mgrwt>
<rscale>  0 0.58610486E+04</rscale>
<asrwt>0</asrwt>
<pdfrwt beam="1">  1        2 0.59180217E+00 0.58610486E+04</pdfrwt>
<pdfrwt beam="2">  1       -2 0.34346887E+00 0.58610486E+04</pdfrwt>
<totfact> 0.52410020E-03</totfact>
</mgrwt>
</event>
<event>
 6    1  0.1878398E-004  0.2383182E+04  0.7818608E-02  0.8445827E-01
         -3   -1    0    0    0  501 -0.00000000000E+00  0.00000000000E+00  0.46211744577E+03  0.46211744577E+03  0.00000000000E+00 0.  1.
          3   -1    0    0  501    0  0.00000000000E+00 -0.00000000000E+00 -0.30725713636E+04  0.30725713636E+04  0.00000000000E+00 0. -1.
         23    2    1    2    0    0 -0.48669833092E+02 -0.11793490467E+04 -0.10848052162E+04  0.16057417164E+04  0.91494132532E+02 0.  0.
         13    1    3    3    0    0 -0.41151188731E+02 -0.18534934978E+03 -0.17527829482E+03  0.25839946291E+03  0.00000000000E+00 0. -1.
        -13    1    3    3    0    0 -0.75186443611E+01 -0.99399969689E+03 -0.90952692138E+03  0.13473422535E+04  0.00000000000E+00 0.  1.
         22    1    1    2    0    0  0.48669833092E+02  0.11793490467E+04 -0.15256487017E+04  0.19289470930E+04  0.00000000000E+00 0.  1.
<mgrwt>
<rscale>  0 0.23831818E+04</rscale>
<asrwt>0</asrwt>
<pdfrwt beam="1">  1        3 0.47270330E+00 0.23831818E+04</pdfrwt>
<pdfrwt beam="2">  1       -3 0.71094990E-01 0.23831818E+04</pdfrwt>
<totfact> 0.20756846E-02</totfact>
</mgrwt>
</event>
<event>
 6    1  0.1878398E-004  0.4356547E+04  0.7818608E-02  0.7936244E-01
         -1   -1    0    0    0  501 -0.00000000000E+00  0.00000000000E+00  0.17232900974E+04  0.17232900974E+04  0.00000000000E+00 0. -1.
          1   -1    0    0  501    0  0.00000000000E+00 -0.00000000000E+00 -0.27533816344E+04  0.27533816344E+04  0.00000000000E+00 0.  1.
         23    2    1    2    0    0  0.11022663920E+03 -0.30652278992E+03 -0.27270774376E+04  0.27487055053E+04  0.11101563654E+03 0.  0.
         13    1    3    3    0    0  0.90824266170E+02 -0.30891474511E+03 -0.26332477655E+04  0.26528609390E+04  0.00000000000E+00 0.  1.
        -13    1    3    3    0    0  0.19402373033E+02  0.23919551933E+01 -0.93829672078E+02  0.95844566310E+02  0.00000000000E+00 0. -1.
         22    1    1    2    0    0 -0.11022663920E+03  0.30652278992E+03  0.16969859007E+04  0.17279662265E+04  0.00000000000E+00 0. -1.
<mgrwt>
<rscale>  0 0.43565469E+04</rscale>
<asrwt>0</asrwt>
<pdfrwt beam="1">  1        1 0.42359717E+00 0.43565469E+04</pdfrwt>
<pdfrwt beam="2">  1       -1 0.26512156E+00 0.43565469E+04</pdfrwt>
<totfact> 0.38006650E-02</totfact>
</mgrwt>
</event>
<event>
 6    1  0.1878398E-004  0.1791901E+04  0.7818608E-02  0.8710618E-01
          2   -1    0    0  501    0  0.00000000000E+00  0.00000000000E+00  0.17053945173E+04  0.17053945173E+04  0.00000000000E+00 0.  1.
         -2   -1    0    0    0  501 -0.00000000000E+00 -0.00000000000E+00 -0.47069907407E+03  0.47069907407E+03  0.00000000000E+00 0. -1.
         23    2    1    2    0    0  0.82755764758E+03 -0.14801951661E+03  0.98557600345E+03  0.12992686758E+04  0.99887916826E+02 0.  0.
         11    1    3    3    0    0  0.56931034703E+03 -0.99554427309E+02  0.74603088297E+03  0.94370940102E+03  0.00000000000E+00 0.  1.
        -11    1    3    3    0    0  0.25824730055E+03 -0.48465089303E+02  0.23954512048E+03  0.35555927476E+03  0.00000000000E+00 0. -1.
         22    1    1    2    0    0 -0.82755764758E+03  0.14801951661E+03  0.24911943981E+03  0.87682491562E+03  0.00000000000E+00 0. -1.
<mgrwt>
<rscale>  0 0.17919014E+04</rscale>
<asrwt>0</asrwt>
<pdfrwt beam="1">  1        2 0.26236839E+00 0.17919014E+04</pdfrwt>
<pdfrwt beam="2">  1       -2 0.72415243E-01 0.17919014E+04</pdfrwt>
<totfact> 0.15874480E+01</totfact>
</mgrwt>
</event>
<event>
 6    1  0.1878398E-004  0.7355737E+03  0.7818608E-02  0.9658259E-01
         -1   -1    0    0    0  501 -0.00000000000E+00  0.00000000000E+00  0.53994745070E+03  0.53994745070E+03  0.00000000000E+00 0. -1.
          1   -1    0    0  501    0  0.00000000000E+00 -0.00000000000E+00 -0.25051911242E+03  0.25051911242E+03  0.00000000000E+00 0.  1.
         23    2    1    2    0    0 -0.54166679873E+02 -0.28662399048E+03 -0.83231496109E+02  0.31721959452E+03  0.92808663811E+02 0.  0.
         13    1    3    3    0    0 -0.35503817596E+02 -0.16524437483E+03 -0.94942619840E+02  0.19385645602E+03  0.00000000000E+00 0.  1.
        -13    1    3    3    0    0 -0.18662862277E+02 -0.12137961565E+03  0.11711123731E+02  0.12336313851E+03  0.00000000000E+00 0. -1.
         22    1    1    2    0    0  0.54166679873E+02  0.28662399048E+03  0.37265983438E+03  0.47324696860E+03  0.00000000000E+00 0. -1.
<mgrwt>
<rscale>  0 0.73557367E+03</rscale>
<asrwt>0</asrwt>
<pdfrwt beam="1">  1        1 0.38541402E-01 0.73557367E+03</pdfrwt>
<pdfrwt beam="2">  1       -1 0.83068839E-01 0.73557367E+03</pdfrwt>
<totfact> 0.16187897E+02</totfact>
</mgrwt>
</event>
<event>
 6    1  0.1878398E-004  0.1924042E+04  0.7818608E-02  0.8642981E-01
         -1   -1    0    0    0  501 -0.00000000000E+00  0.00000000000E+00  0.79693144470E+03  0.79693144470E+03  0.00000000000E+00 0. -1.
          1   -1    0    0  501    0  0.00000000000E+00 -0.00000000000E+00 -0.11613096529E+04  0.11613096529E+04  0.00000000000E+00 0.  1.
         23    2    1    2    0    0  0.55871095324E+03  0.54870852960E+03  0.38223478692E+03  0.87626607747E+03  0.92194503430E+02 0.  0.
         11    1    3    3    0    0  0.41238488044E+03  0.36939560998E+03  0.30611310557E+03  0.63262914863E+03  0.00000000000E+00 0.  1.
        -11    1    3    3    0    0  0.14632607280E+03  0.17931291963E+03  0.76121681347E+02  0.24363692884E+03  0.00000000000E+00 0. -1.
         22    1    1    2    0    0 -0.55871095324E+03 -0.54870852960E+03 -0.74661299514E+03  0.10819750202E+04  0.00000000000E+00 0.  1.
<mgrwt>
<rscale>  0 0.19240418E+04</rscale>
<asrwt>0</asrwt>
<pdfrwt beam="1">  1        1 0.17866302E+00 0.19240418E+04</pdfrwt>
<pdfrwt beam="2">  1       -1 0.12260484E+00 0.19240418E+04</pdfrwt>
<totfact> 0.62561193E+00</totfact>
</mgrwt>
</event>
<event>
 6    1  0.1878398E-004  0.2379804E+04  0.7818608E-02  0.8447103E-01
         -2   -1    0    0    0  501 -0.00000000000E+00  0.00000000000E+00  0.62290259147E+03  0.62290259147E+03  0.00000000000E+00 0. -1.
          2   -1    0    0  501    0  0.00000000000E+00 -0.00000000000E+00 -0.22730149308E+04  0.22730149308E+04  0.00000000000E+00 0.  1.
         23    2    1    2    0    0  0.64491047085E+03  0.16511723985E+03 -0.20238602800E+04  0.21324643531E+04  0.90667335128E+02 0.  0.
         13    1    3    3    0    0  0.32920816149E+03  0.12511894542E+03 -0.99305165106E+03  0.10536528583E+04  0.00000000000E+00 0. -1.
        -13    1    3    3    0    0  0.31570230936E+03  0.39998294425E+02 -0.10308086290E+04  0.10788114948E+04  0.00000000000E+00 0.  1.
         22    1    1    2    0    0 -0.64491047085E+03 -0.16511723985E+03  0.37374794075E+03  0.76345316917E+03  0.00000000000E+00 0. -1.
<mgrwt>
<rscale>  0 0.23798041E+04</rscale>
<asrwt>0</asrwt>
<pdfrwt beam="1">  1        2 0.34969461E+00 0.23798041E+04</pdfrwt>
<pdfrwt beam="2">  1       -2 0.95831167E-01 0.23798041E+04</pdfrwt>
<totfact> 0.38622019E+00</totfact>
</mgrwt>
</event>
<event>
 6    1  0.1878398E-004  0.1507453E+04  0.7818608E-02  0.8879512E-01
          2   -1    0    0  501    0  0.00000000000E+00  0.00000000000E+00  0.22526039883E+04  0.22526039883E+04  0.00000000000E+00 0.  1.
         -2   -1    0    0    0  501 -0.00000000000E+00 -0.00000000000E+00 -0.25219865515E+03  0.25219865515E+03  0.00000000000E+00 0. -1.
         23    2    1    2    0    0 -0.27570988997E+02 -0.63344743971E+03  0.16726043282E+04  0.17910314496E+04  0.90402414283E+02 0.  0.
         11    1    3    3    0    0  0.14951270725E+02 -0.49405373788E+03  0.13190940884E+04  0.14086595936E+04  0.00000000000E+00 0. -1.
        -11    1    3    3    0    0 -0.42522259722E+02 -0.13939370183E+03  0.35351023974E+03  0.38237185603E+03  0.00000000000E+00 0.  1.
         22    1    1    2    0    0  0.27570988997E+02  0.63344743971E+03  0.32780100497E+03  0.71377119385E+03  0.00000000000E+00 0.  1.
<mgrwt>
<rscale>  0 0.15074531E+04</rscale>
<asrwt>0</asrwt>
<pdfrwt beam="1">  1        2 0.34655445E+00 0.15074531E+04</pdfrwt>
<pdfrwt beam="2">  1       -2 0.38799795E-01 0.15074531E+04</pdfrwt>
<totfact> 0.29271754E+01</totfact>
</mgrwt>
</event>
<event>
 6    1  0.1878398E-004  0.1516261E+04  0.7818608E-02  0.8873711E-01
          2   -1    0    0  501    0  0.00000000000E+00  0.00000000000E+00  0.53632542218E+03  0.53632542218E+03  0.00000000000E+00 0. -1.
         -2   -1    0    0    0  501 -0.00000000000E+00 -0.00000000000E+00 -0.10716657620E+04  0.10716657620E+04  0.00000000000E+00 0.  1.
         23    2    1    2    0    0 -0.13343628203E+03 -0.33396062477E+03  0.43532454482E+03  0.57284614191E+03  0.96489909945E+02 0.  0.
         11    1    3    3    0    0 -0.61215135982E+02 -0.17135833705E+03  0.29343909165E+03  0.34527883378E+03  0.00000000000E+00 0.  1.
        -11    1    3    3    0    0 -0.72221146046E+02 -0.16260228772E+03  0.14188545317E+03  0.22756730813E+03  0.00000000000E+00 0. -1.
         22    1    1    2    0    0  0.13343628203E+03  0.33396062477E+03 -0.97066488460E+03  0.10351450422E+04  0.00000000000E+00 0.  1.
<mgrwt>
<rscale>  0 0.15162607E+04</rscale>
<asrwt>0</asrwt>
<pdfrwt beam="1">  1        2 0.82511604E-01 0.15162607E+04</pdfrwt>
<pdfrwt beam="2">  1       -2 0.16487166E+00 0.15162607E+04</pdfrwt>
<totfact> 0.12686545E+01</totfact>
</mgrwt>
</event>
<event>
 6    1  0.1878398E-004  0.2600339E+04  0.7818608E-02  0.8368086E-01
          2   -1    0    0  501    0  0.00000000000E+00  0.00000000000E+00  0.23209771952E+04  0.23209771952E+04  0.00000000000E+00 0.  1.
         -2   -1    0    0    0  501 -0.00000000000E+00 -0.00000000000E+00 -0.72833168341E+03  0.72833168341E+03  0.00000000000E+00 0. -1.
         23    2    1    2    0    0 -0.79949673005E+03 -0.56542775820E+03  0.17973509297E+04  0.20489050205E+04  0.92940021031E+02 0.  0.
         11    1    3    3    0    0 -0.40414782127E+03 -0.23446696810E+03  0.89598122322E+03  0.10104912533E+04  0.00000000000E+00 0. -1.
        -11    1    3    3    0    0 -0.39534890878E+03 -0.33096079010E+03  0.90136970650E+03  0.10384137673E+04  0.00000000000E+00 0.  1.
         22    1    1    2    0    0  0.79949673005E+03  0.56542775820E+03 -0.20470541793E+03  0.10004038581E+04  0.00000000000E+00 0. -1.
<mgrwt>
<rscale>  0 0.26003394E+04</rscale>
<asrwt>0</asrwt>
<pdfrwt beam="1">  1        2 0.35707341E+00 0.26003394E+04</pdfrwt>
<pdfrwt beam="2">  1       -2 0.11205103E+00 0.26003394E+04</pdfrwt>
<totfact> 0.24505563E+00</totfact>
</mgrwt>
</event>
<event>
 6    1  0.1878398E-004  0.2551325E+04  0.7818608E-02  0.8384926E-01
         -2   -1    0    0    0  501 -0.00000000000E+00  0.00000000000E+00  0.74376770095E+03  0.74376770095E+03  0.00000000000E+00 0. -1.
          2   -1    0    0  501    0  0.00000000000E+00 -0.00000000000E+00 -0.21879337637E+04  0.21879337637E+04  0.00000000000E+00 0.  1.
         23    2    1    2    0    0 -0.98995384258E+03 -0.50547489070E+03 -0.75182497148E+01  0.11152570217E+04  0.90709563241E+02 0.  0.
         13    1    3    3    0    0 -0.20535256809E+03 -0.14056836137E+03  0.18660037615E+02  0.24955427955E+03  0.00000000000E+00 0. -1.
        -13    1    3    3    0    0 -0.78460127449E+03 -0.36490652933E+03 -0.26178287330E+02  0.86570274217E+03  0.00000000000E+00 0.  1.
         22    1    1    2    0    0  0.98995384258E+03  0.50547489070E+03 -0.14366478131E+04  0.18164444429E+04  0.00000000000E+00 0.  1.
<mgrwt>
<rscale>  0 0.25513247E+04</rscale>
<asrwt>0</asrwt>
<pdfrwt beam="1">  1        2 0.33660519E+00 0.25513247E+04</pdfrwt>
<pdfrwt beam="2">  1       -2 0.11442580E+00 0.25513247E+04</pdfrwt>
<totfact> 0.27802974E+00</totfact>
</mgrwt>
</event>
<event>
 6    1  0.1878398E-004  0.3696046E+04  0.7818608E-02  0.8068839E-01
          2   -1    0    0  501    0  0.00000000000E+00  0.00000000000E+00  0.16775094035E+04  0.16775094035E+04  0.00000000000E+00 0.  1.
         -2   -1    0    0    0  501 -0.00000000000E+00 -0.00000000000E+00 -0.20358692517E+04  0.20358692517E+04  0.00000000000E+00 0. -1.
         23    2    1    2    0    0 -0.62787415776E+03  0.10001851472E+04  0.12474040576E+04  0.17201215198E+04  0.90580754700E+02 0.  0.
         11    1    3    3    0    0 -0.20429994046E+02  0.72483743005E+02  0.87422325920E+02  0.11538605083E+03  0.00000000000E+00 0.  1.
        -11    1    3    3    0    0 -0.60744416371E+03  0.92770140424E+03  0.11599817317E+04  0.16047354690E+04  0.00000000000E+00 0. -1.
         22    1    1    2    0    0  0.62787415776E+03 -0.10001851472E+04 -0.16057639059E+04  0.19932571355E+04  0.00000000000E+00 0. -1.
<mgrwt>
<rscale>  0 0.36960464E+04</rscale>
<asrwt>0</asrwt>
<pdfrwt beam="1">  1        2 0.25807837E+00 0.36960464E+04</pdfrwt>
<pdfrwt beam="2">  1       -2 0.31321065E+00 0.36960464E+04</pdfrwt>
<totfact> 0.21520306E-01</totfact>
</mgrwt>
</event>
<event>
 6    1  0.1878398E-004  0.2059550E+04  0.7818608E-02  0.8579274E-01
          2   -1    0    0  501    0  0.00000000000E+00  0.00000000000E+00  0.68088790143E+03  0.68088790143E+03  0.00000000000E+00 0.  1.
         -2   -1    0    0    0  501 -0.00000000000E+00 -0.00000000000E+00 -0.15574316301E+04  0.15574316301E+04  0.00000000000E+00 0. -1.
         23    2    1    2    0    0  0.13106509770E+03  0.65164436196E+03  0.41281617723E+03  0.78771021085E+03  0.90839120376E+02 0.  0.
         13    1    3    3    0    0  0.62446906889E+02  0.47355348683E+03  0.26445597665E+03  0.54597571800E+03  0.00000000000E+00 0. -1.
        -13    1    3    3    0    0  0.68618190810E+02  0.17809087513E+03  0.14836020059E+03  0.24173449285E+03  0.00000000000E+00 0.  1.
         22    1    1    2    0    0 -0.13106509770E+03 -0.65164436196E+03 -0.12893599059E+04  0.14506093206E+04  0.00000000000E+00 0. -1.
<mgrwt>
<rscale>  0 0.20595498E+04</rscale>
<asrwt>0</asrwt>
<pdfrwt beam="1">  1        2 0.10475199E+00 0.20595498E+04</pdfrwt>
<pdfrwt beam="2">  1       -2 0.23960487E+00 0.20595498E+04</pdfrwt>
<totfact> 0.29215078E+00</totfact>
</mgrwt>
</event>
<event>
 6    1  0.1878398E-004  0.7988449E+03  0.7818608E-02  0.9561691E-01
         -2   -1    0    0    0  501 -0.00000000000E+00  0.00000000000E+00  0.24791334982E+03  0.24791334982E+03  0.00000000000E+00 0. -1.
          2   -1    0    0  501    0  0.00000000000E+00 -0.00000000000E+00 -0.64352438831E+03  0.64352438831E+03  0.00000000000E+00 0.  1.
         23    2    1    2    0    0  0.26787616221E+03 -0.10914264424E+01  0.12224689944E+03  0.30839771088E+03  0.91684317970E+02 0.  0.
         13    1    3    3    0    0  0.10583436971E+03  0.84750061956E+01  0.16631417226E+01  0.10618618357E+03  0.00000000000E+00 0.  1.
        -13    1    3    3    0    0  0.16204179251E+03 -0.95664326381E+01  0.12058375772E+03  0.20221152731E+03  0.00000000000E+00 0. -1.
         22    1    1    2    0    0 -0.26787616221E+03  0.10914264424E+01 -0.51785793793E+03  0.58304002725E+03  0.00000000000E+00 0.  1.
<mgrwt>
<rscale>  0 0.79884488E+03</rscale>
<asrwt>0</asrwt>
<pdfrwt beam="1">  1        2 0.99003751E-01 0.79884488E+03</pdfrwt>
<pdfrwt beam="2">  1       -2 0.38140516E-01 0.79884488E+03</pdfrwt>
<totfact> 0.29713175E+02</totfact>
</mgrwt>
</event>
<event>
 6    1  0.1878398E-004  0.1286898E+04  0.7818608E-02  0.9040020E-01
         -2   -1    0    0    0  501 -0.00000000000E+00  0.00000000000E+00  0.23023333403E+03  0.23023333403E+03  0.00000000000E+00 0. -1.
          2   -1    0    0  501    0  0.00000000000E+00 -0.00000000000E+00 -0.17982913022E+04  0.17982913022E+04  0.00000000000E+00 0.  1.
         23    2    1    2    0    0 -0.56373241014E+02 -0.62767149352E+03 -0.61114278493E+03  0.88273402971E+03  0.92598150917E+02 0.  0.
         13    1    3    3    0    0  0.95290227098E+01 -0.20005769055E+03 -0.14871191462E+03  0.24945764244E+03  0.00000000000E+00 0. -1.
        -13    1    3    3    0    0 -0.65902263723E+02 -0.42761380297E+03 -0.46243087031E+03  0.63327638726E+03  0.00000000000E+00 0.  1.
         22    1    1    2    0    0  0.56373241014E+02  0.62767149352E+03 -0.95691518319E+03  0.11457906065E+04  0.00000000000E+00 0.  1.
<mgrwt>
<rscale>  0 0.12868980E+04</rscale>
<asrwt>0</asrwt>
<pdfrwt beam="1">  1        2 0.27666020E+00 0.12868980E+04</pdfrwt>
<pdfrwt beam="2">  1       -2 0.35420513E-01 0.12868980E+04</pdfrwt>
<totfact> 0.63527351E+01</totfact>
</mgrwt>
</event>
<event>
 6    1  0.1878398E-004  0.4709740E+04  0.7818608E-02  0.7874912E-01
          2   -1    0    0  501    0  0.00000000000E+00  0.00000000000E+00  0.36701365048E+04  0.36701365048E+04  0.00000000000E+00 0.  1.
         -2   -1    0    0    0  501 -0.00000000000E+00 -0.00000000000E+00 -0.15109553210E+04  0.15109553210E+04  0.00000000000E+00 0. -1.
         23    2    1    2    0    0  0.22685656123E+04  0.37437406726E+03  0.16352086459E+04  0.28228948238E+04  0.91005447448E+02 0.  0.
         11    1    3    3    0    0  0.42086512509E+03  0.10184179314E+03  0.28877255078E+03  0.52046977859E+03  0.00000000000E+00 0. -1.
        -11    1    3    3    0    0  0.18477004872E+04  0.27253227412E+03  0.13464360951E+04  0.23024250452E+04  0.00000000000E+00 0.  1.
         22    1    1    2    0    0 -0.22685656123E+04 -0.37437406726E+03  0.52397253799E+03  0.23581970019E+04  0.00000000000E+00 0. -1.
<mgrwt>
<rscale>  0 0.47097398E+04</rscale>
<asrwt>0</asrwt>
<pdfrwt beam="1">  1        2 0.56463638E+00 0.47097398E+04</pdfrwt>
<pdfrwt beam="2">  1       -2 0.23245467E+00 0.47097398E+04</pdfrwt>
<totfact> 0.37650990E-02</totfact>
</mgrwt>
</event>
<event>
 6    1  0.1878398E-004  0.1519243E+04  0.7818608E-02  0.8871756E-01
          2   -1    0    0  501    0  0.00000000000E+00  0.00000000000E+00  0.27568370731E+04  0.27568370731E+04  0.00000000000E+00 0.  1.
         -2   -1    0    0    0  501 -0.00000000000E+00 -0.00000000000E+00 -0.20930690696E+03  0.20930690696E+03  0.00000000000E+00 0. -1.
         23    2    1    2    0    0 -0.73374966374E+03  0.17844962676E+03  0.13799769216E+04  0.15756716081E+04  0.90398418764E+02 0.  0.
         11    1    3    3    0    0 -0.27090562601E+03  0.74537416515E+02  0.42685780833E+03  0.51103157749E+03  0.00000000000E+00 0. -1.
        -11    1    3    3    0    0 -0.46284403773E+03  0.10391221025E+03  0.95311911326E+03  0.10646400306E+04  0.00000000000E+00 0.  1.
         22    1    1    2    0    0  0.73374966374E+03 -0.17844962676E+03  0.11675532446E+04  0.13904723720E+04  0.00000000000E+00 0. -1.
<mgrwt>
<rscale>  0 0.15192433E+04</rscale>
<asrwt>0</asrwt>
<pdfrwt beam="1">  1        2 0.42412875E+00 0.15192433E+04</pdfrwt>
<pdfrwt beam="2">  1       -2 0.32201065E-01 0.15192433E+04</pdfrwt>
<totfact> 0.21365169E+01</totfact>
</mgrwt>
</event>
<event>
 6    1  0.1914825E-004  0.2662619E+04  0.7818608E-02  0.8347237E-01
         -2   -1    0    0    0  501 -0.00000000000E+00  0.00000000000E+00  0.85986186752E+03  0.85986186752E+03  0.00000000000E+00 0. -1.
          2   -1    0    0  501    0  0.00000000000E+00 -0.00000000000E+00 -0.20612434721E+04  0.20612434721E+04  0.00000000000E+00 0.  1.
         23    2    1    2    0    0 -0.75788915740E+03  0.52017064580E+03  0.45329979588E+03  0.10282387271E+04  0.82587525359E+02 0.  0.
         11    1    3    3    0    0 -0.32715870115E+03  0.26854523074E+03  0.18646016483E+03  0.46251135095E+03  0.00000000000E+00 0. -1.
        -11    1    3    3    0    0 -0.43073045625E+03  0.25162541506E+03  0.26683963105E+03  0.56572737616E+03  0.00000000000E+00 0.  1.
         22    1    1    2    0    0  0.75788915740E+03 -0.52017064580E+03 -0.16546814004E+04  0.18928666124E+04  0.00000000000E+00 0.  1.
<mgrwt>
<rscale>  0 0.26626188E+04</rscale>
<asrwt>0</asrwt>
<pdfrwt beam="1">  1        2 0.31711438E+00 0.26626188E+04</pdfrwt>
<pdfrwt beam="2">  1       -2 0.13228644E+00 0.26626188E+04</pdfrwt>
<totfact> 0.22582319E+00</totfact>
</mgrwt>
</event>
<event>
 6    1  0.1878398E-004  0.3905471E+04  0.7818608E-02  0.8023892E-01
          2   -1    0    0  501    0  0.00000000000E+00  0.00000000000E+00  0.13634426725E+04  0.13634426725E+04  0.00000000000E+00 0.  1.
         -2   -1    0    0    0  501 -0.00000000000E+00 -0.00000000000E+00 -0.27967263776E+04  0.27967263776E+04  0.00000000000E+00 0. -1.
         23    2    1    2    0    0  0.62682047035E+03 -0.13927041526E+04 -0.20113539327E+04  0.25271675355E+04  0.92208194767E+02 0.  0.
         11    1    3    3    0    0  0.24381805624E+03 -0.64186220502E+03 -0.93661953152E+03  0.11613313401E+04  0.00000000000E+00 0.  1.
        -11    1    3    3    0    0  0.38300241411E+03 -0.75084194759E+03 -0.10747344012E+04  0.13658361953E+04  0.00000000000E+00 0. -1.
         22    1    1    2    0    0 -0.62682047035E+03  0.13927041526E+04  0.57807022753E+03  0.16330015146E+04  0.00000000000E+00 0.  1.
<mgrwt>
<rscale>  0 0.39054711E+04</rscale>
<asrwt>0</asrwt>
<pdfrwt beam="1">  1        2 0.20976041E+00 0.39054711E+04</pdfrwt>
<pdfrwt beam="2">  1       -2 0.43026559E+00 0.39054711E+04</pdfrwt>
<totfact> 0.56589732E-02</totfact>
</mgrwt>
</event>
<event>
 6    1  0.1878398E-004  0.3175485E+04  0.7818608E-02  0.8195322E-01
          1   -1    0    0  501    0  0.00000000000E+00  0.00000000000E+00  0.14238161248E+04  0.14238161248E+04  0.00000000000E+00 0. -1.
         -1   -1    0    0    0  501 -0.00000000000E+00 -0.00000000000E+00 -0.17705418464E+04  0.17705418464E+04  0.00000000000E+00 0.  1.
         23    2    1    2    0    0  0.27054125266E+03  0.15198119638E+04 -0.54148798648E+03  0.16384166759E+04  0.90437766124E+02 0.  0.
         11    1    3    3    0    0  0.21744470177E+03  0.97663332416E+03 -0.34505081977E+03  0.10583737130E+04  0.00000000000E+00 0. -1.
        -11    1    3    3    0    0  0.53096550885E+02  0.54317863963E+03 -0.19643716670E+03  0.58004296283E+03  0.00000000000E+00 0.  1.
         22    1    1    2    0    0 -0.27054125266E+03 -0.15198119638E+04  0.19476226481E+03  0.15559412953E+04  0.00000000000E+00 0.  1.
<mgrwt>
<rscale>  0 0.31754849E+04</rscale>
<asrwt>0</asrwt>
<pdfrwt beam="1">  1        1 0.21904864E+00 0.31754849E+04</pdfrwt>
<pdfrwt beam="2">  1       -1 0.27239105E+00 0.31754849E+04</pdfrwt>
<totfact> 0.30899752E-01</totfact>
</mgrwt>
</event>
<event>
 6    1  0.1878398E-004  0.1619719E+04  0.7818608E-02  0.8808524E-01
         -2   -1    0    0    0  501 -0.00000000000E+00  0.00000000000E+00  0.96224331009E+03  0.96224331009E+03  0.00000000000E+00 0. -1.
          2   -1    0    0  501    0  0.00000000000E+00 -0.00000000000E+00 -0.68160798783E+03  0.68160798783E+03  0.00000000000E+00 0.  1.
         23    2    1    2    0    0 -0.14972658567E+03 -0.48624447701E+02  0.94438445857E+03  0.96168907137E+03  0.90562006620E+02 0.  0.
         13    1    3    3    0    0 -0.16126800495E+03 -0.46041579504E+02  0.91005301377E+03  0.92537759014E+03  0.00000000000E+00 0. -1.
        -13    1    3    3    0    0  0.11541419287E+02 -0.25828681971E+01  0.34331444804E+02  0.36311481237E+02  0.00000000000E+00 0.  1.
         22    1    1    2    0    0  0.14972658567E+03  0.48624447701E+02 -0.66374913631E+03  0.68216222654E+03  0.00000000000E+00 0.  1.
<mgrwt>
<rscale>  0 0.16197194E+04</rscale>
<asrwt>0</asrwt>
<pdfrwt beam="1">  1        2 0.10486277E+00 0.16197194E+04</pdfrwt>
<pdfrwt beam="2">  1       -2 0.14803743E+00 0.16197194E+04</pdfrwt>
<totfact> 0.12580775E+01</totfact>
</mgrwt>
</event>
<event>
 6    1  0.1878398E-004  0.2147217E+04  0.7818608E-02  0.8540724E-01
         -2   -1    0    0    0  501 -0.00000000000E+00  0.00000000000E+00  0.68939781135E+03  0.68939781135E+03  0.00000000000E+00 0.  1.
          2   -1    0    0  501    0  0.00000000000E+00 -0.00000000000E+00 -0.16719448117E+04  0.16719448117E+04  0.00000000000E+00 0. -1.
         23    2    1    2    0    0 -0.32011843854E+03 -0.72288997570E+03  0.30340107887E+03  0.85180355627E+03  0.92039948691E+02 0.  0.
         11    1    3    3    0    0 -0.11606410255E+03 -0.33378420931E+03  0.17322249348E+03  0.39355915251E+03  0.00000000000E+00 0.  1.
        -11    1    3    3    0    0 -0.20405433599E+03 -0.38910576639E+03  0.13017858539E+03  0.45824440375E+03  0.00000000000E+00 0. -1.
         22    1    1    2    0    0  0.32011843854E+03  0.72288997570E+03 -0.12859480792E+04  0.15095390667E+04  0.00000000000E+00 0. -1.
<mgrwt>
<rscale>  0 0.21472169E+04</rscale>
<asrwt>0</asrwt>
<pdfrwt beam="1">  1        2 0.25722228E+00 0.21472169E+04</pdfrwt>
<pdfrwt beam="2">  1       -2 0.10606120E+00 0.21472169E+04</pdfrwt>
<totfact> 0.66968581E+00</totfact>
</mgrwt>
</event>
<event>
 6    1  0.1878398E-004  0.3049492E+04  0.7818608E-02  0.8229738E-01
          1   -1    0    0  501    0  0.00000000000E+00  0.00000000000E+00  0.14191117454E+04  0.14191117454E+04  0.00000000000E+00 0.  1.
         -1   -1    0    0    0  501 -0.00000000000E+00 -0.00000000000E+00 -0.16382431389E+04  0.16382431389E+04  0.00000000000E+00 0. -1.
         23    2    1    2    0    0 -0.88853660928E+03 -0.33325744863E+03 -0.13045394856E+04  0.16155960420E+04  0.88144588056E+02 0.  0.
         13    1    3    3    0    0 -0.36725205405E+03 -0.97987064848E+02 -0.55818001217E+03  0.67530767955E+03  0.00000000000E+00 0.  1.
        -13    1    3    3    0    0 -0.52128455523E+03 -0.23527038378E+03 -0.74635947342E+03  0.94028836246E+03  0.00000000000E+00 0. -1.
         22    1    1    2    0    0  0.88853660928E+03  0.33325744863E+03  0.10854080920E+04  0.14417588423E+04  0.00000000000E+00 0.  1.
<mgrwt>
<rscale>  0 0.30494918E+04</rscale>
<asrwt>0</asrwt>
<pdfrwt beam="1">  1        1 0.21832488E+00 0.30494918E+04</pdfrwt>
<pdfrwt beam="2">  1       -1 0.25203741E+00 0.30494918E+04</pdfrwt>
<totfact> 0.42683497E-01</totfact>
</mgrwt>
</event>
<event>
 6    1  0.1878398E-004  0.2085508E+04  0.7818608E-02  0.8567654E-01
          2   -1    0    0  501    0  0.00000000000E+00  0.00000000000E+00  0.41043510640E+04  0.41043510640E+04  0.00000000000E+00 0.  1.
         -2   -1    0    0    0  501 -0.00000000000E+00 -0.00000000000E+00 -0.26492282608E+03  0.26492282608E+03  0.00000000000E+00 0. -1.
         23    2    1    2    0    0  0.55920546493E+03 -0.69206761793E+02  0.37567232127E+04  0.37997649357E+04  0.87999669618E+02 0.  0.
         13    1    3    3    0    0  0.85606044151E+02 -0.30204808538E+02  0.79422796531E+03  0.79939901560E+03  0.00000000000E+00 0. -1.
        -13    1    3    3    0    0  0.47359942078E+03 -0.39001953254E+02  0.29624952474E+04  0.30003659201E+04  0.00000000000E+00 0.  1.
         22    1    1    2    0    0 -0.55920546493E+03  0.69206761793E+02  0.82705025185E+02  0.56950895434E+03  0.00000000000E+00 0. -1.
<mgrwt>
<rscale>  0 0.20855084E+04</rscale>
<asrwt>0</asrwt>
<pdfrwt beam="1">  1        2 0.63143858E+00 0.20855084E+04</pdfrwt>
<pdfrwt beam="2">  1       -2 0.40757361E-01 0.20855084E+04</pdfrwt>
<totfact> 0.14909158E+00</totfact>
</mgrwt>
</event>
<event>
 6    1  0.1878398E-004  0.1296312E+04  0.7818608E-02  0.9032495E-01
         -2   -1    0    0    0  501 -0.00000000000E+00  0.00000000000E+00  0.21370382983E+03  0.21370382983E+03  0.00000000000E+00 0. -1.
          2   -1    0    0  501    0  0.00000000000E+00 -0.00000000000E+00 -0.19658337435E+04  0.19658337435E+04  0.00000000000E+00 0.  1.
         23    2    1    2    0    0  0.79426238023E+02 -0.36186257423E+03  0.76587956253E+01  0.38117460906E+03  0.89344140967E+02 0.  0.
         11    1    3    3    0    0 -0.11687674869E+02 -0.12522502432E+03 -0.14664284160E+02  0.12662128450E+03  0.00000000000E+00 0.  1.
        -11    1    3    3    0    0  0.91113912892E+02 -0.23663754992E+03  0.22323079785E+02  0.25455332456E+03  0.00000000000E+00 0. -1.
         22    1    1    2    0    0 -0.79426238023E+02  0.36186257423E+03 -0.17597887093E+04  0.17983629643E+04  0.00000000000E+00 0.  1.
<mgrwt>
<rscale>  0 0.12963120E+04</rscale>
<asrwt>0</asrwt>
<pdfrwt beam="1">  1        2 0.30243597E+00 0.12963120E+04</pdfrwt>
<pdfrwt beam="2">  1       -2 0.32877511E-01 0.12963120E+04</pdfrwt>
<totfact> 0.59108260E+01</totfact>
</mgrwt>
</event>
<event>
 6    1  0.1878398E-004  0.3335327E+04  0.7818608E-02  0.8153964E-01
         -2   -1    0    0    0  501 -0.00000000000E+00  0.00000000000E+00  0.16850848905E+04  0.16850848905E+04  0.00000000000E+00 0. -1.
          2   -1    0    0  501    0  0.00000000000E+00 -0.00000000000E+00 -0.16504222841E+04  0.16504222841E+04  0.00000000000E+00 0.  1.
         23    2    1    2    0    0 -0.66980602079E+03 -0.13646662028E+04  0.69999030309E+03  0.16761052057E+04  0.91587584575E+02 0.  0.
         13    1    3    3    0    0 -0.48627646708E+03 -0.10524517310E+04  0.50225429207E+03  0.12634788572E+04  0.00000000000E+00 0. -1.
        -13    1    3    3    0    0 -0.18352955371E+03 -0.31221447177E+03  0.19773601102E+03  0.41262634855E+03  0.00000000000E+00 0.  1.
         22    1    1    2    0    0  0.66980602079E+03  0.13646662028E+04 -0.66532769671E+03  0.16594019689E+04  0.00000000000E+00 0. -1.
<mgrwt>
<rscale>  0 0.33353271E+04</rscale>
<asrwt>0</asrwt>
<pdfrwt beam="1">  1        2 0.25391112E+00 0.33353271E+04</pdfrwt>
<pdfrwt beam="2">  1       -2 0.25924383E+00 0.33353271E+04</pdfrwt>
<totfact> 0.49082742E-01</totfact>
</mgrwt>
</event>
<event>
 6    1  0.1878398E-004  0.4925360E+04  0.7818608E-02  0.7840125E-01
          2   -1    0    0  501    0  0.00000000000E+00  0.00000000000E+00  0.23515343712E+04  0.23515343712E+04  0.00000000000E+00 0.  1.
         -2   -1    0    0    0  501 -0.00000000000E+00 -0.00000000000E+00 -0.25790788832E+04  0.25790788832E+04  0.00000000000E+00 0. -1.
         23    2    1    2    0    0 -0.59058807578E+03  0.32073437514E+03 -0.24846142986E+04  0.25756124399E+04  0.93842490822E+02 0.  0.
         11    1    3    3    0    0 -0.43323286084E+03  0.24946964807E+03 -0.19847061866E+04  0.20467008732E+04  0.00000000000E+00 0.  1.
        -11    1    3    3    0    0 -0.15735521494E+03  0.71264727074E+02 -0.49990811197E+03  0.52891156672E+03  0.00000000000E+00 0. -1.
         22    1    1    2    0    0  0.59058807578E+03 -0.32073437514E+03  0.22570697866E+04  0.23550008145E+04  0.00000000000E+00 0.  1.
<mgrwt>
<rscale>  0 0.49253599E+04</rscale>
<asrwt>0</asrwt>
<pdfrwt beam="1">  1        2 0.36177452E+00 0.49253599E+04</pdfrwt>
<pdfrwt beam="2">  1       -2 0.39678136E+00 0.49253599E+04</pdfrwt>
<totfact> 0.24191426E-02</totfact>
</mgrwt>
</event>
<event>
 6    1  0.1878398E-004  0.3095433E+04  0.7818608E-02  0.8216992E-01
         -1   -1    0    0    0  501 -0.00000000000E+00  0.00000000000E+00  0.90643608673E+03  0.90643608673E+03  0.00000000000E+00 0. -1.
          1   -1    0    0  501    0  0.00000000000E+00 -0.00000000000E+00 -0.26426864359E+04  0.26426864359E+04  0.00000000000E+00 0.  1.
         23    2    1    2    0    0 -0.50921658639E+03 -0.74686188030E+03 -0.23073735009E+04  0.24798770623E+04  0.93346510157E+02 0.  0.
         13    1    3    3    0    0 -0.30070236283E+03 -0.40563701221E+03 -0.14006837345E+04  0.14889184735E+04  0.00000000000E+00 0.  1.
        -13    1    3    3    0    0 -0.20851422356E+03 -0.34122486809E+03 -0.90668976649E+03  0.99095858879E+03  0.00000000000E+00 0. -1.
         22    1    1    2    0    0  0.50921658639E+03  0.74686188030E+03  0.57112315175E+03  0.10692454604E+04  0.00000000000E+00 0. -1.
<mgrwt>
<rscale>  0 0.30954330E+04</rscale>
<asrwt>0</asrwt>
<pdfrwt beam="1">  1        1 0.40656714E+00 0.30954330E+04</pdfrwt>
<pdfrwt beam="2">  1       -1 0.13945171E+00 0.30954330E+04</pdfrwt>
<totfact> 0.38482193E-01</totfact>
</mgrwt>
</event>
<event>
 6    1  0.1878398E-004  0.3015689E+04  0.7818608E-02  0.8239265E-01
          2   -1    0    0  501    0  0.00000000000E+00  0.00000000000E+00  0.36373678944E+04  0.36373678944E+04  0.00000000000E+00 0.  1.
         -2   -1    0    0    0  501 -0.00000000000E+00 -0.00000000000E+00 -0.62506585504E+03  0.62506585504E+03  0.00000000000E+00 0. -1.
         23    2    1    2    0    0  0.13270591231E+04 -0.68960157598E+03  0.17630344326E+04  0.23137660499E+04  0.92664304949E+02 0.  0.
         13    1    3    3    0    0  0.70651016638E+03 -0.31712230878E+03  0.93172795243E+03  0.12115445313E+04  0.00000000000E+00 0. -1.
        -13    1    3    3    0    0  0.62054895672E+03 -0.37247926720E+03  0.83130648018E+03  0.11022215187E+04  0.00000000000E+00 0.  1.
         22    1    1    2    0    0 -0.13270591231E+04  0.68960157598E+03  0.12492676067E+04  0.19486676995E+04  0.00000000000E+00 0. -1.
<mgrwt>
<rscale>  0 0.30156886E+04</rscale>
<asrwt>0</asrwt>
<pdfrwt beam="1">  1        2 0.55959505E+00 0.30156886E+04</pdfrwt>
<pdfrwt beam="2">  1       -2 0.96163980E-01 0.30156886E+04</pdfrwt>
<totfact> 0.50197080E-01</totfact>
</mgrwt>
</event>
<event>
 6    1  0.1878398E-004  0.1413059E+04  0.7818608E-02  0.8944420E-01
          2   -1    0    0  501    0  0.00000000000E+00  0.00000000000E+00  0.69143140347E+03  0.69143140347E+03  0.00000000000E+00 0.  1.
         -2   -1    0    0    0  501 -0.00000000000E+00 -0.00000000000E+00 -0.72195738922E+03  0.72195738922E+03  0.00000000000E+00 0. -1.
         23    2    1    2    0    0 -0.57432335981E+03  0.24423286155E+03  0.30975128206E+03  0.70255433145E+03  0.90220394695E+02 0.  0.
         13    1    3    3    0    0 -0.98857661211E+02  0.19376088348E+02  0.22311529466E+02  0.10317981550E+03  0.00000000000E+00 0.  1.
        -13    1    3    3    0    0 -0.47546569860E+03  0.22485677320E+03  0.28743975259E+03  0.59937451595E+03  0.00000000000E+00 0. -1.
         22    1    1    2    0    0  0.57432335981E+03 -0.24423286155E+03 -0.34027726781E+03  0.71083446123E+03  0.00000000000E+00 0. -1.
<mgrwt>
<rscale>  0 0.14130591E+04</rscale>
<asrwt>0</asrwt>
<pdfrwt beam="1">  1        2 0.10637406E+00 0.14130591E+04</pdfrwt>
<pdfrwt beam="2">  1       -2 0.11107037E+00 0.14130591E+04</pdfrwt>
<totfact> 0.25971861E+01</totfact>
</mgrwt>
</event>
<event>
 6    1  0.1878398E-004  0.3238042E+04  0.7818608E-02  0.8178842E-01
         -2   -1    0    0    0  501 -0.00000000000E+00  0.00000000000E+00  0.19890001619E+04  0.19890001619E+04  0.00000000000E+00 0. -1.
          2   -1    0    0  501    0  0.00000000000E+00 -0.00000000000E+00 -0.13178626935E+04  0.13178626935E+04  0.00000000000E+00 0.  1.
         23    2    1    2    0    0 -0.70877080667E+03  0.53703926236E+03 -0.10442991212E+04  0.13746387694E+04  0.91125550478E+02 0.  0.
         11    1    3    3    0    0 -0.59847303495E+03  0.45497688416E+03 -0.82824423292E+03  0.11185537305E+04  0.00000000000E+00 0.  1.
        -11    1    3    3    0    0 -0.11029777172E+03  0.82062378200E+02 -0.21605488833E+03  0.25608503887E+03  0.00000000000E+00 0. -1.
         22    1    1    2    0    0  0.70877080667E+03 -0.53703926236E+03  0.17154365896E+04  0.19322240860E+04  0.00000000000E+00 0. -1.
<mgrwt>
<rscale>  0 0.32380421E+04</rscale>
<asrwt>0</asrwt>
<pdfrwt beam="1">  1        2 0.20274811E+00 0.32380421E+04</pdfrwt>
<pdfrwt beam="2">  1       -2 0.30600003E+00 0.32380421E+04</pdfrwt>
<totfact> 0.39557972E-01</totfact>
</mgrwt>
</event>
<event>
 6    1  0.1878398E-004  0.2904746E+04  0.7818608E-02  0.8271467E-01
          2   -1    0    0  501    0  0.00000000000E+00  0.00000000000E+00  0.12113626184E+04  0.12113626184E+04  0.00000000000E+00 0.  1.
         -2   -1    0    0    0  501 -0.00000000000E+00 -0.00000000000E+00 -0.17413343819E+04  0.17413343819E+04  0.00000000000E+00 0. -1.
         23    2    1    2    0    0 -0.42124740288E+03 -0.13860175159E+04 -0.18211269922E+03  0.14628984040E+04  0.91721188729E+02 0.  0.
         11    1    3    3    0    0 -0.12848406185E+02 -0.98829869341E+02 -0.29167958071E+02  0.10384216096E+03  0.00000000000E+00 0.  1.
        -11    1    3    3    0    0 -0.40839899670E+03 -0.12871876465E+04 -0.15294474115E+03  0.13590562431E+04  0.00000000000E+00 0. -1.
         22    1    1    2    0    0  0.42124740288E+03  0.13860175159E+04 -0.34785906433E+03  0.14897985963E+04  0.00000000000E+00 0.  1.
<mgrwt>
<rscale>  0 0.29047460E+04</rscale>
<asrwt>0</asrwt>
<pdfrwt beam="1">  1        2 0.18636348E+00 0.29047460E+04</pdfrwt>
<pdfrwt beam="2">  1       -2 0.26789760E+00 0.29047460E+04</pdfrwt>
<totfact> 0.80309079E-01</totfact>
</mgrwt>
</event>
<event>
 6    1  0.1878398E-004  0.2558715E+04  0.7818608E-02  0.8382361E-01
          1   -1    0    0  501    0  0.00000000000E+00  0.00000000000E+00  0.24094077762E+04  0.24094077762E+04  0.00000000000E+00 0.  1.
         -1   -1    0    0    0  501 -0.00000000000E+00 -0.00000000000E+00 -0.67931870406E+03  0.67931870406E+03  0.00000000000E+00 0. -1.
         23    2    1    2    0    0 -0.11098471312E+03  0.50667045262E+03 -0.54319903580E+03  0.75701651205E+03  0.94743088988E+02 0.  0.
         13    1    3    3    0    0 -0.95848229567E+02  0.25880884213E+03 -0.24580822291E+03  0.36958163148E+03  0.00000000000E+00 0. -1.
        -13    1    3    3    0    0 -0.15136483556E+02  0.24786161049E+03 -0.29739081289E+03  0.38743488057E+03  0.00000000000E+00 0.  1.
         22    1    1    2    0    0  0.11098471312E+03 -0.50667045262E+03  0.22732881079E+04  0.23317099682E+04  0.00000000000E+00 0.  1.
<mgrwt>
<rscale>  0 0.25587151E+04</rscale>
<asrwt>0</asrwt>
<pdfrwt beam="1">  1        1 0.37067812E+00 0.25587151E+04</pdfrwt>
<pdfrwt beam="2">  1       -1 0.10451057E+00 0.25587151E+04</pdfrwt>
<totfact> 0.11902697E+00</totfact>
</mgrwt>
</event>
<event>
 6    1  0.1878398E-004  0.3552789E+04  0.7818608E-02  0.8101392E-01
          2   -1    0    0  501    0  0.00000000000E+00  0.00000000000E+00  0.16940213257E+04  0.16940213257E+04  0.00000000000E+00 0.  1.
         -2   -1    0    0    0  501 -0.00000000000E+00 -0.00000000000E+00 -0.18627729441E+04  0.18627729441E+04  0.00000000000E+00 0. -1.
         23    2    1    2    0    0 -0.20064463006E+02  0.14585827379E+04  0.92840076908E+03  0.17315245507E+04  0.91559246089E+02 0.  0.
         13    1    3    3    0    0 -0.53909784972E+02  0.66126391620E+03  0.41154343827E+03  0.78073313838E+03  0.00000000000E+00 0. -1.
        -13    1    3    3    0    0  0.33845321966E+02  0.79731882172E+03  0.51685733081E+03  0.95079141230E+03  0.00000000000E+00 0.  1.
         22    1    1    2    0    0  0.20064463006E+02 -0.14585827379E+04 -0.10971523875E+04  0.18252697191E+04  0.00000000000E+00 0. -1.
<mgrwt>
<rscale>  0 0.35527888E+04</rscale>
<asrwt>0</asrwt>
<pdfrwt beam="1">  1        2 0.26061867E+00 0.35527888E+04</pdfrwt>
<pdfrwt beam="2">  1       -2 0.28658045E+00 0.35527888E+04</pdfrwt>
<totfact> 0.31041872E-01</totfact>
</mgrwt>
</event>
<event>
 6    1  0.1878398E-004  0.2748364E+04  0.7818608E-02  0.8319481E-01
         -1   -1    0    0    0  501 -0.00000000000E+00  0.00000000000E+00  0.19268350882E+04  0.19268350882E+04  0.00000000000E+00 0. -1.
          1   -1    0    0  501    0  0.00000000000E+00 -0.00000000000E+00 -0.98004071241E+03  0.98004071241E+03  0.00000000000E+00 0.  1.
         23    2    1    2    0    0  0.12815147940E+04  0.37026544468E+03  0.81631427654E+03  0.15665766836E+04  0.91743341821E+02 0.  0.
         11    1    3    3    0    0  0.11771021234E+04  0.31306094689E+03  0.74498967645E+03  0.14277906651E+04  0.00000000000E+00 0. -1.
        -11    1    3    3    0    0  0.10441267058E+03  0.57204497791E+02  0.71324600095E+02  0.13878601847E+03  0.00000000000E+00 0.  1.
         22    1    1    2    0    0 -0.12815147940E+04 -0.37026544468E+03  0.13048009923E+03  0.13402991170E+04  0.00000000000E+00 0.  1.
<mgrwt>
<rscale>  0 0.27483645E+04</rscale>
<asrwt>0</asrwt>
<pdfrwt beam="1">  1        1 0.15077549E+00 0.27483645E+04</pdfrwt>
<pdfrwt beam="2">  1       -1 0.29643617E+00 0.27483645E+04</pdfrwt>
<totfact> 0.47509671E-01</totfact>
</mgrwt>
</event>
<event>
 6    1  0.1878398E-004  0.2352267E+04  0.7818608E-02  0.8457593E-01
         -2   -1    0    0    0  501 -0.00000000000E+00  0.00000000000E+00  0.10765502575E+04  0.10765502575E+04  0.00000000000E+00 0. -1.
          2   -1    0    0  501    0  0.00000000000E+00 -0.00000000000E+00 -0.12849283454E+04  0.12849283454E+04  0.00000000000E+00 0.  1.
         23    2    1    2    0    0 -0.60524040454E+03  0.34427311787E+03 -0.10538004188E+04  0.12662257350E+04  0.89400012580E+02 0.  0.
         13    1    3    3    0    0 -0.25535038411E+03  0.15934051251E+03 -0.37953582305E+03  0.48439721157E+03  0.00000000000E+00 0. -1.
        -13    1    3    3    0    0 -0.34989002043E+03  0.18493260536E+03 -0.67426459576E+03  0.78182852341E+03  0.00000000000E+00 0.  1.
         22    1    1    2    0    0  0.60524040454E+03 -0.34427311787E+03  0.84542233094E+03  0.10952528679E+04  0.00000000000E+00 0. -1.
<mgrwt>
<rscale>  0 0.23522669E+04</rscale>
<asrwt>0</asrwt>
<pdfrwt beam="1">  1        2 0.19768128E+00 0.23522669E+04</pdfrwt>
<pdfrwt beam="2">  1       -2 0.16562312E+00 0.23522669E+04</pdfrwt>
<totfact> 0.34898084E+00</totfact>
</mgrwt>
</event>
<event>
 6    1  0.1878398E-004  0.3132644E+04  0.7818608E-02  0.8206836E-01
         -1   -1    0    0    0  501 -0.00000000000E+00  0.00000000000E+00  0.67009081252E+03  0.67009081252E+03  0.00000000000E+00 0.  1.
          1   -1    0    0  501    0  0.00000000000E+00 -0.00000000000E+00 -0.36612408379E+04  0.36612408379E+04  0.00000000000E+00 0. -1.
         23    2    1    2    0    0 -0.27992560161E+03 -0.11125952396E+04 -0.25665490451E+02  0.11516579193E+04  0.97111976886E+02 0.  0.
         13    1    3    3    0    0 -0.19074385445E+03 -0.72367064493E+03  0.28793654790E+02  0.74894024788E+03  0.00000000000E+00 0. -1.
        -13    1    3    3    0    0 -0.89181747164E+02 -0.38892459466E+03 -0.54459145241E+02  0.40271767140E+03  0.00000000000E+00 0.  1.
         22    1    1    2    0    0  0.27992560161E+03  0.11125952396E+04 -0.29654845349E+04  0.31796737312E+04  0.00000000000E+00 0. -1.
<mgrwt>
<rscale>  0 0.31326435E+04</rscale>
<asrwt>0</asrwt>
<pdfrwt beam="1">  1        1 0.56326784E+00 0.31326435E+04</pdfrwt>
<pdfrwt beam="2">  1       -1 0.10309089E+00 0.31326435E+04</pdfrwt>
<totfact> 0.13858190E-01</totfact>
</mgrwt>
</event>
<event>
 6    1  0.1878398E-004  0.1814749E+04  0.7818608E-02  0.8698495E-01
          2   -1    0    0  501    0  0.00000000000E+00  0.00000000000E+00  0.65030429030E+03  0.65030429030E+03  0.00000000000E+00 0.  1.
         -2   -1    0    0    0  501 -0.00000000000E+00 -0.00000000000E+00 -0.12660660347E+04  0.12660660347E+04  0.00000000000E+00 0. -1.
         23    2    1    2    0    0  0.56785544174E+03 -0.64093823522E+03  0.66944520295E+00  0.86126415233E+03  0.92270622879E+02 0.  0.
         13    1    3    3    0    0  0.27422020897E+03 -0.35039286536E+03 -0.36943758443E+02  0.44647141498E+03  0.00000000000E+00 0.  1.
        -13    1    3    3    0    0  0.29363523277E+03 -0.29054536987E+03  0.37613203646E+02  0.41479273736E+03  0.00000000000E+00 0. -1.
         22    1    1    2    0    0 -0.56785544174E+03  0.64093823522E+03 -0.61643118963E+03  0.10551061727E+04  0.00000000000E+00 0. -1.
<mgrwt>
<rscale>  0 0.18147487E+04</rscale>
<asrwt>0</asrwt>
<pdfrwt beam="1">  1        2 0.10004682E+00 0.18147487E+04</pdfrwt>
<pdfrwt beam="2">  1       -2 0.19477939E+00 0.18147487E+04</pdfrwt>
<totfact> 0.60970658E+00</totfact>
</mgrwt>
</event>
<event>
 6    1  0.1878398E-004  0.3982664E+04  0.7818608E-02  0.8008053E-01
          1   -1    0    0  501    0  0.00000000000E+00  0.00000000000E+00  0.18877034795E+04  0.18877034795E+04  0.00000000000E+00 0.  1.
         -1   -1    0    0    0  501 -0.00000000000E+00 -0.00000000000E+00 -0.21006496661E+04  0.21006496661E+04  0.00000000000E+00 0. -1.
         23    2    1    2    0    0  0.13730701339E+04  0.35256268330E+03  0.12925702055E+04  0.19204552649E+04  0.88253327960E+02 0.  0.
         13    1    3    3    0    0  0.14245222291E+03  0.32036445911E+02  0.17094494707E+03  0.22481357746E+03  0.00000000000E+00 0.  1.
        -13    1    3    3    0    0  0.12306179110E+04  0.32052623739E+03  0.11216252584E+04  0.16956416874E+04  0.00000000000E+00 0. -1.
         22    1    1    2    0    0 -0.13730701339E+04 -0.35256268330E+03 -0.15055163921E+04  0.20678978808E+04  0.00000000000E+00 0. -1.
<mgrwt>
<rscale>  0 0.39826643E+04</rscale>
<asrwt>0</asrwt>
<pdfrwt beam="1">  1        1 0.29041592E+00 0.39826643E+04</pdfrwt>
<pdfrwt beam="2">  1       -1 0.32317687E+00 0.39826643E+04</pdfrwt>
<totfact> 0.64940989E-02</totfact>
</mgrwt>
</event>
<event>
 6    1  0.1878398E-004  0.9022126E+03  0.7818608E-02  0.9422820E-01
          1   -1    0    0  501    0  0.00000000000E+00  0.00000000000E+00  0.57487763870E+03  0.57487763870E+03  0.00000000000E+00 0.  1.
         -1   -1    0    0    0  501 -0.00000000000E+00 -0.00000000000E+00 -0.35398299299E+03  0.35398299299E+03  0.00000000000E+00 0. -1.
         23    2    1    2    0    0 -0.10439783909E+02  0.32372493140E+03  0.42755610915E+03  0.54465264014E+03  0.94527517896E+02 0.  0.
         13    1    3    3    0    0  0.39030397657E+02  0.14057394561E+03  0.15831404791E+03  0.21528526167E+03  0.00000000000E+00 0.  1.
        -13    1    3    3    0    0 -0.49470181566E+02  0.18315098580E+03  0.26924206123E+03  0.32936737847E+03  0.00000000000E+00 0. -1.
         22    1    1    2    0    0  0.10439783909E+02 -0.32372493140E+03 -0.20666146343E+03  0.38420799155E+03  0.00000000000E+00 0. -1.
<mgrwt>
<rscale>  0 0.90221263E+03</rscale>
<asrwt>0</asrwt>
<pdfrwt beam="1">  1        1 0.88442714E-01 0.90221263E+03</pdfrwt>
<pdfrwt beam="2">  1       -1 0.54458922E-01 0.90221263E+03</pdfrwt>
<totfact> 0.12500887E+02</totfact>
</mgrwt>
</event>
<event>
 6    1  0.1878398E-004  0.1213490E+04  0.7818608E-02  0.9101130E-01
          2   -1    0    0  501    0  0.00000000000E+00  0.00000000000E+00  0.75260897876E+03  0.75260897876E+03  0.00000000000E+00 0.  1.
         -2   -1    0    0    0  501 -0.00000000000E+00 -0.00000000000E+00 -0.48915126721E+03  0.48915126721E+03  0.00000000000E+00 0. -1.
         23    2    1    2    0    0 -0.21492261364E+03  0.51638775369E+03 -0.99268661479E+02  0.57511306515E+03  0.89736996467E+02 0.  0.
         11    1    3    3    0    0 -0.11036225921E+03  0.37312490565E+03 -0.70152119280E+02  0.39537746941E+03  0.00000000000E+00 0. -1.
        -11    1    3    3    0    0 -0.10456035442E+03  0.14326284804E+03 -0.29116542199E+02  0.17973559574E+03  0.00000000000E+00 0.  1.
         22    1    1    2    0    0  0.21492261364E+03 -0.51638775369E+03  0.36272637302E+03  0.66664718082E+03  0.00000000000E+00 0.  1.
<mgrwt>
<rscale>  0 0.12134902E+04</rscale>
<asrwt>0</asrwt>
<pdfrwt beam="1">  1        2 0.11578600E+00 0.12134902E+04</pdfrwt>
<pdfrwt beam="2">  1       -2 0.75254041E-01 0.12134902E+04</pdfrwt>
<totfact> 0.58357650E+01</totfact>
</mgrwt>
</event>
<event>
 6    1  0.1878398E-004  0.4601202E+04  0.7818608E-02  0.7893155E-01
         -1   -1    0    0    0  501 -0.00000000000E+00  0.00000000000E+00  0.30633190306E+04  0.30633190306E+04  0.00000000000E+00 0. -1.
          1   -1    0    0  501    0  0.00000000000E+00 -0.00000000000E+00 -0.17277880291E+04  0.17277880291E+04  0.00000000000E+00 0.  1.
         23    2    1    2    0    0  0.12940407928E+04  0.17786643292E+04 -0.30918290950E+02  0.22016337468E+04  0.89704208174E+02 0.  0.
         11    1    3    3    0    0  0.71473932637E+03  0.10256219820E+04 -0.54011611994E+02  0.12512673610E+04  0.00000000000E+00 0. -1.
        -11    1    3    3    0    0  0.57930146641E+03  0.75304234723E+03  0.23093321045E+02  0.95036638576E+03  0.00000000000E+00 0.  1.
         22    1    1    2    0    0 -0.12940407928E+04 -0.17786643292E+04  0.13664492925E+04  0.25894733129E+04  0.00000000000E+00 0. -1.
<mgrwt>
<rscale>  0 0.46012024E+04</rscale>
<asrwt>0</asrwt>
<pdfrwt beam="1">  1        1 0.26581354E+00 0.46012024E+04</pdfrwt>
<pdfrwt beam="2">  1       -1 0.47127985E+00 0.46012024E+04</pdfrwt>
<totfact> 0.78824992E-03</totfact>
</mgrwt>
</event>
<event>
 6    1  0.1878398E-004  0.2611038E+04  0.7818608E-02  0.8364461E-01
          1   -1    0    0  501    0  0.00000000000E+00  0.00000000000E+00  0.26298846878E+04  0.26298846878E+04  0.00000000000E+00 0. -1.
         -1   -1    0    0    0  501 -0.00000000000E+00 -0.00000000000E+00 -0.64808161024E+03  0.64808161024E+03  0.00000000000E+00 0.  1.
         23    2    1    2    0    0 -0.24296365596E+03 -0.10555496668E+04  0.80801028791E+02  0.10900391451E+04  0.91869985715E+02 0.  0.
         11    1    3    3    0    0 -0.19229332261E+02 -0.19681824776E+03 -0.99924207458E+01  0.19800767244E+03  0.00000000000E+00 0.  1.
        -11    1    3    3    0    0 -0.22373432369E+03 -0.85873141907E+03  0.90793449537E+02  0.89203147264E+03  0.00000000000E+00 0. -1.
         22    1    1    2    0    0  0.24296365596E+03  0.10555496668E+04  0.19010020487E+04  0.21879271529E+04  0.00000000000E+00 0. -1.
<mgrwt>
<rscale>  0 0.26110380E+04</rscale>
<asrwt>0</asrwt>
<pdfrwt beam="1">  1        1 0.40459764E+00 0.26110380E+04</pdfrwt>
<pdfrwt beam="2">  1       -1 0.99704865E-01 0.26110380E+04</pdfrwt>
<totfact> 0.92799573E-01</totfact>
</mgrwt>
</event>
<event>
 6    1  0.1878398E-004  0.1922715E+04  0.7818608E-02  0.8643632E-01
         -2   -1    0    0    0  501 -0.00000000000E+00  0.00000000000E+00  0.72691458880E+03  0.72691458880E+03  0.00000000000E+00 0. -1.
          2   -1    0    0  501    0  0.00000000000E+00 -0.00000000000E+00 -0.12714122894E+04  0.12714122894E+04  0.00000000000E+00 0.  1.
         23    2    1    2    0    0  0.62520158103E+03  0.61196606844E+02 -0.10261544826E+04  0.12067365186E+04  0.92725194191E+02 0.  0.
         13    1    3    3    0    0  0.51204306837E+03  0.85048884981E+02 -0.82473634229E+03  0.97448009266E+03  0.00000000000E+00 0.  1.
        -13    1    3    3    0    0  0.11315851266E+03 -0.23852278137E+02 -0.20141814031E+03  0.23225642597E+03  0.00000000000E+00 0. -1.
         22    1    1    2    0    0 -0.62520158103E+03 -0.61196606844E+02  0.48165678204E+03  0.79159035953E+03  0.00000000000E+00 0.  1.
<mgrwt>
<rscale>  0 0.19227149E+04</rscale>
<asrwt>0</asrwt>
<pdfrwt beam="1">  1        2 0.19560189E+00 0.19227149E+04</pdfrwt>
<pdfrwt beam="2">  1       -2 0.11183301E+00 0.19227149E+04</pdfrwt>
<totfact> 0.10139931E+01</totfact>
</mgrwt>
</event>
<event>
 6    1  0.1878398E-004  0.3888967E+03  0.7818608E-02  0.1047694E+00
         -2   -1    0    0    0  501 -0.00000000000E+00  0.00000000000E+00  0.42393739325E+02  0.42393739325E+02  0.00000000000E+00 0. -1.
          2   -1    0    0  501    0  0.00000000000E+00 -0.00000000000E+00 -0.89188083930E+03  0.89188083930E+03  0.00000000000E+00 0.  1.
         23    2    1    2    0    0 -0.54989156563E+02  0.12655446382E+03 -0.73934329004E+03  0.75772005866E+03  0.92039921342E+02 0.  0.
         13    1    3    3    0    0 -0.53068796020E+02  0.13822647708E+03 -0.60490320800E+03  0.62276058572E+03  0.00000000000E+00 0. -1.
        -13    1    3    3    0    0 -0.19203605428E+01 -0.11672013261E+02 -0.13444008204E+03  0.13495947294E+03  0.00000000000E+00 0.  1.
         22    1    1    2    0    0  0.54989156563E+02 -0.12655446382E+03 -0.11014380994E+03  0.17655451997E+03  0.00000000000E+00 0. -1.
<mgrwt>
<rscale>  0 0.38889672E+03</rscale>
<asrwt>0</asrwt>
<pdfrwt beam="1">  1        2 0.13721244E+00 0.38889672E+03</pdfrwt>
<pdfrwt beam="2">  1       -2 0.65221138E-02 0.38889672E+03</pdfrwt>
<totfact> 0.40194853E+03</totfact>
</mgrwt>
</event>
<event>
 6    1  0.1878398E-004  0.1436738E+04  0.7818608E-02  0.8927647E-01
          2   -1    0    0  501    0  0.00000000000E+00  0.00000000000E+00  0.40214631482E+03  0.40214631482E+03  0.00000000000E+00 0.  1.
         -2   -1    0    0    0  501 -0.00000000000E+00 -0.00000000000E+00 -0.12832490526E+04  0.12832490526E+04  0.00000000000E+00 0. -1.
         23    2    1    2    0    0 -0.15222001474E+03  0.17584952011E+03 -0.12360267119E+04  0.12610546858E+04  0.91667340223E+02 0.  0.
         11    1    3    3    0    0 -0.13296166460E+03  0.16269415118E+03 -0.89923637019E+03  0.92345776327E+03  0.00000000000E+00 0. -1.
        -11    1    3    3    0    0 -0.19258350142E+02  0.13155368929E+02 -0.33679034175E+03  0.33759692249E+03  0.00000000000E+00 0.  1.
         22    1    1    2    0    0  0.15222001474E+03 -0.17584952011E+03  0.35492397420E+03  0.42434068161E+03  0.00000000000E+00 0.  1.
<mgrwt>
<rscale>  0 0.14367378E+04</rscale>
<asrwt>0</asrwt>
<pdfrwt beam="1">  1        2 0.61868663E-01 0.14367378E+04</pdfrwt>
<pdfrwt beam="2">  1       -2 0.19742293E+00 0.14367378E+04</pdfrwt>
<totfact> 0.10600572E+01</totfact>
</mgrwt>
</event>
<event>
 6    1  0.1878398E-004  0.1735400E+04  0.7818608E-02  0.8741428E-01
         -2   -1    0    0    0  501 -0.00000000000E+00  0.00000000000E+00  0.11134219487E+04  0.11134219487E+04  0.00000000000E+00 0. -1.
          2   -1    0    0  501    0  0.00000000000E+00 -0.00000000000E+00 -0.67620682420E+03  0.67620682420E+03  0.00000000000E+00 0.  1.
         23    2    1    2    0    0 -0.60946014294E+03 -0.17146918625E+03 -0.38902271188E+03  0.74870979914E+03  0.91566070677E+02 0.  0.
         13    1    3    3    0    0 -0.56745803125E+03 -0.18033475004E+03 -0.37443640694E+03  0.70337178088E+03  0.00000000000E+00 0. -1.
        -13    1    3    3    0    0 -0.42002111687E+02  0.88655637827E+01 -0.14586304948E+02  0.45338018256E+02  0.00000000000E+00 0.  1.
         22    1    1    2    0    0  0.60946014294E+03  0.17146918625E+03  0.82623783635E+03  0.10409189737E+04  0.00000000000E+00 0. -1.
<mgrwt>
<rscale>  0 0.17354003E+04</rscale>
<asrwt>0</asrwt>
<pdfrwt beam="1">  1        2 0.10403182E+00 0.17354003E+04</pdfrwt>
<pdfrwt beam="2">  1       -2 0.17129568E+00 0.17354003E+04</pdfrwt>
<totfact> 0.84681905E+00</totfact>
</mgrwt>
</event>
<event>
 6    1  0.1878398E-004  0.8432165E+03  0.7818608E-02  0.9499487E-01
         -2   -1    0    0    0  501 -0.00000000000E+00  0.00000000000E+00  0.58585612304E+02  0.58585612304E+02  0.00000000000E+00 0. -1.
          2   -1    0    0  501    0  0.00000000000E+00 -0.00000000000E+00 -0.30340811010E+04  0.30340811010E+04  0.00000000000E+00 0.  1.
         23    2    1    2    0    0  0.34038368240E+03  0.53971710219E+02 -0.23634303526E+04  0.23902439577E+04  0.93215605121E+02 0.  0.
         11    1    3    3    0    0  0.18649314356E+03  0.68648988402E+02 -0.14966842864E+04  0.15098199327E+04  0.00000000000E+00 0.  1.
        -11    1    3    3    0    0  0.15389053883E+03 -0.14677278182E+02 -0.86674606621E+03  0.88042402496E+03  0.00000000000E+00 0. -1.
         22    1    1    2    0    0 -0.34038368240E+03 -0.53971710219E+02 -0.61206513609E+03  0.70242275559E+03  0.00000000000E+00 0. -1.
<mgrwt>
<rscale>  0 0.84321646E+03</rscale>
<asrwt>0</asrwt>
<pdfrwt beam="1">  1        2 0.46678183E+00 0.84321646E+03</pdfrwt>
<pdfrwt beam="2">  1       -2 0.90131688E-02 0.84321646E+03</pdfrwt>
<totfact> 0.14072347E+02</totfact>
</mgrwt>
</event>
<event>
 6    1  0.1878398E-004  0.4135482E+04  0.7818608E-02  0.7977760E-01
         -2   -1    0    0    0  501 -0.00000000000E+00  0.00000000000E+00  0.13236534862E+04  0.13236534862E+04  0.00000000000E+00 0. -1.
          2   -1    0    0  501    0  0.00000000000E+00 -0.00000000000E+00 -0.32301148821E+04  0.32301148821E+04  0.00000000000E+00 0.  1.
         23    2    1    2    0    0 -0.62409294163E+03  0.13332751039E+04  0.64366997778E+03  0.16092336809E+04  0.90595237725E+02 0.  0.
         11    1    3    3    0    0 -0.11534399097E+03  0.30702882475E+03  0.11355955360E+03  0.34708314234E+03  0.00000000000E+00 0. -1.
        -11    1    3    3    0    0 -0.50874895066E+03  0.10262462791E+04  0.53011042418E+03  0.12621505386E+04  0.00000000000E+00 0.  1.
         22    1    1    2    0    0  0.62409294163E+03 -0.13332751039E+04 -0.25501313737E+04  0.29445346874E+04  0.00000000000E+00 0.  1.
<mgrwt>
<rscale>  0 0.41354820E+04</rscale>
<asrwt>0</asrwt>
<pdfrwt beam="1">  1        2 0.49694074E+00 0.41354820E+04</pdfrwt>
<pdfrwt beam="2">  1       -2 0.20363900E+00 0.41354820E+04</pdfrwt>
<totfact> 0.12160865E-01</totfact>
</mgrwt>
</event>
<event>
 6    1  0.2705633E-004  0.3211965E+04  0.7818608E-02  0.8185664E-01
          2   -1    0    0  501    0  0.00000000000E+00  0.00000000000E+00  0.23313810619E+04  0.23313810619E+04  0.00000000000E+00 0.  1.
         -2   -1    0    0    0  501 -0.00000000000E+00 -0.00000000000E+00 -0.11062883616E+04  0.11062883616E+04  0.00000000000E+00 0. -1.
         23    2    1    2    0    0 -0.14305140184E+04 -0.17325185927E+03  0.13688381974E+04  0.19895501841E+04  0.90583445466E+02 0.  0.
         13    1    3    3    0    0 -0.32750477742E+03 -0.33367836568E+02  0.26239572047E+03  0.42098017277E+03  0.00000000000E+00 0. -1.
        -13    1    3    3    0    0 -0.11030092410E+04 -0.13988402270E+03  0.11064424770E+04  0.15685700113E+04  0.00000000000E+00 0.  1.
         22    1    1    2    0    0  0.14305140184E+04  0.17325185927E+03 -0.14374549719E+03  0.14481192394E+04  0.00000000000E+00 0. -1.
<mgrwt>
<rscale>  0 0.32119650E+04</rscale>
<asrwt>0</asrwt>
<pdfrwt beam="1">  1        2 0.35867401E+00 0.32119650E+04</pdfrwt>
<pdfrwt beam="2">  1       -2 0.17019821E+00 0.32119650E+04</pdfrwt>
<totfact> 0.77754781E-01</totfact>
</mgrwt>
</event>
<event>
 6    1  0.1878398E-004  0.2632021E+04  0.7818608E-02  0.8357405E-01
         -2   -1    0    0    0  501 -0.00000000000E+00  0.00000000000E+00  0.60995098781E+03  0.60995098781E+03  0.00000000000E+00 0.  1.
          2   -1    0    0  501    0  0.00000000000E+00 -0.00000000000E+00 -0.28393818826E+04  0.28393818826E+04  0.00000000000E+00 0. -1.
         23    2    1    2    0    0 -0.83248902250E+03 -0.98806222820E+03 -0.79865135112E+03  0.15215271120E+04  0.88858497930E+02 0.  0.
         11    1    3    3    0    0 -0.55804938188E+03 -0.72508601510E+03 -0.56537760389E+03  0.10755559850E+04  0.00000000000E+00 0. -1.
        -11    1    3    3    0    0 -0.27443964061E+03 -0.26297621310E+03 -0.23327374722E+03  0.44597112703E+03  0.00000000000E+00 0.  1.
         22    1    1    2    0    0  0.83248902250E+03  0.98806222820E+03 -0.14307795436E+04  0.19278057583E+04  0.00000000000E+00 0. -1.
<mgrwt>
<rscale>  0 0.26320211E+04</rscale>
<asrwt>0</asrwt>
<pdfrwt beam="1">  1        2 0.43682799E+00 0.26320211E+04</pdfrwt>
<pdfrwt beam="2">  1       -2 0.93838611E-01 0.26320211E+04</pdfrwt>
<totfact> 0.18514586E+00</totfact>
</mgrwt>
</event>
<event>
 6    1  0.1878398E-004  0.2119702E+04  0.7818608E-02  0.8552614E-01
         -1   -1    0    0    0  501 -0.00000000000E+00  0.00000000000E+00  0.11302043393E+04  0.11302043393E+04  0.00000000000E+00 0. -1.
          1   -1    0    0  501    0  0.00000000000E+00 -0.00000000000E+00 -0.99387705110E+03  0.99387705110E+03  0.00000000000E+00 0.  1.
         23    2    1    2    0    0 -0.78676191293E+03 -0.13811429362E+03  0.76291917589E+03  0.11088537019E+04  0.97164795745E+02 0.  0.
         11    1    3    3    0    0 -0.66901066452E+03 -0.87322757863E+02  0.61306176748E+03  0.91161684058E+03  0.00000000000E+00 0. -1.
        -11    1    3    3    0    0 -0.11775124840E+03 -0.50791535760E+02  0.14985740841E+03  0.19723686131E+03  0.00000000000E+00 0.  1.
         22    1    1    2    0    0  0.78676191293E+03  0.13811429362E+03 -0.62659188771E+03  0.10152276885E+04  0.00000000000E+00 0.  1.
<mgrwt>
<rscale>  0 0.21197020E+04</rscale>
<asrwt>0</asrwt>
<pdfrwt beam="1">  1        1 0.15290416E+00 0.21197020E+04</pdfrwt>
<pdfrwt beam="2">  1       -1 0.17387759E+00 0.21197020E+04</pdfrwt>
<totfact> 0.32376078E+00</totfact>
</mgrwt>
</event>
<event>
 6    1  0.1878398E-004  0.3420354E+04  0.7818608E-02  0.8132929E-01
          1   -1    0    0  501    0  0.00000000000E+00  0.00000000000E+00  0.37391004357E+04  0.37391004357E+04  0.00000000000E+00 0.  1.
         -1   -1    0    0    0  501 -0.00000000000E+00 -0.00000000000E+00 -0.78219500390E+03  0.78219500390E+03  0.00000000000E+00 0. -1.
         23    2    1    2    0    0 -0.53660362884E+03  0.10534030467E+04 -0.15195887172E+03  0.11952409164E+04  0.88926465609E+02 0.  0.
         13    1    3    3    0    0 -0.33530080175E+03  0.68680763590E+03 -0.13893103643E+03  0.77680962229E+03  0.00000000000E+00 0. -1.
        -13    1    3    3    0    0 -0.20130282709E+03  0.36659541083E+03 -0.13027835286E+02  0.41843129415E+03  0.00000000000E+00 0.  1.
         22    1    1    2    0    0  0.53660362884E+03 -0.10534030467E+04  0.31088643035E+04  0.33260545232E+04  0.00000000000E+00 0.  1.
<mgrwt>
<rscale>  0 0.34203542E+04</rscale>
<asrwt>0</asrwt>
<pdfrwt beam="1">  1        1 0.57524621E+00 0.34203542E+04</pdfrwt>
<pdfrwt beam="2">  1       -1 0.12033770E+00 0.34203542E+04</pdfrwt>
<totfact> 0.80739933E-02</totfact>
</mgrwt>
</event>
<event>
 6    1  0.1878398E-004  0.1075785E+04  0.7818608E-02  0.9229120E-01
          1   -1    0    0  501    0  0.00000000000E+00  0.00000000000E+00  0.64434182774E+03  0.64434182774E+03  0.00000000000E+00 0.  1.
         -1   -1    0    0    0  501 -0.00000000000E+00 -0.00000000000E+00 -0.44902937491E+03  0.44902937491E+03  0.00000000000E+00 0. -1.
         23    2    1    2    0    0 -0.15928705862E+03  0.25429602271E+03 -0.35041036814E+03  0.47059336783E+03  0.92907790522E+02 0.  0.
         11    1    3    3    0    0 -0.10522431082E+03  0.22088334278E+03 -0.23724700470E+03  0.34080455974E+03  0.00000000000E+00 0. -1.
        -11    1    3    3    0    0 -0.54062747805E+02  0.33412679932E+02 -0.11316336344E+03  0.12978880809E+03  0.00000000000E+00 0.  1.
         22    1    1    2    0    0  0.15928705862E+03 -0.25429602271E+03  0.54572282097E+03  0.62277783482E+03  0.00000000000E+00 0.  1.
<mgrwt>
<rscale>  0 0.10757851E+04</rscale>
<asrwt>0</asrwt>
<pdfrwt beam="1">  1        1 0.99129512E-01 0.10757851E+04</pdfrwt>
<pdfrwt beam="2">  1       -1 0.69081442E-01 0.10757851E+04</pdfrwt>
<totfact> 0.65305914E+01</totfact>
</mgrwt>
</event>
<event>
 6    1  0.1878398E-004  0.2316001E+04  0.7818608E-02  0.8471639E-01
         -2   -1    0    0    0  501 -0.00000000000E+00  0.00000000000E+00  0.69642068106E+03  0.69642068106E+03  0.00000000000E+00 0. -1.
          2   -1    0    0  501    0  0.00000000000E+00 -0.00000000000E+00 -0.19255100684E+04  0.19255100684E+04  0.00000000000E+00 0.  1.
         23    2    1    2    0    0  0.52270577510E+03 -0.85047424942E+03 -0.12758902976E+04  0.16225719043E+04  0.91190772247E+02 0.  0.
         13    1    3    3    0    0  0.43804497067E+03 -0.69368277645E+03 -0.10994110617E+04  0.13717812775E+04  0.00000000000E+00 0. -1.
        -13    1    3    3    0    0  0.84660804431E+02 -0.15679147297E+03 -0.17647923583E+03  0.25079062678E+03  0.00000000000E+00 0.  1.
         22    1    1    2    0    0 -0.52270577510E+03  0.85047424942E+03  0.46800910210E+02  0.99935884518E+03  0.00000000000E+00 0. -1.
<mgrwt>
<rscale>  0 0.23160009E+04</rscale>
<asrwt>0</asrwt>
<pdfrwt beam="1">  1        2 0.29623231E+00 0.23160009E+04</pdfrwt>
<pdfrwt beam="2">  1       -2 0.10714165E+00 0.23160009E+04</pdfrwt>
<totfact> 0.46595700E+00</totfact>
</mgrwt>
</event>
<event>
 6    1  0.1878398E-004  0.3264946E+04  0.7818608E-02  0.8171873E-01
         -2   -1    0    0    0  501 -0.00000000000E+00  0.00000000000E+00  0.87369996061E+03  0.87369996061E+03  0.00000000000E+00 0. -1.
          2   -1    0    0  501    0  0.00000000000E+00 -0.00000000000E+00 -0.30502089792E+04  0.30502089792E+04  0.00000000000E+00 0.  1.
         23    2    1    2    0    0 -0.90511301325E+03 -0.13116656275E+04 -0.67088443161E+03  0.17315126065E+04  0.91398582552E+02 0.  0.
         13    1    3    3    0    0 -0.57861369153E+03 -0.90512618122E+03 -0.42972396827E+03  0.11570263164E+04  0.00000000000E+00 0. -1.
        -13    1    3    3    0    0 -0.32649932172E+03 -0.40653944629E+03 -0.24116046334E+03  0.57448629013E+03  0.00000000000E+00 0.  1.
         22    1    1    2    0    0  0.90511301325E+03  0.13116656275E+04 -0.15056245869E+04  0.21923963332E+04  0.00000000000E+00 0. -1.
<mgrwt>
<rscale>  0 0.32649456E+04</rscale>
<asrwt>0</asrwt>
<pdfrwt beam="1">  1        2 0.46926292E+00 0.32649456E+04</pdfrwt>
<pdfrwt beam="2">  1       -2 0.13441538E+00 0.32649456E+04</pdfrwt>
<totfact> 0.54045198E-01</totfact>
</mgrwt>
</event>
<event>
 6    1  0.1878398E-004  0.1320539E+04  0.7818608E-02  0.9013434E-01
         -2   -1    0    0    0  501 -0.00000000000E+00  0.00000000000E+00  0.27653374110E+03  0.27653374110E+03  0.00000000000E+00 0. -1.
          2   -1    0    0  501    0  0.00000000000E+00 -0.00000000000E+00 -0.15765016021E+04  0.15765016021E+04  0.00000000000E+00 0.  1.
         23    2    1    2    0    0  0.36781232899E+03  0.53896069001E+03 -0.76173869972E+03  0.10071895152E+04  0.91762400115E+02 0.  0.
         13    1    3    3    0    0  0.18384920043E+03  0.27995027316E+03 -0.32121792745E+03  0.46406210884E+03  0.00000000000E+00 0. -1.
        -13    1    3    3    0    0  0.18396312856E+03  0.25901041685E+03 -0.44052077226E+03  0.54312740633E+03  0.00000000000E+00 0.  1.
         22    1    1    2    0    0 -0.36781232899E+03 -0.53896069001E+03 -0.53822916124E+03  0.84584582800E+03  0.00000000000E+00 0. -1.
<mgrwt>
<rscale>  0 0.13205391E+04</rscale>
<asrwt>0</asrwt>
<pdfrwt beam="1">  1        2 0.24253871E+00 0.13205391E+04</pdfrwt>
<pdfrwt beam="2">  1       -2 0.42543653E-01 0.13205391E+04</pdfrwt>
<totfact> 0.58910364E+01</totfact>
</mgrwt>
</event>
<event>
 6    1  0.1878398E-004  0.1257141E+04  0.7818608E-02  0.9064261E-01
          2   -1    0    0  501    0  0.00000000000E+00  0.00000000000E+00  0.73431253450E+03  0.73431253450E+03  0.00000000000E+00 0.  1.
         -2   -1    0    0    0  501 -0.00000000000E+00 -0.00000000000E+00 -0.53805507876E+03  0.53805507876E+03  0.00000000000E+00 0. -1.
         23    2    1    2    0    0 -0.16107730301E+03 -0.16252774073E+03 -0.49042686515E+03  0.54856064962E+03  0.89661096371E+02 0.  0.
         13    1    3    3    0    0 -0.96464294771E+02 -0.10285610933E+03 -0.39185201167E+03  0.41645256446E+03  0.00000000000E+00 0.  1.
        -13    1    3    3    0    0 -0.64613008237E+02 -0.59671631400E+02 -0.98574853471E+02  0.13210808516E+03  0.00000000000E+00 0. -1.
         22    1    1    2    0    0  0.16107730301E+03  0.16252774073E+03  0.68668432089E+03  0.72380696364E+03  0.00000000000E+00 0.  1.
<mgrwt>
<rscale>  0 0.12571405E+04</rscale>
<asrwt>0</asrwt>
<pdfrwt beam="1">  1        2 0.11297116E+00 0.12571405E+04</pdfrwt>
<pdfrwt beam="2">  1       -2 0.82777705E-01 0.12571405E+04</pdfrwt>
<totfact> 0.48505034E+01</totfact>
</mgrwt>
</event>
<event>
 6    1  0.1878398E-004  0.3026195E+04  0.7818608E-02  0.8236290E-01
          1   -1    0    0  501    0  0.00000000000E+00  0.00000000000E+00  0.22596095372E+04  0.22596095372E+04  0.00000000000E+00 0.  1.
         -1   -1    0    0    0  501 -0.00000000000E+00 -0.00000000000E+00 -0.10132122012E+04  0.10132122012E+04  0.00000000000E+00 0. -1.
         23    2    1    2    0    0  0.11406321174E+04  0.82047338724E+03  0.12271340282E+04  0.18676209408E+04  0.89060929125E+02 0.  0.
         11    1    3    3    0    0  0.53203418460E+03  0.43738413630E+03  0.60479090457E+03  0.91659003623E+03  0.00000000000E+00 0. -1.
        -11    1    3    3    0    0  0.60859793283E+03  0.38308925095E+03  0.62234312361E+03  0.95103090462E+03  0.00000000000E+00 0.  1.
         22    1    1    2    0    0 -0.11406321174E+04 -0.82047338724E+03  0.19263307842E+02  0.14052007976E+04  0.00000000000E+00 0. -1.
<mgrwt>
<rscale>  0 0.30261949E+04</rscale>
<asrwt>0</asrwt>
<pdfrwt beam="1">  1        1 0.34763224E+00 0.30261949E+04</pdfrwt>
<pdfrwt beam="2">  1       -1 0.15587880E+00 0.30261949E+04</pdfrwt>
<totfact> 0.52911691E-01</totfact>
</mgrwt>
</event>
<event>
 6    1  0.1878398E-004  0.4584606E+04  0.7818608E-02  0.7895990E-01
          2   -1    0    0  501    0  0.00000000000E+00  0.00000000000E+00  0.18481477567E+04  0.18481477567E+04  0.00000000000E+00 0.  1.
         -2   -1    0    0    0  501 -0.00000000000E+00 -0.00000000000E+00 -0.28431994391E+04  0.28431994391E+04  0.00000000000E+00 0. -1.
         23    2    1    2    0    0 -0.84512352059E+03  0.17388451977E+04  0.76082507112E+03  0.20796581714E+04  0.91142385415E+02 0.  0.
         11    1    3    3    0    0 -0.59082278427E+03  0.13069007139E+04  0.56484450628E+03  0.15414637052E+04  0.00000000000E+00 0. -1.
        -11    1    3    3    0    0 -0.25430073632E+03  0.43194448386E+03  0.19598056484E+03  0.53819446618E+03  0.00000000000E+00 0.  1.
         22    1    1    2    0    0  0.84512352059E+03 -0.17388451977E+04 -0.17558767535E+04  0.26116890244E+04  0.00000000000E+00 0. -1.
<mgrwt>
<rscale>  0 0.45846058E+04</rscale>
<asrwt>0</asrwt>
<pdfrwt beam="1">  1        2 0.28433042E+00 0.45846058E+04</pdfrwt>
<pdfrwt beam="2">  1       -2 0.43741530E+00 0.45846058E+04</pdfrwt>
<totfact> 0.25702726E-02</totfact>
</mgrwt>
</event>
<event>
 6    1  0.1878398E-004  0.1079704E+04  0.7818608E-02  0.9225202E-01
          2   -1    0    0  501    0  0.00000000000E+00  0.00000000000E+00  0.15585390860E+03  0.15585390860E+03  0.00000000000E+00 0.  1.
         -2   -1    0    0    0  501 -0.00000000000E+00 -0.00000000000E+00 -0.18699581852E+04  0.18699581852E+04  0.00000000000E+00 0. -1.
         23    2    1    2    0    0  0.14451024820E+03 -0.31165339328E+03 -0.16351151541E+04  0.16733204899E+04  0.91590639500E+02 0.  0.
         13    1    3    3    0    0  0.14029661769E+03 -0.21783084991E+03 -0.11068588498E+04  0.11367805124E+04  0.00000000000E+00 0. -1.
        -13    1    3    3    0    0  0.42136305092E+01 -0.93822543373E+02 -0.52825630431E+03  0.53653997742E+03  0.00000000000E+00 0.  1.
         22    1    1    2    0    0 -0.14451024820E+03  0.31165339328E+03 -0.78989122508E+02  0.35249160395E+03  0.00000000000E+00 0.  1.
<mgrwt>
<rscale>  0 0.10797042E+04</rscale>
<asrwt>0</asrwt>
<pdfrwt beam="1">  1        2 0.23977526E-01 0.10797042E+04</pdfrwt>
<pdfrwt beam="2">  1       -2 0.28768586E+00 0.10797042E+04</pdfrwt>
<totfact> 0.87380144E+00</totfact>
</mgrwt>
</event>
<event>
 6    1  0.2282213E-004  0.3489082E+04  0.7818608E-02  0.8116382E-01
         -1   -1    0    0    0  501 -0.00000000000E+00  0.00000000000E+00  0.13781892260E+04  0.13781892260E+04  0.00000000000E+00 0. -1.
          1   -1    0    0  501    0  0.00000000000E+00 -0.00000000000E+00 -0.22082761770E+04  0.22082761770E+04  0.00000000000E+00 0.  1.
         23    2    1    2    0    0 -0.87310907642E+03  0.34249645721E+02  0.11351775732E+04  0.14357080602E+04  0.95587727966E+02 0.  0.
         11    1    3    3    0    0 -0.40685213410E+03  0.33738367530E+02  0.60260993654E+03  0.72787751173E+03  0.00000000000E+00 0.  1.
        -11    1    3    3    0    0 -0.46625694232E+03  0.51127819097E+00  0.53256763668E+03  0.70783054844E+03  0.00000000000E+00 0. -1.
         22    1    1    2    0    0  0.87310907642E+03 -0.34249645721E+02 -0.19652645243E+04  0.21507573429E+04  0.00000000000E+00 0.  1.
<mgrwt>
<rscale>  0 0.34890815E+04</rscale>
<asrwt>0</asrwt>
<pdfrwt beam="1">  1        1 0.33973479E+00 0.34890815E+04</pdfrwt>
<pdfrwt beam="2">  1       -1 0.21202911E+00 0.34890815E+04</pdfrwt>
<totfact> 0.21870796E-01</totfact>
</mgrwt>
</event>
<event>
 6    1  0.1878398E-004  0.2801920E+04  0.7818608E-02  0.8302673E-01
          2   -1    0    0  501    0  0.00000000000E+00  0.00000000000E+00  0.12558839003E+04  0.12558839003E+04  0.00000000000E+00 0.  1.
         -2   -1    0    0    0  501 -0.00000000000E+00 -0.00000000000E+00 -0.15627943430E+04  0.15627943430E+04  0.00000000000E+00 0. -1.
         23    2    1    2    0    0  0.83348723060E+03  0.41327029062E+03  0.89791257032E+03  0.12964785884E+04  0.95480099831E+02 0.  0.
         11    1    3    3    0    0  0.35977748302E+03  0.13311178035E+03  0.33619334645E+03  0.51008288499E+03  0.00000000000E+00 0.  1.
        -11    1    3    3    0    0  0.47370974758E+03  0.28015851027E+03  0.56171922387E+03  0.78639570338E+03  0.00000000000E+00 0. -1.
         22    1    1    2    0    0 -0.83348723060E+03 -0.41327029062E+03 -0.12048230130E+04  0.15221996549E+04  0.00000000000E+00 0.  1.
<mgrwt>
<rscale>  0 0.28019195E+04</rscale>
<asrwt>0</asrwt>
<pdfrwt beam="1">  1        2 0.19321291E+00 0.28019195E+04</pdfrwt>
<pdfrwt beam="2">  1       -2 0.24042990E+00 0.28019195E+04</pdfrwt>
<totfact> 0.11239252E+00</totfact>
</mgrwt>
</event>
<event>
 6    1  0.1878398E-004  0.2894296E+04  0.7818608E-02  0.8274577E-01
         -2   -1    0    0    0  501 -0.00000000000E+00  0.00000000000E+00  0.14280044279E+04  0.14280044279E+04  0.00000000000E+00 0. -1.
          2   -1    0    0  501    0  0.00000000000E+00 -0.00000000000E+00 -0.14665477529E+04  0.14665477529E+04  0.00000000000E+00 0.  1.
         23    2    1    2    0    0 -0.92160920980E+02 -0.10722233000E+04  0.94619263431E+03  0.14358331023E+04  0.90442002922E+02 0.  0.
         13    1    3    3    0    0 -0.72005951533E+02 -0.48350004653E+03  0.38503565857E+03  0.62226168966E+03  0.00000000000E+00 0. -1.
        -13    1    3    3    0    0 -0.20154969447E+02 -0.58872325351E+03  0.56115697574E+03  0.81357141263E+03  0.00000000000E+00 0.  1.
         22    1    1    2    0    0  0.92160920980E+02  0.10722233000E+04 -0.98473595930E+03  0.14587190785E+04  0.00000000000E+00 0.  1.
<mgrwt>
<rscale>  0 0.28942956E+04</rscale>
<asrwt>0</asrwt>
<pdfrwt beam="1">  1        2 0.22562273E+00 0.28942956E+04</pdfrwt>
<pdfrwt beam="2">  1       -2 0.21969299E+00 0.28942956E+04</pdfrwt>
<totfact> 0.11367712E+00</totfact>
</mgrwt>
</event>
<event>
 6    1  0.1878398E-004  0.1349675E+04  0.7818608E-02  0.8991074E-01
         -1   -1    0    0    0  501 -0.00000000000E+00  0.00000000000E+00  0.35495516235E+03  0.35495516235E+03  0.00000000000E+00 0.  1.
          1   -1    0    0  501    0  0.00000000000E+00 -0.00000000000E+00 -0.12829943015E+04  0.12829943015E+04  0.00000000000E+00 0. -1.
         23    2    1    2    0    0  0.52827238032E+03 -0.33717909895E+03 -0.17300469087E+03  0.65670613487E+03  0.92579003773E+02 0.  0.
         13    1    3    3    0    0  0.67365239961E+02 -0.63793934415E+02  0.25008355167E+01  0.92811614583E+02  0.00000000000E+00 0.  1.
        -13    1    3    3    0    0  0.46090714036E+03 -0.27338516453E+03 -0.17550552639E+03  0.56389452029E+03  0.00000000000E+00 0. -1.
         22    1    1    2    0    0 -0.52827238032E+03  0.33717909895E+03 -0.75503444824E+03  0.98124332895E+03  0.00000000000E+00 0. -1.
<mgrwt>
<rscale>  0 0.13496747E+04</rscale>
<asrwt>0</asrwt>
<pdfrwt beam="1">  1        1 0.19738374E+00 0.13496747E+04</pdfrwt>
<pdfrwt beam="2">  1       -1 0.54608487E-01 0.13496747E+04</pdfrwt>
<totfact> 0.30846569E+01</totfact>
</mgrwt>
</event>
<event>
 6    1  0.1878398E-004  0.3417077E+04  0.7818608E-02  0.8133728E-01
          2   -1    0    0  501    0  0.00000000000E+00  0.00000000000E+00  0.20183202884E+04  0.20183202884E+04  0.00000000000E+00 0.  1.
         -2   -1    0    0    0  501 -0.00000000000E+00 -0.00000000000E+00 -0.14463032995E+04  0.14463032995E+04  0.00000000000E+00 0. -1.
         23    2    1    2    0    0  0.52986746346E+03 -0.62914081259E+03  0.18029970656E+04  0.19841204166E+04  0.96735297867E+02 0.  0.
         11    1    3    3    0    0  0.38511148836E+03 -0.47300974392E+03  0.14296223248E+04  0.15543066196E+04  0.00000000000E+00 0. -1.
        -11    1    3    3    0    0  0.14475597509E+03 -0.15613106867E+03  0.37337474084E+03  0.42981379693E+03  0.00000000000E+00 0.  1.
         22    1    1    2    0    0 -0.52986746346E+03  0.62914081259E+03 -0.12309800767E+04  0.14805031713E+04  0.00000000000E+00 0. -1.
<mgrwt>
<rscale>  0 0.34170767E+04</rscale>
<asrwt>0</asrwt>
<pdfrwt beam="1">  1        2 0.31051081E+00 0.34170767E+04</pdfrwt>
<pdfrwt beam="2">  1       -2 0.22250820E+00 0.34170767E+04</pdfrwt>
<totfact> 0.51449381E-01</totfact>
</mgrwt>
</event>
<event>
 6    1  0.1878398E-004  0.5076043E+04  0.7818608E-02  0.7816883E-01
          2   -1    0    0  501    0  0.00000000000E+00  0.00000000000E+00  0.31195160273E+04  0.31195160273E+04  0.00000000000E+00 0. -1.
         -2   -1    0    0    0  501 -0.00000000000E+00 -0.00000000000E+00 -0.20649205524E+04  0.20649205524E+04  0.00000000000E+00 0.  1.
         23    2    1    2    0    0 -0.12844987827E+04 -0.18913398375E+04 -0.59616984675E+03  0.23644845143E+04  0.90912201524E+02 0.  0.
         13    1    3    3    0    0 -0.60155049182E+03 -0.85540958305E+03 -0.22932939759E+03  0.10705982074E+04  0.00000000000E+00 0. -1.
        -13    1    3    3    0    0 -0.68294829090E+03 -0.10359302545E+04 -0.36684044916E+03  0.12938863069E+04  0.00000000000E+00 0.  1.
         22    1    1    2    0    0  0.12844987827E+04  0.18913398375E+04  0.16507653217E+04  0.28199520654E+04  0.00000000000E+00 0. -1.
<mgrwt>
<rscale>  0 0.50760429E+04</rscale>
<asrwt>0</asrwt>
<pdfrwt beam="1">  1        2 0.47992555E+00 0.50760429E+04</pdfrwt>
<pdfrwt beam="2">  1       -2 0.31768008E+00 0.50760429E+04</pdfrwt>
<totfact> 0.26164774E-02</totfact>
</mgrwt>
</event>
<event>
 6    1  0.1878398E-004  0.1683805E+04  0.7818608E-02  0.8770655E-01
          2   -1    0    0  501    0  0.00000000000E+00  0.00000000000E+00  0.99890145325E+03  0.99890145325E+03  0.00000000000E+00 0.  1.
         -2   -1    0    0    0  501 -0.00000000000E+00 -0.00000000000E+00 -0.70957903957E+03  0.70957903957E+03  0.00000000000E+00 0. -1.
         23    2    1    2    0    0  0.31587816983E+02  0.79672745354E+03  0.41144452047E+03  0.90182924577E+03  0.90757752851E+02 0.  0.
         11    1    3    3    0    0 -0.32025372720E+02  0.30476237637E+03  0.15772494024E+03  0.34464893345E+03  0.00000000000E+00 0.  1.
        -11    1    3    3    0    0  0.63613189703E+02  0.49196507716E+03  0.25371958022E+03  0.55718031232E+03  0.00000000000E+00 0. -1.
         22    1    1    2    0    0 -0.31587816983E+02 -0.79672745354E+03 -0.12212210679E+03  0.80665124705E+03  0.00000000000E+00 0.  1.
<mgrwt>
<rscale>  0 0.16838047E+04</rscale>
<asrwt>0</asrwt>
<pdfrwt beam="1">  1        2 0.15367715E+00 0.16838047E+04</pdfrwt>
<pdfrwt beam="2">  1       -2 0.10916601E+00 0.16838047E+04</pdfrwt>
<totfact> 0.16089151E+01</totfact>
</mgrwt>
</event>
<event>
 6    1  0.1878398E-004  0.1867190E+04  0.7818608E-02  0.8671362E-01
         -2   -1    0    0    0  501 -0.00000000000E+00  0.00000000000E+00  0.48428088027E+03  0.48428088027E+03  0.00000000000E+00 0. -1.
          2   -1    0    0  501    0  0.00000000000E+00 -0.00000000000E+00 -0.17997821450E+04  0.17997821450E+04  0.00000000000E+00 0.  1.
         23    2    1    2    0    0 -0.72276075002E+03  0.55715879099E+03 -0.88706240416E+03  0.12759118077E+04  0.90896710994E+02 0.  0.
         11    1    3    3    0    0 -0.47185224553E+03  0.30904232247E+03 -0.53332578757E+03  0.77626547932E+03  0.00000000000E+00 0. -1.
        -11    1    3    3    0    0 -0.25090850449E+03  0.24811646852E+03 -0.35373661658E+03  0.49964632841E+03  0.00000000000E+00 0.  1.
         22    1    1    2    0    0  0.72276075002E+03 -0.55715879099E+03 -0.42843886056E+03  0.10081512175E+04  0.00000000000E+00 0.  1.
<mgrwt>
<rscale>  0 0.18671905E+04</rscale>
<asrwt>0</asrwt>
<pdfrwt beam="1">  1        2 0.27688956E+00 0.18671905E+04</pdfrwt>
<pdfrwt beam="2">  1       -2 0.74504752E-01 0.18671905E+04</pdfrwt>
<totfact> 0.13132177E+01</totfact>
</mgrwt>
</event>
<event>
 6    1  0.1878398E-004  0.4097486E+04  0.7818608E-02  0.7985164E-01
          1   -1    0    0  501    0  0.00000000000E+00  0.00000000000E+00  0.24644465796E+04  0.24644465796E+04  0.00000000000E+00 0.  1.
         -1   -1    0    0    0  501 -0.00000000000E+00 -0.00000000000E+00 -0.17031606053E+04  0.17031606053E+04  0.00000000000E+00 0. -1.
         23    2    1    2    0    0 -0.16207249196E+04  0.11367892501E+04  0.91322564432E+03  0.21821287219E+04  0.93089297579E+02 0.  0.
         13    1    3    3    0    0 -0.11777607341E+04  0.85592111064E+03  0.70742741918E+03  0.16186954154E+04  0.00000000000E+00 0.  1.
        -13    1    3    3    0    0 -0.44296418547E+03  0.28086813944E+03  0.20579822514E+03  0.56343330647E+03  0.00000000000E+00 0. -1.
         22    1    1    2    0    0  0.16207249196E+04 -0.11367892501E+04 -0.15193966996E+03  0.19854784631E+04  0.00000000000E+00 0. -1.
<mgrwt>
<rscale>  0 0.40974862E+04</rscale>
<asrwt>0</asrwt>
<pdfrwt beam="1">  1        1 0.37914563E+00 0.40974862E+04</pdfrwt>
<pdfrwt beam="2">  1       -1 0.26202471E+00 0.40974862E+04</pdfrwt>
<totfact> 0.64810025E-02</totfact>
</mgrwt>
</event>
<event>
 6    1  0.1878398E-004  0.5137234E+04  0.7818608E-02  0.7807679E-01
          2   -1    0    0  501    0  0.00000000000E+00  0.00000000000E+00  0.31076676497E+04  0.31076676497E+04  0.00000000000E+00 0.  1.
         -2   -1    0    0    0  501 -0.00000000000E+00 -0.00000000000E+00 -0.21230689296E+04  0.21230689296E+04  0.00000000000E+00 0. -1.
         23    2    1    2    0    0  0.94520926538E+03 -0.11775922429E+04  0.26071748402E+04  0.30142309260E+04  0.89907632031E+02 0.  0.
         13    1    3    3    0    0  0.51264066690E+03 -0.64339757399E+03  0.13309423302E+04  0.15646623847E+04  0.00000000000E+00 0. -1.
        -13    1    3    3    0    0  0.43256859849E+03 -0.53419466886E+03  0.12762325100E+04  0.14495685414E+04  0.00000000000E+00 0.  1.
         22    1    1    2    0    0 -0.94520926538E+03  0.11775922429E+04 -0.16225761201E+04  0.22165056533E+04  0.00000000000E+00 0. -1.
<mgrwt>
<rscale>  0 0.51372337E+04</rscale>
<asrwt>0</asrwt>
<pdfrwt beam="1">  1        2 0.47810272E+00 0.51372337E+04</pdfrwt>
<pdfrwt beam="2">  1       -2 0.32662599E+00 0.51372337E+04</pdfrwt>
<totfact> 0.23327378E-02</totfact>
</mgrwt>
</event>
<event>
 6    1  0.1878398E-004  0.2441355E+04  0.7818608E-02  0.8424181E-01
         -2   -1    0    0    0  501 -0.00000000000E+00  0.00000000000E+00  0.65691901662E+03  0.65691901662E+03  0.00000000000E+00 0. -1.
          2   -1    0    0  501    0  0.00000000000E+00 -0.00000000000E+00 -0.22682456957E+04  0.22682456957E+04  0.00000000000E+00 0.  1.
         23    2    1    2    0    0  0.82214941083E+03 -0.57191635122E+03  0.26100916074E+02  0.10057410759E+04  0.88407508120E+02 0.  0.
         13    1    3    3    0    0  0.54902647331E+03 -0.33160230714E+03  0.26532349476E+02  0.64194557718E+03  0.00000000000E+00 0. -1.
        -13    1    3    3    0    0  0.27312293753E+03 -0.24031404408E+03 -0.43143340283E+00  0.36379549876E+03  0.00000000000E+00 0.  1.
         22    1    1    2    0    0 -0.82214941083E+03  0.57191635122E+03 -0.16374275951E+04  0.19194236363E+04  0.00000000000E+00 0.  1.
<mgrwt>
<rscale>  0 0.24413551E+04</rscale>
<asrwt>0</asrwt>
<pdfrwt beam="1">  1        2 0.34896087E+00 0.24413551E+04</pdfrwt>
<pdfrwt beam="2">  1       -2 0.10106446E+00 0.24413551E+04</pdfrwt>
<totfact> 0.34105545E+00</totfact>
</mgrwt>
</event>
<event>
 6    1  0.1878398E-004  0.2811447E+04  0.7818608E-02  0.8299723E-01
          2   -1    0    0  501    0  0.00000000000E+00  0.00000000000E+00  0.10455554317E+04  0.10455554317E+04  0.00000000000E+00 0.  1.
         -2   -1    0    0    0  501 -0.00000000000E+00 -0.00000000000E+00 -0.18899610065E+04  0.18899610065E+04  0.00000000000E+00 0. -1.
         23    2    1    2    0    0 -0.12541740967E+04 -0.40000327970E+03  0.87580913281E+02  0.13225830537E+04  0.92737418537E+02 0.  0.
         11    1    3    3    0    0 -0.71486948236E+03 -0.24253816575E+03  0.63584211911E+01  0.75491957729E+03  0.00000000000E+00 0.  1.
        -11    1    3    3    0    0 -0.53930461438E+03 -0.15746511396E+03  0.81222492090E+02  0.56766347639E+03  0.00000000000E+00 0. -1.
         22    1    1    2    0    0  0.12541740967E+04  0.40000327970E+03 -0.93198648808E+03  0.16129333845E+04  0.00000000000E+00 0. -1.
<mgrwt>
<rscale>  0 0.28114473E+04</rscale>
<asrwt>0</asrwt>
<pdfrwt beam="1">  1        2 0.16085468E+00 0.28114473E+04</pdfrwt>
<pdfrwt beam="2">  1       -2 0.29076323E+00 0.28114473E+04</pdfrwt>
<totfact> 0.74139621E-01</totfact>
</mgrwt>
</event>
<event>
 6    1  0.1878398E-004  0.1858179E+04  0.7818608E-02  0.8675958E-01
         -2   -1    0    0    0  501 -0.00000000000E+00  0.00000000000E+00  0.55998748313E+03  0.55998748313E+03  0.00000000000E+00 0. -1.
          2   -1    0    0  501    0  0.00000000000E+00 -0.00000000000E+00 -0.15414759168E+04  0.15414759168E+04  0.00000000000E+00 0.  1.
         23    2    1    2    0    0  0.29595398521E+02  0.35915240381E+03  0.47393763192E+03  0.60208640624E+03  0.89581386778E+02 0.  0.
         13    1    3    3    0    0 -0.28012362578E+02  0.11223761742E+03  0.11973010600E+03  0.16648505490E+03  0.00000000000E+00 0.  1.
        -13    1    3    3    0    0  0.57607761099E+02  0.24691478639E+03  0.35420752592E+03  0.43560135135E+03  0.00000000000E+00 0. -1.
         22    1    1    2    0    0 -0.29595398521E+02 -0.35915240381E+03 -0.14554260656E+04  0.14993769937E+04  0.00000000000E+00 0.  1.
<mgrwt>
<rscale>  0 0.18581789E+04</rscale>
<asrwt>0</asrwt>
<pdfrwt beam="1">  1        2 0.23715014E+00 0.18581789E+04</pdfrwt>
<pdfrwt beam="2">  1       -2 0.86151922E-01 0.18581789E+04</pdfrwt>
<totfact> 0.13206867E+01</totfact>
</mgrwt>
</event>
<event>
 6    1  0.1878398E-004  0.2887018E+04  0.7818608E-02  0.8276750E-01
          2   -1    0    0  501    0  0.00000000000E+00  0.00000000000E+00  0.20041355495E+04  0.20041355495E+04  0.00000000000E+00 0.  1.
         -2   -1    0    0    0  501 -0.00000000000E+00 -0.00000000000E+00 -0.10397094886E+04  0.10397094886E+04  0.00000000000E+00 0. -1.
         23    2    1    2    0    0 -0.35206782540E+03  0.65532775888E+03 -0.82109570111E+03  0.11095508031E+04  0.59149040198E+02 0.  0.
         11    1    3    3    0    0 -0.20834667496E+03  0.38787641741E+03 -0.52872697076E+03  0.68804699096E+03  0.00000000000E+00 0.  1.
        -11    1    3    3    0    0 -0.14372115044E+03  0.26745134146E+03 -0.29236873035E+03  0.42150381211E+03  0.00000000000E+00 0. -1.
         22    1    1    2    0    0  0.35206782540E+03 -0.65532775888E+03  0.17855217620E+04  0.19342942350E+04  0.00000000000E+00 0.  1.
<mgrwt>
<rscale>  0 0.28870184E+04</rscale>
<asrwt>0</asrwt>
<pdfrwt beam="1">  1        2 0.30832855E+00 0.28870184E+04</pdfrwt>
<pdfrwt beam="2">  1       -2 0.15995531E+00 0.28870184E+04</pdfrwt>
<totfact> 0.14475596E+00</totfact>
</mgrwt>
</event>
<event>
 6    1  0.1878398E-004  0.1665704E+04  0.7818608E-02  0.8781170E-01
          2   -1    0    0  501    0  0.00000000000E+00  0.00000000000E+00  0.18455259355E+04  0.18455259355E+04  0.00000000000E+00 0.  1.
         -2   -1    0    0    0  501 -0.00000000000E+00 -0.00000000000E+00 -0.37585075323E+03  0.37585075323E+03  0.00000000000E+00 0. -1.
         23    2    1    2    0    0  0.74251842750E+03 -0.64885781480E+02  0.24862820173E+03  0.79081752934E+03  0.89624785638E+02 0.  0.
         13    1    3    3    0    0  0.39570408291E+03 -0.12324223393E+02  0.17267116633E+03  0.43191311556E+03  0.00000000000E+00 0.  1.
        -13    1    3    3    0    0  0.34681434460E+03 -0.52561558087E+02  0.75957035403E+02  0.35890441378E+03  0.00000000000E+00 0. -1.
         22    1    1    2    0    0 -0.74251842750E+03  0.64885781480E+02  0.12210469805E+04  0.14305591594E+04  0.00000000000E+00 0.  1.
<mgrwt>
<rscale>  0 0.16657038E+04</rscale>
<asrwt>0</asrwt>
<pdfrwt beam="1">  1        2 0.28392706E+00 0.16657038E+04</pdfrwt>
<pdfrwt beam="2">  1       -2 0.57823194E-01 0.16657038E+04</pdfrwt>
<totfact> 0.21746603E+01</totfact>
</mgrwt>
</event>
<event>
 6    1  0.1878398E-004  0.1534640E+04  0.7818608E-02  0.8861739E-01
         -2   -1    0    0    0  501 -0.00000000000E+00  0.00000000000E+00  0.44388663533E+03  0.44388663533E+03  0.00000000000E+00 0. -1.
          2   -1    0    0  501    0  0.00000000000E+00 -0.00000000000E+00 -0.13264191066E+04  0.13264191066E+04  0.00000000000E+00 0.  1.
         23    2    1    2    0    0 -0.54464499773E+03  0.41587403247E+03 -0.47962715708E+02  0.69044646345E+03  0.69473105320E+02 0.  0.
         11    1    3    3    0    0 -0.33017789421E+03  0.27983251475E+03 -0.55540761612E+02  0.43635817207E+03  0.00000000000E+00 0. -1.
        -11    1    3    3    0    0 -0.21446710352E+03  0.13604151771E+03  0.75780459036E+01  0.25408829137E+03  0.00000000000E+00 0.  1.
         22    1    1    2    0    0  0.54464499773E+03 -0.41587403247E+03 -0.83456975558E+03  0.10798592785E+04  0.00000000000E+00 0.  1.
<mgrwt>
<rscale>  0 0.15346397E+04</rscale>
<asrwt>0</asrwt>
<pdfrwt beam="1">  1        2 0.20406448E+00 0.15346397E+04</pdfrwt>
<pdfrwt beam="2">  1       -2 0.68290251E-01 0.15346397E+04</pdfrwt>
<totfact> 0.30167603E+01</totfact>
</mgrwt>
</event>
<event>
 6    1  0.1878398E-004  0.2796073E+04  0.7818608E-02  0.8304488E-01
          2   -1    0    0  501    0  0.00000000000E+00  0.00000000000E+00  0.18871600189E+04  0.18871600189E+04  0.00000000000E+00 0.  1.
         -2   -1    0    0    0  501 -0.00000000000E+00 -0.00000000000E+00 -0.10356867725E+04  0.10356867725E+04  0.00000000000E+00 0. -1.
         23    2    1    2    0    0 -0.92998390749E+03  0.32486803820E+03 -0.60862461065E+03  0.11615134718E+04  0.90996253568E+02 0.  0.
         13    1    3    3    0    0 -0.38672071537E+03  0.15234735601E+03 -0.20783197946E+03  0.46471148067E+03  0.00000000000E+00 0. -1.
        -13    1    3    3    0    0 -0.54326319212E+03  0.17252068219E+03 -0.40079263119E+03  0.69680199118E+03  0.00000000000E+00 0.  1.
         22    1    1    2    0    0  0.92998390749E+03 -0.32486803820E+03  0.14600978570E+04  0.17613333195E+04  0.00000000000E+00 0.  1.
<mgrwt>
<rscale>  0 0.27960734E+04</rscale>
<asrwt>0</asrwt>
<pdfrwt beam="1">  1        2 0.29033231E+00 0.27960734E+04</pdfrwt>
<pdfrwt beam="2">  1       -2 0.15933643E+00 0.27960734E+04</pdfrwt>
<totfact> 0.17119345E+00</totfact>
</mgrwt>
</event>
<event>
 6    1  0.1878398E-004  0.1437510E+04  0.7818608E-02  0.8927106E-01
         -2   -1    0    0    0  501 -0.00000000000E+00  0.00000000000E+00  0.12294548803E+04  0.12294548803E+04  0.00000000000E+00 0. -1.
          2   -1    0    0  501    0  0.00000000000E+00 -0.00000000000E+00 -0.42019311506E+03  0.42019311506E+03  0.00000000000E+00 0.  1.
         23    2    1    2    0    0  0.27084788199E+03 -0.35278151202E+03  0.10500794839E+04  0.11438747814E+04  0.89270502588E+02 0.  0.
         13    1    3    3    0    0  0.10089500617E+03 -0.16159417540E+03  0.55195333354E+03  0.58390492565E+03  0.00000000000E+00 0. -1.
        -13    1    3    3    0    0  0.16995287582E+03 -0.19118733663E+03  0.49812615034E+03  0.55996985574E+03  0.00000000000E+00 0.  1.
         22    1    1    2    0    0 -0.27084788199E+03  0.35278151202E+03 -0.24081771862E+03  0.50577321400E+03  0.00000000000E+00 0.  1.
<mgrwt>
<rscale>  0 0.14375096E+04</rscale>
<asrwt>0</asrwt>
<pdfrwt beam="1">  1        2 0.64645095E-01 0.14375096E+04</pdfrwt>
<pdfrwt beam="2">  1       -2 0.18914690E+00 0.14375096E+04</pdfrwt>
<totfact> 0.11452189E+01</totfact>
</mgrwt>
</event>
<event>
 6    1  0.1878398E-004  0.5583271E+03  0.7818608E-02  0.9995847E-01
          2   -1    0    0  501    0  0.00000000000E+00  0.00000000000E+00  0.58395032340E+03  0.58395032340E+03  0.00000000000E+00 0.  1.
         -2   -1    0    0    0  501 -0.00000000000E+00 -0.00000000000E+00 -0.13345704854E+03  0.13345704854E+03  0.00000000000E+00 0. -1.
         23    2    1    2    0    0  0.69166322748E+02 -0.25679321772E+03  0.15991170638E+03  0.32349826465E+03  0.91392759702E+02 0.  0.
         13    1    3    3    0    0  0.36717113242E+02 -0.76103005159E+02  0.73802945874E+01  0.84819116638E+02  0.00000000000E+00 0. -1.
        -13    1    3    3    0    0  0.32449209506E+02 -0.18069021256E+03  0.15253141180E+03  0.23867914801E+03  0.00000000000E+00 0.  1.
         22    1    1    2    0    0 -0.69166322748E+02  0.25679321772E+03  0.29058156848E+03  0.39390910729E+03  0.00000000000E+00 0.  1.
<mgrwt>
<rscale>  0 0.55832710E+03</rscale>
<asrwt>0</asrwt>
<pdfrwt beam="1">  1        2 0.89838510E-01 0.55832710E+03</pdfrwt>
<pdfrwt beam="2">  1       -2 0.20531854E-01 0.55832710E+03</pdfrwt>
<totfact> 0.10474558E+03</totfact>
</mgrwt>
</event>
<event>
 6    1  0.1878398E-004  0.1220736E+04  0.7818608E-02  0.9094897E-01
         -2   -1    0    0    0  501 -0.00000000000E+00  0.00000000000E+00  0.39410711813E+03  0.39410711813E+03  0.00000000000E+00 0. -1.
          2   -1    0    0  501    0  0.00000000000E+00 -0.00000000000E+00 -0.94529922399E+03  0.94529922399E+03  0.00000000000E+00 0.  1.
         23    2    1    2    0    0 -0.60151175528E+02  0.31060606209E+03 -0.84560959143E+03  0.90723051500E+03  0.88979416198E+02 0.  0.
         11    1    3    3    0    0 -0.62636028323E+02  0.10293078093E+03 -0.28739442723E+03  0.31163050959E+03  0.00000000000E+00 0.  1.
        -11    1    3    3    0    0  0.24848527955E+01  0.20767528117E+03 -0.55821516420E+03  0.59560000541E+03  0.00000000000E+00 0. -1.
         22    1    1    2    0    0  0.60151175528E+02 -0.31060606209E+03  0.29441748557E+03  0.43217582711E+03  0.00000000000E+00 0. -1.
<mgrwt>
<rscale>  0 0.12207361E+04</rscale>
<asrwt>0</asrwt>
<pdfrwt beam="1">  1        2 0.14543065E+00 0.12207361E+04</pdfrwt>
<pdfrwt beam="2">  1       -2 0.60631865E-01 0.12207361E+04</pdfrwt>
<totfact> 0.68267836E+01</totfact>
</mgrwt>
</event>
<event>
 6    1  0.1878398E-004  0.3671476E+04  0.7818608E-02  0.8074313E-01
          2   -1    0    0  501    0  0.00000000000E+00  0.00000000000E+00  0.35950648940E+04  0.35950648940E+04  0.00000000000E+00 0.  1.
         -2   -1    0    0    0  501 -0.00000000000E+00 -0.00000000000E+00 -0.93737793845E+03  0.93737793845E+03  0.00000000000E+00 0. -1.
         23    2    1    2    0    0  0.13110550954E+04 -0.51464068539E+03 -0.12194196254E+03  0.14163463287E+04  0.86293582439E+02 0.  0.
         13    1    3    3    0    0  0.55910741737E+03 -0.21764686813E+03 -0.94777210673E+02  0.60741582382E+03  0.00000000000E+00 0. -1.
        -13    1    3    3    0    0  0.75194767805E+03 -0.29699381726E+03 -0.27164751867E+02  0.80893050490E+03  0.00000000000E+00 0.  1.
         22    1    1    2    0    0 -0.13110550954E+04  0.51464068539E+03  0.27796289181E+04  0.31160965037E+04  0.00000000000E+00 0.  1.
<mgrwt>
<rscale>  0 0.36714763E+04</rscale>
<asrwt>0</asrwt>
<pdfrwt beam="1">  1        2 0.55308690E+00 0.36714763E+04</pdfrwt>
<pdfrwt beam="2">  1       -2 0.14421199E+00 0.36714763E+04</pdfrwt>
<totfact> 0.18710946E-01</totfact>
</mgrwt>
</event>
<event>
 6    1  0.1878398E-004  0.8324158E+03  0.7818608E-02  0.9514247E-01
          2   -1    0    0  501    0  0.00000000000E+00  0.00000000000E+00  0.11795605812E+04  0.11795605812E+04  0.00000000000E+00 0.  1.
         -2   -1    0    0    0  501 -0.00000000000E+00 -0.00000000000E+00 -0.14685895221E+03  0.14685895221E+03  0.00000000000E+00 0. -1.
         23    2    1    2    0    0  0.13444195889E+03 -0.63945484123E+02  0.11332698533E+04  0.11467597633E+04  0.92702368264E+02 0.  0.
         11    1    3    3    0    0  0.10710998476E+02  0.12891568959E+02  0.32775561768E+03  0.32818388590E+03  0.00000000000E+00 0.  1.
        -11    1    3    3    0    0  0.12373096042E+03 -0.76837053082E+02  0.80551423558E+03  0.81857587737E+03  0.00000000000E+00 0. -1.
         22    1    1    2    0    0 -0.13444195889E+03  0.63945484123E+02 -0.10056822431E+03  0.17965977010E+03  0.00000000000E+00 0. -1.
<mgrwt>
<rscale>  0 0.83241584E+03</rscale>
<asrwt>0</asrwt>
<pdfrwt beam="1">  1        2 0.18147085E+00 0.83241584E+03</pdfrwt>
<pdfrwt beam="2">  1       -2 0.22593686E-01 0.83241584E+03</pdfrwt>
<totfact> 0.33656090E+02</totfact>
</mgrwt>
</event>
<event>
 6    1  0.1878398E-004  0.3877062E+04  0.7818608E-02  0.8029817E-01
          3   -1    0    0  501    0  0.00000000000E+00  0.00000000000E+00  0.13990004563E+04  0.13990004563E+04  0.00000000000E+00 0.  1.
         -3   -1    0    0    0  501 -0.00000000000E+00 -0.00000000000E+00 -0.26861343378E+04  0.26861343378E+04  0.00000000000E+00 0. -1.
         23    2    1    2    0    0  0.16524949123E+04 -0.69362450936E+03 -0.14198543136E+04  0.22880624226E+04  0.85959190535E+02 0.  0.
         13    1    3    3    0    0  0.83066704930E+03 -0.30654641923E+03 -0.72429327147E+03  0.11439314652E+04  0.00000000000E+00 0. -1.
        -13    1    3    3    0    0  0.82182786302E+03 -0.38707809014E+03 -0.69556104217E+03  0.11441309574E+04  0.00000000000E+00 0.  1.
         22    1    1    2    0    0 -0.16524949123E+04  0.69362450936E+03  0.13272043214E+03  0.17970723715E+04  0.00000000000E+00 0.  1.
<mgrwt>
<rscale>  0 0.38770624E+04</rscale>
<asrwt>0</asrwt>
<pdfrwt beam="1">  1        3 0.21523084E+00 0.38770624E+04</pdfrwt>
<pdfrwt beam="2">  1       -3 0.41325144E+00 0.38770624E+04</pdfrwt>
<totfact> 0.21760524E-03</totfact>
</mgrwt>
</event>
<event>
 6    1  0.1878398E-004  0.1918657E+04  0.7818608E-02  0.8645625E-01
          1   -1    0    0  501    0  0.00000000000E+00  0.00000000000E+00  0.48740136827E+03  0.48740136827E+03  0.00000000000E+00 0.  1.
         -1   -1    0    0    0  501 -0.00000000000E+00 -0.00000000000E+00 -0.18882000657E+04  0.18882000657E+04  0.00000000000E+00 0. -1.
         23    2    1    2    0    0  0.18691951423E+03 -0.86940475072E+03 -0.26371328811E+03  0.93207562767E+03  0.91742858024E+02 0.  0.
         11    1    3    3    0    0  0.56340828546E+02 -0.37213728527E+03 -0.70988658043E+02  0.38301414806E+03  0.00000000000E+00 0. -1.
        -11    1    3    3    0    0  0.13057868568E+03 -0.49726746545E+03 -0.19272463007E+03  0.54906147960E+03  0.00000000000E+00 0.  1.
         22    1    1    2    0    0 -0.18691951423E+03  0.86940475072E+03 -0.11370854093E+04  0.14435258063E+04  0.00000000000E+00 0. -1.
<mgrwt>
<rscale>  0 0.19186571E+04</rscale>
<asrwt>0</asrwt>
<pdfrwt beam="1">  1        1 0.74984826E-01 0.19186571E+04</pdfrwt>
<pdfrwt beam="2">  1       -1 0.29049232E+00 0.19186571E+04</pdfrwt>
<totfact> 0.16333449E+00</totfact>
</mgrwt>
</event>
<event>
 6    1  0.1878398E-004  0.3599140E+04  0.7818608E-02  0.8090689E-01
          2   -1    0    0  501    0  0.00000000000E+00  0.00000000000E+00  0.27329627227E+04  0.27329627227E+04  0.00000000000E+00 0.  1.
         -2   -1    0    0    0  501 -0.00000000000E+00 -0.00000000000E+00 -0.11849599566E+04  0.11849599566E+04  0.00000000000E+00 0. -1.
         23    2    1    2    0    0 -0.17337330083E+04  0.77346007349E+02  0.26117267161E+03  0.17574263843E+04  0.92324334719E+02 0.  0.
         11    1    3    3    0    0 -0.12314350912E+04  0.14139906773E+02  0.19507434620E+03  0.12468706113E+04  0.00000000000E+00 0. -1.
        -11    1    3    3    0    0 -0.50229791715E+03  0.63206100575E+02  0.66098325416E+02  0.51055577300E+03  0.00000000000E+00 0.  1.
         22    1    1    2    0    0  0.17337330083E+04 -0.77346007349E+02  0.12868300945E+04  0.21604962951E+04  0.00000000000E+00 0.  1.
<mgrwt>
<rscale>  0 0.35991396E+04</rscale>
<asrwt>0</asrwt>
<pdfrwt beam="1">  1        2 0.42045580E+00 0.35991396E+04</pdfrwt>
<pdfrwt beam="2">  1       -2 0.18230153E+00 0.35991396E+04</pdfrwt>
<totfact> 0.36151050E-01</totfact>
</mgrwt>
</event>
<event>
 6    1  0.1878398E-004  0.4419419E+04  0.7818608E-02  0.7924898E-01
          1   -1    0    0  501    0  0.00000000000E+00  0.00000000000E+00  0.21062605231E+04  0.21062605231E+04  0.00000000000E+00 0. -1.
         -1   -1    0    0    0  501 -0.00000000000E+00 -0.00000000000E+00 -0.23182389982E+04  0.23182389982E+04  0.00000000000E+00 0.  1.
         23    2    1    2    0    0 -0.52332203579E+03 -0.19017412094E+04 -0.11011980539E+04  0.22608921078E+04  0.92251766338E+02 0.  0.
         13    1    3    3    0    0 -0.43101482084E+03 -0.15088419025E+04 -0.83643369105E+03  0.17782010522E+04  0.00000000000E+00 0. -1.
        -13    1    3    3    0    0 -0.92307214948E+02 -0.39289930695E+03 -0.26476436284E+03  0.48269105561E+03  0.00000000000E+00 0.  1.
         22    1    1    2    0    0  0.52332203579E+03  0.19017412094E+04  0.88921957875E+03  0.21636074135E+04  0.00000000000E+00 0. -1.
<mgrwt>
<rscale>  0 0.44194186E+04</rscale>
<asrwt>0</asrwt>
<pdfrwt beam="1">  1        1 0.32404008E+00 0.44194186E+04</pdfrwt>
<pdfrwt beam="2">  1       -1 0.35665215E+00 0.44194186E+04</pdfrwt>
<totfact> 0.26783622E-02</totfact>
</mgrwt>
</event>
<event>
 6    1  0.1878398E-004  0.1581880E+04  0.7818608E-02  0.8831758E-01
         -2   -1    0    0    0  501 -0.00000000000E+00  0.00000000000E+00  0.80310855264E+03  0.80310855264E+03  0.00000000000E+00 0. -1.
          2   -1    0    0  501    0  0.00000000000E+00 -0.00000000000E+00 -0.77895608673E+03  0.77895608673E+03  0.00000000000E+00 0.  1.
         23    2    1    2    0    0  0.65162064900E+03  0.26184736254E+03  0.37036386282E+03  0.79909858465E+03  0.90640198759E+02 0.  0.
         13    1    3    3    0    0  0.49869496501E+03  0.16006849680E+03  0.28887801501E+03  0.59813802700E+03  0.00000000000E+00 0.  1.
        -13    1    3    3    0    0  0.15292568399E+03  0.10177886574E+03  0.81485847816E+02  0.20096055765E+03  0.00000000000E+00 0. -1.
         22    1    1    2    0    0 -0.65162064900E+03 -0.26184736254E+03 -0.34621139692E+03  0.78296605471E+03  0.00000000000E+00 0.  1.
<mgrwt>
<rscale>  0 0.15818803E+04</rscale>
<asrwt>0</asrwt>
<pdfrwt beam="1">  1        2 0.11983940E+00 0.15818803E+04</pdfrwt>
<pdfrwt beam="2">  1       -2 0.12355516E+00 0.15818803E+04</pdfrwt>
<totfact> 0.16914746E+01</totfact>
</mgrwt>
</event>
<event>
 6    1  0.1878398E-004  0.2105930E+04  0.7818608E-02  0.8558636E-01
         -2   -1    0    0    0  501 -0.00000000000E+00  0.00000000000E+00  0.33310408391E+03  0.33310408391E+03  0.00000000000E+00 0. -1.
          2   -1    0    0  501    0  0.00000000000E+00 -0.00000000000E+00 -0.33284956542E+04  0.33284956542E+04  0.00000000000E+00 0.  1.
         23    2    1    2    0    0 -0.91656460690E+02 -0.45900062177E+02 -0.33191585240E+04  0.33219929613E+04  0.91193228192E+02 0.  0.
         13    1    3    3    0    0 -0.25195643367E+02 -0.56073368882E+02 -0.21689690845E+04  0.21698400708E+04  0.00000000000E+00 0. -1.
        -13    1    3    3    0    0 -0.66460817322E+02  0.10173306705E+02 -0.11501894395E+04  0.11521528905E+04  0.00000000000E+00 0.  1.
         22    1    1    2    0    0  0.91656460690E+02  0.45900062177E+02  0.32376695376E+03  0.33960677679E+03  0.00000000000E+00 0. -1.
<mgrwt>
<rscale>  0 0.21059302E+04</rscale>
<asrwt>0</asrwt>
<pdfrwt beam="1">  1        2 0.51207623E+00 0.21059302E+04</pdfrwt>
<pdfrwt beam="2">  1       -2 0.51246784E-01 0.21059302E+04</pdfrwt>
<totfact> 0.35447928E+00</totfact>
</mgrwt>
</event>
<event>
 6    1  0.1878398E-004  0.3949927E+04  0.7818608E-02  0.8014725E-01
          2   -1    0    0  501    0  0.00000000000E+00  0.00000000000E+00  0.19564474685E+04  0.19564474685E+04  0.00000000000E+00 0.  1.
         -2   -1    0    0    0  501 -0.00000000000E+00 -0.00000000000E+00 -0.19936547760E+04  0.19936547760E+04  0.00000000000E+00 0. -1.
         23    2    1    2    0    0  0.14403418521E+04  0.42172198774E+03  0.12636544629E+04  0.19639815454E+04  0.89257061466E+02 0.  0.
         11    1    3    3    0    0  0.46028123928E+03  0.13254823557E+03  0.34980434136E+03  0.59311966012E+03  0.00000000000E+00 0. -1.
        -11    1    3    3    0    0  0.98006061285E+03  0.28917375217E+03  0.91385012156E+03  0.13708618853E+04  0.00000000000E+00 0.  1.
         22    1    1    2    0    0 -0.14403418521E+04 -0.42172198774E+03 -0.13008617704E+04  0.19861206991E+04  0.00000000000E+00 0. -1.
<mgrwt>
<rscale>  0 0.39499270E+04</rscale>
<asrwt>0</asrwt>
<pdfrwt beam="1">  1        2 0.30099192E+00 0.39499270E+04</pdfrwt>
<pdfrwt beam="2">  1       -2 0.30671612E+00 0.39499270E+04</pdfrwt>
<totfact> 0.16175458E-01</totfact>
</mgrwt>
</event>
<event>
 6    1  0.1878398E-004  0.3190664E+04  0.7818608E-02  0.8191287E-01
         -2   -1    0    0    0  501 -0.00000000000E+00  0.00000000000E+00  0.89054997678E+03  0.89054997678E+03  0.00000000000E+00 0. -1.
          2   -1    0    0  501    0  0.00000000000E+00 -0.00000000000E+00 -0.28578783721E+04  0.28578783721E+04  0.00000000000E+00 0.  1.
         23    2    1    2    0    0 -0.11253199245E+04  0.10931745363E+04 -0.13160043373E+04  0.20497233929E+04  0.90128087310E+02 0.  0.
         13    1    3    3    0    0 -0.57181101941E+03  0.50472718599E+03 -0.60449580690E+03  0.97320735445E+03  0.00000000000E+00 0.  1.
        -13    1    3    3    0    0 -0.55350890505E+03  0.58844735030E+03 -0.71150853044E+03  0.10765160384E+04  0.00000000000E+00 0. -1.
         22    1    1    2    0    0  0.11253199245E+04 -0.10931745363E+04 -0.65132405802E+03  0.16987049561E+04  0.00000000000E+00 0.  1.
<mgrwt>
<rscale>  0 0.31906636E+04</rscale>
<asrwt>0</asrwt>
<pdfrwt beam="1">  1        2 0.43967359E+00 0.31906636E+04</pdfrwt>
<pdfrwt beam="2">  1       -2 0.13700769E+00 0.31906636E+04</pdfrwt>
<totfact> 0.68218897E-01</totfact>
</mgrwt>
</event>
<event>
 6    1  0.1878398E-004  0.1589500E+04  0.7818608E-02  0.8827024E-01
         -2   -1    0    0    0  501 -0.00000000000E+00  0.00000000000E+00  0.49533080261E+03  0.49533080261E+03  0.00000000000E+00 0. -1.
          2   -1    0    0  501    0  0.00000000000E+00 -0.00000000000E+00 -0.12751637310E+04  0.12751637310E+04  0.00000000000E+00 0.  1.
         23    2    1    2    0    0 -0.24945649448E+03  0.66407492416E+03  0.15850244866E+01  0.71510926529E+03  0.90303385656E+02 0.  0.
         11    1    3    3    0    0 -0.15352765647E+03  0.35433261127E+03 -0.39855316781E+02  0.38821487219E+03  0.00000000000E+00 0.  1.
        -11    1    3    3    0    0 -0.95928838001E+02  0.30974231289E+03  0.41440341267E+02  0.32689439310E+03  0.00000000000E+00 0. -1.
         22    1    1    2    0    0  0.24945649448E+03 -0.66407492416E+03 -0.78141795292E+03  0.10553852684E+04  0.00000000000E+00 0.  1.
<mgrwt>
<rscale>  0 0.15895004E+04</rscale>
<asrwt>0</asrwt>
<pdfrwt beam="1">  1        2 0.19617903E+00 0.15895004E+04</pdfrwt>
<pdfrwt beam="2">  1       -2 0.76204741E-01 0.15895004E+04</pdfrwt>
<totfact> 0.25286289E+01</totfact>
</mgrwt>
</event>
<event>
 6    1  0.1878398E-004  0.4543431E+04  0.7818608E-02  0.7903077E-01
         -2   -1    0    0    0  501 -0.00000000000E+00  0.00000000000E+00  0.26012789895E+04  0.26012789895E+04  0.00000000000E+00 0. -1.
          2   -1    0    0  501    0  0.00000000000E+00 -0.00000000000E+00 -0.19839054591E+04  0.19839054591E+04  0.00000000000E+00 0.  1.
         23    2    1    2    0    0  0.16303400837E+04 -0.13708876942E+04 -0.48532255712E+03  0.21865847487E+04  0.90956143644E+02 0.  0.
         11    1    3    3    0    0  0.11628146311E+04 -0.96301482156E+03 -0.30302438949E+03  0.15399218141E+04  0.00000000000E+00 0. -1.
        -11    1    3    3    0    0  0.46752545266E+03 -0.40787287264E+03 -0.18229816764E+03  0.64666293465E+03  0.00000000000E+00 0.  1.
         22    1    1    2    0    0 -0.16303400837E+04  0.13708876942E+04  0.11026960876E+04  0.23985996999E+04  0.00000000000E+00 0. -1.
<mgrwt>
<rscale>  0 0.45434311E+04</rscale>
<asrwt>0</asrwt>
<pdfrwt beam="1">  1        2 0.30521622E+00 0.45434311E+04</pdfrwt>
<pdfrwt beam="2">  1       -2 0.40019677E+00 0.45434311E+04</pdfrwt>
<totfact> 0.38117675E-02</totfact>
</mgrwt>
</event>
<event>
 6    1  0.1878398E-004  0.9043411E+03  0.7818608E-02  0.9420171E-01
          2   -1    0    0  501    0  0.00000000000E+00  0.00000000000E+00  0.13942650718E+04  0.13942650718E+04  0.00000000000E+00 0.  1.
         -2   -1    0    0    0  501 -0.00000000000E+00 -0.00000000000E+00 -0.14664228116E+03  0.14664228116E+03  0.00000000000E+00 0. -1.
         23    2    1    2    0    0 -0.17101111484E+02  0.23533998399E+03  0.12782021547E+04  0.13029736362E+04  0.90896601406E+02 0.  0.
         13    1    3    3    0    0  0.14067693406E+02  0.12889248768E+03  0.88423514703E+03  0.89369064482E+03  0.00000000000E+00 0. -1.
        -13    1    3    3    0    0 -0.31168804891E+02  0.10644749631E+03  0.39396700769E+03  0.40928299136E+03  0.00000000000E+00 0.  1.
         22    1    1    2    0    0  0.17101111484E+02 -0.23533998399E+03 -0.30579364081E+02  0.23793371680E+03  0.00000000000E+00 0. -1.
<mgrwt>
<rscale>  0 0.90434111E+03</rscale>
<asrwt>0</asrwt>
<pdfrwt beam="1">  1        2 0.21450231E+00 0.90434111E+03</pdfrwt>
<pdfrwt beam="2">  1       -2 0.22560352E-01 0.90434111E+03</pdfrwt>
<totfact> 0.25211187E+02</totfact>
</mgrwt>
</event>
<event>
 6    1  0.1878398E-004  0.2780636E+04  0.7818608E-02  0.8309306E-01
         -2   -1    0    0    0  501 -0.00000000000E+00  0.00000000000E+00  0.12199648292E+04  0.12199648292E+04  0.00000000000E+00 0. -1.
          2   -1    0    0  501    0  0.00000000000E+00 -0.00000000000E+00 -0.15844586109E+04  0.15844586109E+04  0.00000000000E+00 0.  1.
         23    2    1    2    0    0 -0.10741428313E+04  0.85988620012E+03  0.77506602820E+01  0.13790276972E+04  0.92033785973E+02 0.  0.
         11    1    3    3    0    0 -0.29364484468E+03  0.25563022540E+03 -0.36036155760E+02  0.39098940071E+03  0.00000000000E+00 0. -1.
        -11    1    3    3    0    0 -0.78049798660E+03  0.60425597472E+03  0.43786816042E+02  0.98803829649E+03  0.00000000000E+00 0.  1.
         22    1    1    2    0    0  0.10741428313E+04 -0.85988620012E+03 -0.37224444199E+03  0.14253957429E+04  0.00000000000E+00 0.  1.
<mgrwt>
<rscale>  0 0.27806357E+04</rscale>
<asrwt>0</asrwt>
<pdfrwt beam="1">  1        2 0.24376286E+00 0.27806357E+04</pdfrwt>
<pdfrwt beam="2">  1       -2 0.18768690E+00 0.27806357E+04</pdfrwt>
<totfact> 0.15933847E+00</totfact>
</mgrwt>
</event>
<event>
 6    1  0.1878398E-004  0.5304068E+04  0.7818608E-02  0.7783240E-01
         -2   -1    0    0    0  501 -0.00000000000E+00  0.00000000000E+00  0.30718004972E+04  0.30718004972E+04  0.00000000000E+00 0. -1.
          2   -1    0    0  501    0  0.00000000000E+00 -0.00000000000E+00 -0.22896291931E+04  0.22896291931E+04  0.00000000000E+00 0.  1.
         23    2    1    2    0    0 -0.17349273538E+04  0.19491480695E+04 -0.83186047339E+02  0.26122490004E+04  0.88169165961E+02 0.  0.
         11    1    3    3    0    0 -0.10662401881E+04  0.12525271781E+04 -0.30211120487E+02  0.16451763378E+04  0.00000000000E+00 0. -1.
        -11    1    3    3    0    0 -0.66868716570E+03  0.69662089138E+03 -0.52974926852E+02  0.96707266260E+03  0.00000000000E+00 0.  1.
         22    1    1    2    0    0  0.17349273538E+04 -0.19491480695E+04  0.86535735151E+03  0.27491806899E+04  0.00000000000E+00 0. -1.
<mgrwt>
<rscale>  0 0.53040679E+04</rscale>
<asrwt>0</asrwt>
<pdfrwt beam="1">  1        2 0.35225064E+00 0.53040679E+04</pdfrwt>
<pdfrwt beam="2">  1       -2 0.47258469E+00 0.53040679E+04</pdfrwt>
<totfact> 0.80998850E-03</totfact>
</mgrwt>
</event>
<event>
 6    1  0.1878398E-004  0.3122153E+04  0.7818608E-02  0.8209684E-01
         -2   -1    0    0    0  501 -0.00000000000E+00  0.00000000000E+00  0.21035687998E+04  0.21035687998E+04  0.00000000000E+00 0. -1.
          2   -1    0    0  501    0  0.00000000000E+00 -0.00000000000E+00 -0.11584885951E+04  0.11584885951E+04  0.00000000000E+00 0.  1.
         23    2    1    2    0    0  0.10869540061E+04 -0.34100590474E+03 -0.64012156515E+03  0.13099767895E+04  0.92355467729E+02 0.  0.
         13    1    3    3    0    0  0.71260444668E+03 -0.25004548911E+03 -0.38259196654E+03  0.84658399283E+03  0.00000000000E+00 0. -1.
        -13    1    3    3    0    0  0.37434955944E+03 -0.90960415637E+02 -0.25752959861E+03  0.46339279669E+03  0.00000000000E+00 0.  1.
         22    1    1    2    0    0 -0.10869540061E+04  0.34100590474E+03  0.15852017698E+04  0.19520806053E+04  0.00000000000E+00 0. -1.
<mgrwt>
<rscale>  0 0.31221534E+04</rscale>
<asrwt>0</asrwt>
<pdfrwt beam="1">  1        2 0.17822902E+00 0.31221534E+04</pdfrwt>
<pdfrwt beam="2">  1       -2 0.32362597E+00 0.31221534E+04</pdfrwt>
<totfact> 0.38654428E-01</totfact>
</mgrwt>
</event>
<event>
 6    1  0.1878398E-004  0.2296320E+04  0.7818608E-02  0.8479374E-01
         -2   -1    0    0    0  501 -0.00000000000E+00  0.00000000000E+00  0.97540747663E+03  0.97540747663E+03  0.00000000000E+00 0. -1.
          2   -1    0    0  501    0  0.00000000000E+00 -0.00000000000E+00 -0.13515082597E+04  0.13515082597E+04  0.00000000000E+00 0.  1.
         23    2    1    2    0    0  0.53137174954E+03 -0.59697949143E+03 -0.10204125618E+04  0.13003300762E+04  0.10428835687E+03 0.  0.
         11    1    3    3    0    0  0.37789395859E+02 -0.77895809143E+02 -0.14879925916E+03  0.17215404453E+03  0.00000000000E+00 0. -1.
        -11    1    3    3    0    0  0.49358235368E+03 -0.51908368229E+03 -0.87161330267E+03  0.11281760317E+04  0.00000000000E+00 0.  1.
         22    1    1    2    0    0 -0.53137174954E+03  0.59697949143E+03  0.64431177872E+03  0.10265856601E+04  0.00000000000E+00 0. -1.
<mgrwt>
<rscale>  0 0.22963199E+04</rscale>
<asrwt>0</asrwt>
<pdfrwt beam="1">  1        2 0.20792435E+00 0.22963199E+04</pdfrwt>
<pdfrwt beam="2">  1       -2 0.15006269E+00 0.22963199E+04</pdfrwt>
<totfact> 0.41888504E+00</totfact>
</mgrwt>
</event>
<event>
 6    1  0.1878398E-004  0.3123887E+04  0.7818608E-02  0.8209213E-01
          2   -1    0    0  501    0  0.00000000000E+00  0.00000000000E+00  0.27121025777E+04  0.27121025777E+04  0.00000000000E+00 0.  1.
         -2   -1    0    0    0  501 -0.00000000000E+00 -0.00000000000E+00 -0.89954857760E+03  0.89954857760E+03  0.00000000000E+00 0. -1.
         23    2    1    2    0    0 -0.29599027333E+03  0.89419857437E+03 -0.53082677778E+03  0.10860552251E+04  0.10265257793E+03 0.  0.
         11    1    3    3    0    0 -0.15454924407E+03  0.53165582531E+03 -0.36430274084E+03  0.66276683111E+03  0.00000000000E+00 0.  1.
        -11    1    3    3    0    0 -0.14144102926E+03  0.36254274906E+03 -0.16652403693E+03  0.42328839404E+03  0.00000000000E+00 0. -1.
         22    1    1    2    0    0  0.29599027333E+03 -0.89419857437E+03  0.23433807779E+04  0.25255959302E+04  0.00000000000E+00 0.  1.
<mgrwt>
<rscale>  0 0.31238873E+04</rscale>
<asrwt>0</asrwt>
<pdfrwt beam="1">  1        2 0.41724655E+00 0.31238873E+04</pdfrwt>
<pdfrwt beam="2">  1       -2 0.13839209E+00 0.31238873E+04</pdfrwt>
<totfact> 0.81872421E-01</totfact>
</mgrwt>
</event>
<event>
 6    1  0.1878398E-004  0.2113076E+04  0.7818608E-02  0.8555505E-01
          1   -1    0    0  501    0  0.00000000000E+00  0.00000000000E+00  0.15600041417E+04  0.15600041417E+04  0.00000000000E+00 0.  1.
         -1   -1    0    0    0  501 -0.00000000000E+00 -0.00000000000E+00 -0.71555762710E+03  0.71555762710E+03  0.00000000000E+00 0. -1.
         23    2    1    2    0    0 -0.14740628535E+03 -0.37434813939E+03  0.14726642964E+04  0.15295572623E+04  0.94552348275E+02 0.  0.
         13    1    3    3    0    0 -0.87496596762E+02 -0.19388833034E+03  0.60509895400E+03  0.64139931651E+03  0.00000000000E+00 0.  1.
        -13    1    3    3    0    0 -0.59909688590E+02 -0.18045980905E+03  0.86756534237E+03  0.88815794583E+03  0.00000000000E+00 0. -1.
         22    1    1    2    0    0  0.14740628535E+03  0.37434813939E+03 -0.62821778173E+03  0.74600450650E+03  0.00000000000E+00 0. -1.
<mgrwt>
<rscale>  0 0.21130763E+04</rscale>
<asrwt>0</asrwt>
<pdfrwt beam="1">  1        1 0.24000064E+00 0.21130763E+04</pdfrwt>
<pdfrwt beam="2">  1       -1 0.11008579E+00 0.21130763E+04</pdfrwt>
<totfact> 0.41603475E+00</totfact>
</mgrwt>
</event>
<event>
 6    1  0.1878398E-004  0.3834235E+04  0.7818608E-02  0.8038848E-01
          2   -1    0    0  501    0  0.00000000000E+00  0.00000000000E+00  0.20371794125E+04  0.20371794125E+04  0.00000000000E+00 0.  1.
         -2   -1    0    0    0  501 -0.00000000000E+00 -0.00000000000E+00 -0.18041317506E+04  0.18041317506E+04  0.00000000000E+00 0. -1.
         23    2    1    2    0    0  0.11261739887E+03 -0.11928053910E+04  0.16144470583E+04  0.20127238198E+04  0.95658200342E+02 0.  0.
         11    1    3    3    0    0  0.30782977866E+02 -0.66316716961E+03  0.83362778004E+03  0.10656798592E+04  0.00000000000E+00 0.  1.
        -11    1    3    3    0    0  0.81834421004E+02 -0.52963822142E+03  0.78081927830E+03  0.94704396065E+03  0.00000000000E+00 0. -1.
         22    1    1    2    0    0 -0.11261739887E+03  0.11928053910E+04 -0.13813993965E+04  0.18285873433E+04  0.00000000000E+00 0. -1.
<mgrwt>
<rscale>  0 0.38342353E+04</rscale>
<asrwt>0</asrwt>
<pdfrwt beam="1">  1        2 0.31341222E+00 0.38342353E+04</pdfrwt>
<pdfrwt beam="2">  1       -2 0.27755873E+00 0.38342353E+04</pdfrwt>
<totfact> 0.22198926E-01</totfact>
</mgrwt>
</event>
<event>
 6    1  0.1878398E-004  0.4365612E+04  0.7818608E-02  0.7934596E-01
         -2   -1    0    0    0  501 -0.00000000000E+00  0.00000000000E+00  0.12379610165E+04  0.12379610165E+04  0.00000000000E+00 0. -1.
          2   -1    0    0  501    0  0.00000000000E+00 -0.00000000000E+00 -0.38487815840E+04  0.38487815840E+04  0.00000000000E+00 0.  1.
         23    2    1    2    0    0 -0.29232199340E+02 -0.14120817169E+04  0.63111240578E+03  0.15505074981E+04  0.10460084161E+03 0.  0.
         11    1    3    3    0    0 -0.27217720543E+02 -0.36068237954E+03  0.20731309623E+03  0.41690682783E+03  0.00000000000E+00 0. -1.
        -11    1    3    3    0    0 -0.20144787967E+01 -0.10513993374E+04  0.42379930955E+03  0.11336006702E+04  0.00000000000E+00 0.  1.
         22    1    1    2    0    0  0.29232199340E+02  0.14120817169E+04 -0.32419329733E+04  0.35362351025E+04  0.00000000000E+00 0.  1.
<mgrwt>
<rscale>  0 0.43656118E+04</rscale>
<asrwt>0</asrwt>
<pdfrwt beam="1">  1        2 0.59212023E+00 0.43656118E+04</pdfrwt>
<pdfrwt beam="2">  1       -2 0.19045555E+00 0.43656118E+04</pdfrwt>
<totfact> 0.52947249E-02</totfact>
</mgrwt>
</event>
<event>
 6    1  0.1878398E-004  0.2566984E+04  0.7818608E-02  0.8379503E-01
         -2   -1    0    0    0  501 -0.00000000000E+00  0.00000000000E+00  0.14611849772E+04  0.14611849772E+04  0.00000000000E+00 0. -1.
          2   -1    0    0  501    0  0.00000000000E+00 -0.00000000000E+00 -0.11274077441E+04  0.11274077441E+04  0.00000000000E+00 0.  1.
         23    2    1    2    0    0  0.11827715037E+04  0.29951462004E+03 -0.22920480810E+03  0.12448642456E+04  0.92166742673E+02 0.  0.
         13    1    3    3    0    0  0.78422642700E+03  0.15338248266E+03 -0.15141689442E+03  0.81330458667E+03  0.00000000000E+00 0.  1.
        -13    1    3    3    0    0  0.39854507670E+03  0.14613213739E+03 -0.77787913676E+02  0.43155965898E+03  0.00000000000E+00 0. -1.
         22    1    1    2    0    0 -0.11827715037E+04 -0.29951462004E+03  0.56298204120E+03  0.13437284757E+04  0.00000000000E+00 0. -1.
<mgrwt>
<rscale>  0 0.25669836E+04</rscale>
<asrwt>0</asrwt>
<pdfrwt beam="1">  1        2 0.17344734E+00 0.25669836E+04</pdfrwt>
<pdfrwt beam="2">  1       -2 0.22479769E+00 0.25669836E+04</pdfrwt>
<totfact> 0.17131960E+00</totfact>
</mgrwt>
</event>
<event>
 6    1  0.1878398E-004  0.2826893E+04  0.7818608E-02  0.8294967E-01
         -2   -1    0    0    0  501 -0.00000000000E+00  0.00000000000E+00  0.92560629141E+03  0.92560629141E+03  0.00000000000E+00 0. -1.
          2   -1    0    0  501    0  0.00000000000E+00 -0.00000000000E+00 -0.21584024958E+04  0.21584024958E+04  0.00000000000E+00 0.  1.
         23    2    1    2    0    0  0.12736319685E+04 -0.20625527809E+03  0.90144011932E+01  0.12932622359E+04  0.88126728548E+02 0.  0.
         11    1    3    3    0    0  0.41953145035E+03 -0.51699233215E+02 -0.35176865883E+02  0.42416607648E+03  0.00000000000E+00 0. -1.
        -11    1    3    3    0    0  0.85410051818E+03 -0.15455604487E+03  0.44191267076E+02  0.86909615938E+03  0.00000000000E+00 0.  1.
         22    1    1    2    0    0 -0.12736319685E+04  0.20625527809E+03 -0.12418106056E+04  0.17907465513E+04  0.00000000000E+00 0.  1.
<mgrwt>
<rscale>  0 0.28268929E+04</rscale>
<asrwt>0</asrwt>
<pdfrwt beam="1">  1        2 0.33206192E+00 0.28268929E+04</pdfrwt>
<pdfrwt beam="2">  1       -2 0.14240097E+00 0.28268929E+04</pdfrwt>
<totfact> 0.16256251E+00</totfact>
</mgrwt>
</event>
<event>
 6    1  0.1878398E-004  0.2420955E+04  0.7818608E-02  0.8431700E-01
         -2   -1    0    0    0  501 -0.00000000000E+00  0.00000000000E+00  0.40484473380E+03  0.40484473380E+03  0.00000000000E+00 0. -1.
          2   -1    0    0  501    0  0.00000000000E+00 -0.00000000000E+00 -0.36193022918E+04  0.36193022918E+04  0.00000000000E+00 0.  1.
         23    2    1    2    0    0  0.28149479711E+03  0.33554472882E+03 -0.34821869558E+04  0.35108161223E+04  0.91511002456E+02 0.  0.
         11    1    3    3    0    0  0.59976345057E+01  0.21403599835E+01 -0.21895760856E+03  0.21905019313E+03  0.00000000000E+00 0. -1.
        -11    1    3    3    0    0  0.27549716261E+03  0.33340436883E+03 -0.32632293472E+04  0.32917659292E+04  0.00000000000E+00 0.  1.
         22    1    1    2    0    0 -0.28149479711E+03 -0.33554472882E+03  0.26772939781E+03  0.51333090331E+03  0.00000000000E+00 0. -1.
<mgrwt>
<rscale>  0 0.24209547E+04</rscale>
<asrwt>0</asrwt>
<pdfrwt beam="1">  1        2 0.55681573E+00 0.24209547E+04</pdfrwt>
<pdfrwt beam="2">  1       -2 0.62283806E-01 0.24209547E+04</pdfrwt>
<totfact> 0.14392016E+00</totfact>
</mgrwt>
</event>
<event>
 6    1  0.1878398E-004  0.4274796E+04  0.7818608E-02  0.7951295E-01
          1   -1    0    0  501    0  0.00000000000E+00  0.00000000000E+00  0.13042569688E+04  0.13042569688E+04  0.00000000000E+00 0.  1.
         -1   -1    0    0    0  501 -0.00000000000E+00 -0.00000000000E+00 -0.35027383199E+04  0.35027383199E+04  0.00000000000E+00 0. -1.
         23    2    1    2    0    0  0.63591372889E+03 -0.20053308232E+04 -0.15181050985E+04  0.25959661559E+04  0.93054882873E+02 0.  0.
         11    1    3    3    0    0  0.47322072315E+03 -0.15987136150E+04 -0.12264299241E+04  0.20697713483E+04  0.00000000000E+00 0.  1.
        -11    1    3    3    0    0  0.16269300574E+03 -0.40661720823E+03 -0.29167517439E+03  0.52619480755E+03  0.00000000000E+00 0. -1.
         22    1    1    2    0    0 -0.63591372889E+03  0.20053308232E+04 -0.68037625262E+03  0.22110291328E+04  0.00000000000E+00 0.  1.
<mgrwt>
<rscale>  0 0.42747963E+04</rscale>
<asrwt>0</asrwt>
<pdfrwt beam="1">  1        1 0.20065492E+00 0.42747963E+04</pdfrwt>
<pdfrwt beam="2">  1       -1 0.53888281E+00 0.42747963E+04</pdfrwt>
<totfact> 0.59615672E-03</totfact>
</mgrwt>
</event>
<event>
 6    1  0.1878398E-004  0.3123924E+04  0.7818608E-02  0.8209203E-01
          2   -1    0    0  501    0  0.00000000000E+00  0.00000000000E+00  0.16218611079E+04  0.16218611079E+04  0.00000000000E+00 0.  1.
         -2   -1    0    0    0  501 -0.00000000000E+00 -0.00000000000E+00 -0.15042746824E+04  0.15042746824E+04  0.00000000000E+00 0. -1.
         23    2    1    2    0    0 -0.84097512265E+03 -0.12544975559E+04 -0.33471225088E+03  0.15495643941E+04  0.90079108697E+02 0.  0.
         13    1    3    3    0    0 -0.22355174208E+03 -0.40521566692E+03 -0.90903230427E+02  0.47163387856E+03  0.00000000000E+00 0. -1.
        -13    1    3    3    0    0 -0.61742338057E+03 -0.84928188899E+03 -0.24380902046E+03  0.10779305155E+04  0.00000000000E+00 0.  1.
         22    1    1    2    0    0  0.84097512265E+03  0.12544975559E+04  0.45229867636E+03  0.15765713962E+04  0.00000000000E+00 0.  1.
<mgrwt>
<rscale>  0 0.31239236E+04</rscale>
<asrwt>0</asrwt>
<pdfrwt beam="1">  1        2 0.24951709E+00 0.31239236E+04</pdfrwt>
<pdfrwt beam="2">  1       -2 0.23142687E+00 0.31239236E+04</pdfrwt>
<totfact> 0.76955286E-01</totfact>
</mgrwt>
</event>
<event>
 6    1  0.1878398E-004  0.2040528E+04  0.7818608E-02  0.8587903E-01
         -1   -1    0    0    0  501 -0.00000000000E+00  0.00000000000E+00  0.93104655823E+03  0.93104655823E+03  0.00000000000E+00 0. -1.
          1   -1    0    0  501    0  0.00000000000E+00 -0.00000000000E+00 -0.11180308394E+04  0.11180308394E+04  0.00000000000E+00 0.  1.
         23    2    1    2    0    0  0.55616775257E+02 -0.56217673528E+03 -0.94437031127E+03  0.11042125893E+04  0.91182510827E+02 0.  0.
         11    1    3    3    0    0  0.63466199693E+01 -0.29995535820E+01 -0.33780237528E+02  0.34501903631E+02  0.00000000000E+00 0.  1.
        -11    1    3    3    0    0  0.49270155288E+02 -0.55917718170E+03 -0.91059007375E+03  0.10697106857E+04  0.00000000000E+00 0. -1.
         22    1    1    2    0    0 -0.55616775257E+02  0.56217673528E+03  0.75738603009E+03  0.94486480830E+03  0.00000000000E+00 0. -1.
<mgrwt>
<rscale>  0 0.20405281E+04</rscale>
<asrwt>0</asrwt>
<pdfrwt beam="1">  1        1 0.17200474E+00 0.20405281E+04</pdfrwt>
<pdfrwt beam="2">  1       -1 0.14323793E+00 0.20405281E+04</pdfrwt>
<totfact> 0.44840140E+00</totfact>
</mgrwt>
</event>
<event>
 6    1  0.1878398E-004  0.2278087E+04  0.7818608E-02  0.8486612E-01
          1   -1    0    0  501    0  0.00000000000E+00  0.00000000000E+00  0.20314815297E+04  0.20314815297E+04  0.00000000000E+00 0. -1.
         -1   -1    0    0    0  501 -0.00000000000E+00 -0.00000000000E+00 -0.63865684810E+03  0.63865684810E+03  0.00000000000E+00 0.  1.
         23    2    1    2    0    0 -0.12951670413E+03 -0.16839983014E+03  0.20070575455E+04  0.20202036960E+04  0.88373654607E+02 0.  0.
         13    1    3    3    0    0 -0.10792064552E+03 -0.16093566208E+03  0.14773311672E+04  0.14899847418E+04  0.00000000000E+00 0.  1.
        -13    1    3    3    0    0 -0.21596058603E+02 -0.74641680661E+01  0.52972637831E+03  0.53021895424E+03  0.00000000000E+00 0. -1.
         22    1    1    2    0    0  0.12951670413E+03  0.16839983014E+03 -0.61423286395E+03  0.64993468179E+03  0.00000000000E+00 0.  1.
<mgrwt>
<rscale>  0 0.22780866E+04</rscale>
<asrwt>0</asrwt>
<pdfrwt beam="1">  1        1 0.31253562E+00 0.22780866E+04</pdfrwt>
<pdfrwt beam="2">  1       -1 0.98254901E-01 0.22780866E+04</pdfrwt>
<totfact> 0.25485215E+00</totfact>
</mgrwt>
</event>
<event>
 6    1  0.1878398E-004  0.8299353E+03  0.7818608E-02  0.9517670E-01
         -2   -1    0    0    0  501 -0.00000000000E+00  0.00000000000E+00  0.13984318484E+03  0.13984318484E+03  0.00000000000E+00 0. -1.
          2   -1    0    0  501    0  0.00000000000E+00 -0.00000000000E+00 -0.12313661082E+04  0.12313661082E+04  0.00000000000E+00 0.  1.
         23    2    1    2    0    0  0.15416479870E+03 -0.11989676538E+03 -0.11479430292E+04  0.11679231700E+04  0.90162703632E+02 0.  0.
         13    1    3    3    0    0  0.18354974834E+02 -0.42885804588E+02 -0.13083632210E+03  0.13890370952E+03  0.00000000000E+00 0. -1.
        -13    1    3    3    0    0  0.13580982386E+03 -0.77010960790E+02 -0.10171067071E+04  0.10290194604E+04  0.00000000000E+00 0.  1.
         22    1    1    2    0    0 -0.15416479870E+03  0.11989676538E+03  0.56420105825E+02  0.20328612310E+03  0.00000000000E+00 0. -1.
<mgrwt>
<rscale>  0 0.82993532E+03</rscale>
<asrwt>0</asrwt>
<pdfrwt beam="1">  1        2 0.18944094E+00 0.82993532E+03</pdfrwt>
<pdfrwt beam="2">  1       -2 0.21514337E-01 0.82993532E+03</pdfrwt>
<totfact> 0.34209508E+02</totfact>
</mgrwt>
</event>
<event>
 6    1  0.1878398E-004  0.3441277E+04  0.7818608E-02  0.8127849E-01
          2   -1    0    0  501    0  0.00000000000E+00  0.00000000000E+00  0.36699611207E+04  0.36699611207E+04  0.00000000000E+00 0. -1.
         -2   -1    0    0    0  501 -0.00000000000E+00 -0.00000000000E+00 -0.80671058682E+03  0.80671058682E+03  0.00000000000E+00 0.  1.
         23    2    1    2    0    0  0.87066411235E+03  0.13323037032E+04  0.22791128408E+04  0.27812938739E+04  0.90283542175E+02 0.  0.
         13    1    3    3    0    0  0.78722530888E+03  0.12197395943E+04  0.20334441153E+04  0.24984762026E+04  0.00000000000E+00 0.  1.
        -13    1    3    3    0    0  0.83438803461E+02  0.11256410890E+03  0.24566872551E+03  0.28281767135E+03  0.00000000000E+00 0. -1.
         22    1    1    2    0    0 -0.87066411235E+03 -0.13323037032E+04  0.58413769309E+03  0.16953778336E+04  0.00000000000E+00 0.  1.
<mgrwt>
<rscale>  0 0.34412768E+04</rscale>
<asrwt>0</asrwt>
<pdfrwt beam="1">  1        2 0.56460940E+00 0.34412768E+04</pdfrwt>
<pdfrwt beam="2">  1       -2 0.12410932E+00 0.34412768E+04</pdfrwt>
<totfact> 0.24708986E-01</totfact>
</mgrwt>
</event>
<event>
 6    1  0.1878398E-004  0.5137471E+04  0.7818608E-02  0.7807644E-01
          2   -1    0    0  501    0  0.00000000000E+00  0.00000000000E+00  0.30811787328E+04  0.30811787328E+04  0.00000000000E+00 0.  1.
         -2   -1    0    0    0  501 -0.00000000000E+00 -0.00000000000E+00 -0.21415187677E+04  0.21415187677E+04  0.00000000000E+00 0. -1.
         23    2    1    2    0    0 -0.21914323230E+04  0.10712816852E+04  0.12860765784E+04  0.27589555203E+04  0.88445023691E+02 0.  0.
         11    1    3    3    0    0 -0.20614964630E+04  0.10300708967E+04  0.12108726826E+04  0.26032722433E+04  0.00000000000E+00 0.  1.
        -11    1    3    3    0    0 -0.12993585998E+03  0.41210788499E+02  0.75203895749E+02  0.15568327699E+03  0.00000000000E+00 0. -1.
         22    1    1    2    0    0  0.21914323230E+04 -0.10712816852E+04 -0.34641661329E+03  0.24637419802E+04  0.00000000000E+00 0. -1.
<mgrwt>
<rscale>  0 0.51374710E+04</rscale>
<asrwt>0</asrwt>
<pdfrwt beam="1">  1        2 0.47402750E+00 0.51374710E+04</pdfrwt>
<pdfrwt beam="2">  1       -2 0.32946443E+00 0.51374710E+04</pdfrwt>
<totfact> 0.23290708E-02</totfact>
</mgrwt>
</event>
<event>
 6    1  0.1878398E-004  0.1980119E+04  0.7818608E-02  0.8615972E-01
          2   -1    0    0  501    0  0.00000000000E+00  0.00000000000E+00  0.80764650138E+03  0.80764650138E+03  0.00000000000E+00 0.  1.
         -2   -1    0    0    0  501 -0.00000000000E+00 -0.00000000000E+00 -0.12136718781E+04  0.12136718781E+04  0.00000000000E+00 0. -1.
         23    2    1    2    0    0 -0.47692734763E+03  0.35671249342E+03 -0.10081652896E+04  0.11743969116E+04  0.90040862717E+02 0.  0.
         11    1    3    3    0    0 -0.21780005431E+03  0.11189647401E+03 -0.37775444910E+03  0.45017342032E+03  0.00000000000E+00 0. -1.
        -11    1    3    3    0    0 -0.25912729332E+03  0.24481601941E+03 -0.63041084052E+03  0.72422349130E+03  0.00000000000E+00 0.  1.
         22    1    1    2    0    0  0.47692734763E+03 -0.35671249342E+03  0.60213991295E+03  0.84692146781E+03  0.00000000000E+00 0.  1.
<mgrwt>
<rscale>  0 0.19801190E+04</rscale>
<asrwt>0</asrwt>
<pdfrwt beam="1">  1        2 0.12425331E+00 0.19801190E+04</pdfrwt>
<pdfrwt beam="2">  1       -2 0.18671875E+00 0.19801190E+04</pdfrwt>
<totfact> 0.51595552E+00</totfact>
</mgrwt>
</event>
<event>
 6    1  0.1878398E-004  0.3975401E+04  0.7818608E-02  0.8009527E-01
         -2   -1    0    0    0  501 -0.00000000000E+00  0.00000000000E+00  0.10751145647E+04  0.10751145647E+04  0.00000000000E+00 0. -1.
          2   -1    0    0  501    0  0.00000000000E+00 -0.00000000000E+00 -0.36749142351E+04  0.36749142351E+04  0.00000000000E+00 0.  1.
         23    2    1    2    0    0  0.18229938846E+04 -0.20313046202E+03 -0.22123482628E+04  0.28752788749E+04  0.90416174375E+02 0.  0.
         13    1    3    3    0    0  0.85571469308E+03 -0.13606625971E+03 -0.10753718310E+04  0.13810091375E+04  0.00000000000E+00 0. -1.
        -13    1    3    3    0    0  0.96727919148E+03 -0.67064202306E+02 -0.11369764319E+04  0.14942697374E+04  0.00000000000E+00 0.  1.
         22    1    1    2    0    0 -0.18229938846E+04  0.20313046202E+03 -0.38745140761E+03  0.18747499249E+04  0.00000000000E+00 0.  1.
<mgrwt>
<rscale>  0 0.39754013E+04</rscale>
<asrwt>0</asrwt>
<pdfrwt beam="1">  1        2 0.56537143E+00 0.39754013E+04</pdfrwt>
<pdfrwt beam="2">  1       -2 0.16540224E+00 0.39754013E+04</pdfrwt>
<totfact> 0.11045250E-01</totfact>
</mgrwt>
</event>
<event>
 6    1  0.1878398E-004  0.4270070E+04  0.7818608E-02  0.7952176E-01
         -2   -1    0    0    0  501 -0.00000000000E+00  0.00000000000E+00  0.15091952464E+04  0.15091952464E+04  0.00000000000E+00 0. -1.
          2   -1    0    0  501    0  0.00000000000E+00 -0.00000000000E+00 -0.30204006579E+04  0.30204006579E+04  0.00000000000E+00 0.  1.
         23    2    1    2    0    0  0.10719442952E+04  0.64265787697E+03 -0.25908202931E+04  0.28780384541E+04  0.93176353812E+02 0.  0.
         13    1    3    3    0    0  0.76105399383E+03  0.49386933501E+03 -0.19366645865E+04  0.21386397131E+04  0.00000000000E+00 0.  1.
        -13    1    3    3    0    0  0.31089030137E+03  0.14878854196E+03 -0.65415570660E+03  0.73939874100E+03  0.00000000000E+00 0. -1.
         22    1    1    2    0    0 -0.10719442952E+04 -0.64265787697E+03  0.10796148816E+04  0.16515574503E+04  0.00000000000E+00 0. -1.
<mgrwt>
<rscale>  0 0.42700699E+04</rscale>
<asrwt>0</asrwt>
<pdfrwt beam="1">  1        2 0.46467702E+00 0.42700699E+04</pdfrwt>
<pdfrwt beam="2">  1       -2 0.23218389E+00 0.42700699E+04</pdfrwt>
<totfact> 0.10804622E-01</totfact>
</mgrwt>
</event>
<event>
 6    1  0.1878398E-004  0.1713583E+04  0.7818608E-02  0.8753655E-01
         -2   -1    0    0    0  501 -0.00000000000E+00  0.00000000000E+00  0.37238505121E+03  0.37238505121E+03  0.00000000000E+00 0. -1.
          2   -1    0    0  501    0  0.00000000000E+00 -0.00000000000E+00 -0.19713253020E+04  0.19713253020E+04  0.00000000000E+00 0.  1.
         23    2    1    2    0    0  0.21015351751E+03 -0.61502077624E+03 -0.43297645085E+02  0.65775692181E+03  0.91402549182E+02 0.  0.
         13    1    3    3    0    0  0.12465792310E+03 -0.25130376451E+03  0.79059791308E+01  0.28063443188E+03  0.00000000000E+00 0. -1.
        -13    1    3    3    0    0  0.85495594413E+02 -0.36371701172E+03 -0.51203624216E+02  0.37712248993E+03  0.00000000000E+00 0.  1.
         22    1    1    2    0    0 -0.21015351751E+03  0.61502077624E+03 -0.15556426057E+04  0.16859534314E+04  0.00000000000E+00 0.  1.
<mgrwt>
<rscale>  0 0.17135835E+04</rscale>
<asrwt>0</asrwt>
<pdfrwt beam="1">  1        2 0.30328081E+00 0.17135835E+04</pdfrwt>
<pdfrwt beam="2">  1       -2 0.57290009E-01 0.17135835E+04</pdfrwt>
<totfact> 0.18810006E+01</totfact>
</mgrwt>
</event>
<event>
 6    1  0.1878398E-004  0.1379728E+04  0.7818608E-02  0.8968625E-01
         -2   -1    0    0    0  501 -0.00000000000E+00  0.00000000000E+00  0.19940172480E+03  0.19940172480E+03  0.00000000000E+00 0. -1.
          2   -1    0    0  501    0  0.00000000000E+00 -0.00000000000E+00 -0.23867008811E+04  0.23867008811E+04  0.00000000000E+00 0.  1.
         23    2    1    2    0    0  0.66871063338E+03 -0.12404644991E+03 -0.91869795636E+03  0.11466893791E+04  0.91264254861E+02 0.  0.
         13    1    3    3    0    0  0.27984851712E+03 -0.53935322869E+02 -0.31108884608E+03  0.42190103312E+03  0.00000000000E+00 0.  1.
        -13    1    3    3    0    0  0.38886211626E+03 -0.70111127045E+02 -0.60760911028E+03  0.72478834600E+03  0.00000000000E+00 0. -1.
         22    1    1    2    0    0 -0.66871063338E+03  0.12404644991E+03 -0.12686011999E+04  0.14394132267E+04  0.00000000000E+00 0.  1.
<mgrwt>
<rscale>  0 0.13797279E+04</rscale>
<asrwt>0</asrwt>
<pdfrwt beam="1">  1        2 0.36718475E+00 0.13797279E+04</pdfrwt>
<pdfrwt beam="2">  1       -2 0.30677188E-01 0.13797279E+04</pdfrwt>
<totfact> 0.38898778E+01</totfact>
</mgrwt>
</event>
<event>
 6    1  0.2182058E-004  0.2067745E+04  0.7818608E-02  0.8575587E-01
         -2   -1    0    0    0  501 -0.00000000000E+00  0.00000000000E+00  0.87346127183E+03  0.87346127183E+03  0.00000000000E+00 0. -1.
          2   -1    0    0  501    0  0.00000000000E+00 -0.00000000000E+00 -0.12237426853E+04  0.12237426853E+04  0.00000000000E+00 0.  1.
         23    2    1    2    0    0 -0.90127401502E+03  0.47420902893E+03 -0.34384988645E+03  0.10787686780E+04  0.91323945094E+02 0.  0.
         13    1    3    3    0    0 -0.30069222619E+03  0.12825252910E+03 -0.75291665481E+02  0.33545992459E+03  0.00000000000E+00 0. -1.
        -13    1    3    3    0    0 -0.60058178882E+03  0.34595649983E+03 -0.26855822097E+03  0.74330875341E+03  0.00000000000E+00 0.  1.
         22    1    1    2    0    0  0.90127401502E+03 -0.47420902893E+03 -0.64315270394E+01  0.10184352791E+04  0.00000000000E+00 0. -1.
<mgrwt>
<rscale>  0 0.20677445E+04</rscale>
<asrwt>0</asrwt>
<pdfrwt beam="1">  1        2 0.18826810E+00 0.20677445E+04</pdfrwt>
<pdfrwt beam="2">  1       -2 0.13437866E+00 0.20677445E+04</pdfrwt>
<totfact> 0.67629488E+00</totfact>
</mgrwt>
</event>
<event>
 6    1  0.1878398E-004  0.3762955E+04  0.7818608E-02  0.8054152E-01
          2   -1    0    0  501    0  0.00000000000E+00  0.00000000000E+00  0.38296122493E+04  0.38296122493E+04  0.00000000000E+00 0.  1.
         -2   -1    0    0    0  501 -0.00000000000E+00 -0.00000000000E+00 -0.92436452650E+03  0.92436452650E+03  0.00000000000E+00 0. -1.
         23    2    1    2    0    0  0.11963607946E+04 -0.80662522171E+03  0.29768379455E+04  0.33093146841E+04  0.89867263650E+02 0.  0.
         11    1    3    3    0    0  0.14821574259E+03 -0.13304506426E+03  0.44382218234E+03  0.48646379620E+03  0.00000000000E+00 0. -1.
        -11    1    3    3    0    0  0.10481450520E+04 -0.67358015745E+03  0.25330157632E+04  0.28228508879E+04  0.00000000000E+00 0.  1.
         22    1    1    2    0    0 -0.11963607946E+04  0.80662522171E+03 -0.71590222735E+02  0.14446620917E+04  0.00000000000E+00 0. -1.
<mgrwt>
<rscale>  0 0.37629551E+04</rscale>
<asrwt>0</asrwt>
<pdfrwt beam="1">  1        2 0.58917110E+00 0.37629551E+04</pdfrwt>
<pdfrwt beam="2">  1       -2 0.14220993E+00 0.37629551E+04</pdfrwt>
<totfact> 0.12892077E-01</totfact>
</mgrwt>
</event>
<event>
 6    1  0.1878398E-004  0.3469276E+04  0.7818608E-02  0.8121110E-01
         -1   -1    0    0    0  501 -0.00000000000E+00  0.00000000000E+00  0.10862890481E+04  0.10862890481E+04  0.00000000000E+00 0.  1.
          1   -1    0    0  501    0  0.00000000000E+00 -0.00000000000E+00 -0.27699520701E+04  0.27699520701E+04  0.00000000000E+00 0. -1.
         23    2    1    2    0    0  0.80960747768E+03 -0.11284965278E+04 -0.19953475425E+04  0.24328241303E+04  0.90844662588E+02 0.  0.
         11    1    3    3    0    0  0.24998761504E+03 -0.32528933687E+03 -0.65932744641E+03  0.77654339347E+03  0.00000000000E+00 0. -1.
        -11    1    3    3    0    0  0.55961986264E+03 -0.80320719093E+03 -0.13360200960E+04  0.16562807368E+04  0.00000000000E+00 0.  1.
         22    1    1    2    0    0 -0.80960747768E+03  0.11284965278E+04  0.31168452042E+03  0.14234169879E+04  0.00000000000E+00 0.  1.
<mgrwt>
<rscale>  0 0.34692758E+04</rscale>
<asrwt>0</asrwt>
<pdfrwt beam="1">  1        1 0.42614647E+00 0.34692758E+04</pdfrwt>
<pdfrwt beam="2">  1       -1 0.16712139E+00 0.34692758E+04</pdfrwt>
<totfact> 0.18496624E-01</totfact>
</mgrwt>
</event>
<event>
 6    1  0.1878398E-004  0.6001936E+03  0.7818608E-02  0.9905005E-01
          2   -1    0    0  501    0  0.00000000000E+00  0.00000000000E+00  0.52617643707E+03  0.52617643707E+03  0.00000000000E+00 0.  1.
         -2   -1    0    0    0  501 -0.00000000000E+00 -0.00000000000E+00 -0.17115566142E+03  0.17115566142E+03  0.00000000000E+00 0. -1.
         23    2    1    2    0    0 -0.23022348919E+03 -0.38307692593E+01 -0.32061377889E+02  0.24694324056E+03  0.83279663405E+02 0.  0.
         13    1    3    3    0    0 -0.12471909993E+03  0.37486199697E+02 -0.29887240907E+02  0.13361630224E+03  0.00000000000E+00 0. -1.
        -13    1    3    3    0    0 -0.10550438926E+03 -0.41316968957E+02 -0.21741369825E+01  0.11332693832E+03  0.00000000000E+00 0.  1.
         22    1    1    2    0    0  0.23022348919E+03  0.38307692593E+01  0.38708215354E+03  0.45038885794E+03  0.00000000000E+00 0.  1.
<mgrwt>
<rscale>  0 0.60019356E+03</rscale>
<asrwt>0</asrwt>
<pdfrwt beam="1">  1        2 0.80950220E-01 0.60019356E+03</pdfrwt>
<pdfrwt beam="2">  1       -2 0.26331640E-01 0.60019356E+03</pdfrwt>
<totfact> 0.76035407E+02</totfact>
</mgrwt>
</event>
<event>
 6    1  0.1878398E-004  0.3782511E+04  0.7818608E-02  0.8049918E-01
          2   -1    0    0  501    0  0.00000000000E+00  0.00000000000E+00  0.32864820569E+04  0.32864820569E+04  0.00000000000E+00 0.  1.
         -2   -1    0    0    0  501 -0.00000000000E+00 -0.00000000000E+00 -0.10883516925E+04  0.10883516925E+04  0.00000000000E+00 0. -1.
         23    2    1    2    0    0  0.21200336840E+03 -0.59181064472E+03  0.31613766612E+04  0.32246039046E+04  0.92642753362E+02 0.  0.
         13    1    3    3    0    0  0.14517985308E+03 -0.46104819027E+03  0.22361018858E+04  0.22877487334E+04  0.00000000000E+00 0. -1.
        -13    1    3    3    0    0  0.66823515320E+02 -0.13076245445E+03  0.92527477541E+03  0.93685517115E+03  0.00000000000E+00 0.  1.
         22    1    1    2    0    0 -0.21200336840E+03  0.59181064472E+03 -0.96324629687E+03  0.11502298448E+04  0.00000000000E+00 0. -1.
<mgrwt>
<rscale>  0 0.37825115E+04</rscale>
<asrwt>0</asrwt>
<pdfrwt beam="1">  1        2 0.50561262E+00 0.37825115E+04</pdfrwt>
<pdfrwt beam="2">  1       -2 0.16743872E+00 0.37825115E+04</pdfrwt>
<totfact> 0.20275590E-01</totfact>
</mgrwt>
</event>
<event>
 6    1  0.1878398E-004  0.2418249E+04  0.7818608E-02  0.8432703E-01
         -2   -1    0    0    0  501 -0.00000000000E+00  0.00000000000E+00  0.74374460661E+03  0.74374460661E+03  0.00000000000E+00 0. -1.
          2   -1    0    0  501    0  0.00000000000E+00 -0.00000000000E+00 -0.19657045143E+04  0.19657045143E+04  0.00000000000E+00 0.  1.
         23    2    1    2    0    0  0.10701655721E+04  0.54916686821E+03 -0.72854110232E+03  0.14093334651E+04  0.92790502069E+02 0.  0.
         13    1    3    3    0    0  0.93409107956E+03  0.44679081360E+03 -0.64194024151E+03  0.12182920215E+04  0.00000000000E+00 0. -1.
        -13    1    3    3    0    0  0.13607449257E+03  0.10237605462E+03 -0.86600860806E+02  0.19104144362E+03  0.00000000000E+00 0.  1.
         22    1    1    2    0    0 -0.10701655721E+04 -0.54916686821E+03 -0.49341880542E+03  0.13001156558E+04  0.00000000000E+00 0.  1.
<mgrwt>
<rscale>  0 0.24182491E+04</rscale>
<asrwt>0</asrwt>
<pdfrwt beam="1">  1        2 0.30241607E+00 0.24182491E+04</pdfrwt>
<pdfrwt beam="2">  1       -2 0.11442225E+00 0.24182491E+04</pdfrwt>
<totfact> 0.37418855E+00</totfact>
</mgrwt>
</event>
<event>
 6    1  0.1878398E-004  0.8590976E+03  0.7818608E-02  0.9478207E-01
          2   -1    0    0  501    0  0.00000000000E+00  0.00000000000E+00  0.11469791481E+04  0.11469791481E+04  0.00000000000E+00 0.  1.
         -2   -1    0    0    0  501 -0.00000000000E+00 -0.00000000000E+00 -0.16086795363E+03  0.16086795363E+03  0.00000000000E+00 0. -1.
         23    2    1    2    0    0  0.24997260102E+03  0.54909506790E+02  0.10145947304E+04  0.10503346419E+04  0.91099054556E+02 0.  0.
         13    1    3    3    0    0  0.14344440725E+03  0.62735719394E+02  0.72388543368E+03  0.74062283894E+03  0.00000000000E+00 0.  1.
        -13    1    3    3    0    0  0.10652819377E+03 -0.78262126038E+01  0.29070929672E+03  0.30971180292E+03  0.00000000000E+00 0. -1.
         22    1    1    2    0    0 -0.24997260102E+03 -0.54909506790E+02 -0.28483535877E+02  0.25751245991E+03  0.00000000000E+00 0. -1.
<mgrwt>
<rscale>  0 0.85909764E+03</rscale>
<asrwt>0</asrwt>
<pdfrwt beam="1">  1        2 0.17645833E+00 0.85909764E+03</pdfrwt>
<pdfrwt beam="2">  1       -2 0.24748917E-01 0.85909764E+03</pdfrwt>
<totfact> 0.29861347E+02</totfact>
</mgrwt>
</event>
<event>
 6    1  0.1878398E-004  0.1853290E+04  0.7818608E-02  0.8678463E-01
          2   -1    0    0  501    0  0.00000000000E+00  0.00000000000E+00  0.21867839064E+04  0.21867839064E+04  0.00000000000E+00 0.  1.
         -2   -1    0    0    0  501 -0.00000000000E+00 -0.00000000000E+00 -0.39266370737E+03  0.39266370737E+03  0.00000000000E+00 0. -1.
         23    2    1    2    0    0 -0.16931425093E+03  0.86501063587E+03  0.12869301000E+04  0.15625147190E+04  0.91391735419E+02 0.  0.
         11    1    3    3    0    0 -0.16626432943E+03  0.79549843689E+03  0.12205013983E+04  0.14663169008E+04  0.00000000000E+00 0.  1.
        -11    1    3    3    0    0 -0.30499214934E+01  0.69512198978E+02  0.66428701625E+02  0.96197818205E+02  0.00000000000E+00 0. -1.
         22    1    1    2    0    0  0.16931425093E+03 -0.86501063587E+03  0.50719009904E+03  0.10169328947E+04  0.00000000000E+00 0. -1.
<mgrwt>
<rscale>  0 0.18532897E+04</rscale>
<asrwt>0</asrwt>
<pdfrwt beam="1">  1        2 0.33642829E+00 0.18532897E+04</pdfrwt>
<pdfrwt beam="2">  1       -2 0.60409802E-01 0.18532897E+04</pdfrwt>
<totfact> 0.12608546E+01</totfact>
</mgrwt>
</event>
<event>
 6    1  0.1878398E-004  0.1310674E+04  0.7818608E-02  0.9021143E-01
          2   -1    0    0  501    0  0.00000000000E+00  0.00000000000E+00  0.15327945674E+04  0.15327945674E+04  0.00000000000E+00 0.  1.
         -2   -1    0    0    0  501 -0.00000000000E+00 -0.00000000000E+00 -0.28018551063E+03  0.28018551063E+03  0.00000000000E+00 0. -1.
         23    2    1    2    0    0  0.23468385138E+03  0.25032178392E+03 -0.13772779323E+03  0.38092768301E+03  0.91648508171E+02 0.  0.
         11    1    3    3    0    0  0.17482840507E+02  0.64563924612E+02 -0.44361066016E+02  0.80262408707E+02  0.00000000000E+00 0. -1.
        -11    1    3    3    0    0  0.21720101088E+03  0.18575785930E+03 -0.93366727217E+02  0.30066527430E+03  0.00000000000E+00 0.  1.
         22    1    1    2    0    0 -0.23468385138E+03 -0.25032178392E+03  0.13903368500E+04  0.14320523950E+04  0.00000000000E+00 0.  1.
<mgrwt>
<rscale>  0 0.13106744E+04</rscale>
<asrwt>0</asrwt>
<pdfrwt beam="1">  1        2 0.23581454E+00 0.13106744E+04</pdfrwt>
<pdfrwt beam="2">  1       -2 0.43105464E-01 0.13106744E+04</pdfrwt>
<totfact> 0.60775821E+01</totfact>
</mgrwt>
</event>
<event>
 6    1  0.1878398E-004  0.2908021E+04  0.7818608E-02  0.8270495E-01
          1   -1    0    0  501    0  0.00000000000E+00  0.00000000000E+00  0.14339812768E+04  0.14339812768E+04  0.00000000000E+00 0.  1.
         -1   -1    0    0    0  501 -0.00000000000E+00 -0.00000000000E+00 -0.14743196556E+04  0.14743196556E+04  0.00000000000E+00 0. -1.
         23    2    1    2    0    0 -0.15287976138E+02 -0.79652564241E+03 -0.12350114167E+04  0.14723585628E+04  0.88880352295E+02 0.  0.
         13    1    3    3    0    0  0.40023241385E+01 -0.70491055309E+03 -0.11282350756E+04  0.13303493121E+04  0.00000000000E+00 0.  1.
        -13    1    3    3    0    0 -0.19290300276E+02 -0.91615089318E+02 -0.10677634107E+03  0.14200925071E+03  0.00000000000E+00 0. -1.
         22    1    1    2    0    0  0.15287976138E+02  0.79652564241E+03  0.11946730379E+04  0.14359423696E+04  0.00000000000E+00 0.  1.
<mgrwt>
<rscale>  0 0.29080212E+04</rscale>
<asrwt>0</asrwt>
<pdfrwt beam="1">  1        1 0.22061251E+00 0.29080212E+04</pdfrwt>
<pdfrwt beam="2">  1       -1 0.22681841E+00 0.29080212E+04</pdfrwt>
<totfact> 0.61821408E-01</totfact>
</mgrwt>
</event>
<event>
 6    1  0.1878398E-004  0.1859986E+04  0.7818608E-02  0.8675034E-01
         -2   -1    0    0    0  501 -0.00000000000E+00  0.00000000000E+00  0.10757805425E+04  0.10757805425E+04  0.00000000000E+00 0. -1.
          2   -1    0    0  501    0  0.00000000000E+00 -0.00000000000E+00 -0.80396255801E+03  0.80396255801E+03  0.00000000000E+00 0.  1.
         23    2    1    2    0    0  0.71912884656E+03  0.50653094480E+03  0.43429592500E+03  0.98524940169E+03  0.91561657188E+02 0.  0.
         11    1    3    3    0    0  0.24289688269E+03  0.12028116347E+03  0.14130547661E+03  0.30566925201E+03  0.00000000000E+00 0.  1.
        -11    1    3    3    0    0  0.47623196387E+03  0.38624978133E+03  0.29299044839E+03  0.67958014968E+03  0.00000000000E+00 0. -1.
         22    1    1    2    0    0 -0.71912884656E+03 -0.50653094480E+03 -0.16247794055E+03  0.89449369878E+03  0.00000000000E+00 0.  1.
<mgrwt>
<rscale>  0 0.18599863E+04</rscale>
<asrwt>0</asrwt>
<pdfrwt beam="1">  1        2 0.12368655E+00 0.18599863E+04</pdfrwt>
<pdfrwt beam="2">  1       -2 0.16550470E+00 0.18599863E+04</pdfrwt>
<totfact> 0.73777331E+00</totfact>
</mgrwt>
</event>
<event>
 6    1  0.1878398E-004  0.3552521E+04  0.7818608E-02  0.8101455E-01
         -1   -1    0    0    0  501 -0.00000000000E+00  0.00000000000E+00  0.19179528701E+04  0.19179528701E+04  0.00000000000E+00 0.  1.
          1   -1    0    0  501    0  0.00000000000E+00 -0.00000000000E+00 -0.16450361187E+04  0.16450361187E+04  0.00000000000E+00 0. -1.
         23    2    1    2    0    0  0.60834262271E+03 -0.11155654873E+04  0.13798445238E+04  0.18778017006E+04  0.87184940545E+02 0.  0.
         13    1    3    3    0    0  0.25738720194E+03 -0.42757100557E+03  0.48777217603E+03  0.69784441836E+03  0.00000000000E+00 0. -1.
        -13    1    3    3    0    0  0.35095542078E+03 -0.68799448174E+03  0.89207234777E+03  0.11799572823E+04  0.00000000000E+00 0.  1.
         22    1    1    2    0    0 -0.60834262271E+03  0.11155654873E+04 -0.11069277724E+04  0.16851872883E+04  0.00000000000E+00 0. -1.
<mgrwt>
<rscale>  0 0.35525212E+04</rscale>
<asrwt>0</asrwt>
<pdfrwt beam="1">  1        1 0.25308248E+00 0.35525212E+04</pdfrwt>
<pdfrwt beam="2">  1       -1 0.29506967E+00 0.35525212E+04</pdfrwt>
<totfact> 0.15003923E-01</totfact>
</mgrwt>
</event>
<event>
 6    1  0.1878398E-004  0.2554039E+04  0.7818608E-02  0.8383983E-01
          2   -1    0    0  501    0  0.00000000000E+00  0.00000000000E+00  0.23741869822E+04  0.23741869822E+04  0.00000000000E+00 0. -1.
         -2   -1    0    0    0  501 -0.00000000000E+00 -0.00000000000E+00 -0.68687869165E+03  0.68687869165E+03  0.00000000000E+00 0.  1.
         23    2    1    2    0    0  0.49889131128E+03 -0.11539560970E+04  0.58711966496E+03  0.13904603266E+04  0.90350454940E+02 0.  0.
         13    1    3    3    0    0  0.49386259758E+03 -0.10997092903E+04  0.55412769123E+03  0.13267698695E+04  0.00000000000E+00 0.  1.
        -13    1    3    3    0    0  0.50287136974E+01 -0.54246806674E+02  0.32991973729E+02  0.63690457105E+02  0.00000000000E+00 0. -1.
         22    1    1    2    0    0 -0.49889131128E+03  0.11539560970E+04  0.11001886256E+04  0.16706053472E+04  0.00000000000E+00 0. -1.
<mgrwt>
<rscale>  0 0.25540387E+04</rscale>
<asrwt>0</asrwt>
<pdfrwt beam="1">  1        2 0.36525953E+00 0.25540387E+04</pdfrwt>
<pdfrwt beam="2">  1       -2 0.10567365E+00 0.25540387E+04</pdfrwt>
<totfact> 0.26431904E+00</totfact>
</mgrwt>
</event>
<event>
 6    1  0.1878398E-004  0.1055600E+04  0.7818608E-02  0.9249581E-01
          2   -1    0    0  501    0  0.00000000000E+00  0.00000000000E+00  0.82509058730E+03  0.82509058730E+03  0.00000000000E+00 0. -1.
         -2   -1    0    0    0  501 -0.00000000000E+00 -0.00000000000E+00 -0.33762710959E+03  0.33762710959E+03  0.00000000000E+00 0.  1.
         23    2    1    2    0    0  0.15550766542E+03  0.42585251598E+03 -0.43860785876E+02  0.46426335162E+03  0.89909352938E+02 0.  0.
         13    1    3    3    0    0  0.13540554686E+03  0.41985683022E+03 -0.40327573537E+02  0.44299066941E+03  0.00000000000E+00 0.  1.
        -13    1    3    3    0    0  0.20102118566E+02  0.59956857582E+01 -0.35332123395E+01  0.21272682200E+02  0.00000000000E+00 0. -1.
         22    1    1    2    0    0 -0.15550766542E+03 -0.42585251598E+03  0.53132426358E+03  0.69845434528E+03  0.00000000000E+00 0. -1.
<mgrwt>
<rscale>  0 0.10556002E+04</rscale>
<asrwt>0</asrwt>
<pdfrwt beam="1">  1        2 0.12693701E+00 0.10556002E+04</pdfrwt>
<pdfrwt beam="2">  1       -2 0.51942633E-01 0.10556002E+04</pdfrwt>
<totfact> 0.11513307E+02</totfact>
</mgrwt>
</event>
<event>
 6    1  0.1878398E-004  0.1870611E+04  0.7818608E-02  0.8669625E-01
          2   -1    0    0  501    0  0.00000000000E+00  0.00000000000E+00  0.13108673583E+04  0.13108673583E+04  0.00000000000E+00 0.  1.
         -2   -1    0    0    0  501 -0.00000000000E+00 -0.00000000000E+00 -0.66734155377E+03  0.66734155377E+03  0.00000000000E+00 0. -1.
         23    2    1    2    0    0 -0.15111644372E+03  0.30148450480E+03  0.12425542328E+04  0.12907759014E+04  0.91827664482E+02 0.  0.
         13    1    3    3    0    0 -0.56275316751E+02  0.13346969204E+03  0.70291072639E+03  0.71767998387E+03  0.00000000000E+00 0. -1.
        -13    1    3    3    0    0 -0.94841126972E+02  0.16801481276E+03  0.53964350642E+03  0.57309591753E+03  0.00000000000E+00 0.  1.
         22    1    1    2    0    0  0.15111644372E+03 -0.30148450480E+03 -0.59902842831E+03  0.68743301064E+03  0.00000000000E+00 0. -1.
<mgrwt>
<rscale>  0 0.18706109E+04</rscale>
<asrwt>0</asrwt>
<pdfrwt beam="1">  1        2 0.20167190E+00 0.18706109E+04</pdfrwt>
<pdfrwt beam="2">  1       -2 0.10266793E+00 0.18706109E+04</pdfrwt>
<totfact> 0.11866420E+01</totfact>
</mgrwt>
</event>
<event>
 6    1  0.1878398E-004  0.1580327E+04  0.7818608E-02  0.8832726E-01
          1   -1    0    0  501    0  0.00000000000E+00  0.00000000000E+00  0.17983905213E+04  0.17983905213E+04  0.00000000000E+00 0.  1.
         -1   -1    0    0    0  501 -0.00000000000E+00 -0.00000000000E+00 -0.34717602167E+03  0.34717602167E+03  0.00000000000E+00 0. -1.
         23    2    1    2    0    0 -0.48776211760E+03 -0.39625461073E+02  0.15657918413E+04  0.16429632921E+04  0.90234297035E+02 0.  0.
         11    1    3    3    0    0 -0.27838753216E+03  0.21025962908E+02  0.84420334396E+03  0.88916871017E+03  0.00000000000E+00 0. -1.
        -11    1    3    3    0    0 -0.20937458544E+03 -0.60651423981E+02  0.72158849733E+03  0.75379458192E+03  0.00000000000E+00 0.  1.
         22    1    1    2    0    0  0.48776211760E+03  0.39625461073E+02 -0.11457734170E+03  0.50260325084E+03  0.00000000000E+00 0. -1.
<mgrwt>
<rscale>  0 0.15803266E+04</rscale>
<asrwt>0</asrwt>
<pdfrwt beam="1">  1        1 0.27667546E+00 0.15803266E+04</pdfrwt>
<pdfrwt beam="2">  1       -1 0.53411696E-01 0.15803266E+04</pdfrwt>
<totfact> 0.13882817E+01</totfact>
</mgrwt>
</event>
<event>
 6    1  0.1878398E-004  0.2496039E+04  0.7818608E-02  0.8404398E-01
         -1   -1    0    0    0  501 -0.00000000000E+00  0.00000000000E+00  0.66570993130E+03  0.66570993130E+03  0.00000000000E+00 0. -1.
          1   -1    0    0  501    0  0.00000000000E+00 -0.00000000000E+00 -0.23396868655E+04  0.23396868655E+04  0.00000000000E+00 0.  1.
         23    2    1    2    0    0 -0.44773247188E+03  0.88275310928E+03 -0.17496025299E+04  0.20127051785E+04  0.10077551667E+03 0.  0.
         13    1    3    3    0    0 -0.25755147666E+03  0.42683802475E+03 -0.94879319846E+03  0.10717891565E+04  0.00000000000E+00 0. -1.
        -13    1    3    3    0    0 -0.19018099522E+03  0.45591508453E+03 -0.80080933142E+03  0.94091602204E+03  0.00000000000E+00 0.  1.
         22    1    1    2    0    0  0.44773247188E+03 -0.88275310928E+03  0.75625595652E+02  0.99269161830E+03  0.00000000000E+00 0. -1.
<mgrwt>
<rscale>  0 0.24960391E+04</rscale>
<asrwt>0</asrwt>
<pdfrwt beam="1">  1        1 0.35995182E+00 0.24960391E+04</pdfrwt>
<pdfrwt beam="2">  1       -1 0.10241691E+00 0.24960391E+04</pdfrwt>
<totfact> 0.14009515E+00</totfact>
</mgrwt>
</event>
<event>
 6    1  0.1878398E-004  0.2406906E+04  0.7818608E-02  0.8436923E-01
          2   -1    0    0  501    0  0.00000000000E+00  0.00000000000E+00  0.16179077576E+04  0.16179077576E+04  0.00000000000E+00 0.  1.
         -2   -1    0    0    0  501 -0.00000000000E+00 -0.00000000000E+00 -0.89516801454E+03  0.89516801454E+03  0.00000000000E+00 0. -1.
         23    2    1    2    0    0 -0.61378255582E+02 -0.65271114365E+03 -0.68972078121E+03  0.95588475625E+03  0.90563700762E+02 0.  0.
         11    1    3    3    0    0 -0.46030059835E+02 -0.18317145471E+03 -0.24140924797E+03  0.30651096755E+03  0.00000000000E+00 0.  1.
        -11    1    3    3    0    0 -0.15348195748E+02 -0.46953968895E+03 -0.44831153325E+03  0.64937378870E+03  0.00000000000E+00 0. -1.
         22    1    1    2    0    0  0.61378255582E+02  0.65271114365E+03  0.14124605243E+04  0.15571910159E+04  0.00000000000E+00 0.  1.
<mgrwt>
<rscale>  0 0.24069061E+04</rscale>
<asrwt>0</asrwt>
<pdfrwt beam="1">  1        2 0.24890889E+00 0.24069061E+04</pdfrwt>
<pdfrwt beam="2">  1       -2 0.13771816E+00 0.24069061E+04</pdfrwt>
<totfact> 0.36714094E+00</totfact>
</mgrwt>
</event>
<event>
 6    1  0.1878398E-004  0.1242385E+04  0.7818608E-02  0.9076545E-01
          2   -1    0    0  501    0  0.00000000000E+00  0.00000000000E+00  0.13780861738E+04  0.13780861738E+04  0.00000000000E+00 0.  1.
         -2   -1    0    0    0  501 -0.00000000000E+00 -0.00000000000E+00 -0.28001154185E+03  0.28001154185E+03  0.00000000000E+00 0. -1.
         23    2    1    2    0    0  0.11083870577E+03 -0.47731402783E+03  0.49504703575E+02  0.50068128474E+03  0.90095135053E+02 0.  0.
         11    1    3    3    0    0  0.66777506957E+02 -0.12410731952E+03  0.30721404578E+02  0.14424169610E+03  0.00000000000E+00 0.  1.
        -11    1    3    3    0    0  0.44061198814E+02 -0.35320670830E+03  0.18783298997E+02  0.35643958864E+03  0.00000000000E+00 0. -1.
         22    1    1    2    0    0 -0.11083870577E+03  0.47731402783E+03  0.10485699283E+04  0.11574164309E+04  0.00000000000E+00 0.  1.
<mgrwt>
<rscale>  0 0.12423849E+04</rscale>
<asrwt>0</asrwt>
<pdfrwt beam="1">  1        2 0.21201325E+00 0.12423849E+04</pdfrwt>
<pdfrwt beam="2">  1       -2 0.43078699E-01 0.12423849E+04</pdfrwt>
<totfact> 0.74850780E+01</totfact>
</mgrwt>
</event>
<event>
 6    1  0.1878398E-004  0.5732037E+03  0.7818608E-02  0.9962614E-01
          1   -1    0    0  501    0  0.00000000000E+00  0.00000000000E+00  0.52146545013E+03  0.52146545013E+03  0.00000000000E+00 0.  1.
         -1   -1    0    0    0  501 -0.00000000000E+00 -0.00000000000E+00 -0.15751880370E+03  0.15751880370E+03  0.00000000000E+00 0. -1.
         23    2    1    2    0    0 -0.95145419861E+02  0.15166085714E+03 -0.72960516454E+02  0.20681740251E+03  0.73461108845E+02 0.  0.
         11    1    3    3    0    0 -0.10375605311E+03  0.11973899584E+03 -0.48518265555E+02  0.16570083818E+03  0.00000000000E+00 0.  1.
        -11    1    3    3    0    0  0.86106332450E+01  0.31921861299E+02 -0.24442250899E+02  0.41116564334E+02  0.00000000000E+00 0. -1.
         22    1    1    2    0    0  0.95145419861E+02 -0.15166085714E+03  0.43690716288E+03  0.47216685132E+03  0.00000000000E+00 0.  1.
<mgrwt>
<rscale>  0 0.57320368E+03</rscale>
<asrwt>0</asrwt>
<pdfrwt beam="1">  1        1 0.80225453E-01 0.57320368E+03</pdfrwt>
<pdfrwt beam="2">  1       -1 0.24233662E-01 0.57320368E+03</pdfrwt>
<totfact> 0.62308479E+02</totfact>
</mgrwt>
</event>
<event>
 6    1  0.1878398E-004  0.2091301E+04  0.7818608E-02  0.8565085E-01
          2   -1    0    0  501    0  0.00000000000E+00  0.00000000000E+00  0.11502093086E+04  0.11502093086E+04  0.00000000000E+00 0.  1.
         -2   -1    0    0    0  501 -0.00000000000E+00 -0.00000000000E+00 -0.95059640839E+03  0.95059640839E+03  0.00000000000E+00 0. -1.
         23    2    1    2    0    0 -0.26870464773E+03  0.47112947304E+03 -0.79586424081E+03  0.96716560373E+03  0.88567754618E+02 0.  0.
         13    1    3    3    0    0 -0.23001305889E+03  0.34074513223E+03 -0.55686964241E+03  0.69218281620E+03  0.00000000000E+00 0. -1.
        -13    1    3    3    0    0 -0.38691588839E+02  0.13038434081E+03 -0.23899459840E+03  0.27498278753E+03  0.00000000000E+00 0.  1.
         22    1    1    2    0    0  0.26870464773E+03 -0.47112947304E+03  0.99547714099E+03  0.11336401132E+04  0.00000000000E+00 0.  1.
<mgrwt>
<rscale>  0 0.20913009E+04</rscale>
<asrwt>0</asrwt>
<pdfrwt beam="1">  1        2 0.17695528E+00 0.20913009E+04</pdfrwt>
<pdfrwt beam="2">  1       -2 0.14624560E+00 0.20913009E+04</pdfrwt>
<totfact> 0.59971483E+00</totfact>
</mgrwt>
</event>
<event>
 6    1  0.1878398E-004  0.4148907E+04  0.7818608E-02  0.7975163E-01
         -2   -1    0    0    0  501 -0.00000000000E+00  0.00000000000E+00  0.38023234408E+04  0.38023234408E+04  0.00000000000E+00 0. -1.
          2   -1    0    0  501    0  0.00000000000E+00 -0.00000000000E+00 -0.11317703435E+04  0.11317703435E+04  0.00000000000E+00 0.  1.
         23    2    1    2    0    0  0.80780480346E+03 -0.63252048676E+03 -0.80684946200E+03  0.13084959955E+04  0.92330651177E+02 0.  0.
         13    1    3    3    0    0  0.42587845820E+03 -0.33518094017E+03 -0.48454514926E+03  0.72698192927E+03  0.00000000000E+00 0. -1.
        -13    1    3    3    0    0  0.38192634526E+03 -0.29733954659E+03 -0.32230431274E+03  0.58151406619E+03  0.00000000000E+00 0.  1.
         22    1    1    2    0    0 -0.80780480346E+03  0.63252048676E+03  0.34774025593E+04  0.36255977888E+04  0.00000000000E+00 0. -1.
<mgrwt>
<rscale>  0 0.41489068E+04</rscale>
<asrwt>0</asrwt>
<pdfrwt beam="1">  1        2 0.17411852E+00 0.41489068E+04</pdfrwt>
<pdfrwt beam="2">  1       -2 0.58497283E+00 0.41489068E+04</pdfrwt>
<totfact> 0.95060057E-03</totfact>
</mgrwt>
</event>
<event>
 6    1  0.1878398E-004  0.1203556E+04  0.7818608E-02  0.9109750E-01
          2   -1    0    0  501    0  0.00000000000E+00  0.00000000000E+00  0.14046315388E+04  0.14046315388E+04  0.00000000000E+00 0.  1.
         -2   -1    0    0    0  501 -0.00000000000E+00 -0.00000000000E+00 -0.25781599048E+03  0.25781599048E+03  0.00000000000E+00 0. -1.
         23    2    1    2    0    0  0.93998202977E+02  0.17464935776E+03  0.13561889647E+04  0.13740462674E+04  0.97039046880E+02 0.  0.
         11    1    3    3    0    0 -0.32837687507E+01  0.23853137220E+02  0.42753746601E+03  0.42821494618E+03  0.00000000000E+00 0. -1.
        -11    1    3    3    0    0  0.97281971727E+02  0.15079622054E+03  0.92865149870E+03  0.94583132121E+03  0.00000000000E+00 0.  1.
         22    1    1    2    0    0 -0.93998202977E+02 -0.17464935776E+03 -0.20937341643E+03  0.28840126185E+03  0.00000000000E+00 0. -1.
<mgrwt>
<rscale>  0 0.12035555E+04</rscale>
<asrwt>0</asrwt>
<pdfrwt beam="1">  1        2 0.21609716E+00 0.12035555E+04</pdfrwt>
<pdfrwt beam="2">  1       -2 0.39663999E-01 0.12035555E+04</pdfrwt>
<totfact> 0.85262002E+01</totfact>
</mgrwt>
</event>
<event>
 6    1  0.1878398E-004  0.2500911E+04  0.7818608E-02  0.8402661E-01
          2   -1    0    0  501    0  0.00000000000E+00  0.00000000000E+00  0.10724003811E+04  0.10724003811E+04  0.00000000000E+00 0.  1.
         -2   -1    0    0    0  501 -0.00000000000E+00 -0.00000000000E+00 -0.14580736257E+04  0.14580736257E+04  0.00000000000E+00 0. -1.
         23    2    1    2    0    0  0.70954819101E+03 -0.88498648134E+03  0.33553534704E+03  0.11863008259E+04  0.89810761509E+02 0.  0.
         11    1    3    3    0    0  0.58949086160E+03 -0.78450800067E+03  0.29032475007E+03  0.10233478097E+04  0.00000000000E+00 0. -1.
        -11    1    3    3    0    0  0.12005732941E+03 -0.10047848067E+03  0.45210596968E+02  0.16295301624E+03  0.00000000000E+00 0.  1.
         22    1    1    2    0    0 -0.70954819101E+03  0.88498648134E+03 -0.72120859167E+03  0.13441731809E+04  0.00000000000E+00 0.  1.
<mgrwt>
<rscale>  0 0.25009108E+04</rscale>
<asrwt>0</asrwt>
<pdfrwt beam="1">  1        2 0.16498467E+00 0.25009108E+04</pdfrwt>
<pdfrwt beam="2">  1       -2 0.22431902E+00 0.25009108E+04</pdfrwt>
<totfact> 0.18757005E+00</totfact>
</mgrwt>
</event>
<event>
 6    1  0.1878398E-004  0.3751553E+04  0.7818608E-02  0.8056632E-01
          1   -1    0    0  501    0  0.00000000000E+00  0.00000000000E+00  0.20079091729E+04  0.20079091729E+04  0.00000000000E+00 0.  1.
         -1   -1    0    0    0  501 -0.00000000000E+00 -0.00000000000E+00 -0.17523390782E+04  0.17523390782E+04  0.00000000000E+00 0. -1.
         23    2    1    2    0    0  0.17827698195E+04  0.49335507721E+03  0.43239621434E+03  0.19020407982E+04  0.95526175631E+02 0.  0.
         13    1    3    3    0    0  0.86412668312E+03  0.23782148193E+03  0.16051618544E+03  0.91051602267E+03  0.00000000000E+00 0.  1.
        -13    1    3    3    0    0  0.91864313636E+03  0.25553359527E+03  0.27188002890E+03  0.99152477549E+03  0.00000000000E+00 0. -1.
         22    1    1    2    0    0 -0.17827698195E+04 -0.49335507721E+03 -0.17682611961E+03  0.18582074529E+04  0.00000000000E+00 0. -1.
<mgrwt>
<rscale>  0 0.37515531E+04</rscale>
<asrwt>0</asrwt>
<pdfrwt beam="1">  1        1 0.30890910E+00 0.37515531E+04</pdfrwt>
<pdfrwt beam="2">  1       -1 0.26959063E+00 0.37515531E+04</pdfrwt>
<totfact> 0.12224741E-01</totfact>
</mgrwt>
</event>
<event>
 6    1  0.1878398E-004  0.2444404E+04  0.7818608E-02  0.8423064E-01
          2   -1    0    0  501    0  0.00000000000E+00  0.00000000000E+00  0.12161483489E+04  0.12161483489E+04  0.00000000000E+00 0.  1.
         -2   -1    0    0    0  501 -0.00000000000E+00 -0.00000000000E+00 -0.12282854104E+04  0.12282854104E+04  0.00000000000E+00 0. -1.
         23    2    1    2    0    0 -0.31583774674E+03  0.72067657018E+03 -0.93916349155E+03  0.12284953549E+04  0.89691538817E+02 0.  0.
         11    1    3    3    0    0 -0.16515260307E+03  0.27435930670E+03 -0.35593036476E+03  0.47878474916E+03  0.00000000000E+00 0. -1.
        -11    1    3    3    0    0 -0.15068514367E+03  0.44631726349E+03 -0.58323312679E+03  0.74971060577E+03  0.00000000000E+00 0.  1.
         22    1    1    2    0    0  0.31583774674E+03 -0.72067657018E+03  0.92702643012E+03  0.12159384044E+04  0.00000000000E+00 0.  1.
<mgrwt>
<rscale>  0 0.24444036E+04</rscale>
<asrwt>0</asrwt>
<pdfrwt beam="1">  1        2 0.18709975E+00 0.24444036E+04</pdfrwt>
<pdfrwt beam="2">  1       -2 0.18896699E+00 0.24444036E+04</pdfrwt>
<totfact> 0.26141149E+00</totfact>
</mgrwt>
</event>
<event>
 6    1  0.1878398E-004  0.3207157E+04  0.7818608E-02  0.8186930E-01
         -2   -1    0    0    0  501 -0.00000000000E+00  0.00000000000E+00  0.18987144846E+04  0.18987144846E+04  0.00000000000E+00 0. -1.
          2   -1    0    0  501    0  0.00000000000E+00 -0.00000000000E+00 -0.13543181840E+04  0.13543181840E+04  0.00000000000E+00 0.  1.
         23    2    1    2    0    0 -0.30891784434E+03 -0.82628303001E+03 -0.10842736852E+04  0.14008070336E+04  0.91853365132E+02 0.  0.
         11    1    3    3    0    0 -0.10068216640E+03 -0.23113426885E+03 -0.24983343931E+03  0.35493196004E+03  0.00000000000E+00 0. -1.
        -11    1    3    3    0    0 -0.20823567794E+03 -0.59514876116E+03 -0.83444024589E+03  0.10458750735E+04  0.00000000000E+00 0.  1.
         22    1    1    2    0    0  0.30891784434E+03  0.82628303001E+03  0.16286699858E+04  0.18522256350E+04  0.00000000000E+00 0. -1.
<mgrwt>
<rscale>  0 0.32071567E+04</rscale>
<asrwt>0</asrwt>
<pdfrwt beam="1">  1        2 0.20835664E+00 0.32071567E+04</pdfrwt>
<pdfrwt beam="2">  1       -2 0.29210992E+00 0.32071567E+04</pdfrwt>
<totfact> 0.45950025E-01</totfact>
</mgrwt>
</event>
<event>
 6    1  0.1878398E-004  0.2928490E+04  0.7818608E-02  0.8264451E-01
          2   -1    0    0  501    0  0.00000000000E+00  0.00000000000E+00  0.97439576721E+03  0.97439576721E+03  0.00000000000E+00 0.  1.
         -2   -1    0    0    0  501 -0.00000000000E+00 -0.00000000000E+00 -0.22003513594E+04  0.22003513594E+04  0.00000000000E+00 0. -1.
         23    2    1    2    0    0 -0.16979864323E+03  0.96840390983E+03 -0.17877177721E+04  0.20423980380E+04  0.93899953062E+02 0.  0.
         11    1    3    3    0    0 -0.12011523070E+03  0.53110381295E+03 -0.10674188115E+04  0.11982828747E+04  0.00000000000E+00 0. -1.
        -11    1    3    3    0    0 -0.49683412532E+02  0.43730009688E+03 -0.72029896061E+03  0.84411516328E+03  0.00000000000E+00 0.  1.
         22    1    1    2    0    0  0.16979864323E+03 -0.96840390983E+03  0.56176217987E+03  0.11323490886E+04  0.00000000000E+00 0.  1.
<mgrwt>
<rscale>  0 0.29284897E+04</rscale>
<asrwt>0</asrwt>
<pdfrwt beam="1">  1        2 0.14990704E+00 0.29284897E+04</pdfrwt>
<pdfrwt beam="2">  1       -2 0.33851559E+00 0.29284897E+04</pdfrwt>
<totfact> 0.41385560E-01</totfact>
</mgrwt>
</event>
<event>
 6    1  0.1878398E-004  0.2142170E+04  0.7818608E-02  0.8542891E-01
          2   -1    0    0  501    0  0.00000000000E+00  0.00000000000E+00  0.46708808803E+03  0.46708808803E+03  0.00000000000E+00 0.  1.
         -2   -1    0    0    0  501 -0.00000000000E+00 -0.00000000000E+00 -0.24561166802E+04  0.24561166802E+04  0.00000000000E+00 0. -1.
         23    2    1    2    0    0  0.53703775907E+03 -0.43163084903E+03 -0.21118959908E+04  0.22233396797E+04  0.91760071292E+02 0.  0.
         13    1    3    3    0    0  0.36696793502E+03 -0.24328574947E+03 -0.12807771895E+04  0.13543425085E+04  0.00000000000E+00 0. -1.
        -13    1    3    3    0    0  0.17006982406E+03 -0.18834509956E+03 -0.83111880131E+03  0.86899717115E+03  0.00000000000E+00 0.  1.
         22    1    1    2    0    0 -0.53703775907E+03  0.43163084903E+03  0.12286739865E+03  0.69986508854E+03  0.00000000000E+00 0.  1.
<mgrwt>
<rscale>  0 0.21421698E+04</rscale>
<asrwt>0</asrwt>
<pdfrwt beam="1">  1        2 0.71859706E-01 0.21421698E+04</pdfrwt>
<pdfrwt beam="2">  1       -2 0.37786410E+00 0.21421698E+04</pdfrwt>
<totfact> 0.63368577E-01</totfact>
</mgrwt>
</event>
<event>
 6    1  0.1878398E-004  0.1840679E+04  0.7818608E-02  0.8684961E-01
         -2   -1    0    0    0  501 -0.00000000000E+00  0.00000000000E+00  0.58760583552E+03  0.58760583552E+03  0.00000000000E+00 0. -1.
          2   -1    0    0  501    0  0.00000000000E+00 -0.00000000000E+00 -0.14414851693E+04  0.14414851693E+04  0.00000000000E+00 0.  1.
         23    2    1    2    0    0 -0.27308974295E+03  0.62817550607E+03  0.24588228901E+03  0.73346061730E+03  0.91235425886E+02 0.  0.
         13    1    3    3    0    0 -0.35719797246E+02  0.17896312403E+03  0.53327979604E+02  0.19012516164E+03  0.00000000000E+00 0.  1.
        -13    1    3    3    0    0 -0.23736994571E+03  0.44921238204E+03  0.19255430940E+03  0.54333545566E+03  0.00000000000E+00 0. -1.
         22    1    1    2    0    0  0.27308974295E+03 -0.62817550607E+03 -0.10997616228E+04  0.12956303875E+04  0.00000000000E+00 0.  1.
<mgrwt>
<rscale>  0 0.18406793E+04</rscale>
<asrwt>0</asrwt>
<pdfrwt beam="1">  1        2 0.22176694E+00 0.18406793E+04</pdfrwt>
<pdfrwt beam="2">  1       -2 0.90400900E-01 0.18406793E+04</pdfrwt>
<totfact> 0.13488036E+01</totfact>
</mgrwt>
</event>
<event>
 6    1  0.1878398E-004  0.2074022E+04  0.7818608E-02  0.8572774E-01
         -2   -1    0    0    0  501 -0.00000000000E+00  0.00000000000E+00  0.10426535277E+04  0.10426535277E+04  0.00000000000E+00 0. -1.
          2   -1    0    0  501    0  0.00000000000E+00 -0.00000000000E+00 -0.10313994244E+04  0.10313994244E+04  0.00000000000E+00 0.  1.
         23    2    1    2    0    0  0.88466287148E+03  0.51749820876E+03  0.15025527298E+03  0.10397637675E+04  0.89995849159E+02 0.  0.
         13    1    3    3    0    0  0.30492671999E+03  0.14128803634E+03  0.21420480663E+02  0.33675131889E+03  0.00000000000E+00 0. -1.
        -13    1    3    3    0    0  0.57973615149E+03  0.37621017241E+03  0.12883479232E+03  0.70301244860E+03  0.00000000000E+00 0.  1.
         22    1    1    2    0    0 -0.88466287148E+03 -0.51749820876E+03 -0.13900116965E+03  0.10342891846E+04  0.00000000000E+00 0. -1.
<mgrwt>
<rscale>  0 0.20740224E+04</rscale>
<asrwt>0</asrwt>
<pdfrwt beam="1">  1        2 0.15867684E+00 0.20740224E+04</pdfrwt>
<pdfrwt beam="2">  1       -2 0.16040823E+00 0.20740224E+04</pdfrwt>
<totfact> 0.55554201E+00</totfact>
</mgrwt>
</event>
<event>
 6    1  0.1878398E-004  0.2294397E+04  0.7818608E-02  0.8480133E-01
          2   -1    0    0  501    0  0.00000000000E+00  0.00000000000E+00  0.11804870990E+04  0.11804870990E+04  0.00000000000E+00 0.  1.
         -2   -1    0    0    0  501 -0.00000000000E+00 -0.00000000000E+00 -0.11148490673E+04  0.11148490673E+04  0.00000000000E+00 0. -1.
         23    2    1    2    0    0  0.77617848158E+03  0.16756174055E+03 -0.79274085435E+03  0.11260011912E+04  0.94396229972E+02 0.  0.
         11    1    3    3    0    0  0.37794076750E+03  0.12586745264E+03 -0.42185829246E+03  0.58021225279E+03  0.00000000000E+00 0.  1.
        -11    1    3    3    0    0  0.39823771408E+03  0.41694287912E+02 -0.37088256190E+03  0.54578893840E+03  0.00000000000E+00 0. -1.
         22    1    1    2    0    0 -0.77617848158E+03 -0.16756174055E+03  0.85837888605E+03  0.11693349752E+04  0.00000000000E+00 0.  1.
<mgrwt>
<rscale>  0 0.22943975E+04</rscale>
<asrwt>0</asrwt>
<pdfrwt beam="1">  1        2 0.18161340E+00 0.22943975E+04</pdfrwt>
<pdfrwt beam="2">  1       -2 0.17151524E+00 0.22943975E+04</pdfrwt>
<totfact> 0.36696573E+00</totfact>
</mgrwt>
</event>
<event>
 6    1  0.1878398E-004  0.1918398E+04  0.7818608E-02  0.8645752E-01
         -1   -1    0    0    0  501 -0.00000000000E+00  0.00000000000E+00  0.15247325434E+04  0.15247325434E+04  0.00000000000E+00 0. -1.
          1   -1    0    0  501    0  0.00000000000E+00 -0.00000000000E+00 -0.60342551072E+03  0.60342551072E+03  0.00000000000E+00 0.  1.
         23    2    1    2    0    0  0.88144963153E+03  0.31568539856E+03  0.67749931924E+03  0.11606597725E+04  0.10730822951E+03 0.  0.
         13    1    3    3    0    0  0.43563891402E+03  0.20821536453E+03  0.32097952005E+03  0.57979544127E+03  0.00000000000E+00 0.  1.
        -13    1    3    3    0    0  0.44581071751E+03  0.10747003403E+03  0.35651979919E+03  0.58086433121E+03  0.00000000000E+00 0. -1.
         22    1    1    2    0    0 -0.88144963153E+03 -0.31568539856E+03  0.24380771341E+03  0.96749828160E+03  0.00000000000E+00 0.  1.
<mgrwt>
<rscale>  0 0.19183978E+04</rscale>
<asrwt>0</asrwt>
<pdfrwt beam="1">  1        1 0.92834695E-01 0.19183978E+04</pdfrwt>
<pdfrwt beam="2">  1       -1 0.23457424E+00 0.19183978E+04</pdfrwt>
<totfact> 0.27930415E+00</totfact>
</mgrwt>
</event>
<event>
 6    1  0.1878398E-004  0.3511778E+04  0.7818608E-02  0.8111004E-01
          2   -1    0    0  501    0  0.00000000000E+00  0.00000000000E+00  0.30976770539E+04  0.30976770539E+04  0.00000000000E+00 0.  1.
         -2   -1    0    0    0  501 -0.00000000000E+00 -0.00000000000E+00 -0.99530884989E+03  0.99530884989E+03  0.00000000000E+00 0. -1.
         23    2    1    2    0    0 -0.45427705428E+03  0.16912635530E+04  0.11808105673E+04  0.21140951727E+04  0.91349633889E+02 0.  0.
         11    1    3    3    0    0 -0.14632771642E+03  0.41476199158E+03  0.27147940737E+03  0.51685624585E+03  0.00000000000E+00 0. -1.
        -11    1    3    3    0    0 -0.30794933786E+03  0.12765015614E+04  0.90933115993E+03  0.15972389268E+04  0.00000000000E+00 0.  1.
         22    1    1    2    0    0  0.45427705428E+03 -0.16912635530E+04  0.92155763668E+03  0.19788907311E+04  0.00000000000E+00 0. -1.
<mgrwt>
<rscale>  0 0.35117775E+04</rscale>
<asrwt>0</asrwt>
<pdfrwt beam="1">  1        2 0.47656570E+00 0.35117775E+04</pdfrwt>
<pdfrwt beam="2">  1       -2 0.15312444E+00 0.35117775E+04</pdfrwt>
<totfact> 0.35126638E-01</totfact>
</mgrwt>
</event>
<event>
 6    1  0.1878398E-004  0.8129209E+03  0.7818608E-02  0.9541501E-01
         -2   -1    0    0    0  501 -0.00000000000E+00  0.00000000000E+00  0.23856219568E+03  0.23856219568E+03  0.00000000000E+00 0. -1.
          2   -1    0    0  501    0  0.00000000000E+00 -0.00000000000E+00 -0.69252428652E+03  0.69252428652E+03  0.00000000000E+00 0.  1.
         23    2    1    2    0    0  0.17477495062E+03  0.28771251162E+02 -0.64233754609E+03  0.67251467323E+03  0.91128449620E+02 0.  0.
         13    1    3    3    0    0  0.14978458517E+03  0.54400690537E+02 -0.46349765049E+03  0.49012746209E+03  0.00000000000E+00 0. -1.
        -13    1    3    3    0    0  0.24990365456E+02 -0.25629439375E+02 -0.17883989560E+03  0.18238721114E+03  0.00000000000E+00 0.  1.
         22    1    1    2    0    0 -0.17477495062E+03 -0.28771251162E+02  0.18837545525E+03  0.25857180898E+03  0.00000000000E+00 0. -1.
<mgrwt>
<rscale>  0 0.81292094E+03</rscale>
<asrwt>0</asrwt>
<pdfrwt beam="1">  1        2 0.10654219E+00 0.81292094E+03</pdfrwt>
<pdfrwt beam="2">  1       -2 0.36701878E-01 0.81292094E+03</pdfrwt>
<totfact> 0.29187384E+02</totfact>
</mgrwt>
</event>
<event>
 6    1  0.1878398E-004  0.1193917E+04  0.7818608E-02  0.9118198E-01
          2   -1    0    0  501    0  0.00000000000E+00  0.00000000000E+00  0.12635321016E+04  0.12635321016E+04  0.00000000000E+00 0.  1.
         -2   -1    0    0    0  501 -0.00000000000E+00 -0.00000000000E+00 -0.28203438651E+03  0.28203438651E+03  0.00000000000E+00 0. -1.
         23    2    1    2    0    0 -0.20867297389E+03  0.91740845364E+02  0.12029959009E+04  0.12277265299E+04  0.90291206064E+02 0.  0.
         11    1    3    3    0    0 -0.43728100150E+02  0.28937434039E+02  0.50684848905E+03  0.50955364063E+03  0.00000000000E+00 0. -1.
        -11    1    3    3    0    0 -0.16494487374E+03  0.62803411325E+02  0.69614741181E+03  0.71817288922E+03  0.00000000000E+00 0.  1.
         22    1    1    2    0    0  0.20867297389E+03 -0.91740845364E+02 -0.22149818580E+03  0.31783995823E+03  0.00000000000E+00 0. -1.
<mgrwt>
<rscale>  0 0.11939171E+04</rscale>
<asrwt>0</asrwt>
<pdfrwt beam="1">  1        2 0.19438955E+00 0.11939171E+04</pdfrwt>
<pdfrwt beam="2">  1       -2 0.43389906E-01 0.11939171E+04</pdfrwt>
<totfact> 0.86290085E+01</totfact>
</mgrwt>
</event>
<event>
 6    1  0.1878398E-004  0.2862944E+04  0.7818608E-02  0.8283989E-01
          2   -1    0    0  501    0  0.00000000000E+00  0.00000000000E+00  0.15191580345E+04  0.15191580345E+04  0.00000000000E+00 0.  1.
         -2   -1    0    0    0  501 -0.00000000000E+00 -0.00000000000E+00 -0.13488471175E+04  0.13488471175E+04  0.00000000000E+00 0. -1.
         23    2    1    2    0    0 -0.44202156964E+03  0.57857028215E+02  0.14463868644E+04  0.15163024009E+04  0.91692450585E+02 0.  0.
         13    1    3    3    0    0 -0.27752305898E+03  0.28553534544E+02  0.75166336985E+03  0.80176815488E+03  0.00000000000E+00 0. -1.
        -13    1    3    3    0    0 -0.16449851066E+03  0.29303493670E+02  0.69472349459E+03  0.71453424598E+03  0.00000000000E+00 0.  1.
         22    1    1    2    0    0  0.44202156964E+03 -0.57857028215E+02 -0.12760759475E+04  0.13517027512E+04  0.00000000000E+00 0. -1.
<mgrwt>
<rscale>  0 0.28629439E+04</rscale>
<asrwt>0</asrwt>
<pdfrwt beam="1">  1        2 0.23371662E+00 0.28629439E+04</pdfrwt>
<pdfrwt beam="2">  1       -2 0.20751494E+00 0.28629439E+04</pdfrwt>
<totfact> 0.12736404E+00</totfact>
</mgrwt>
</event>
<event>
 6    1  0.1878398E-004  0.6527195E+03  0.7818608E-02  0.9801690E-01
         -2   -1    0    0    0  501 -0.00000000000E+00  0.00000000000E+00  0.36747805744E+03  0.36747805744E+03  0.00000000000E+00 0. -1.
          2   -1    0    0  501    0  0.00000000000E+00 -0.00000000000E+00 -0.28984231833E+03  0.28984231833E+03  0.00000000000E+00 0.  1.
         23    2    1    2    0    0 -0.14409681145E+03 -0.27632069106E+03 -0.34974337907E+02  0.32596249548E+03  0.88945650646E+02 0.  0.
         13    1    3    3    0    0 -0.15361762879E+03 -0.24803400718E+03 -0.19651899650E+02  0.29241313540E+03  0.00000000000E+00 0. -1.
        -13    1    3    3    0    0  0.95208173395E+01 -0.28286683882E+02 -0.15322438257E+02  0.33549360083E+02  0.00000000000E+00 0.  1.
         22    1    1    2    0    0  0.14409681145E+03  0.27632069106E+03  0.11261007702E+03  0.33135788028E+03  0.00000000000E+00 0. -1.
<mgrwt>
<rscale>  0 0.65271952E+03</rscale>
<asrwt>0</asrwt>
<pdfrwt beam="1">  1        2 0.44591126E-01 0.65271952E+03</pdfrwt>
<pdfrwt beam="2">  1       -2 0.56535086E-01 0.65271952E+03</pdfrwt>
<totfact> 0.33818513E+02</totfact>
</mgrwt>
</event>
<event>
 6    1  0.1878398E-004  0.4611131E+04  0.7818608E-02  0.7891465E-01
         -2   -1    0    0    0  501 -0.00000000000E+00  0.00000000000E+00  0.21159589268E+04  0.21159589268E+04  0.00000000000E+00 0. -1.
          2   -1    0    0  501    0  0.00000000000E+00 -0.00000000000E+00 -0.25121617983E+04  0.25121617983E+04  0.00000000000E+00 0.  1.
         23    2    1    2    0    0  0.22205194615E+03 -0.20441921332E+04  0.84659217916E+03  0.22255038014E+04  0.90112751613E+02 0.  0.
         11    1    3    3    0    0  0.12715194945E+03 -0.11997453557E+04  0.44872634173E+03  0.12872108866E+04  0.00000000000E+00 0. -1.
        -11    1    3    3    0    0  0.94899996692E+02 -0.84444677749E+03  0.39786583743E+03  0.93829291481E+03  0.00000000000E+00 0.  1.
         22    1    1    2    0    0 -0.22205194615E+03  0.20441921332E+04 -0.12427950506E+04  0.24026169237E+04  0.00000000000E+00 0.  1.
<mgrwt>
<rscale>  0 0.46111305E+04</rscale>
<asrwt>0</asrwt>
<pdfrwt beam="1">  1        2 0.38648643E+00 0.46111305E+04</pdfrwt>
<pdfrwt beam="2">  1       -2 0.32553214E+00 0.46111305E+04</pdfrwt>
<totfact> 0.56912808E-02</totfact>
</mgrwt>
</event>
<event>
 6    1  0.1878398E-004  0.3760769E+04  0.7818608E-02  0.8054627E-01
          2   -1    0    0  501    0  0.00000000000E+00  0.00000000000E+00  0.40346503436E+04  0.40346503436E+04  0.00000000000E+00 0.  1.
         -2   -1    0    0    0  501 -0.00000000000E+00 -0.00000000000E+00 -0.87636971779E+03  0.87636971779E+03  0.00000000000E+00 0. -1.
         23    2    1    2    0    0  0.48079923632E+03  0.13057368800E+04 -0.69406644893E+02  0.13961826793E+04  0.91608330000E+02 0.  0.
         13    1    3    3    0    0  0.26246143120E+03  0.59735660313E+03 -0.54854368028E+02  0.65477470618E+03  0.00000000000E+00 0. -1.
        -13    1    3    3    0    0  0.21833780512E+03  0.70838027685E+03 -0.14552276866E+02  0.74140797307E+03  0.00000000000E+00 0.  1.
         22    1    1    2    0    0 -0.48079923632E+03 -0.13057368800E+04  0.32276872707E+04  0.35148373821E+04  0.00000000000E+00 0.  1.
<mgrwt>
<rscale>  0 0.37607687E+04</rscale>
<asrwt>0</asrwt>
<pdfrwt beam="1">  1        2 0.62071543E+00 0.37607687E+04</pdfrwt>
<pdfrwt beam="2">  1       -2 0.13482611E+00 0.37607687E+04</pdfrwt>
<totfact> 0.10172228E-01</totfact>
</mgrwt>
</event>
<event>
 6    1  0.1878398E-004  0.2576014E+04  0.7818608E-02  0.8376395E-01
         -1   -1    0    0    0  501 -0.00000000000E+00  0.00000000000E+00  0.23250586623E+04  0.23250586623E+04  0.00000000000E+00 0. -1.
          1   -1    0    0  501    0  0.00000000000E+00 -0.00000000000E+00 -0.71351385989E+03  0.71351385989E+03  0.00000000000E+00 0.  1.
         23    2    1    2    0    0  0.40306973396E+03 -0.11968766480E+04  0.10952897301E+04  0.16742051887E+04  0.91238697505E+02 0.  0.
         11    1    3    3    0    0  0.29450704634E+03 -0.82914601111E+03  0.81395965617E+03  0.11986441632E+04  0.00000000000E+00 0.  1.
        -11    1    3    3    0    0  0.10856268762E+03 -0.36773063691E+03  0.28133007398E+03  0.47556102552E+03  0.00000000000E+00 0. -1.
         22    1    1    2    0    0 -0.40306973396E+03  0.11968766480E+04  0.51625507222E+03  0.13643673335E+04  0.00000000000E+00 0.  1.
<mgrwt>
<rscale>  0 0.25760136E+04</rscale>
<asrwt>0</asrwt>
<pdfrwt beam="1">  1        1 0.10977136E+00 0.25760136E+04</pdfrwt>
<pdfrwt beam="2">  1       -1 0.35770133E+00 0.25760136E+04</pdfrwt>
<totfact> 0.32254271E-01</totfact>
</mgrwt>
</event>
<event>
 6    1  0.1878398E-004  0.2811767E+04  0.7818608E-02  0.8299624E-01
         -1   -1    0    0    0  501 -0.00000000000E+00  0.00000000000E+00  0.87621926022E+03  0.87621926022E+03  0.00000000000E+00 0. -1.
          1   -1    0    0  501    0  0.00000000000E+00 -0.00000000000E+00 -0.22557243121E+04  0.22557243121E+04  0.00000000000E+00 0.  1.
         23    2    1    2    0    0 -0.30650210266E+03  0.86245723655E+03 -0.18769583528E+04  0.20901970530E+04  0.90415920234E+02 0.  0.
         13    1    3    3    0    0 -0.70491437418E+02  0.19619146862E+03 -0.51876882575E+03  0.55908964369E+03  0.00000000000E+00 0. -1.
        -13    1    3    3    0    0 -0.23601066524E+03  0.66626576793E+03 -0.13581895270E+04  0.15311074093E+04  0.00000000000E+00 0.  1.
         22    1    1    2    0    0  0.30650210266E+03 -0.86245723655E+03  0.49745330091E+03  0.10417465193E+04  0.00000000000E+00 0. -1.
<mgrwt>
<rscale>  0 0.28117675E+04</rscale>
<asrwt>0</asrwt>
<pdfrwt beam="1">  1        1 0.34703451E+00 0.28117675E+04</pdfrwt>
<pdfrwt beam="2">  1       -1 0.13480296E+00 0.28117675E+04</pdfrwt>
<totfact> 0.79784586E-01</totfact>
</mgrwt>
</event>
<event>
 6    1  0.1878398E-004  0.1974742E+04  0.7818608E-02  0.8618521E-01
          1   -1    0    0  501    0  0.00000000000E+00  0.00000000000E+00  0.18689662226E+04  0.18689662226E+04  0.00000000000E+00 0.  1.
         -1   -1    0    0    0  501 -0.00000000000E+00 -0.00000000000E+00 -0.52162630632E+03  0.52162630632E+03  0.00000000000E+00 0. -1.
         23    2    1    2    0    0  0.51016256207E+03  0.76814558661E+03  0.25495336677E+03  0.96103950244E+03  0.91006725388E+02 0.  0.
         13    1    3    3    0    0  0.89146621747E+02  0.14402680171E+03  0.83812780689E+02  0.18898524277E+03  0.00000000000E+00 0. -1.
        -13    1    3    3    0    0  0.42101594033E+03  0.62411878490E+03  0.17114058608E+03  0.77205425967E+03  0.00000000000E+00 0.  1.
         22    1    1    2    0    0 -0.51016256207E+03 -0.76814558661E+03  0.10923865495E+04  0.14295530265E+04  0.00000000000E+00 0. -1.
<mgrwt>
<rscale>  0 0.19747425E+04</rscale>
<asrwt>0</asrwt>
<pdfrwt beam="1">  1        1 0.28753326E+00 0.19747425E+04</pdfrwt>
<pdfrwt beam="2">  1       -1 0.80250202E-01 0.19747425E+04</pdfrwt>
<totfact> 0.52680026E+00</totfact>
</mgrwt>
</event>
<event>
 6    1  0.1878398E-004  0.3453807E+04  0.7818608E-02  0.8124825E-01
         -4   -1    0    0    0  501 -0.00000000000E+00  0.00000000000E+00  0.15392138906E+04  0.15392138906E+04  0.00000000000E+00 0. -1.
          4   -1    0    0  501    0  0.00000000000E+00 -0.00000000000E+00 -0.19374801902E+04  0.19374801902E+04  0.00000000000E+00 0.  1.
         23    2    1    2    0    0 -0.14496299483E+03 -0.11321802246E+04  0.11036354894E+04  0.15902807341E+04  0.90195282310E+02 0.  0.
         11    1    3    3    0    0 -0.15177459750E+03 -0.10014319892E+04  0.99951277234E+03  0.14229994165E+04  0.00000000000E+00 0.  1.
        -11    1    3    3    0    0  0.68116026767E+01 -0.13074823543E+03  0.10412271701E+03  0.16728131754E+03  0.00000000000E+00 0. -1.
         22    1    1    2    0    0  0.14496299483E+03  0.11321802246E+04 -0.15019017890E+04  0.18864133467E+04  0.00000000000E+00 0.  1.
<mgrwt>
<rscale>  0 0.34538074E+04</rscale>
<asrwt>0</asrwt>
<pdfrwt beam="1">  1        4 0.29807388E+00 0.34538074E+04</pdfrwt>
<pdfrwt beam="2">  1       -4 0.23680214E+00 0.34538074E+04</pdfrwt>
<totfact> 0.39456453E-03</totfact>
</mgrwt>
</event>
<event>
 6    1  0.1878398E-004  0.4228767E+04  0.7818608E-02  0.7959923E-01
         -2   -1    0    0    0  501 -0.00000000000E+00  0.00000000000E+00  0.13335738272E+04  0.13335738272E+04  0.00000000000E+00 0. -1.
          2   -1    0    0  501    0  0.00000000000E+00 -0.00000000000E+00 -0.33523591012E+04  0.33523591012E+04  0.00000000000E+00 0.  1.
         23    2    1    2    0    0 -0.42114024153E+03  0.15991458456E+04  0.44827101638E+03  0.17159172250E+04  0.93800214748E+02 0.  0.
         11    1    3    3    0    0 -0.10835693030E+03  0.51170870677E+03  0.17851860853E+03  0.55268066595E+03  0.00000000000E+00 0. -1.
        -11    1    3    3    0    0 -0.31278331123E+03  0.10874371389E+04  0.26975240786E+03  0.11632365591E+04  0.00000000000E+00 0.  1.
         22    1    1    2    0    0  0.42114024153E+03 -0.15991458456E+04 -0.24670562904E+04  0.29700157034E+04  0.00000000000E+00 0.  1.
<mgrwt>
<rscale>  0 0.42287674E+04</rscale>
<asrwt>0</asrwt>
<pdfrwt beam="1">  1        2 0.51574754E+00 0.42287674E+04</pdfrwt>
<pdfrwt beam="2">  1       -2 0.20516521E+00 0.42287674E+04</pdfrwt>
<totfact> 0.97757964E-02</totfact>
</mgrwt>
</event>
<event>
 6    1  0.1878398E-004  0.1138319E+04  0.7818608E-02  0.9168628E-01
          1   -1    0    0  501    0  0.00000000000E+00  0.00000000000E+00  0.11480931313E+04  0.11480931313E+04  0.00000000000E+00 0. -1.
         -1   -1    0    0    0  501 -0.00000000000E+00 -0.00000000000E+00 -0.28215705280E+03  0.28215705280E+03  0.00000000000E+00 0.  1.
         23    2    1    2    0    0  0.56422406677E+02 -0.49338190097E+03  0.95680057496E+02  0.51378767746E+03  0.90630656660E+02 0.  0.
         13    1    3    3    0    0 -0.20347802110E+02 -0.21684626774E+03  0.39932390171E+02  0.22142929497E+03  0.00000000000E+00 0.  1.
        -13    1    3    3    0    0  0.76770208787E+02 -0.27653563323E+03  0.55747667324E+02  0.29235838249E+03  0.00000000000E+00 0. -1.
         22    1    1    2    0    0 -0.56422406677E+02  0.49338190097E+03  0.77025602102E+03  0.91646250665E+03  0.00000000000E+00 0. -1.
<mgrwt>
<rscale>  0 0.11383191E+04</rscale>
<asrwt>0</asrwt>
<pdfrwt beam="1">  1        1 0.17662971E+00 0.11383191E+04</pdfrwt>
<pdfrwt beam="2">  1       -1 0.43408778E-01 0.11383191E+04</pdfrwt>
<totfact> 0.60719774E+01</totfact>
</mgrwt>
</event>
<event>
 6    1  0.1878398E-004  0.1078159E+04  0.7818608E-02  0.9226745E-01
         -1   -1    0    0    0  501 -0.00000000000E+00  0.00000000000E+00  0.58475948712E+03  0.58475948712E+03  0.00000000000E+00 0. -1.
          1   -1    0    0  501    0  0.00000000000E+00 -0.00000000000E+00 -0.49696795215E+03  0.49696795215E+03  0.00000000000E+00 0.  1.
         23    2    1    2    0    0  0.39132130959E+03 -0.70930670935E+02 -0.31525911202E+03  0.51550014263E+03  0.90490673121E+02 0.  0.
         13    1    3    3    0    0  0.19440136371E+03 -0.79845245925E+02 -0.17641155316E+03  0.27438693409E+03  0.00000000000E+00 0.  1.
        -13    1    3    3    0    0  0.19691994588E+03  0.89145749902E+01 -0.13884755885E+03  0.24111320854E+03  0.00000000000E+00 0. -1.
         22    1    1    2    0    0 -0.39132130959E+03  0.70930670935E+02  0.40305064699E+03  0.56622729664E+03  0.00000000000E+00 0. -1.
<mgrwt>
<rscale>  0 0.10781590E+04</rscale>
<asrwt>0</asrwt>
<pdfrwt beam="1">  1        1 0.76456608E-01 0.10781590E+04</pdfrwt>
<pdfrwt beam="2">  1       -1 0.89962998E-01 0.10781590E+04</pdfrwt>
<totfact> 0.53958552E+01</totfact>
</mgrwt>
</event>
<event>
 6    1  0.1878398E-004  0.1640068E+04  0.7818608E-02  0.8796304E-01
          1   -1    0    0  501    0  0.00000000000E+00  0.00000000000E+00  0.10650447224E+04  0.10650447224E+04  0.00000000000E+00 0.  1.
         -1   -1    0    0    0  501 -0.00000000000E+00 -0.00000000000E+00 -0.63138737024E+03  0.63138737024E+03  0.00000000000E+00 0. -1.
         23    2    1    2    0    0 -0.45100195383E+03 -0.14149498923E+03 -0.47258519563E+03  0.67432683888E+03  0.89198229635E+02 0.  0.
         13    1    3    3    0    0 -0.30676531265E+03 -0.52434532942E+02 -0.31701461577E+03  0.44424385635E+03  0.00000000000E+00 0.  1.
        -13    1    3    3    0    0 -0.14423664118E+03 -0.89060456292E+02 -0.15557057986E+03  0.23008298253E+03  0.00000000000E+00 0. -1.
         22    1    1    2    0    0  0.45100195383E+03  0.14149498923E+03  0.90624254778E+03  0.10221052538E+04  0.00000000000E+00 0.  1.
<mgrwt>
<rscale>  0 0.16400680E+04</rscale>
<asrwt>0</asrwt>
<pdfrwt beam="1">  1        1 0.16385303E+00 0.16400680E+04</pdfrwt>
<pdfrwt beam="2">  1       -1 0.97136519E-01 0.16400680E+04</pdfrwt>
<totfact> 0.13127764E+01</totfact>
</mgrwt>
</event>
<event>
 6    1  0.2084610E-004  0.3603861E+04  0.7818608E-02  0.8089608E-01
          2   -1    0    0  501    0  0.00000000000E+00  0.00000000000E+00  0.29812353977E+04  0.29812353977E+04  0.00000000000E+00 0.  1.
         -2   -1    0    0    0  501 -0.00000000000E+00 -0.00000000000E+00 -0.10891304316E+04  0.10891304316E+04  0.00000000000E+00 0. -1.
         23    2    1    2    0    0 -0.13505512464E+03 -0.99574785579E+03 -0.74122878052E+03  0.12518200518E+04  0.88767437312E+02 0.  0.
         13    1    3    3    0    0 -0.12417367367E+03 -0.59693447674E+03 -0.43927048756E+03  0.75147084574E+03  0.00000000000E+00 0.  1.
        -13    1    3    3    0    0 -0.10881450975E+02 -0.39881337905E+03 -0.30195829295E+03  0.50034920603E+03  0.00000000000E+00 0. -1.
         22    1    1    2    0    0  0.13505512464E+03  0.99574785579E+03  0.26333337466E+04  0.28185457775E+04  0.00000000000E+00 0.  1.
<mgrwt>
<rscale>  0 0.36038614E+04</rscale>
<asrwt>0</asrwt>
<pdfrwt beam="1">  1        2 0.45865160E+00 0.36038614E+04</pdfrwt>
<pdfrwt beam="2">  1       -2 0.16755853E+00 0.36038614E+04</pdfrwt>
<totfact> 0.32318534E-01</totfact>
</mgrwt>
</event>
<event>
 6    1  0.1878398E-004  0.3350651E+04  0.7818608E-02  0.8150125E-01
          1   -1    0    0  501    0  0.00000000000E+00  0.00000000000E+00  0.21417937234E+04  0.21417937234E+04  0.00000000000E+00 0.  1.
         -1   -1    0    0    0  501 -0.00000000000E+00 -0.00000000000E+00 -0.13104509387E+04  0.13104509387E+04  0.00000000000E+00 0. -1.
         23    2    1    2    0    0 -0.13794931577E+04 -0.85045488416E+03 -0.16773352518E+02  0.16231531214E+04  0.89832220504E+02 0.  0.
         13    1    3    3    0    0 -0.23307891377E+03 -0.18445926991E+03 -0.23620326794E+01  0.29724834987E+03  0.00000000000E+00 0. -1.
        -13    1    3    3    0    0 -0.11464142440E+04 -0.66599561425E+03 -0.14411319838E+02  0.13259047715E+04  0.00000000000E+00 0.  1.
         22    1    1    2    0    0  0.13794931577E+04  0.85045488416E+03  0.84811613719E+03  0.18290915407E+04  0.00000000000E+00 0. -1.
<mgrwt>
<rscale>  0 0.33506510E+04</rscale>
<asrwt>0</asrwt>
<pdfrwt beam="1">  1        1 0.32950673E+00 0.33506510E+04</pdfrwt>
<pdfrwt beam="2">  1       -1 0.20160784E+00 0.33506510E+04</pdfrwt>
<totfact> 0.28929744E-01</totfact>
</mgrwt>
</event>
<event>
 6    1  0.1878398E-004  0.2582199E+04  0.7818608E-02  0.8374273E-01
         -2   -1    0    0    0  501 -0.00000000000E+00  0.00000000000E+00  0.72509930072E+03  0.72509930072E+03  0.00000000000E+00 0. -1.
          2   -1    0    0  501    0  0.00000000000E+00 -0.00000000000E+00 -0.22989094188E+04  0.22989094188E+04  0.00000000000E+00 0.  1.
         23    2    1    2    0    0 -0.25607775751E+03 -0.28986233576E+03 -0.22284701580E+04  0.22636300248E+04  0.91354542512E+02 0.  0.
         11    1    3    3    0    0 -0.44799820281E+02 -0.47023245039E+02 -0.61103557141E+03  0.61447756591E+03  0.00000000000E+00 0. -1.
        -11    1    3    3    0    0 -0.21127793723E+03 -0.24283909072E+03 -0.16174345866E+04  0.16491524589E+04  0.00000000000E+00 0.  1.
         22    1    1    2    0    0  0.25607775751E+03  0.28986233576E+03  0.65466003990E+03  0.76037869475E+03  0.00000000000E+00 0. -1.
<mgrwt>
<rscale>  0 0.25821988E+04</rscale>
<asrwt>0</asrwt>
<pdfrwt beam="1">  1        2 0.35367837E+00 0.25821988E+04</pdfrwt>
<pdfrwt beam="2">  1       -2 0.11155374E+00 0.25821988E+04</pdfrwt>
<totfact> 0.25536140E+00</totfact>
</mgrwt>
</event>
<event>
 6    1  0.1878398E-004  0.2213124E+04  0.7818608E-02  0.8512985E-01
          2   -1    0    0  501    0  0.00000000000E+00  0.00000000000E+00  0.62993609305E+03  0.62993609305E+03  0.00000000000E+00 0.  1.
         -2   -1    0    0    0  501 -0.00000000000E+00 -0.00000000000E+00 -0.19438157417E+04  0.19438157417E+04  0.00000000000E+00 0. -1.
         23    2    1    2    0    0 -0.14062213716E+03 -0.17566631167E+03 -0.19157916546E+04  0.19311545260E+04  0.92015765021E+02 0.  0.
         11    1    3    3    0    0 -0.15146721637E+03 -0.15154103545E+03 -0.17764702031E+04  0.17893444010E+04  0.00000000000E+00 0.  1.
        -11    1    3    3    0    0  0.10845079217E+02 -0.24125276220E+02 -0.13932145148E+03  0.14181012495E+03  0.00000000000E+00 0. -1.
         22    1    1    2    0    0  0.14062213716E+03  0.17566631167E+03  0.60191200586E+03  0.64259730883E+03  0.00000000000E+00 0.  1.
<mgrwt>
<rscale>  0 0.22131242E+04</rscale>
<asrwt>0</asrwt>
<pdfrwt beam="1">  1        2 0.96913248E-01 0.22131242E+04</pdfrwt>
<pdfrwt beam="2">  1       -2 0.29904857E+00 0.22131242E+04</pdfrwt>
<totfact> 0.13753038E+00</totfact>
</mgrwt>
</event>
<event>
 6    1  0.1878398E-004  0.1215412E+04  0.7818608E-02  0.9099472E-01
          2   -1    0    0  501    0  0.00000000000E+00  0.00000000000E+00  0.28214645939E+04  0.28214645939E+04  0.00000000000E+00 0.  1.
         -2   -1    0    0    0  501 -0.00000000000E+00 -0.00000000000E+00 -0.13089181268E+03  0.13089181268E+03  0.00000000000E+00 0. -1.
         23    2    1    2    0    0 -0.43217577751E+03  0.15746123614E+03  0.23048605518E+04  0.23520699187E+04  0.90998877818E+02 0.  0.
         13    1    3    3    0    0 -0.12307289730E+03  0.84193910581E+02  0.84373665913E+03  0.85681217463E+03  0.00000000000E+00 0.  1.
        -13    1    3    3    0    0 -0.30910288021E+03  0.73267325561E+02  0.14611238927E+04  0.14952577441E+04  0.00000000000E+00 0. -1.
         22    1    1    2    0    0  0.43217577751E+03 -0.15746123614E+03  0.38571222937E+03  0.60028648780E+03  0.00000000000E+00 0. -1.
<mgrwt>
<rscale>  0 0.12154121E+04</rscale>
<asrwt>0</asrwt>
<pdfrwt beam="1">  1        2 0.43407143E+00 0.12154121E+04</pdfrwt>
<pdfrwt beam="2">  1       -2 0.20137204E-01 0.12154121E+04</pdfrwt>
<totfact> 0.47227982E+01</totfact>
</mgrwt>
</event>
<event>
 6    1  0.1878398E-004  0.2555060E+04  0.7818608E-02  0.8383629E-01
         -1   -1    0    0    0  501 -0.00000000000E+00  0.00000000000E+00  0.52061203711E+03  0.52061203711E+03  0.00000000000E+00 0. -1.
          1   -1    0    0  501    0  0.00000000000E+00 -0.00000000000E+00 -0.31349300867E+04  0.31349300867E+04  0.00000000000E+00 0.  1.
         23    2    1    2    0    0  0.10546244124E+04  0.38051127373E+03 -0.21801141026E+04  0.24532299563E+04  0.91750953106E+02 0.  0.
         13    1    3    3    0    0  0.35505348695E+03  0.15876995879E+03 -0.82790691012E+03  0.91471346892E+03  0.00000000000E+00 0. -1.
        -13    1    3    3    0    0  0.69957092541E+03  0.22174131494E+03 -0.13522071925E+04  0.15385164874E+04  0.00000000000E+00 0.  1.
         22    1    1    2    0    0 -0.10546244124E+04 -0.38051127373E+03 -0.43420394695E+03  0.12023121675E+04  0.00000000000E+00 0. -1.
<mgrwt>
<rscale>  0 0.25550596E+04</rscale>
<asrwt>0</asrwt>
<pdfrwt beam="1">  1        1 0.48229692E+00 0.25550596E+04</pdfrwt>
<pdfrwt beam="2">  1       -1 0.80094162E-01 0.25550596E+04</pdfrwt>
<totfact> 0.65407855E-01</totfact>
</mgrwt>
</event>
<event>
 6    1  0.1878398E-004  0.3369710E+04  0.7818608E-02  0.8145381E-01
          2   -1    0    0  501    0  0.00000000000E+00  0.00000000000E+00  0.28108726054E+04  0.28108726054E+04  0.00000000000E+00 0.  1.
         -2   -1    0    0    0  501 -0.00000000000E+00 -0.00000000000E+00 -0.10099130868E+04  0.10099130868E+04  0.00000000000E+00 0. -1.
         23    2    1    2    0    0  0.91862669044E+03 -0.14093283728E+04  0.82250082463E+03  0.18746451848E+04  0.87780997064E+02 0.  0.
         11    1    3    3    0    0  0.45401878190E+03 -0.67011797844E+03  0.44182036948E+03  0.92216939779E+03  0.00000000000E+00 0. -1.
        -11    1    3    3    0    0  0.46460790854E+03 -0.73921039441E+03  0.38068045515E+03  0.95247578700E+03  0.00000000000E+00 0.  1.
         22    1    1    2    0    0 -0.91862669044E+03  0.14093283728E+04  0.97845869400E+03  0.19461405075E+04  0.00000000000E+00 0. -1.
<mgrwt>
<rscale>  0 0.33697104E+04</rscale>
<asrwt>0</asrwt>
<pdfrwt beam="1">  1        2 0.43244194E+00 0.33697104E+04</pdfrwt>
<pdfrwt beam="2">  1       -2 0.15537125E+00 0.33697104E+04</pdfrwt>
<totfact> 0.51568507E-01</totfact>
</mgrwt>
</event>
<event>
 6    1  0.1878398E-004  0.8615296E+03  0.7818608E-02  0.9474992E-01
          1   -1    0    0  501    0  0.00000000000E+00  0.00000000000E+00  0.49580642036E+03  0.49580642036E+03  0.00000000000E+00 0.  1.
         -1   -1    0    0    0  501 -0.00000000000E+00 -0.00000000000E+00 -0.37425556320E+03  0.37425556320E+03  0.00000000000E+00 0. -1.
         23    2    1    2    0    0 -0.14804453631E+03 -0.46743355661E+02 -0.33894075005E+03  0.38410453034E+03  0.92484226503E+02 0.  0.
         13    1    3    3    0    0 -0.27324261578E+01 -0.32989110839E+02 -0.44403126733E+02  0.55383980087E+02  0.00000000000E+00 0. -1.
        -13    1    3    3    0    0 -0.14531211016E+03 -0.13754244822E+02 -0.29453762331E+03  0.32872055025E+03  0.00000000000E+00 0.  1.
         22    1    1    2    0    0  0.14804453631E+03  0.46743355661E+02  0.46049160721E+03  0.48595745322E+03  0.00000000000E+00 0.  1.
<mgrwt>
<rscale>  0 0.86152960E+03</rscale>
<asrwt>0</asrwt>
<pdfrwt beam="1">  1        1 0.76277911E-01 0.86152960E+03</pdfrwt>
<pdfrwt beam="2">  1       -1 0.57577779E-01 0.86152960E+03</pdfrwt>
<totfact> 0.13832524E+02</totfact>
</mgrwt>
</event>
<event>
 6    1  0.1878398E-004  0.2997887E+04  0.7818608E-02  0.8244335E-01
          2   -1    0    0  501    0  0.00000000000E+00  0.00000000000E+00  0.30543297719E+04  0.30543297719E+04  0.00000000000E+00 0.  1.
         -2   -1    0    0    0  501 -0.00000000000E+00 -0.00000000000E+00 -0.73562163786E+03  0.73562163786E+03  0.00000000000E+00 0. -1.
         23    2    1    2    0    0 -0.76708492671E+03 -0.35886965024E+03  0.27218431869E+04  0.28520150678E+04  0.91394212415E+02 0.  0.
         11    1    3    3    0    0 -0.39698225906E+03 -0.18591832654E+03  0.15612339894E+04  0.16216078774E+04  0.00000000000E+00 0. -1.
        -11    1    3    3    0    0 -0.37010266765E+03 -0.17295132370E+03  0.11606091975E+04  0.12304071905E+04  0.00000000000E+00 0.  1.
         22    1    1    2    0    0  0.76708492671E+03  0.35886965024E+03 -0.40313505291E+03  0.93793634194E+03  0.00000000000E+00 0. -1.
<mgrwt>
<rscale>  0 0.29978866E+04</rscale>
<asrwt>0</asrwt>
<pdfrwt beam="1">  1        2 0.46989688E+00 0.29978866E+04</pdfrwt>
<pdfrwt beam="2">  1       -2 0.11317256E+00 0.29978866E+04</pdfrwt>
<totfact> 0.84416208E-01</totfact>
</mgrwt>
</event>
<event>
 6    1  0.1878398E-004  0.7360177E+03  0.7818608E-02  0.9657545E-01
          2   -1    0    0  501    0  0.00000000000E+00  0.00000000000E+00  0.38232587473E+03  0.38232587473E+03  0.00000000000E+00 0.  1.
         -2   -1    0    0    0  501 -0.00000000000E+00 -0.00000000000E+00 -0.35422799294E+03  0.35422799294E+03  0.00000000000E+00 0. -1.
         23    2    1    2    0    0  0.17873080326E+03 -0.26253746349E+03  0.18867308044E+03  0.38066762995E+03  0.91867804143E+02 0.  0.
         13    1    3    3    0    0  0.31270062588E+02 -0.65963749615E+02  0.89945082933E+02  0.11584105931E+03  0.00000000000E+00 0. -1.
        -13    1    3    3    0    0  0.14746074067E+03 -0.19657371388E+03  0.98727997511E+02  0.26482657065E+03  0.00000000000E+00 0.  1.
         22    1    1    2    0    0 -0.17873080326E+03  0.26253746349E+03 -0.16057519866E+03  0.35588623772E+03  0.00000000000E+00 0. -1.
<mgrwt>
<rscale>  0 0.73601774E+03</rscale>
<asrwt>0</asrwt>
<pdfrwt beam="1">  1        2 0.58819366E-01 0.73601774E+03</pdfrwt>
<pdfrwt beam="2">  1       -2 0.54496614E-01 0.73601774E+03</pdfrwt>
<totfact> 0.26755611E+02</totfact>
</mgrwt>
</event>
<event>
 6    1  0.1878398E-004  0.3846662E+04  0.7818608E-02  0.8036215E-01
          2   -1    0    0  501    0  0.00000000000E+00  0.00000000000E+00  0.30967244851E+04  0.30967244851E+04  0.00000000000E+00 0.  1.
         -2   -1    0    0    0  501 -0.00000000000E+00 -0.00000000000E+00 -0.11945530140E+04  0.11945530140E+04  0.00000000000E+00 0. -1.
         23    2    1    2    0    0 -0.51804548919E+03 -0.18021272812E+04  0.47941434437E+03  0.19374993218E+04  0.89619428319E+02 0.  0.
         11    1    3    3    0    0 -0.28375564847E+03 -0.11062912473E+04  0.32147486147E+03  0.11864837456E+04  0.00000000000E+00 0. -1.
        -11    1    3    3    0    0 -0.23428984072E+03 -0.69583603388E+03  0.15793948290E+03  0.75101557625E+03  0.00000000000E+00 0.  1.
         22    1    1    2    0    0  0.51804548919E+03  0.18021272812E+04  0.14227571267E+04  0.23537781773E+04  0.00000000000E+00 0.  1.
<mgrwt>
<rscale>  0 0.38466617E+04</rscale>
<asrwt>0</asrwt>
<pdfrwt beam="1">  1        2 0.47641915E+00 0.38466617E+04</pdfrwt>
<pdfrwt beam="2">  1       -2 0.18377739E+00 0.38466617E+04</pdfrwt>
<totfact> 0.20612930E-01</totfact>
</mgrwt>
</event>
<event>
 6    1  0.1878398E-004  0.4778451E+04  0.7818608E-02  0.7863623E-01
          2   -1    0    0  501    0  0.00000000000E+00  0.00000000000E+00  0.23780947882E+04  0.23780947882E+04  0.00000000000E+00 0.  1.
         -2   -1    0    0    0  501 -0.00000000000E+00 -0.00000000000E+00 -0.24004082768E+04  0.24004082768E+04  0.00000000000E+00 0. -1.
         23    2    1    2    0    0 -0.51741813588E+03 -0.16646264532E+04 -0.16437242516E+04  0.23978150093E+04  0.94787380720E+02 0.  0.
         13    1    3    3    0    0 -0.34947427285E+03 -0.99995378201E+03 -0.95932962216E+03  0.14291092182E+04  0.00000000000E+00 0. -1.
        -13    1    3    3    0    0 -0.16794386303E+03 -0.66467267116E+03 -0.68439462947E+03  0.96870579113E+03  0.00000000000E+00 0.  1.
         22    1    1    2    0    0  0.51741813588E+03  0.16646264532E+04  0.16214107631E+04  0.23806880557E+04  0.00000000000E+00 0.  1.
<mgrwt>
<rscale>  0 0.47784510E+04</rscale>
<asrwt>0</asrwt>
<pdfrwt beam="1">  1        2 0.36586074E+00 0.47784510E+04</pdfrwt>
<pdfrwt beam="2">  1       -2 0.36929358E+00 0.47784510E+04</pdfrwt>
<totfact> 0.35574067E-02</totfact>
</mgrwt>
</event>
<event>
 6    1  0.1878398E-004  0.3555822E+04  0.7818608E-02  0.8100687E-01
         -2   -1    0    0    0  501 -0.00000000000E+00  0.00000000000E+00  0.14602654192E+04  0.14602654192E+04  0.00000000000E+00 0. -1.
          2   -1    0    0  501    0  0.00000000000E+00 -0.00000000000E+00 -0.21646531217E+04  0.21646531217E+04  0.00000000000E+00 0.  1.
         23    2    1    2    0    0 -0.10032194762E+04  0.73361007802E+02 -0.18454572104E+04  0.21037772665E+04  0.91297956635E+02 0.  0.
         11    1    3    3    0    0 -0.45455401360E+03  0.67752753093E+02 -0.77957238528E+03  0.90495463463E+03  0.00000000000E+00 0.  1.
        -11    1    3    3    0    0 -0.54866546260E+03  0.56082547088E+01 -0.10658848251E+04  0.11988226319E+04  0.00000000000E+00 0. -1.
         22    1    1    2    0    0  0.10032194762E+04 -0.73361007802E+02  0.11410695079E+04  0.15211412744E+04  0.00000000000E+00 0. -1.
<mgrwt>
<rscale>  0 0.35558223E+04</rscale>
<asrwt>0</asrwt>
<pdfrwt beam="1">  1        2 0.33302356E+00 0.35558223E+04</pdfrwt>
<pdfrwt beam="2">  1       -2 0.22465622E+00 0.35558223E+04</pdfrwt>
<totfact> 0.40841742E-01</totfact>
</mgrwt>
</event>
<event>
 6    1  0.1878398E-004  0.1422892E+04  0.7818608E-02  0.8937413E-01
         -2   -1    0    0    0  501 -0.00000000000E+00  0.00000000000E+00  0.22311554077E+03  0.22311554077E+03  0.00000000000E+00 0. -1.
          2   -1    0    0  501    0  0.00000000000E+00 -0.00000000000E+00 -0.22685808924E+04  0.22685808924E+04  0.00000000000E+00 0.  1.
         23    2    1    2    0    0  0.27569758772E+03 -0.26202947780E+03  0.19593903153E+02  0.39190160204E+03  0.92381478259E+02 0.  0.
         13    1    3    3    0    0  0.26358893283E+03 -0.20808189404E+03  0.22149121461E+02  0.33655279484E+03  0.00000000000E+00 0. -1.
        -13    1    3    3    0    0  0.12108654899E+02 -0.53947583764E+02 -0.25552183080E+01  0.55348807196E+02  0.00000000000E+00 0.  1.
         22    1    1    2    0    0 -0.27569758772E+03  0.26202947780E+03 -0.20650592548E+04  0.20997948312E+04  0.00000000000E+00 0.  1.
<mgrwt>
<rscale>  0 0.14228923E+04</rscale>
<asrwt>0</asrwt>
<pdfrwt beam="1">  1        2 0.34901245E+00 0.14228923E+04</pdfrwt>
<pdfrwt beam="2">  1       -2 0.34325467E-01 0.14228923E+04</pdfrwt>
<totfact> 0.36560917E+01</totfact>
</mgrwt>
</event>
<event>
 6    1  0.1878398E-004  0.2182257E+04  0.7818608E-02  0.8525850E-01
          2   -1    0    0  501    0  0.00000000000E+00  0.00000000000E+00  0.33479887579E+04  0.33479887579E+04  0.00000000000E+00 0.  1.
         -2   -1    0    0    0  501 -0.00000000000E+00 -0.00000000000E+00 -0.35560503855E+03  0.35560503855E+03  0.00000000000E+00 0. -1.
         23    2    1    2    0    0 -0.51606386297E+03 -0.87171629905E+02 -0.12232796481E+03  0.54521609909E+03  0.91518632050E+02 0.  0.
         11    1    3    3    0    0 -0.50934930326E+03 -0.71715435341E+02 -0.11665846429E+03  0.52743626505E+03  0.00000000000E+00 0. -1.
        -11    1    3    3    0    0 -0.67145597083E+01 -0.15456194563E+02 -0.56695005222E+01  0.17779834044E+02  0.00000000000E+00 0.  1.
         22    1    1    2    0    0  0.51606386297E+03  0.87171629905E+02  0.31147116841E+04  0.31583776973E+04  0.00000000000E+00 0.  1.
<mgrwt>
<rscale>  0 0.21822572E+04</rscale>
<asrwt>0</asrwt>
<pdfrwt beam="1">  1        2 0.51507517E+00 0.21822572E+04</pdfrwt>
<pdfrwt beam="2">  1       -2 0.54708470E-01 0.21822572E+04</pdfrwt>
<totfact> 0.29844100E+00</totfact>
</mgrwt>
</event>
<event>
 6    1  0.1878398E-004  0.2095406E+04  0.7818608E-02  0.8563270E-01
         -2   -1    0    0    0  501 -0.00000000000E+00  0.00000000000E+00  0.65132466637E+03  0.65132466637E+03  0.00000000000E+00 0. -1.
          2   -1    0    0  501    0  0.00000000000E+00 -0.00000000000E+00 -0.16853067694E+04  0.16853067694E+04  0.00000000000E+00 0.  1.
         23    2    1    2    0    0 -0.67601726987E+02 -0.11402309306E+03 -0.16746626018E+04  0.16823816663E+04  0.91334450013E+02 0.  0.
         11    1    3    3    0    0 -0.73442088093E+02 -0.47166200722E+02 -0.11741534572E+04  0.11773931934E+04  0.00000000000E+00 0.  1.
        -11    1    3    3    0    0  0.58403611058E+01 -0.66856892338E+02 -0.50050914468E+03  0.50498847292E+03  0.00000000000E+00 0. -1.
         22    1    1    2    0    0  0.67601726987E+02  0.11402309306E+03  0.64068049885E+03  0.65424976947E+03  0.00000000000E+00 0. -1.
<mgrwt>
<rscale>  0 0.20954063E+04</rscale>
<asrwt>0</asrwt>
<pdfrwt beam="1">  1        2 0.25927796E+00 0.20954063E+04</pdfrwt>
<pdfrwt beam="2">  1       -2 0.10020379E+00 0.20954063E+04</pdfrwt>
<totfact> 0.75736356E+00</totfact>
</mgrwt>
</event>
<event>
 6    1  0.1878398E-004  0.3581986E+03  0.7818608E-02  0.1059299E+00
         -2   -1    0    0    0  501 -0.00000000000E+00  0.00000000000E+00  0.65075936739E+03  0.65075936739E+03  0.00000000000E+00 0. -1.
          2   -1    0    0  501    0  0.00000000000E+00 -0.00000000000E+00 -0.49290969665E+02  0.49290969665E+02  0.00000000000E+00 0.  1.
         23    2    1    2    0    0  0.72167530341E+02  0.68174305083E+02  0.59197713918E+02  0.14876694095E+03  0.93655459404E+02 0.  0.
         11    1    3    3    0    0  0.44178594378E+02  0.90426556324E+02  0.41374398995E+02  0.10881429677E+03  0.00000000000E+00 0. -1.
        -11    1    3    3    0    0  0.27988935963E+02 -0.22252251241E+02  0.17823314923E+02  0.39952644173E+02  0.00000000000E+00 0.  1.
         22    1    1    2    0    0 -0.72167530341E+02 -0.68174305083E+02  0.54227068380E+03  0.55128339610E+03  0.00000000000E+00 0. -1.
<mgrwt>
<rscale>  0 0.35819861E+03</rscale>
<asrwt>0</asrwt>
<pdfrwt beam="1">  1        2 0.75832266E-02 0.35819861E+03</pdfrwt>
<pdfrwt beam="2">  1       -2 0.10011682E+00 0.35819861E+03</pdfrwt>
<totfact> 0.78348431E+02</totfact>
</mgrwt>
</event>
<event>
 6    1  0.1878398E-004  0.8910091E+03  0.7818608E-02  0.9436891E-01
          2   -1    0    0  501    0  0.00000000000E+00  0.00000000000E+00  0.70611472894E+03  0.70611472894E+03  0.00000000000E+00 0. -1.
         -2   -1    0    0    0  501 -0.00000000000E+00 -0.00000000000E+00 -0.28107941087E+03  0.28107941087E+03  0.00000000000E+00 0.  1.
         23    2    1    2    0    0  0.20577372650E+03  0.38433209163E+03  0.28689748513E+03  0.52988019506E+03  0.91699896213E+02 0.  0.
         11    1    3    3    0    0  0.89032191640E+02  0.22313089238E+03  0.11260095277E+03  0.26531698183E+03  0.00000000000E+00 0. -1.
        -11    1    3    3    0    0  0.11674153486E+03  0.16120119925E+03  0.17429653235E+03  0.26456321323E+03  0.00000000000E+00 0.  1.
         22    1    1    2    0    0 -0.20577372650E+03 -0.38433209163E+03  0.13813783294E+03  0.45731394475E+03  0.00000000000E+00 0.  1.
<mgrwt>
<rscale>  0 0.89100912E+03</rscale>
<asrwt>0</asrwt>
<pdfrwt beam="1">  1        2 0.10863303E+00 0.89100912E+03</pdfrwt>
<pdfrwt beam="2">  1       -2 0.43242987E-01 0.89100912E+03</pdfrwt>
<totfact> 0.20610064E+02</totfact>
</mgrwt>
</event>
<event>
 6    1  0.1878398E-004  0.4295326E+04  0.7818608E-02  0.7947483E-01
         -1   -1    0    0    0  501 -0.00000000000E+00  0.00000000000E+00  0.17871701033E+04  0.17871701033E+04  0.00000000000E+00 0. -1.
          1   -1    0    0  501    0  0.00000000000E+00 -0.00000000000E+00 -0.25808712947E+04  0.25808712947E+04  0.00000000000E+00 0.  1.
         23    2    1    2    0    0 -0.54450358729E+03 -0.20736049887E+04 -0.50782153901E+03  0.22051616092E+04  0.92375329704E+02 0.  0.
         13    1    3    3    0    0 -0.30520427324E+03 -0.11478244765E+04 -0.23424259096E+03  0.12105867456E+04  0.00000000000E+00 0.  1.
        -13    1    3    3    0    0 -0.23929931405E+03 -0.92578051219E+03 -0.27357894805E+03  0.99457486358E+03  0.00000000000E+00 0. -1.
         22    1    1    2    0    0  0.54450358729E+03  0.20736049887E+04 -0.28587965237E+03  0.21628797889E+04  0.00000000000E+00 0.  1.
<mgrwt>
<rscale>  0 0.42953258E+04</rscale>
<asrwt>0</asrwt>
<pdfrwt beam="1">  1        1 0.39705712E+00 0.42953258E+04</pdfrwt>
<pdfrwt beam="2">  1       -1 0.27494925E+00 0.42953258E+04</pdfrwt>
<totfact> 0.43630801E-02</totfact>
</mgrwt>
</event>
<event>
 6    1  0.1878398E-004  0.3270166E+04  0.7818608E-02  0.8170528E-01
         -2   -1    0    0    0  501 -0.00000000000E+00  0.00000000000E+00  0.14467234662E+04  0.14467234662E+04  0.00000000000E+00 0. -1.
          2   -1    0    0  501    0  0.00000000000E+00 -0.00000000000E+00 -0.18479668581E+04  0.18479668581E+04  0.00000000000E+00 0.  1.
         23    2    1    2    0    0  0.11783340925E+04  0.69595662819E+03  0.69856563733E+03  0.15390118905E+04  0.87959011355E+02 0.  0.
         13    1    3    3    0    0  0.72329525601E+03  0.37842651849E+03  0.40463372576E+03  0.91109335926E+03  0.00000000000E+00 0. -1.
        -13    1    3    3    0    0  0.45503883650E+03  0.31753010970E+03  0.29393191156E+03  0.62791853128E+03  0.00000000000E+00 0.  1.
         22    1    1    2    0    0 -0.11783340925E+04 -0.69595662819E+03 -0.10998090292E+04  0.17556784337E+04  0.00000000000E+00 0.  1.
<mgrwt>
<rscale>  0 0.32701664E+04</rscale>
<asrwt>0</asrwt>
<pdfrwt beam="1">  1        2 0.28430259E+00 0.32701664E+04</pdfrwt>
<pdfrwt beam="2">  1       -2 0.22257284E+00 0.32701664E+04</pdfrwt>
<totfact> 0.64690371E-01</totfact>
</mgrwt>
</event>
<event>
 6    1  0.1878398E-004  0.2743013E+04  0.7818608E-02  0.8321182E-01
         -1   -1    0    0    0  501 -0.00000000000E+00  0.00000000000E+00  0.86680440981E+03  0.86680440981E+03  0.00000000000E+00 0. -1.
          1   -1    0    0  501    0  0.00000000000E+00 -0.00000000000E+00 -0.21700738717E+04  0.21700738717E+04  0.00000000000E+00 0.  1.
         23    2    1    2    0    0  0.81666685987E+03  0.18671232010E+03 -0.18512272406E+04  0.20358468245E+04  0.12579247171E+03 0.  0.
         11    1    3    3    0    0  0.56079516143E+01  0.17520738088E+02 -0.47381812470E+02  0.50827763451E+02  0.00000000000E+00 0.  1.
        -11    1    3    3    0    0  0.81105890826E+03  0.16919158201E+03 -0.18038454281E+04  0.19850190611E+04  0.00000000000E+00 0. -1.
         22    1    1    2    0    0 -0.81666685987E+03 -0.18671232010E+03  0.54795777878E+03  0.10010314570E+04  0.00000000000E+00 0. -1.
<mgrwt>
<rscale>  0 0.27430127E+04</rscale>
<asrwt>0</asrwt>
<pdfrwt beam="1">  1        1 0.33385752E+00 0.27430127E+04</pdfrwt>
<pdfrwt beam="2">  1       -1 0.13335452E+00 0.27430127E+04</pdfrwt>
<totfact> 0.94400029E-01</totfact>
</mgrwt>
</event>
<event>
 6    1  0.1878398E-004  0.1311104E+04  0.7818608E-02  0.9020805E-01
          2   -1    0    0  501    0  0.00000000000E+00  0.00000000000E+00  0.40148308899E+04  0.40148308899E+04  0.00000000000E+00 0.  1.
         -2   -1    0    0    0  501 -0.00000000000E+00 -0.00000000000E+00 -0.10704030589E+03  0.10704030589E+03  0.00000000000E+00 0. -1.
         23    2    1    2    0    0  0.29532983840E+03 -0.57117617820E+03  0.16164750934E+04  0.17420416604E+04  0.90859666565E+02 0.  0.
         11    1    3    3    0    0  0.18149212463E+03 -0.25264599560E+03  0.76268280473E+03  0.82368346531E+03  0.00000000000E+00 0.  1.
        -11    1    3    3    0    0  0.11383771377E+03 -0.31853018260E+03  0.85379228864E+03  0.91835819506E+03  0.00000000000E+00 0. -1.
         22    1    1    2    0    0 -0.29532983840E+03  0.57117617820E+03  0.22913154907E+04  0.23798295355E+04  0.00000000000E+00 0. -1.
<mgrwt>
<rscale>  0 0.13111045E+04</rscale>
<asrwt>0</asrwt>
<pdfrwt beam="1">  1        2 0.61766618E+00 0.13111045E+04</pdfrwt>
<pdfrwt beam="2">  1       -2 0.16467742E-01 0.13111045E+04</pdfrwt>
<totfact> 0.10092070E+01</totfact>
</mgrwt>
</event>
<event>
 6    1  0.1878398E-004  0.6262499E+03  0.7818608E-02  0.9852394E-01
         -2   -1    0    0    0  501 -0.00000000000E+00  0.00000000000E+00  0.37232199000E+02  0.37232199000E+02  0.00000000000E+00 0. -1.
          2   -1    0    0  501    0  0.00000000000E+00 -0.00000000000E+00 -0.26333991983E+04  0.26333991983E+04  0.00000000000E+00 0.  1.
         23    2    1    2    0    0  0.62133814128E+02  0.29741156342E+03 -0.11776431465E+04  0.12199335756E+04  0.95290605370E+02 0.  0.
         11    1    3    3    0    0  0.69306742731E+02  0.14147646242E+03 -0.69678656173E+03  0.71437422029E+03  0.00000000000E+00 0. -1.
        -11    1    3    3    0    0 -0.71729286035E+01  0.15593510100E+03 -0.48085658479E+03  0.50555935533E+03  0.00000000000E+00 0.  1.
         22    1    1    2    0    0 -0.62133814128E+02 -0.29741156342E+03 -0.14185238528E+04  0.14506978217E+04  0.00000000000E+00 0. -1.
<mgrwt>
<rscale>  0 0.62624993E+03</rscale>
<asrwt>0</asrwt>
<pdfrwt beam="1">  1        2 0.40513838E+00 0.62624993E+03</pdfrwt>
<pdfrwt beam="2">  1       -2 0.57280301E-02 0.62624993E+03</pdfrwt>
<totfact> 0.51199967E+02</totfact>
</mgrwt>
</event>
<event>
 6    1  0.1878398E-004  0.3612284E+04  0.7818608E-02  0.8087684E-01
          3   -1    0    0  501    0  0.00000000000E+00  0.00000000000E+00  0.19160060149E+04  0.19160060149E+04  0.00000000000E+00 0. -1.
         -3   -1    0    0    0  501 -0.00000000000E+00 -0.00000000000E+00 -0.17025778350E+04  0.17025778350E+04  0.00000000000E+00 0.  1.
         23    2    1    2    0    0  0.13148734512E+04 -0.83531404642E+03 -0.80656682579E+03  0.17565871903E+04  0.91688405587E+02 0.  0.
         13    1    3    3    0    0  0.18392715341E+03 -0.11144928225E+03 -0.14763162536E+03  0.26085481993E+03  0.00000000000E+00 0.  1.
        -13    1    3    3    0    0  0.11309462978E+04 -0.72386476417E+03 -0.65893520043E+03  0.14957323704E+04  0.00000000000E+00 0. -1.
         22    1    1    2    0    0 -0.13148734512E+04  0.83531404642E+03  0.10199950056E+04  0.18619966596E+04  0.00000000000E+00 0. -1.
<mgrwt>
<rscale>  0 0.36122842E+04</rscale>
<asrwt>0</asrwt>
<pdfrwt beam="1">  1        3 0.29477016E+00 0.36122842E+04</pdfrwt>
<pdfrwt beam="2">  1       -3 0.26193505E+00 0.36122842E+04</pdfrwt>
<totfact> 0.54204723E-03</totfact>
</mgrwt>
</event>
<event>
 6    1  0.1878398E-004  0.1561107E+04  0.7818608E-02  0.8844804E-01
         -2   -1    0    0    0  501 -0.00000000000E+00  0.00000000000E+00  0.16384930972E+04  0.16384930972E+04  0.00000000000E+00 0. -1.
          2   -1    0    0  501    0  0.00000000000E+00 -0.00000000000E+00 -0.37184397031E+03  0.37184397031E+03  0.00000000000E+00 0.  1.
         23    2    1    2    0    0  0.59971952722E+03 -0.13662414237E+03  0.12488422363E+04  0.13949942745E+04  0.89846686245E+02 0.  0.
         11    1    3    3    0    0  0.15111745147E+03  0.17262443600E+01  0.27065371894E+03  0.30998854758E+03  0.00000000000E+00 0.  1.
        -11    1    3    3    0    0  0.44860207575E+03 -0.13835038673E+03  0.97818851736E+03  0.10850057269E+04  0.00000000000E+00 0. -1.
         22    1    1    2    0    0 -0.59971952722E+03  0.13662414237E+03  0.17806890603E+02  0.61534279305E+03  0.00000000000E+00 0.  1.
<mgrwt>
<rscale>  0 0.15611070E+04</rscale>
<asrwt>0</asrwt>
<pdfrwt beam="1">  1        2 0.57206765E-01 0.15611070E+04</pdfrwt>
<pdfrwt beam="2">  1       -2 0.25207586E+00 0.15611070E+04</pdfrwt>
<totfact> 0.51839233E+00</totfact>
</mgrwt>
</event>
<event>
 6    1  0.1878398E-004  0.1876271E+04  0.7818608E-02  0.8666759E-01
          1   -1    0    0  501    0  0.00000000000E+00  0.00000000000E+00  0.10934211613E+04  0.10934211613E+04  0.00000000000E+00 0.  1.
         -1   -1    0    0    0  501 -0.00000000000E+00 -0.00000000000E+00 -0.80490302020E+03  0.80490302020E+03  0.00000000000E+00 0. -1.
         23    2    1    2    0    0 -0.51935647568E+03  0.70886388627E+03  0.47069940540E+03  0.10008782661E+04  0.89332050341E+02 0.  0.
         13    1    3    3    0    0 -0.35514644207E+03  0.45068158231E+03  0.34891599799E+03  0.67155435938E+03  0.00000000000E+00 0.  1.
        -13    1    3    3    0    0 -0.16421003361E+03  0.25818230397E+03  0.12178340741E+03  0.32932390672E+03  0.00000000000E+00 0. -1.
         22    1    1    2    0    0  0.51935647568E+03 -0.70886388627E+03 -0.18218126426E+03  0.89744591544E+03  0.00000000000E+00 0. -1.
<mgrwt>
<rscale>  0 0.18762708E+04</rscale>
<asrwt>0</asrwt>
<pdfrwt beam="1">  1        1 0.16821864E+00 0.18762708E+04</pdfrwt>
<pdfrwt beam="2">  1       -1 0.12383123E+00 0.18762708E+04</pdfrwt>
<totfact> 0.68885006E+00</totfact>
</mgrwt>
</event>
<event>
 6    1  0.1878398E-004  0.8173189E+03  0.7818608E-02  0.9535282E-01
         -1   -1    0    0    0  501 -0.00000000000E+00  0.00000000000E+00  0.20212887239E+03  0.20212887239E+03  0.00000000000E+00 0.  1.
          1   -1    0    0  501    0  0.00000000000E+00 -0.00000000000E+00 -0.82621809177E+03  0.82621809177E+03  0.00000000000E+00 0. -1.
         23    2    1    2    0    0  0.20981493316E+03 -0.10217137465E+03 -0.72962476367E+03  0.77222385492E+03  0.97550450399E+02 0.  0.
         11    1    3    3    0    0  0.14722042395E+03 -0.23217754914E+02 -0.37403694298E+03  0.40263699791E+03  0.00000000000E+00 0. -1.
        -11    1    3    3    0    0  0.62594509210E+02 -0.78953619740E+02 -0.35558782069E+03  0.36958685701E+03  0.00000000000E+00 0.  1.
         22    1    1    2    0    0 -0.20981493316E+03  0.10217137465E+03  0.10553554430E+03  0.25612310924E+03  0.00000000000E+00 0.  1.
<mgrwt>
<rscale>  0 0.81731886E+03</rscale>
<asrwt>0</asrwt>
<pdfrwt beam="1">  1        1 0.12711048E+00 0.81731886E+03</pdfrwt>
<pdfrwt beam="2">  1       -1 0.31096749E-01 0.81731886E+03</pdfrwt>
<totfact> 0.20284467E+02</totfact>
</mgrwt>
</event>
<event>
 6    1  0.1878398E-004  0.3596566E+04  0.7818608E-02  0.8091279E-01
          2   -1    0    0  501    0  0.00000000000E+00  0.00000000000E+00  0.22279151581E+04  0.22279151581E+04  0.00000000000E+00 0.  1.
         -2   -1    0    0    0  501 -0.00000000000E+00 -0.00000000000E+00 -0.14515009353E+04  0.14515009353E+04  0.00000000000E+00 0. -1.
         23    2    1    2    0    0 -0.14383839017E+04  0.58794928305E+03 -0.53519542344E+03  0.16459578390E+04  0.90058082674E+02 0.  0.
         13    1    3    3    0    0 -0.76288941243E+03  0.33073842419E+03 -0.24250873254E+03  0.86614008462E+03  0.00000000000E+00 0. -1.
        -13    1    3    3    0    0 -0.67549448930E+03  0.25721085886E+03 -0.29268669090E+03  0.77981775437E+03  0.00000000000E+00 0.  1.
         22    1    1    2    0    0  0.14383839017E+04 -0.58794928305E+03  0.13116096462E+04  0.20334582544E+04  0.00000000000E+00 0.  1.
<mgrwt>
<rscale>  0 0.35965655E+04</rscale>
<asrwt>0</asrwt>
<pdfrwt beam="1">  1        2 0.34275618E+00 0.35965655E+04</pdfrwt>
<pdfrwt beam="2">  1       -2 0.22330784E+00 0.35965655E+04</pdfrwt>
<totfact> 0.38242466E-01</totfact>
</mgrwt>
</event>
<event>
 6    1  0.1878398E-004  0.2535851E+04  0.7818608E-02  0.8390324E-01
         -2   -1    0    0    0  501 -0.00000000000E+00  0.00000000000E+00  0.70666875604E+03  0.70666875604E+03  0.00000000000E+00 0. -1.
          2   -1    0    0  501    0  0.00000000000E+00 -0.00000000000E+00 -0.22749486220E+04  0.22749486220E+04  0.00000000000E+00 0.  1.
         23    2    1    2    0    0  0.29889376041E+03 -0.10787174577E+04 -0.88961602087E+02  0.11265294127E+04  0.90473849410E+02 0.  0.
         13    1    3    3    0    0  0.18679076113E+03 -0.62777324765E+03 -0.94959181356E+02  0.66182118811E+03  0.00000000000E+00 0. -1.
        -13    1    3    3    0    0  0.11210299929E+03 -0.45094421003E+03  0.59975792691E+01  0.46470822455E+03  0.00000000000E+00 0.  1.
         22    1    1    2    0    0 -0.29889376041E+03  0.10787174577E+04 -0.14793182639E+04  0.18550879654E+04  0.00000000000E+00 0.  1.
<mgrwt>
<rscale>  0 0.25358510E+04</rscale>
<asrwt>0</asrwt>
<pdfrwt beam="1">  1        2 0.34999210E+00 0.25358510E+04</pdfrwt>
<pdfrwt beam="2">  1       -2 0.10871827E+00 0.25358510E+04</pdfrwt>
<totfact> 0.28152223E+00</totfact>
</mgrwt>
</event>
<event>
 6    1  0.1878398E-004  0.2528481E+04  0.7818608E-02  0.8392909E-01
         -2   -1    0    0    0  501 -0.00000000000E+00  0.00000000000E+00  0.16452849095E+04  0.16452849095E+04  0.00000000000E+00 0. -1.
          2   -1    0    0  501    0  0.00000000000E+00 -0.00000000000E+00 -0.97144478866E+03  0.97144478866E+03  0.00000000000E+00 0.  1.
         23    2    1    2    0    0 -0.78540824775E+03  0.50373336888E+03 -0.54298002729E+03  0.10833462838E+04  0.90545226275E+02 0.  0.
         13    1    3    3    0    0 -0.39779573704E+03  0.26684083017E+03 -0.32966631039E+03  0.58148547124E+03  0.00000000000E+00 0.  1.
        -13    1    3    3    0    0 -0.38761251071E+03  0.23689253871E+03 -0.21331371690E+03  0.50186081255E+03  0.00000000000E+00 0. -1.
         22    1    1    2    0    0  0.78540824775E+03 -0.50373336888E+03  0.12168201481E+04  0.15333834143E+04  0.00000000000E+00 0. -1.
<mgrwt>
<rscale>  0 0.25284805E+04</rscale>
<asrwt>0</asrwt>
<pdfrwt beam="1">  1        2 0.14945304E+00 0.25284805E+04</pdfrwt>
<pdfrwt beam="2">  1       -2 0.25312076E+00 0.25284805E+04</pdfrwt>
<totfact> 0.14378278E+00</totfact>
</mgrwt>
</event>
<event>
 6    1  0.1878398E-004  0.1004105E+04  0.7818608E-02  0.9304054E-01
          2   -1    0    0  501    0  0.00000000000E+00  0.00000000000E+00  0.21723670111E+04  0.21723670111E+04  0.00000000000E+00 0.  1.
         -2   -1    0    0    0  501 -0.00000000000E+00 -0.00000000000E+00 -0.11602863525E+03  0.11602863525E+03  0.00000000000E+00 0. -1.
         23    2    1    2    0    0 -0.80336567616E+02  0.18636893074E+03  0.20728653472E+04  0.20847771717E+04  0.91311367570E+02 0.  0.
         13    1    3    3    0    0 -0.75024411215E+02  0.12328709150E+03  0.10389850175E+04  0.10489605502E+04  0.00000000000E+00 0.  1.
        -13    1    3    3    0    0 -0.53121564015E+01  0.63081839249E+02  0.10338803296E+04  0.10358166215E+04  0.00000000000E+00 0. -1.
         22    1    1    2    0    0  0.80336567616E+02 -0.18636893074E+03 -0.16526971275E+02  0.20361847466E+03  0.00000000000E+00 0. -1.
<mgrwt>
<rscale>  0 0.10041051E+04</rscale>
<asrwt>0</asrwt>
<pdfrwt beam="1">  1        2 0.33421028E+00 0.10041051E+04</pdfrwt>
<pdfrwt beam="2">  1       -2 0.17850561E-01 0.10041051E+04</pdfrwt>
<totfact> 0.14010830E+02</totfact>
</mgrwt>
</event>
<event>
 6    1  0.1878398E-004  0.1396538E+04  0.7818608E-02  0.8956328E-01
          2   -1    0    0  501    0  0.00000000000E+00  0.00000000000E+00  0.93260687529E+03  0.93260687529E+03  0.00000000000E+00 0.  1.
         -2   -1    0    0    0  501 -0.00000000000E+00 -0.00000000000E+00 -0.52281361711E+03  0.52281361711E+03  0.00000000000E+00 0. -1.
         23    2    1    2    0    0  0.26647066344E+03 -0.13502057318E+03  0.86013773011E+03  0.91500647235E+03  0.90347994038E+02 0.  0.
         11    1    3    3    0    0  0.13059211465E+03 -0.43098216366E+02  0.51209120334E+03  0.53023500187E+03  0.00000000000E+00 0. -1.
        -11    1    3    3    0    0  0.13587854879E+03 -0.91922356818E+02  0.34804652677E+03  0.38477147049E+03  0.00000000000E+00 0.  1.
         22    1    1    2    0    0 -0.26647066344E+03  0.13502057318E+03 -0.45034447193E+03  0.54041402004E+03  0.00000000000E+00 0. -1.
<mgrwt>
<rscale>  0 0.13965380E+04</rscale>
<asrwt>0</asrwt>
<pdfrwt beam="1">  1        2 0.14347798E+00 0.13965380E+04</pdfrwt>
<pdfrwt beam="2">  1       -2 0.80432864E-01 0.13965380E+04</pdfrwt>
<totfact> 0.37076973E+01</totfact>
</mgrwt>
</event>
<event>
 6    1  0.1878398E-004  0.9769177E+03  0.7818608E-02  0.9334230E-01
          2   -1    0    0  501    0  0.00000000000E+00  0.00000000000E+00  0.68522855869E+03  0.68522855869E+03  0.00000000000E+00 0.  1.
         -2   -1    0    0    0  501 -0.00000000000E+00 -0.00000000000E+00 -0.34819337751E+03  0.34819337751E+03  0.00000000000E+00 0. -1.
         23    2    1    2    0    0  0.45374402124E+03  0.97661065690E+02  0.31627538736E+03  0.56882287291E+03  0.90044541919E+02 0.  0.
         13    1    3    3    0    0  0.15096171728E+03  0.55681639558E+02  0.15407706331E+03  0.22277707805E+03  0.00000000000E+00 0.  1.
        -13    1    3    3    0    0  0.30278230397E+03  0.41979426131E+02  0.16219832405E+03  0.34604579486E+03  0.00000000000E+00 0. -1.
         22    1    1    2    0    0 -0.45374402124E+03 -0.97661065690E+02  0.20759793811E+02  0.46459906329E+03  0.00000000000E+00 0. -1.
<mgrwt>
<rscale>  0 0.97691770E+03</rscale>
<asrwt>0</asrwt>
<pdfrwt beam="1">  1        2 0.10541978E+00 0.97691770E+03</pdfrwt>
<pdfrwt beam="2">  1       -2 0.53568212E-01 0.97691770E+03</pdfrwt>
<totfact> 0.13821448E+02</totfact>
</mgrwt>
</event>
<event>
 6    1  0.1878398E-004  0.2069731E+04  0.7818608E-02  0.8574695E-01
         -2   -1    0    0    0  501 -0.00000000000E+00  0.00000000000E+00  0.57456097876E+03  0.57456097876E+03  0.00000000000E+00 0. -1.
          2   -1    0    0  501    0  0.00000000000E+00 -0.00000000000E+00 -0.18639396169E+04  0.18639396169E+04  0.00000000000E+00 0.  1.
         23    2    1    2    0    0  0.36513211620E+03  0.41740419804E+03  0.38038818337E+03  0.67904927065E+03  0.94154209097E+02 0.  0.
         11    1    3    3    0    0  0.12952826789E+03  0.20907062328E+03  0.13828594440E+03  0.28215439058E+03  0.00000000000E+00 0.  1.
        -11    1    3    3    0    0  0.23560384830E+03  0.20833357476E+03  0.24210223898E+03  0.39689488007E+03  0.00000000000E+00 0. -1.
         22    1    1    2    0    0 -0.36513211620E+03 -0.41740419804E+03 -0.16697668215E+04  0.17594513250E+04  0.00000000000E+00 0.  1.
<mgrwt>
<rscale>  0 0.20697314E+04</rscale>
<asrwt>0</asrwt>
<pdfrwt beam="1">  1        2 0.28675994E+00 0.20697314E+04</pdfrwt>
<pdfrwt beam="2">  1       -2 0.88393996E-01 0.20697314E+04</pdfrwt>
<totfact> 0.80917245E+00</totfact>
</mgrwt>
</event>
<event>
 6    1  0.1878398E-004  0.4693867E+04  0.7818608E-02  0.7877548E-01
         -2   -1    0    0    0  501 -0.00000000000E+00  0.00000000000E+00  0.15274245453E+04  0.15274245453E+04  0.00000000000E+00 0. -1.
          2   -1    0    0  501    0  0.00000000000E+00 -0.00000000000E+00 -0.36061339760E+04  0.36061339760E+04  0.00000000000E+00 0.  1.
         23    2    1    2    0    0  0.20798687057E+04 -0.10949349462E+03  0.14164303072E+03  0.20892510941E+04  0.84051935674E+02 0.  0.
         13    1    3    3    0    0  0.30588415236E+03  0.11941064034E+02  0.10799488477E+02  0.30630757847E+03  0.00000000000E+00 0. -1.
        -13    1    3    3    0    0  0.17739845533E+04 -0.12143455865E+03  0.13084354225E+03  0.17829435156E+04  0.00000000000E+00 0.  1.
         22    1    1    2    0    0 -0.20798687057E+04  0.10949349462E+03 -0.22203524615E+04  0.30443074272E+04  0.00000000000E+00 0. -1.
<mgrwt>
<rscale>  0 0.46938673E+04</rscale>
<asrwt>0</asrwt>
<pdfrwt beam="1">  1        2 0.55478984E+00 0.46938673E+04</pdfrwt>
<pdfrwt beam="2">  1       -2 0.23498839E+00 0.46938673E+04</pdfrwt>
<totfact> 0.40472840E-02</totfact>
</mgrwt>
</event>
<event>
 6    1  0.1878398E-004  0.1155874E+04  0.7818608E-02  0.9152381E-01
         -1   -1    0    0    0  501 -0.00000000000E+00  0.00000000000E+00  0.37559236325E+03  0.37559236325E+03  0.00000000000E+00 0. -1.
          1   -1    0    0  501    0  0.00000000000E+00 -0.00000000000E+00 -0.88929199003E+03  0.88929199003E+03  0.00000000000E+00 0.  1.
         23    2    1    2    0    0  0.43335373694E+03  0.35317042645E+03 -0.40324254874E+03  0.69503737599E+03  0.89149253886E+02 0.  0.
         13    1    3    3    0    0  0.14708731515E+03  0.11218655780E+03 -0.18611450631E+03  0.26241019699E+03  0.00000000000E+00 0.  1.
        -13    1    3    3    0    0  0.28626642180E+03  0.24098386864E+03 -0.21712804244E+03  0.43262717900E+03  0.00000000000E+00 0. -1.
         22    1    1    2    0    0 -0.43335373694E+03 -0.35317042645E+03 -0.11045707803E+03  0.56984697729E+03  0.00000000000E+00 0. -1.
<mgrwt>
<rscale>  0 0.11558742E+04</rscale>
<asrwt>0</asrwt>
<pdfrwt beam="1">  1        1 0.13681415E+00 0.11558742E+04</pdfrwt>
<pdfrwt beam="2">  1       -1 0.57783441E-01 0.11558742E+04</pdfrwt>
<totfact> 0.55929255E+01</totfact>
</mgrwt>
</event>
<event>
 6    1  0.1878398E-004  0.4057673E+04  0.7818608E-02  0.7993012E-01
          1   -1    0    0  501    0  0.00000000000E+00  0.00000000000E+00  0.24434450642E+04  0.24434450642E+04  0.00000000000E+00 0.  1.
         -1   -1    0    0    0  501 -0.00000000000E+00 -0.00000000000E+00 -0.16845792535E+04  0.16845792535E+04  0.00000000000E+00 0. -1.
         23    2    1    2    0    0  0.17313547305E+04 -0.74836573313E+03  0.11370524707E+04  0.22043128989E+04  0.92013921133E+02 0.  0.
         13    1    3    3    0    0  0.10930130831E+04 -0.46557851608E+03  0.66449371671E+03  0.13612468013E+04  0.00000000000E+00 0.  1.
        -13    1    3    3    0    0  0.63834164737E+03 -0.28278721705E+03  0.47255875400E+03  0.84306609757E+03  0.00000000000E+00 0. -1.
         22    1    1    2    0    0 -0.17313547305E+04  0.74836573313E+03 -0.37818666000E+03  0.19237114189E+04  0.00000000000E+00 0.  1.
<mgrwt>
<rscale>  0 0.40576727E+04</rscale>
<asrwt>0</asrwt>
<pdfrwt beam="1">  1        1 0.37591463E+00 0.40576727E+04</pdfrwt>
<pdfrwt beam="2">  1       -1 0.25916604E+00 0.40576727E+04</pdfrwt>
<totfact> 0.70172785E-02</totfact>
</mgrwt>
</event>
<event>
 6    1  0.1878398E-004  0.3583122E+04  0.7818608E-02  0.8094369E-01
          2   -1    0    0  501    0  0.00000000000E+00  0.00000000000E+00  0.22198213631E+04  0.22198213631E+04  0.00000000000E+00 0.  1.
         -2   -1    0    0    0  501 -0.00000000000E+00 -0.00000000000E+00 -0.14459231957E+04  0.14459231957E+04  0.00000000000E+00 0. -1.
         23    2    1    2    0    0  0.15056949796E+04 -0.33139293427E+03 -0.54402953569E+03  0.16374763126E+04  0.91770856761E+02 0.  0.
         13    1    3    3    0    0  0.95601592196E+03 -0.25350955087E+03 -0.36213068997E+03  0.10532673792E+04  0.00000000000E+00 0.  1.
        -13    1    3    3    0    0  0.54967905761E+03 -0.77883383404E+02 -0.18189884572E+03  0.58420893339E+03  0.00000000000E+00 0. -1.
         22    1    1    2    0    0 -0.15056949796E+04  0.33139293427E+03  0.13179277031E+04  0.20282682463E+04  0.00000000000E+00 0.  1.
<mgrwt>
<rscale>  0 0.35831222E+04</rscale>
<asrwt>0</asrwt>
<pdfrwt beam="1">  1        2 0.34151098E+00 0.35831222E+04</pdfrwt>
<pdfrwt beam="2">  1       -2 0.22244972E+00 0.35831222E+04</pdfrwt>
<totfact> 0.39174533E-01</totfact>
</mgrwt>
</event>
<event>
 6    1  0.1878398E-004  0.1128480E+04  0.7818608E-02  0.9177870E-01
         -3   -1    0    0    0  501 -0.00000000000E+00  0.00000000000E+00  0.39519589995E+03  0.39519589995E+03  0.00000000000E+00 0.  1.
          3   -1    0    0  501    0  0.00000000000E+00 -0.00000000000E+00 -0.80559197575E+03  0.80559197575E+03  0.00000000000E+00 0. -1.
         23    2    1    2    0    0 -0.49718725048E+02  0.37483253274E+03  0.23630108941E+03  0.45166265072E+03  0.72038642289E+02 0.  0.
         13    1    3    3    0    0 -0.15692654688E+02  0.18517685736E+02  0.29786092473E+02  0.38423630762E+02  0.00000000000E+00 0. -1.
        -13    1    3    3    0    0 -0.34026070360E+02  0.35631484700E+03  0.20651499694E+03  0.41323901996E+03  0.00000000000E+00 0.  1.
         22    1    1    2    0    0  0.49718725048E+02 -0.37483253274E+03 -0.64669716521E+03  0.74912522499E+03  0.00000000000E+00 0. -1.
<mgrwt>
<rscale>  0 0.11284798E+04</rscale>
<asrwt>0</asrwt>
<pdfrwt beam="1">  1        3 0.12393723E+00 0.11284798E+04</pdfrwt>
<pdfrwt beam="2">  1       -3 0.60799370E-01 0.11284798E+04</pdfrwt>
<totfact> 0.35905726E+00</totfact>
</mgrwt>
</event>
<event>
 6    1  0.1878398E-004  0.1569843E+04  0.7818608E-02  0.8839292E-01
         -2   -1    0    0    0  501 -0.00000000000E+00  0.00000000000E+00  0.28629871533E+03  0.28629871533E+03  0.00000000000E+00 0. -1.
          2   -1    0    0  501    0  0.00000000000E+00 -0.00000000000E+00 -0.21519541744E+04  0.21519541744E+04  0.00000000000E+00 0.  1.
         23    2    1    2    0    0  0.22048988461E+03  0.27576169296E+03  0.14810584906E+03  0.39377376128E+03  0.91989847425E+02 0.  0.
         11    1    3    3    0    0  0.14393413499E+03  0.12437911235E+03  0.11057708114E+03  0.22003292862E+03  0.00000000000E+00 0.  1.
        -11    1    3    3    0    0  0.76555749619E+02  0.15138258061E+03  0.37528767919E+02  0.17374083266E+03  0.00000000000E+00 0. -1.
         22    1    1    2    0    0 -0.22048988461E+03 -0.27576169296E+03 -0.20137613082E+04  0.20444791285E+04  0.00000000000E+00 0.  1.
<mgrwt>
<rscale>  0 0.15698429E+04</rscale>
<asrwt>0</asrwt>
<pdfrwt beam="1">  1        2 0.33106987E+00 0.15698429E+04</pdfrwt>
<pdfrwt beam="2">  1       -2 0.44045956E-01 0.15698429E+04</pdfrwt>
<totfact> 0.25834345E+01</totfact>
</mgrwt>
</event>
<event>
 6    1  0.1878398E-004  0.2008047E+04  0.7818608E-02  0.8602868E-01
          2   -1    0    0  501    0  0.00000000000E+00  0.00000000000E+00  0.97325172476E+03  0.97325172476E+03  0.00000000000E+00 0.  1.
         -2   -1    0    0    0  501 -0.00000000000E+00 -0.00000000000E+00 -0.10357682257E+04  0.10357682257E+04  0.00000000000E+00 0. -1.
         23    2    1    2    0    0  0.45320536498E+03 -0.71707466359E+03 -0.56440308713E+03  0.10233824301E+04  0.95757910824E+02 0.  0.
         11    1    3    3    0    0  0.24393935515E+03 -0.39050064233E+03 -0.36315318151E+03  0.58641060179E+03  0.00000000000E+00 0. -1.
        -11    1    3    3    0    0  0.20926600983E+03 -0.32657402126E+03 -0.20124990562E+03  0.43697182832E+03  0.00000000000E+00 0.  1.
         22    1    1    2    0    0 -0.45320536498E+03  0.71707466359E+03  0.50188658623E+03  0.98563752031E+03  0.00000000000E+00 0.  1.
<mgrwt>
<rscale>  0 0.20080470E+04</rscale>
<asrwt>0</asrwt>
<pdfrwt beam="1">  1        2 0.14973104E+00 0.20080470E+04</pdfrwt>
<pdfrwt beam="2">  1       -2 0.15934896E+00 0.20080470E+04</pdfrwt>
<totfact> 0.61978951E+00</totfact>
</mgrwt>
</event>
<event>
 6    1  0.1878398E-004  0.3668073E+04  0.7818608E-02  0.8075074E-01
          2   -1    0    0  501    0  0.00000000000E+00  0.00000000000E+00  0.31187157051E+04  0.31187157051E+04  0.00000000000E+00 0.  1.
         -2   -1    0    0    0  501 -0.00000000000E+00 -0.00000000000E+00 -0.10785498719E+04  0.10785498719E+04  0.00000000000E+00 0. -1.
         23    2    1    2    0    0  0.46621805985E+03 -0.59542451556E+03  0.29312194768E+04  0.30285627794E+04  0.90858431427E+02 0.  0.
         11    1    3    3    0    0  0.16732805675E+03 -0.28598015751E+03  0.12493088150E+04  0.12924998430E+04  0.00000000000E+00 0.  1.
        -11    1    3    3    0    0  0.29889000310E+03 -0.30944435805E+03  0.16819106619E+04  0.17360629364E+04  0.00000000000E+00 0. -1.
         22    1    1    2    0    0 -0.46621805985E+03  0.59542451556E+03 -0.89105364370E+03  0.11687027976E+04  0.00000000000E+00 0. -1.
<mgrwt>
<rscale>  0 0.36680733E+04</rscale>
<asrwt>0</asrwt>
<pdfrwt beam="1">  1        2 0.47980241E+00 0.36680733E+04</pdfrwt>
<pdfrwt beam="2">  1       -2 0.16593075E+00 0.36680733E+04</pdfrwt>
<totfact> 0.27021879E-01</totfact>
</mgrwt>
</event>
<event>
 6    1  0.1878398E-004  0.1286247E+04  0.7818608E-02  0.9040543E-01
          2   -1    0    0  501    0  0.00000000000E+00  0.00000000000E+00  0.13921965966E+04  0.13921965966E+04  0.00000000000E+00 0.  1.
         -2   -1    0    0    0  501 -0.00000000000E+00 -0.00000000000E+00 -0.29709005603E+03  0.29709005603E+03  0.00000000000E+00 0. -1.
         23    2    1    2    0    0 -0.13951677171E+03 -0.16687031668E+03  0.13406127822E+04  0.13612867336E+04  0.92457055692E+02 0.  0.
         13    1    3    3    0    0 -0.76883634050E+02 -0.14126418257E+03  0.10856263608E+04  0.10974749462E+04  0.00000000000E+00 0. -1.
        -13    1    3    3    0    0 -0.62633137656E+02 -0.25606134102E+02  0.25498642144E+03  0.26381178737E+03  0.00000000000E+00 0.  1.
         22    1    1    2    0    0  0.13951677171E+03  0.16687031668E+03 -0.24550624164E+03  0.32799991900E+03  0.00000000000E+00 0. -1.
<mgrwt>
<rscale>  0 0.12862469E+04</rscale>
<asrwt>0</asrwt>
<pdfrwt beam="1">  1        2 0.21418409E+00 0.12862469E+04</pdfrwt>
<pdfrwt beam="2">  1       -2 0.45706163E-01 0.12862469E+04</pdfrwt>
<totfact> 0.65085561E+01</totfact>
</mgrwt>
</event>
<event>
 6    1  0.1878398E-004  0.4550702E+03  0.7818608E-02  0.1026221E+00
          1   -1    0    0  501    0  0.00000000000E+00  0.00000000000E+00  0.44295001799E+03  0.44295001799E+03  0.00000000000E+00 0. -1.
         -1   -1    0    0    0  501 -0.00000000000E+00 -0.00000000000E+00 -0.11688050838E+03  0.11688050838E+03  0.00000000000E+00 0.  1.
         23    2    1    2    0    0  0.13908405530E+03 -0.14204266017E+03  0.28063869156E+03  0.35590786708E+03  0.91607002472E+02 0.  0.
         13    1    3    3    0    0  0.98294445736E+02 -0.51999381889E+02  0.19788841682E+03  0.22699242122E+03  0.00000000000E+00 0.  1.
        -13    1    3    3    0    0  0.40789609562E+02 -0.90043278281E+02  0.82750274741E+02  0.12891544586E+03  0.00000000000E+00 0. -1.
         22    1    1    2    0    0 -0.13908405530E+03  0.14204266017E+03  0.45430818052E+02  0.20392265930E+03  0.00000000000E+00 0.  1.
<mgrwt>
<rscale>  0 0.45507021E+03</rscale>
<asrwt>0</asrwt>
<pdfrwt beam="1">  1        1 0.68146156E-01 0.45507021E+03</pdfrwt>
<pdfrwt beam="2">  1       -1 0.17981617E-01 0.45507021E+03</pdfrwt>
<totfact> 0.12768666E+03</totfact>
</mgrwt>
</event>
<event>
 6    1  0.1878398E-004  0.1211883E+04  0.7818608E-02  0.9102518E-01
         -1   -1    0    0    0  501 -0.00000000000E+00  0.00000000000E+00  0.14889678376E+04  0.14889678376E+04  0.00000000000E+00 0. -1.
          1   -1    0    0  501    0  0.00000000000E+00 -0.00000000000E+00 -0.24659051125E+03  0.24659051125E+03  0.00000000000E+00 0.  1.
         23    2    1    2    0    0  0.43392490388E+03 -0.53990445936E+02  0.12183472827E+04  0.12976277225E+04  0.90894524350E+02 0.  0.
         13    1    3    3    0    0  0.14790406028E+03 -0.24911700621E+02  0.30123889508E+03  0.33651311384E+03  0.00000000000E+00 0. -1.
        -13    1    3    3    0    0  0.28602084360E+03 -0.29078745316E+02  0.91710838760E+03  0.96111460867E+03  0.00000000000E+00 0.  1.
         22    1    1    2    0    0 -0.43392490388E+03  0.53990445936E+02  0.24030043636E+02  0.43793062631E+03  0.00000000000E+00 0.  1.
<mgrwt>
<rscale>  0 0.12118834E+04</rscale>
<asrwt>0</asrwt>
<pdfrwt beam="1">  1        1 0.37937003E-01 0.12118834E+04</pdfrwt>
<pdfrwt beam="2">  1       -1 0.22907197E+00 0.12118834E+04</pdfrwt>
<totfact> 0.10732343E+01</totfact>
</mgrwt>
</event>
<event>
 6    1  0.1878398E-004  0.3464514E+04  0.7818608E-02  0.8122251E-01
          2   -1    0    0  501    0  0.00000000000E+00  0.00000000000E+00  0.24983892808E+04  0.24983892808E+04  0.00000000000E+00 0.  1.
         -2   -1    0    0    0  501 -0.00000000000E+00 -0.00000000000E+00 -0.12010598193E+04  0.12010598193E+04  0.00000000000E+00 0. -1.
         23    2    1    2    0    0  0.80054409319E+03  0.14026593163E+04  0.13144143338E+04  0.20843280843E+04  0.91730689722E+02 0.  0.
         13    1    3    3    0    0  0.59172080635E+03  0.10419925087E+04  0.92257827156E+03  0.15122938101E+04  0.00000000000E+00 0.  1.
        -13    1    3    3    0    0  0.20882328684E+03  0.36066680761E+03  0.39183606225E+03  0.57203427425E+03  0.00000000000E+00 0. -1.
         22    1    1    2    0    0 -0.80054409319E+03 -0.14026593163E+04 -0.17084872366E+02  0.16151210158E+04  0.00000000000E+00 0. -1.
<mgrwt>
<rscale>  0 0.34645144E+04</rscale>
<asrwt>0</asrwt>
<pdfrwt beam="1">  1        2 0.38436758E+00 0.34645144E+04</pdfrwt>
<pdfrwt beam="2">  1       -2 0.18477843E+00 0.34645144E+04</pdfrwt>
<totfact> 0.48331983E-01</totfact>
</mgrwt>
</event>
<event>
 6    1  0.1878398E-004  0.6680982E+04  0.7818608E-02  0.7611261E-01
          2   -1    0    0  501    0  0.00000000000E+00  0.00000000000E+00  0.33952226672E+04  0.33952226672E+04  0.00000000000E+00 0.  1.
         -2   -1    0    0    0  501 -0.00000000000E+00 -0.00000000000E+00 -0.32866413961E+04  0.32866413961E+04  0.00000000000E+00 0. -1.
         23    2    1    2    0    0 -0.26245901426E+03  0.30480920164E+04 -0.12856579990E+04  0.33197735206E+04  0.90719694059E+02 0.  0.
         11    1    3    3    0    0 -0.20747637888E+03  0.20754665560E+04 -0.90993170295E+03  0.22756501438E+04  0.00000000000E+00 0. -1.
        -11    1    3    3    0    0 -0.54982635381E+02  0.97262546039E+03 -0.37572629601E+03  0.10441233768E+04  0.00000000000E+00 0.  1.
         22    1    1    2    0    0  0.26245901426E+03 -0.30480920164E+04  0.13942392701E+04  0.33620905427E+04  0.00000000000E+00 0.  1.
<mgrwt>
<rscale>  0 0.66809818E+04</rscale>
<asrwt>0</asrwt>
<pdfrwt beam="1">  1        2 0.52234195E+00 0.66809818E+04</pdfrwt>
<pdfrwt beam="2">  1       -2 0.50563714E+00 0.66809818E+04</pdfrwt>
<totfact> 0.94702713E-04</totfact>
</mgrwt>
</event>
<event>
 6    1  0.1878398E-004  0.3602447E+04  0.7818608E-02  0.8089931E-01
         -2   -1    0    0    0  501 -0.00000000000E+00  0.00000000000E+00  0.90338743965E+03  0.90338743965E+03  0.00000000000E+00 0. -1.
          2   -1    0    0  501    0  0.00000000000E+00 -0.00000000000E+00 -0.35913778287E+04  0.35913778287E+04  0.00000000000E+00 0.  1.
         23    2    1    2    0    0  0.26288168685E+03  0.79858048776E+03 -0.33308175032E+04  0.34364343770E+04  0.88873003992E+02 0.  0.
         13    1    3    3    0    0  0.15686677188E+03  0.47399977361E+03 -0.21520122237E+04  0.22091716955E+04  0.00000000000E+00 0.  1.
        -13    1    3    3    0    0  0.10601491497E+03  0.32458071415E+03 -0.11788052796E+04  0.12272626815E+04  0.00000000000E+00 0. -1.
         22    1    1    2    0    0 -0.26288168685E+03 -0.79858048776E+03  0.64282711423E+03  0.10583308913E+04  0.00000000000E+00 0. -1.
<mgrwt>
<rscale>  0 0.36024467E+04</rscale>
<asrwt>0</asrwt>
<pdfrwt beam="1">  1        2 0.55251966E+00 0.36024467E+04</pdfrwt>
<pdfrwt beam="2">  1       -2 0.13898268E+00 0.36024467E+04</pdfrwt>
<totfact> 0.20848798E-01</totfact>
</mgrwt>
</event>
<event>
 6    1  0.1878398E-004  0.2127590E+04  0.7818608E-02  0.8549186E-01
          1   -1    0    0  501    0  0.00000000000E+00  0.00000000000E+00  0.18729312907E+04  0.18729312907E+04  0.00000000000E+00 0.  1.
         -1   -1    0    0    0  501 -0.00000000000E+00 -0.00000000000E+00 -0.60421825364E+03  0.60421825364E+03  0.00000000000E+00 0. -1.
         23    2    1    2    0    0  0.23472596602E+03  0.59653293763E+03  0.16210873731E+04  0.17456336542E+04  0.91459054619E+02 0.  0.
         11    1    3    3    0    0  0.14009344833E+03  0.35922044838E+03  0.85102233962E+03  0.93429359804E+03  0.00000000000E+00 0.  1.
        -11    1    3    3    0    0  0.94632517695E+02  0.23731248925E+03  0.77006503347E+03  0.81134005617E+03  0.00000000000E+00 0. -1.
         22    1    1    2    0    0 -0.23472596602E+03 -0.59653293763E+03 -0.35237433605E+03  0.73151589012E+03  0.00000000000E+00 0. -1.
<mgrwt>
<rscale>  0 0.21275895E+04</rscale>
<asrwt>0</asrwt>
<pdfrwt beam="1">  1        1 0.28814327E+00 0.21275895E+04</pdfrwt>
<pdfrwt beam="2">  1       -1 0.92956655E-01 0.21275895E+04</pdfrwt>
<totfact> 0.37485322E+00</totfact>
</mgrwt>
</event>
<event>
 6    1  0.1878398E-004  0.3574997E+04  0.7818608E-02  0.8096243E-01
          2   -1    0    0  501    0  0.00000000000E+00  0.00000000000E+00  0.16565840830E+04  0.16565840830E+04  0.00000000000E+00 0.  1.
         -2   -1    0    0    0  501 -0.00000000000E+00 -0.00000000000E+00 -0.19287588119E+04  0.19287588119E+04  0.00000000000E+00 0. -1.
         23    2    1    2    0    0 -0.44220306148E+03 -0.81931623229E+03  0.13925487928E+04  0.16779554042E+04  0.97568244131E+02 0.  0.
         13    1    3    3    0    0 -0.98759913339E+02 -0.27733507000E+03  0.42660092527E+03  0.51832095363E+03  0.00000000000E+00 0.  1.
        -13    1    3    3    0    0 -0.34344314814E+03 -0.54198116229E+03  0.96594786748E+03  0.11596344506E+04  0.00000000000E+00 0. -1.
         22    1    1    2    0    0  0.44220306148E+03  0.81931623229E+03 -0.16647235216E+04  0.19073874907E+04  0.00000000000E+00 0. -1.
<mgrwt>
<rscale>  0 0.35749971E+04</rscale>
<asrwt>0</asrwt>
<pdfrwt beam="1">  1        2 0.25485909E+00 0.35749971E+04</pdfrwt>
<pdfrwt beam="2">  1       -2 0.29673212E+00 0.35749971E+04</pdfrwt>
<totfact> 0.28181429E-01</totfact>
</mgrwt>
</event>
<event>
 6    1  0.1878398E-004  0.2871198E+04  0.7818608E-02  0.8281499E-01
         -2   -1    0    0    0  501 -0.00000000000E+00  0.00000000000E+00  0.16311525622E+04  0.16311525622E+04  0.00000000000E+00 0. -1.
          2   -1    0    0  501    0  0.00000000000E+00 -0.00000000000E+00 -0.12634897947E+04  0.12634897947E+04  0.00000000000E+00 0.  1.
         23    2    1    2    0    0 -0.74882595728E+03  0.79697856428E+03 -0.75183554341E+03  0.13296530234E+04  0.82494436037E+02 0.  0.
         11    1    3    3    0    0 -0.52109251095E+03  0.53714941433E+03 -0.55785569689E+03  0.93341838253E+03  0.00000000000E+00 0.  1.
        -11    1    3    3    0    0 -0.22773344633E+03  0.25982914995E+03 -0.19397984652E+03  0.39623464083E+03  0.00000000000E+00 0. -1.
         22    1    1    2    0    0  0.74882595728E+03 -0.79697856428E+03  0.11194983109E+04  0.15649893336E+04  0.00000000000E+00 0. -1.
<mgrwt>
<rscale>  0 0.28711981E+04</rscale>
<asrwt>0</asrwt>
<pdfrwt beam="1">  1        2 0.19438305E+00 0.28711981E+04</pdfrwt>
<pdfrwt beam="2">  1       -2 0.25094655E+00 0.28711981E+04</pdfrwt>
<totfact> 0.95259535E-01</totfact>
</mgrwt>
</event>
<event>
 6    1  0.1878398E-004  0.2009611E+04  0.7818608E-02  0.8602140E-01
          1   -1    0    0  501    0  0.00000000000E+00  0.00000000000E+00  0.24907538479E+04  0.24907538479E+04  0.00000000000E+00 0.  1.
         -1   -1    0    0    0  501 -0.00000000000E+00 -0.00000000000E+00 -0.40535281408E+03  0.40535281408E+03  0.00000000000E+00 0. -1.
         23    2    1    2    0    0 -0.45348568801E+03  0.44306424098E+03 -0.74896559598E+02  0.64469801781E+03  0.89837902181E+02 0.  0.
         11    1    3    3    0    0 -0.26014262999E+03  0.31449493426E+03 -0.47407648373E+02  0.41088774226E+03  0.00000000000E+00 0. -1.
        -11    1    3    3    0    0 -0.19334305802E+03  0.12856930672E+03 -0.27488911225E+02  0.23381027556E+03  0.00000000000E+00 0.  1.
         22    1    1    2    0    0  0.45348568801E+03 -0.44306424098E+03  0.21602975934E+04  0.22514086442E+04  0.00000000000E+00 0.  1.
<mgrwt>
<rscale>  0 0.20096110E+04</rscale>
<asrwt>0</asrwt>
<pdfrwt beam="1">  1        1 0.38319289E+00 0.20096110E+04</pdfrwt>
<pdfrwt beam="2">  1       -1 0.62361973E-01 0.20096110E+04</pdfrwt>
<totfact> 0.33251572E+00</totfact>
</mgrwt>
</event>
<event>
 6    1  0.1878398E-004  0.1963434E+04  0.7818608E-02  0.8623910E-01
          2   -1    0    0  501    0  0.00000000000E+00  0.00000000000E+00  0.15775449242E+04  0.15775449242E+04  0.00000000000E+00 0.  1.
         -2   -1    0    0    0  501 -0.00000000000E+00 -0.00000000000E+00 -0.61092906826E+03  0.61092906826E+03  0.00000000000E+00 0. -1.
         23    2    1    2    0    0 -0.48961084466E+03  0.28990509915E+03 -0.40450946021E+03  0.70397125474E+03  0.90464790841E+02 0.  0.
         11    1    3    3    0    0 -0.21662283076E+03  0.90437406441E+02 -0.20323668770E+03  0.31049883497E+03  0.00000000000E+00 0.  1.
        -11    1    3    3    0    0 -0.27298801390E+03  0.19946769271E+03 -0.20127277251E+03  0.39347241977E+03  0.00000000000E+00 0. -1.
         22    1    1    2    0    0  0.48961084466E+03 -0.28990509915E+03  0.13711253162E+04  0.14845027378E+04  0.00000000000E+00 0.  1.
<mgrwt>
<rscale>  0 0.19634338E+04</rscale>
<asrwt>0</asrwt>
<pdfrwt beam="1">  1        2 0.24269922E+00 0.19634338E+04</pdfrwt>
<pdfrwt beam="2">  1       -2 0.93989088E-01 0.19634338E+04</pdfrwt>
<totfact> 0.10222490E+01</totfact>
</mgrwt>
</event>
<event>
 6    1  0.1878398E-004  0.3647034E+04  0.7818608E-02  0.8079802E-01
          1   -1    0    0  501    0  0.00000000000E+00  0.00000000000E+00  0.17695912502E+04  0.17695912502E+04  0.00000000000E+00 0.  1.
         -1   -1    0    0    0  501 -0.00000000000E+00 -0.00000000000E+00 -0.18790858365E+04  0.18790858365E+04  0.00000000000E+00 0. -1.
         23    2    1    2    0    0  0.11457057478E+04  0.13375847631E+04 -0.52501556689E+03  0.18391378237E+04  0.70794984894E+02 0.  0.
         13    1    3    3    0    0  0.82299889740E+03  0.91302854275E+03 -0.37606139869E+03  0.12854456350E+04  0.00000000000E+00 0.  1.
        -13    1    3    3    0    0  0.32270685043E+03  0.42455622032E+03 -0.14895416820E+03  0.55369218863E+03  0.00000000000E+00 0. -1.
         22    1    1    2    0    0 -0.11457057478E+04 -0.13375847631E+04  0.41552098058E+03  0.18095392630E+04  0.00000000000E+00 0. -1.
<mgrwt>
<rscale>  0 0.36470338E+04</rscale>
<asrwt>0</asrwt>
<pdfrwt beam="1">  1        1 0.27224481E+00 0.36470338E+04</pdfrwt>
<pdfrwt beam="2">  1       -1 0.28909013E+00 0.36470338E+04</pdfrwt>
<totfact> 0.13381889E-01</totfact>
</mgrwt>
</event>
<event>
 6    1  0.1878398E-004  0.3051158E+04  0.7818608E-02  0.8229271E-01
          1   -1    0    0  501    0  0.00000000000E+00  0.00000000000E+00  0.21674975255E+04  0.21674975255E+04  0.00000000000E+00 0.  1.
         -1   -1    0    0    0  501 -0.00000000000E+00 -0.00000000000E+00 -0.10737691002E+04  0.10737691002E+04  0.00000000000E+00 0. -1.
         23    2    1    2    0    0 -0.10082656291E+04  0.51659624084E+02 -0.66524697561E+03  0.12131485925E+04  0.99537296264E+02 0.  0.
         13    1    3    3    0    0 -0.30444637459E+03 -0.66125012463E+01 -0.24916592801E+03  0.39346534772E+03  0.00000000000E+00 0.  1.
        -13    1    3    3    0    0 -0.70381925451E+03  0.58272125331E+02 -0.41608104760E+03  0.81968324478E+03  0.00000000000E+00 0. -1.
         22    1    1    2    0    0  0.10082656291E+04 -0.51659624084E+02  0.17589754009E+04  0.20281180332E+04  0.00000000000E+00 0.  1.
<mgrwt>
<rscale>  0 0.30511584E+04</rscale>
<asrwt>0</asrwt>
<pdfrwt beam="1">  1        1 0.33346116E+00 0.30511584E+04</pdfrwt>
<pdfrwt beam="2">  1       -1 0.16519525E+00 0.30511584E+04</pdfrwt>
<totfact> 0.51879867E-01</totfact>
</mgrwt>
</event>
<event>
 6    1  0.1878398E-004  0.2495170E+04  0.7818608E-02  0.8404708E-01
         -2   -1    0    0    0  501 -0.00000000000E+00  0.00000000000E+00  0.14643944763E+04  0.14643944763E+04  0.00000000000E+00 0. -1.
          2   -1    0    0  501    0  0.00000000000E+00 -0.00000000000E+00 -0.10628749054E+04  0.10628749054E+04  0.00000000000E+00 0.  1.
         23    2    1    2    0    0  0.97553966582E+03  0.14564596333E+02  0.98584708389E+03  0.13900234058E+04  0.91546867039E+02 0.  0.
         11    1    3    3    0    0  0.69150032440E+03 -0.31260885643E+02  0.69991147773E+03  0.98439119169E+03  0.00000000000E+00 0.  1.
        -11    1    3    3    0    0  0.28403934142E+03  0.45825481976E+02  0.28593560616E+03  0.40563221414E+03  0.00000000000E+00 0. -1.
         22    1    1    2    0    0 -0.97553966582E+03 -0.14564596333E+02 -0.58432751303E+03  0.11372459758E+04  0.00000000000E+00 0.  1.
<mgrwt>
<rscale>  0 0.24951698E+04</rscale>
<asrwt>0</asrwt>
<pdfrwt beam="1">  1        2 0.16351921E+00 0.24951698E+04</pdfrwt>
<pdfrwt beam="2">  1       -2 0.22529146E+00 0.24951698E+04</pdfrwt>
<totfact> 0.18758735E+00</totfact>
</mgrwt>
</event>
<event>
 6    1  0.1878398E-004  0.4034643E+04  0.7818608E-02  0.7997594E-01
          4   -1    0    0  501    0  0.00000000000E+00  0.00000000000E+00  0.28202174608E+04  0.28202174608E+04  0.00000000000E+00 0.  1.
         -4   -1    0    0    0  501 -0.00000000000E+00 -0.00000000000E+00 -0.14430045766E+04  0.14430045766E+04  0.00000000000E+00 0. -1.
         23    2    1    2    0    0  0.72383237363E+03 -0.18363972212E+04  0.25464176319E+03  0.19924393571E+04  0.93188545802E+02 0.  0.
         13    1    3    3    0    0  0.60931831058E+03 -0.14541942302E+04  0.21970249717E+03  0.15919230038E+04  0.00000000000E+00 0. -1.
        -13    1    3    3    0    0  0.11451406306E+03 -0.38220299097E+03  0.34939266021E+02  0.40051635329E+03  0.00000000000E+00 0.  1.
         22    1    1    2    0    0 -0.72383237363E+03  0.18363972212E+04  0.11225711210E+04  0.22707826803E+04  0.00000000000E+00 0.  1.
<mgrwt>
<rscale>  0 0.40346433E+04</rscale>
<asrwt>0</asrwt>
<pdfrwt beam="1">  1        4 0.43387961E+00 0.40346433E+04</pdfrwt>
<pdfrwt beam="2">  1       -4 0.22200070E+00 0.40346433E+04</pdfrwt>
<totfact> 0.56786432E-04</totfact>
</mgrwt>
</event>
<event>
 6    1  0.1878398E-004  0.1226291E+04  0.7818608E-02  0.9090151E-01
          2   -1    0    0  501    0  0.00000000000E+00  0.00000000000E+00  0.15114789850E+04  0.15114789850E+04  0.00000000000E+00 0.  1.
         -2   -1    0    0    0  501 -0.00000000000E+00 -0.00000000000E+00 -0.24872800025E+03  0.24872800025E+03  0.00000000000E+00 0. -1.
         23    2    1    2    0    0  0.17751503012E+03  0.48997069911E+03  0.17986384338E+03  0.55844684577E+03  0.89044963301E+02 0.  0.
         11    1    3    3    0    0  0.48276256051E+02  0.15677678727E+03  0.10043721400E+03  0.19234654112E+03  0.00000000000E+00 0.  1.
        -11    1    3    3    0    0  0.12923877407E+03  0.33319391184E+03  0.79426629386E+02  0.36610030465E+03  0.00000000000E+00 0. -1.
         22    1    1    2    0    0 -0.17751503012E+03 -0.48997069911E+03  0.10828871413E+04  0.12017601394E+04  0.00000000000E+00 0.  1.
<mgrwt>
<rscale>  0 0.12262906E+04</rscale>
<asrwt>0</asrwt>
<pdfrwt beam="1">  1        2 0.23253522E+00 0.12262906E+04</pdfrwt>
<pdfrwt beam="2">  1       -2 0.38265847E-01 0.12262906E+04</pdfrwt>
<totfact> 0.79402735E+01</totfact>
</mgrwt>
</event>
<event>
 6    1  0.1878398E-004  0.2200625E+04  0.7818608E-02  0.8518168E-01
          2   -1    0    0  501    0  0.00000000000E+00  0.00000000000E+00  0.14807664443E+04  0.14807664443E+04  0.00000000000E+00 0.  1.
         -2   -1    0    0    0  501 -0.00000000000E+00 -0.00000000000E+00 -0.81760871474E+03  0.81760871474E+03  0.00000000000E+00 0. -1.
         23    2    1    2    0    0 -0.34450228568E+03 -0.56888856651E+03  0.12452181888E+04  0.14145706535E+04  0.90143054219E+02 0.  0.
         13    1    3    3    0    0 -0.16647370669E+03 -0.20905441758E+03  0.55762846547E+03  0.61835810825E+03  0.00000000000E+00 0.  1.
        -13    1    3    3    0    0 -0.17802857899E+03 -0.35983414893E+03  0.68758972329E+03  0.79621254527E+03  0.00000000000E+00 0. -1.
         22    1    1    2    0    0  0.34450228568E+03  0.56888856651E+03 -0.58206045916E+03  0.88380450557E+03  0.00000000000E+00 0. -1.
<mgrwt>
<rscale>  0 0.22006250E+04</rscale>
<asrwt>0</asrwt>
<pdfrwt beam="1">  1        2 0.22781022E+00 0.22006250E+04</pdfrwt>
<pdfrwt beam="2">  1       -2 0.12578596E+00 0.22006250E+04</pdfrwt>
<totfact> 0.56159747E+00</totfact>
</mgrwt>
</event>
<event>
 6    1  0.1878398E-004  0.2394377E+04  0.7818608E-02  0.8441612E-01
         -2   -1    0    0    0  501 -0.00000000000E+00  0.00000000000E+00  0.10893894929E+04  0.10893894929E+04  0.00000000000E+00 0. -1.
          2   -1    0    0  501    0  0.00000000000E+00 -0.00000000000E+00 -0.13156549297E+04  0.13156549297E+04  0.00000000000E+00 0.  1.
         23    2    1    2    0    0 -0.65285271931E+03 -0.98575070792E+03  0.61730124465E+02  0.11881374521E+04  0.99693859557E+02 0.  0.
         13    1    3    3    0    0 -0.13102360341E+03 -0.21678117116E+03 -0.26317748765E+02  0.25466425883E+03  0.00000000000E+00 0.  1.
        -13    1    3    3    0    0 -0.52182911590E+03 -0.76896953675E+03  0.88047873229E+02  0.93347319331E+03  0.00000000000E+00 0. -1.
         22    1    1    2    0    0  0.65285271931E+03  0.98575070792E+03 -0.28799556129E+03  0.12169069704E+04  0.00000000000E+00 0.  1.
<mgrwt>
<rscale>  0 0.23943773E+04</rscale>
<asrwt>0</asrwt>
<pdfrwt beam="1">  1        2 0.20240845E+00 0.23943773E+04</pdfrwt>
<pdfrwt beam="2">  1       -2 0.16759838E+00 0.23943773E+04</pdfrwt>
<totfact> 0.32294281E+00</totfact>
</mgrwt>
</event>
<event>
 6    1  0.1878398E-004  0.3516721E+04  0.7818608E-02  0.8109839E-01
         -4   -1    0    0    0  501 -0.00000000000E+00  0.00000000000E+00  0.20238938830E+04  0.20238938830E+04  0.00000000000E+00 0. -1.
          4   -1    0    0  501    0  0.00000000000E+00 -0.00000000000E+00 -0.15276652181E+04  0.15276652181E+04  0.00000000000E+00 0.  1.
         23    2    1    2    0    0 -0.18196835923E+03  0.15600584937E+04  0.10440926156E+04  0.18881139123E+04  0.89161473406E+02 0.  0.
         11    1    3    3    0    0 -0.11169077428E+03  0.59015283741E+03  0.40828676647E+03  0.72625979115E+03  0.00000000000E+00 0. -1.
        -11    1    3    3    0    0 -0.70277584952E+02  0.96990565632E+03  0.63580584913E+03  0.11618541212E+04  0.00000000000E+00 0.  1.
         22    1    1    2    0    0  0.18196835923E+03 -0.15600584937E+04 -0.54786395064E+03  0.16634451888E+04  0.00000000000E+00 0. -1.
<mgrwt>
<rscale>  0 0.35167214E+04</rscale>
<asrwt>0</asrwt>
<pdfrwt beam="1">  1        4 0.23502542E+00 0.35167214E+04</pdfrwt>
<pdfrwt beam="2">  1       -4 0.31136829E+00 0.35167214E+04</pdfrwt>
<totfact> 0.33214703E-03</totfact>
</mgrwt>
</event>
<event>
 6    1  0.1878398E-004  0.1234084E+04  0.7818608E-02  0.9083535E-01
         -1   -1    0    0    0  501 -0.00000000000E+00  0.00000000000E+00  0.29275493716E+03  0.29275493716E+03  0.00000000000E+00 0. -1.
          1   -1    0    0  501    0  0.00000000000E+00 -0.00000000000E+00 -0.13005452158E+04  0.13005452158E+04  0.00000000000E+00 0.  1.
         23    2    1    2    0    0 -0.26435835546E+03 -0.53691041242E+03 -0.68151774720E+03  0.91167569931E+03  0.92347224638E+02 0.  0.
         13    1    3    3    0    0 -0.24065831594E+03 -0.40241131041E+03 -0.53437098730E+03  0.71091746346E+03  0.00000000000E+00 0.  1.
        -13    1    3    3    0    0 -0.23700039519E+02 -0.13449910201E+03 -0.14714675990E+03  0.20075823585E+03  0.00000000000E+00 0. -1.
         22    1    1    2    0    0  0.26435835546E+03  0.53691041242E+03 -0.32627253148E+03  0.68162445368E+03  0.00000000000E+00 0.  1.
<mgrwt>
<rscale>  0 0.12340843E+04</rscale>
<asrwt>0</asrwt>
<pdfrwt beam="1">  1        1 0.20008388E+00 0.12340843E+04</pdfrwt>
<pdfrwt beam="2">  1       -1 0.45039221E-01 0.12340843E+04</pdfrwt>
<totfact> 0.43612655E+01</totfact>
</mgrwt>
</event>
<event>
 6    1  0.1878398E-004  0.2535251E+04  0.7818608E-02  0.8390534E-01
         -2   -1    0    0    0  501 -0.00000000000E+00  0.00000000000E+00  0.80585634835E+03  0.80585634835E+03  0.00000000000E+00 0. -1.
          2   -1    0    0  501    0  0.00000000000E+00 -0.00000000000E+00 -0.19939957286E+04  0.19939957286E+04  0.00000000000E+00 0.  1.
         23    2    1    2    0    0 -0.12003549479E+04 -0.32593665938E+03 -0.33495757056E+03  0.12915398058E+04  0.93764540437E+02 0.  0.
         13    1    3    3    0    0 -0.17698311538E+03 -0.80331644428E+02 -0.66314685392E+02  0.20536268825E+03  0.00000000000E+00 0.  1.
        -13    1    3    3    0    0 -0.10233718325E+04 -0.24560501495E+03 -0.26864288517E+03  0.10861771176E+04  0.00000000000E+00 0. -1.
         22    1    1    2    0    0  0.12003549479E+04  0.32593665938E+03 -0.85318180970E+03  0.15083122712E+04  0.00000000000E+00 0.  1.
<mgrwt>
<rscale>  0 0.25352508E+04</rscale>
<asrwt>0</asrwt>
<pdfrwt beam="1">  1        2 0.30676857E+00 0.25352508E+04</pdfrwt>
<pdfrwt beam="2">  1       -2 0.12397790E+00 0.25352508E+04</pdfrwt>
<totfact> 0.29306971E+00</totfact>
</mgrwt>
</event>
<event>
 6    1  0.1878398E-004  0.1078401E+04  0.7818608E-02  0.9226503E-01
         -1   -1    0    0    0  501 -0.00000000000E+00  0.00000000000E+00  0.44199061032E+03  0.44199061032E+03  0.00000000000E+00 0. -1.
          1   -1    0    0  501    0  0.00000000000E+00 -0.00000000000E+00 -0.65779010356E+03  0.65779010356E+03  0.00000000000E+00 0.  1.
         23    2    1    2    0    0 -0.35856132855E+02 -0.51479860443E+03  0.36906433558E+02  0.52518211414E+03  0.90282350349E+02 0.  0.
         11    1    3    3    0    0 -0.16293952104E+02 -0.39913097078E+03  0.64585224970E+02  0.40465080749E+03  0.00000000000E+00 0.  1.
        -11    1    3    3    0    0 -0.19562180751E+02 -0.11566763365E+03 -0.27678791412E+02  0.12053130665E+03  0.00000000000E+00 0. -1.
         22    1    1    2    0    0  0.35856132855E+02  0.51479860443E+03 -0.25270592680E+03  0.57459859975E+03  0.00000000000E+00 0.  1.
<mgrwt>
<rscale>  0 0.10784008E+04</rscale>
<asrwt>0</asrwt>
<pdfrwt beam="1">  1        1 0.10119848E+00 0.10784008E+04</pdfrwt>
<pdfrwt beam="2">  1       -1 0.67998556E-01 0.10784008E+04</pdfrwt>
<totfact> 0.65400501E+01</totfact>
</mgrwt>
</event>
<event>
 6    1  0.1878398E-004  0.2252043E+04  0.7818608E-02  0.8497073E-01
          2   -1    0    0  501    0  0.00000000000E+00  0.00000000000E+00  0.16958190002E+04  0.16958190002E+04  0.00000000000E+00 0.  1.
         -2   -1    0    0    0  501 -0.00000000000E+00 -0.00000000000E+00 -0.74767693006E+03  0.74767693006E+03  0.00000000000E+00 0. -1.
         23    2    1    2    0    0 -0.79402807388E+03 -0.45012167919E+03  0.11876170061E+04  0.14998655190E+04  0.77925051713E+02 0.  0.
         13    1    3    3    0    0 -0.24578484597E+03 -0.10981786407E+03  0.31027895508E+03  0.41078362156E+03  0.00000000000E+00 0.  1.
        -13    1    3    3    0    0 -0.54824322791E+03 -0.34030381512E+03  0.87733805105E+03  0.10890818974E+04  0.00000000000E+00 0. -1.
         22    1    1    2    0    0  0.79402807388E+03  0.45012167919E+03 -0.23947493595E+03  0.94363041130E+03  0.00000000000E+00 0. -1.
<mgrwt>
<rscale>  0 0.22520433E+04</rscale>
<asrwt>0</asrwt>
<pdfrwt beam="1">  1        2 0.26089523E+00 0.22520433E+04</pdfrwt>
<pdfrwt beam="2">  1       -2 0.11502722E+00 0.22520433E+04</pdfrwt>
<totfact> 0.52888939E+00</totfact>
</mgrwt>
</event>
<event>
 6    1  0.1878398E-004  0.1060974E+04  0.7818608E-02  0.9244087E-01
         -1   -1    0    0    0  501 -0.00000000000E+00  0.00000000000E+00  0.32821357052E+03  0.32821357052E+03  0.00000000000E+00 0. -1.
          1   -1    0    0  501    0  0.00000000000E+00 -0.00000000000E+00 -0.85741805001E+03  0.85741805001E+03  0.00000000000E+00 0.  1.
         23    2    1    2    0    0 -0.67839335966E+02 -0.49758341369E+03 -0.44734930400E+03  0.67681760851E+03  0.75955554875E+02 0.  0.
         11    1    3    3    0    0 -0.73954304755E+02 -0.42610525844E+03 -0.41002714936E+03  0.59595066379E+03  0.00000000000E+00 0.  1.
        -11    1    3    3    0    0  0.61149687893E+01 -0.71478155242E+02 -0.37322154639E+02  0.80866944711E+02  0.00000000000E+00 0. -1.
         22    1    1    2    0    0  0.67839335966E+02  0.49758341369E+03 -0.81855175496E+02  0.50881401203E+03  0.00000000000E+00 0. -1.
<mgrwt>
<rscale>  0 0.10609736E+04</rscale>
<asrwt>0</asrwt>
<pdfrwt beam="1">  1        1 0.13191047E+00 0.10609736E+04</pdfrwt>
<pdfrwt beam="2">  1       -1 0.50494396E-01 0.10609736E+04</pdfrwt>
<totfact> 0.77659083E+01</totfact>
</mgrwt>
</event>
<event>
 6    1  0.1878398E-004  0.2465690E+04  0.7818608E-02  0.8415312E-01
          2   -1    0    0  501    0  0.00000000000E+00  0.00000000000E+00  0.86993999767E+03  0.86993999767E+03  0.00000000000E+00 0.  1.
         -2   -1    0    0    0  501 -0.00000000000E+00 -0.00000000000E+00 -0.17471395099E+04  0.17471395099E+04  0.00000000000E+00 0. -1.
         23    2    1    2    0    0  0.46722635467E+03  0.89375191903E+01  0.77076393044E+03  0.90413938774E+03  0.70785946712E+02 0.  0.
         13    1    3    3    0    0  0.21060801351E+03 -0.18472836329E+02  0.29575505881E+03  0.36354922067E+03  0.00000000000E+00 0.  1.
        -13    1    3    3    0    0  0.25661834116E+03  0.27410355519E+02  0.47500887163E+03  0.54059016707E+03  0.00000000000E+00 0. -1.
         22    1    1    2    0    0 -0.46722635467E+03 -0.89375191903E+01 -0.16479634427E+04  0.17129401198E+04  0.00000000000E+00 0. -1.
<mgrwt>
<rscale>  0 0.24656898E+04</rscale>
<asrwt>0</asrwt>
<pdfrwt beam="1">  1        2 0.13383692E+00 0.24656898E+04</pdfrwt>
<pdfrwt beam="2">  1       -2 0.26879069E+00 0.24656898E+04</pdfrwt>
<totfact> 0.13554668E+00</totfact>
</mgrwt>
</event>
<event>
 6    1  0.1878398E-004  0.9128173E+03  0.7818608E-02  0.9409699E-01
          2   -1    0    0  501    0  0.00000000000E+00  0.00000000000E+00  0.18543165452E+04  0.18543165452E+04  0.00000000000E+00 0.  1.
         -2   -1    0    0    0  501 -0.00000000000E+00 -0.00000000000E+00 -0.11233727957E+03  0.11233727957E+03  0.00000000000E+00 0. -1.
         23    2    1    2    0    0  0.13264509119E+03 -0.26210484937E+03  0.13818898103E+03  0.33618243610E+03  0.87342793537E+02 0.  0.
         13    1    3    3    0    0  0.50504249868E+02 -0.26677688282E+02  0.24996332672E+02  0.62347373272E+02  0.00000000000E+00 0. -1.
        -13    1    3    3    0    0  0.82140841322E+02 -0.23542716109E+03  0.11319264836E+03  0.27383506283E+03  0.00000000000E+00 0.  1.
         22    1    1    2    0    0 -0.13264509119E+03  0.26210484937E+03  0.16037902846E+04  0.16304713887E+04  0.00000000000E+00 0.  1.
<mgrwt>
<rscale>  0 0.91281734E+03</rscale>
<asrwt>0</asrwt>
<pdfrwt beam="1">  1        2 0.28527945E+00 0.91281734E+03</pdfrwt>
<pdfrwt beam="2">  1       -2 0.17282660E-01 0.91281734E+03</pdfrwt>
<totfact> 0.22325066E+02</totfact>
</mgrwt>
</event>
<event>
 6    1  0.1878398E-004  0.3343245E+04  0.7818608E-02  0.8151978E-01
         -2   -1    0    0    0  501 -0.00000000000E+00  0.00000000000E+00  0.14937172480E+04  0.14937172480E+04  0.00000000000E+00 0. -1.
          2   -1    0    0  501    0  0.00000000000E+00 -0.00000000000E+00 -0.18707163186E+04  0.18707163186E+04  0.00000000000E+00 0.  1.
         23    2    1    2    0    0  0.10396086011E+04  0.31595543252E+03  0.10880895356E+04  0.15403999861E+04  0.90991212660E+02 0.  0.
         11    1    3    3    0    0  0.28756783149E+02  0.17256315702E+02  0.16830721500E+02  0.37523408625E+02  0.00000000000E+00 0.  1.
        -11    1    3    3    0    0  0.10108518180E+04  0.29869911682E+03  0.10712588141E+04  0.15028765775E+04  0.00000000000E+00 0. -1.
         22    1    1    2    0    0 -0.10396086011E+04 -0.31595543252E+03 -0.14650886061E+04  0.18240335805E+04  0.00000000000E+00 0.  1.
<mgrwt>
<rscale>  0 0.33432447E+04</rscale>
<asrwt>0</asrwt>
<pdfrwt beam="1">  1        2 0.28780251E+00 0.33432447E+04</pdfrwt>
<pdfrwt beam="2">  1       -2 0.22980265E+00 0.33432447E+04</pdfrwt>
<totfact> 0.56258818E-01</totfact>
</mgrwt>
</event>
<event>
 6    1  0.1878398E-004  0.1682432E+04  0.7818608E-02  0.8771448E-01
         -2   -1    0    0    0  501 -0.00000000000E+00  0.00000000000E+00  0.96883154307E+03  0.96883154307E+03  0.00000000000E+00 0. -1.
          2   -1    0    0  501    0  0.00000000000E+00 -0.00000000000E+00 -0.73041032136E+03  0.73041032136E+03  0.00000000000E+00 0.  1.
         23    2    1    2    0    0 -0.66765185321E+03 -0.14764993044E+02  0.63245386690E+03  0.92384601224E+03  0.86698087968E+02 0.  0.
         13    1    3    3    0    0 -0.33264717457E+03  0.41852484236E+01  0.25756786594E+03  0.42072896813E+03  0.00000000000E+00 0.  1.
        -13    1    3    3    0    0 -0.33500467864E+03 -0.18950241468E+02  0.37488600096E+03  0.50311704411E+03  0.00000000000E+00 0. -1.
         22    1    1    2    0    0  0.66765185321E+03  0.14764993044E+02 -0.39403264519E+03  0.77539585219E+03  0.00000000000E+00 0.  1.
<mgrwt>
<rscale>  0 0.16824322E+04</rscale>
<asrwt>0</asrwt>
<pdfrwt beam="1">  1        2 0.11237082E+00 0.16824322E+04</pdfrwt>
<pdfrwt beam="2">  1       -2 0.14905101E+00 0.16824322E+04</pdfrwt>
<totfact> 0.11261199E+01</totfact>
</mgrwt>
</event>
<event>
 6    1  0.1878398E-004  0.1382531E+04  0.7818608E-02  0.8966561E-01
          2   -1    0    0  501    0  0.00000000000E+00  0.00000000000E+00  0.16217343504E+04  0.16217343504E+04  0.00000000000E+00 0.  1.
         -2   -1    0    0    0  501 -0.00000000000E+00 -0.00000000000E+00 -0.29465253201E+03  0.29465253201E+03  0.00000000000E+00 0. -1.
         23    2    1    2    0    0  0.21198477858E+03 -0.64582223463E+03  0.81634379320E+03  0.10661650081E+04  0.90921563998E+02 0.  0.
         13    1    3    3    0    0  0.10698256633E+03 -0.27299697074E+03  0.28744780487E+03  0.41060791037E+03  0.00000000000E+00 0.  1.
        -13    1    3    3    0    0  0.10500221225E+03 -0.37282526389E+03  0.52889598832E+03  0.65555709777E+03  0.00000000000E+00 0. -1.
         22    1    1    2    0    0 -0.21198477858E+03  0.64582223463E+03  0.51073802515E+03  0.85022187423E+03  0.00000000000E+00 0. -1.
<mgrwt>
<rscale>  0 0.13825312E+04</rscale>
<asrwt>0</asrwt>
<pdfrwt beam="1">  1        2 0.24949759E+00 0.13825312E+04</pdfrwt>
<pdfrwt beam="2">  1       -2 0.45331160E-01 0.13825312E+04</pdfrwt>
<totfact> 0.48758412E+01</totfact>
</mgrwt>
</event>
<event>
 6    1  0.2910520E-004  0.4554682E+04  0.7818608E-02  0.7901133E-01
         -2   -1    0    0    0  501 -0.00000000000E+00  0.00000000000E+00  0.23507376337E+04  0.23507376337E+04  0.00000000000E+00 0. -1.
          2   -1    0    0  501    0  0.00000000000E+00 -0.00000000000E+00 -0.22062358504E+04  0.22062358504E+04  0.00000000000E+00 0.  1.
         23    2    1    2    0    0  0.19681132911E+04  0.94446894180E+03  0.71809436732E+03  0.22998735835E+04  0.90925635329E+02 0.  0.
         11    1    3    3    0    0  0.51372579460E+03  0.22476728666E+03  0.22100955714E+03  0.60272692784E+03  0.00000000000E+00 0. -1.
        -11    1    3    3    0    0  0.14543874965E+04  0.71970165514E+03  0.49708481018E+03  0.16971466557E+04  0.00000000000E+00 0.  1.
         22    1    1    2    0    0 -0.19681132911E+04 -0.94446894180E+03 -0.57359258406E+03  0.22570999006E+04  0.00000000000E+00 0. -1.
<mgrwt>
<rscale>  0 0.45546818E+04</rscale>
<asrwt>0</asrwt>
<pdfrwt beam="1">  1        2 0.33942090E+00 0.45546818E+04</pdfrwt>
<pdfrwt beam="2">  1       -2 0.36165194E+00 0.45546818E+04</pdfrwt>
<totfact> 0.50720169E-02</totfact>
</mgrwt>
</event>
<event>
 6    1  0.1878398E-004  0.3430994E+04  0.7818608E-02  0.8130341E-01
         -2   -1    0    0    0  501 -0.00000000000E+00  0.00000000000E+00  0.18669881301E+04  0.18669881301E+04  0.00000000000E+00 0. -1.
          2   -1    0    0  501    0  0.00000000000E+00 -0.00000000000E+00 -0.15762978982E+04  0.15762978982E+04  0.00000000000E+00 0.  1.
         23    2    1    2    0    0  0.14050527391E+04  0.86928027535E+03 -0.31332029871E+03  0.16841242626E+04  0.91013875313E+02 0.  0.
         13    1    3    3    0    0  0.33625675579E+03  0.25418341149E+03 -0.74147632730E+02  0.42799028485E+03  0.00000000000E+00 0. -1.
        -13    1    3    3    0    0  0.10687959833E+04  0.61509686386E+03 -0.23917266598E+03  0.12561339778E+04  0.00000000000E+00 0.  1.
         22    1    1    2    0    0 -0.14050527391E+04 -0.86928027535E+03  0.60401053063E+03  0.17591617657E+04  0.00000000000E+00 0. -1.
<mgrwt>
<rscale>  0 0.34309937E+04</rscale>
<asrwt>0</asrwt>
<pdfrwt beam="1">  1        2 0.24250737E+00 0.34309937E+04</pdfrwt>
<pdfrwt beam="2">  1       -2 0.28722894E+00 0.34309937E+04</pdfrwt>
<totfact> 0.36146251E-01</totfact>
</mgrwt>
</event>
<event>
 6    1  0.1878398E-004  0.4069091E+04  0.7818608E-02  0.7990752E-01
         -2   -1    0    0    0  501 -0.00000000000E+00  0.00000000000E+00  0.20313804699E+04  0.20313804699E+04  0.00000000000E+00 0. -1.
          2   -1    0    0  501    0  0.00000000000E+00 -0.00000000000E+00 -0.20377156258E+04  0.20377156258E+04  0.00000000000E+00 0.  1.
         23    2    1    2    0    0 -0.13985827434E+04 -0.39412053133E+03 -0.14257216581E+04  0.20378347324E+04  0.93399500106E+02 0.  0.
         11    1    3    3    0    0 -0.82172071522E+03 -0.18944283675E+03 -0.85672547597E+03  0.12021198207E+04  0.00000000000E+00 0.  1.
        -11    1    3    3    0    0 -0.57686202821E+03 -0.20467769458E+03 -0.56899618212E+03  0.83571491163E+03  0.00000000000E+00 0. -1.
         22    1    1    2    0    0  0.13985827434E+04  0.39412053133E+03  0.14193865022E+04  0.20312613633E+04  0.00000000000E+00 0. -1.
<mgrwt>
<rscale>  0 0.40690912E+04</rscale>
<asrwt>0</asrwt>
<pdfrwt beam="1">  1        2 0.31349471E+00 0.40690912E+04</pdfrwt>
<pdfrwt beam="2">  1       -2 0.31252007E+00 0.40690912E+04</pdfrwt>
<totfact> 0.13297276E-01</totfact>
</mgrwt>
</event>
<event>
 6    1  0.1878398E-004  0.8324313E+03  0.7818608E-02  0.9514225E-01
         -2   -1    0    0    0  501 -0.00000000000E+00  0.00000000000E+00  0.12634811001E+03  0.12634811001E+03  0.00000000000E+00 0. -1.
          2   -1    0    0  501    0  0.00000000000E+00 -0.00000000000E+00 -0.13710966291E+04  0.13710966291E+04  0.00000000000E+00 0.  1.
         23    2    1    2    0    0 -0.96382388160E+02  0.13418048489E+03 -0.13072506472E+04  0.13208081537E+04  0.91301462911E+02 0.  0.
         11    1    3    3    0    0 -0.41113439418E+02  0.90142460334E+02 -0.45650731142E+03  0.46713478081E+03  0.00000000000E+00 0.  1.
        -11    1    3    3    0    0 -0.55268948742E+02  0.44038024555E+02 -0.85074333573E+03  0.85367337290E+03  0.00000000000E+00 0. -1.
         22    1    1    2    0    0  0.96382388160E+02 -0.13418048489E+03  0.62502128107E+02  0.17663658537E+03  0.00000000000E+00 0. -1.
<mgrwt>
<rscale>  0 0.83243130E+03</rscale>
<asrwt>0</asrwt>
<pdfrwt beam="1">  1        2 0.21093794E+00 0.83243130E+03</pdfrwt>
<pdfrwt beam="2">  1       -2 0.19438171E-01 0.83243130E+03</pdfrwt>
<totfact> 0.33939346E+02</totfact>
</mgrwt>
</event>
<event>
 6    1  0.1878398E-004  0.1397247E+04  0.7818608E-02  0.8955814E-01
          2   -1    0    0  501    0  0.00000000000E+00  0.00000000000E+00  0.46692584420E+04  0.46692584420E+04  0.00000000000E+00 0.  1.
         -2   -1    0    0    0  501 -0.00000000000E+00 -0.00000000000E+00 -0.10452944038E+03  0.10452944038E+03  0.00000000000E+00 0. -1.
         23    2    1    2    0    0 -0.42708854002E+03 -0.54126131154E+03  0.19727596714E+04  0.20916854538E+04  0.89436504313E+02 0.  0.
         11    1    3    3    0    0 -0.19887708120E+03 -0.30210548484E+03  0.11270850467E+04  0.11836978161E+04  0.00000000000E+00 0. -1.
        -11    1    3    3    0    0 -0.22821145882E+03 -0.23915582670E+03  0.84567462468E+03  0.90798763770E+03  0.00000000000E+00 0.  1.
         22    1    1    2    0    0  0.42708854002E+03  0.54126131154E+03  0.25919693302E+04  0.26821024286E+04  0.00000000000E+00 0.  1.
<mgrwt>
<rscale>  0 0.13972473E+04</rscale>
<asrwt>0</asrwt>
<pdfrwt beam="1">  1        2 0.71834729E+00 0.13972473E+04</pdfrwt>
<pdfrwt beam="2">  1       -2 0.16081456E-01 0.13972473E+04</pdfrwt>
<totfact> 0.26356887E+00</totfact>
</mgrwt>
</event>
<event>
 6    1  0.2373715E-004  0.3817257E+04  0.7818608E-02  0.8042462E-01
         -2   -1    0    0    0  501 -0.00000000000E+00  0.00000000000E+00  0.21271271016E+04  0.21271271016E+04  0.00000000000E+00 0. -1.
          2   -1    0    0  501    0  0.00000000000E+00 -0.00000000000E+00 -0.17125739429E+04  0.17125739429E+04  0.00000000000E+00 0.  1.
         23    2    1    2    0    0  0.11077562060E+04  0.44382610405E+03  0.17044724401E+04  0.20824312373E+04  0.84782879265E+02 0.  0.
         11    1    3    3    0    0  0.54905263753E+03  0.18436540864E+03  0.77989405157E+03  0.97143406073E+03  0.00000000000E+00 0. -1.
        -11    1    3    3    0    0  0.55870356845E+03  0.25946069542E+03  0.92457838851E+03  0.11109971766E+04  0.00000000000E+00 0.  1.
         22    1    1    2    0    0 -0.11077562060E+04 -0.44382610405E+03 -0.12899192814E+04  0.17572698072E+04  0.00000000000E+00 0.  1.
<mgrwt>
<rscale>  0 0.38172568E+04</rscale>
<asrwt>0</asrwt>
<pdfrwt beam="1">  1        2 0.26347291E+00 0.38172568E+04</pdfrwt>
<pdfrwt beam="2">  1       -2 0.32725033E+00 0.38172568E+04</pdfrwt>
<totfact> 0.16680217E-01</totfact>
</mgrwt>
</event>
<event>
 6    1  0.1878398E-004  0.2474142E+04  0.7818608E-02  0.8412256E-01
         -2   -1    0    0    0  501 -0.00000000000E+00  0.00000000000E+00  0.63428332351E+03  0.63428332351E+03  0.00000000000E+00 0. -1.
          2   -1    0    0  501    0  0.00000000000E+00 -0.00000000000E+00 -0.24127149813E+04  0.24127149813E+04  0.00000000000E+00 0.  1.
         23    2    1    2    0    0  0.65194452320E+03  0.57338019319E+03 -0.19728133202E+04  0.21572900729E+04  0.90064170477E+02 0.  0.
         13    1    3    3    0    0  0.25780993830E+03  0.18918280468E+03 -0.80818375112E+03  0.86914732552E+03  0.00000000000E+00 0.  1.
        -13    1    3    3    0    0  0.39413458490E+03  0.38419738850E+03 -0.11646295691E+04  0.12881427473E+04  0.00000000000E+00 0. -1.
         22    1    1    2    0    0 -0.65194452320E+03 -0.57338019319E+03  0.19438166243E+03  0.88970823193E+03  0.00000000000E+00 0. -1.
<mgrwt>
<rscale>  0 0.24741422E+04</rscale>
<asrwt>0</asrwt>
<pdfrwt beam="1">  1        2 0.37118693E+00 0.24741422E+04</pdfrwt>
<pdfrwt beam="2">  1       -2 0.97582048E-01 0.24741422E+04</pdfrwt>
<totfact> 0.30573230E+00</totfact>
</mgrwt>
</event>
<event>
 6    1  0.1878398E-004  0.7083703E+03  0.7818608E-02  0.9703024E-01
         -2   -1    0    0    0  501 -0.00000000000E+00  0.00000000000E+00  0.69352530952E+02  0.69352530952E+02  0.00000000000E+00 0. -1.
          2   -1    0    0  501    0  0.00000000000E+00 -0.00000000000E+00 -0.18088324590E+04  0.18088324590E+04  0.00000000000E+00 0.  1.
         23    2    1    2    0    0  0.33522752756E+03  0.15808489222E+02 -0.64634714309E+03  0.73469616660E+03  0.96883560425E+02 0.  0.
         13    1    3    3    0    0  0.25256551556E+03 -0.30338911014E+02 -0.45840612865E+03  0.52425753972E+03  0.00000000000E+00 0. -1.
        -13    1    3    3    0    0  0.82662012001E+02  0.46147400237E+02 -0.18794101443E+03  0.21043862688E+03  0.00000000000E+00 0.  1.
         22    1    1    2    0    0 -0.33522752756E+03 -0.15808489222E+02 -0.10931327849E+04  0.11434888233E+04  0.00000000000E+00 0.  1.
<mgrwt>
<rscale>  0 0.70837027E+03</rscale>
<asrwt>0</asrwt>
<pdfrwt beam="1">  1        2 0.27828192E+00 0.70837027E+03</pdfrwt>
<pdfrwt beam="2">  1       -2 0.10669620E-01 0.70837027E+03</pdfrwt>
<totfact> 0.53820182E+02</totfact>
</mgrwt>
</event>
<event>
 6    1  0.1878398E-004  0.1100266E+04  0.7818608E-02  0.9204933E-01
          2   -1    0    0  501    0  0.00000000000E+00  0.00000000000E+00  0.13560171266E+04  0.13560171266E+04  0.00000000000E+00 0.  1.
         -2   -1    0    0    0  501 -0.00000000000E+00 -0.00000000000E+00 -0.22318761161E+03  0.22318761161E+03  0.00000000000E+00 0. -1.
         23    2    1    2    0    0  0.40442910929E+03 -0.13134921026E+03  0.10627526872E+04  0.11482450170E+04  0.90597050453E+02 0.  0.
         11    1    3    3    0    0  0.18091089344E+03 -0.10610554205E+03  0.50061988159E+03  0.54277748964E+03  0.00000000000E+00 0. -1.
        -11    1    3    3    0    0  0.22351821585E+03 -0.25243668212E+02  0.56213280560E+03  0.60546752740E+03  0.00000000000E+00 0.  1.
         22    1    1    2    0    0 -0.40442910929E+03  0.13134921026E+03  0.70076827822E+02  0.43095972118E+03  0.00000000000E+00 0. -1.
<mgrwt>
<rscale>  0 0.11002658E+04</rscale>
<asrwt>0</asrwt>
<pdfrwt beam="1">  1        2 0.20861802E+00 0.11002658E+04</pdfrwt>
<pdfrwt beam="2">  1       -2 0.34336556E-01 0.11002658E+04</pdfrwt>
<totfact> 0.12090079E+02</totfact>
</mgrwt>
</event>
<event>
 6    1  0.1878398E-004  0.2360079E+04  0.7818608E-02  0.8454602E-01
         -1   -1    0    0    0  501 -0.00000000000E+00  0.00000000000E+00  0.69266482323E+03  0.69266482323E+03  0.00000000000E+00 0.  1.
          1   -1    0    0  501    0  0.00000000000E+00 -0.00000000000E+00 -0.20103426131E+04  0.20103426131E+04  0.00000000000E+00 0. -1.
         23    2    1    2    0    0  0.12561382494E+03  0.24918955887E+03 -0.19711071979E+04  0.19924835026E+04  0.82780753786E+02 0.  0.
         13    1    3    3    0    0  0.95687042826E+02  0.11401995955E+03 -0.86029651917E+03  0.87307884079E+03  0.00000000000E+00 0.  1.
        -13    1    3    3    0    0  0.29926782115E+02  0.13516959932E+03 -0.11108106787E+04  0.11194046618E+04  0.00000000000E+00 0. -1.
         22    1    1    2    0    0 -0.12561382494E+03 -0.24918955887E+03  0.65342940799E+03  0.71052393379E+03  0.00000000000E+00 0.  1.
<mgrwt>
<rscale>  0 0.23600793E+04</rscale>
<asrwt>0</asrwt>
<pdfrwt beam="1">  1        1 0.30928348E+00 0.23600793E+04</pdfrwt>
<pdfrwt beam="2">  1       -1 0.10656382E+00 0.23600793E+04</pdfrwt>
<totfact> 0.21680658E+00</totfact>
</mgrwt>
</event>
<event>
 6    1  0.1878398E-004  0.1176246E+04  0.7818608E-02  0.9133906E-01
         -1   -1    0    0    0  501 -0.00000000000E+00  0.00000000000E+00  0.40161955028E+03  0.40161955028E+03  0.00000000000E+00 0. -1.
          1   -1    0    0  501    0  0.00000000000E+00 -0.00000000000E+00 -0.86123504303E+03  0.86123504303E+03  0.00000000000E+00 0.  1.
         23    2    1    2    0    0 -0.54183710893E+03  0.19698731558E+03 -0.33414004054E+03  0.67282447186E+03  0.93014773676E+02 0.  0.
         11    1    3    3    0    0 -0.45295990071E+03  0.19804238972E+03 -0.27070703811E+03  0.56362732391E+03  0.00000000000E+00 0. -1.
        -11    1    3    3    0    0 -0.88877208224E+02 -0.10550741313E+01 -0.63433002429E+02  0.10919714795E+03  0.00000000000E+00 0.  1.
         22    1    1    2    0    0  0.54183710893E+03 -0.19698731558E+03 -0.12547545221E+03  0.59003012146E+03  0.00000000000E+00 0.  1.
<mgrwt>
<rscale>  0 0.11762463E+04</rscale>
<asrwt>0</asrwt>
<pdfrwt beam="1">  1        1 0.13249770E+00 0.11762463E+04</pdfrwt>
<pdfrwt beam="2">  1       -1 0.61787624E-01 0.11762463E+04</pdfrwt>
<totfact> 0.51618272E+01</totfact>
</mgrwt>
</event>
<event>
 6    1  0.1878398E-004  0.7180586E+03  0.7818608E-02  0.9686838E-01
         -2   -1    0    0    0  501 -0.00000000000E+00  0.00000000000E+00  0.11095631362E+03  0.11095631362E+03  0.00000000000E+00 0. -1.
          2   -1    0    0  501    0  0.00000000000E+00 -0.00000000000E+00 -0.11617369648E+04  0.11617369648E+04  0.00000000000E+00 0.  1.
         23    2    1    2    0    0 -0.26198375300E+03  0.10810836537E+03 -0.15986453975E+03  0.33778450046E+03  0.90657554480E+02 0.  0.
         11    1    3    3    0    0 -0.15532949594E+03  0.48400528169E+02 -0.13857957112E+03  0.21371513978E+03  0.00000000000E+00 0. -1.
        -11    1    3    3    0    0 -0.10665425706E+03  0.59707837199E+02 -0.21284968625E+02  0.12406936069E+03  0.00000000000E+00 0.  1.
         22    1    1    2    0    0  0.26198375300E+03 -0.10810836537E+03 -0.89091611145E+03  0.93490877798E+03  0.00000000000E+00 0.  1.
<mgrwt>
<rscale>  0 0.71805864E+03</rscale>
<asrwt>0</asrwt>
<pdfrwt beam="1">  1        2 0.17872876E+00 0.71805864E+03</pdfrwt>
<pdfrwt beam="2">  1       -2 0.17070203E-01 0.71805864E+03</pdfrwt>
<totfact> 0.56592185E+02</totfact>
</mgrwt>
</event>
<event>
 6    1  0.1878398E-004  0.3081489E+04  0.7818608E-02  0.8220837E-01
         -1   -1    0    0    0  501 -0.00000000000E+00  0.00000000000E+00  0.11552867190E+04  0.11552867190E+04  0.00000000000E+00 0. -1.
          1   -1    0    0  501    0  0.00000000000E+00 -0.00000000000E+00 -0.20548084407E+04  0.20548084407E+04  0.00000000000E+00 0.  1.
         23    2    1    2    0    0  0.13897078851E+04 -0.64732313304E+03 -0.30504954115E+03  0.15657982224E+04  0.91398063216E+02 0.  0.
         11    1    3    3    0    0  0.10400641036E+04 -0.48864934540E+03 -0.26859402911E+03  0.11801077387E+04  0.00000000000E+00 0.  1.
        -11    1    3    3    0    0  0.34964378154E+03 -0.15867378765E+03 -0.36455512043E+02  0.38569048369E+03  0.00000000000E+00 0. -1.
         22    1    1    2    0    0 -0.13897078851E+04  0.64732313304E+03 -0.59447218055E+03  0.16442969373E+04  0.00000000000E+00 0.  1.
<mgrwt>
<rscale>  0 0.30814885E+04</rscale>
<asrwt>0</asrwt>
<pdfrwt beam="1">  1        1 0.31612437E+00 0.30814885E+04</pdfrwt>
<pdfrwt beam="2">  1       -1 0.17773642E+00 0.30814885E+04</pdfrwt>
<totfact> 0.49950278E-01</totfact>
</mgrwt>
</event>
<event>
 6    1  0.1878398E-004  0.2118598E+04  0.7818608E-02  0.8553095E-01
         -2   -1    0    0    0  501 -0.00000000000E+00  0.00000000000E+00  0.79615239512E+03  0.79615239512E+03  0.00000000000E+00 0. -1.
          2   -1    0    0  501    0  0.00000000000E+00 -0.00000000000E+00 -0.14094218854E+04  0.14094218854E+04  0.00000000000E+00 0.  1.
         23    2    1    2    0    0  0.18687460705E+03 -0.14377775697E+03  0.76582064775E+03  0.80647322235E+03  0.91233939327E+02 0.  0.
         13    1    3    3    0    0  0.73796943319E+02 -0.10869673342E+03  0.46464791267E+03  0.48286504476E+03  0.00000000000E+00 0. -1.
        -13    1    3    3    0    0  0.11307766373E+03 -0.35081023550E+02  0.30117273508E+03  0.32360817759E+03  0.00000000000E+00 0.  1.
         22    1    1    2    0    0 -0.18687460705E+03  0.14377775697E+03 -0.13790901380E+04  0.13991010582E+04  0.00000000000E+00 0.  1.
<mgrwt>
<rscale>  0 0.21185982E+04</rscale>
<asrwt>0</asrwt>
<pdfrwt beam="1">  1        2 0.21683414E+00 0.21185982E+04</pdfrwt>
<pdfrwt beam="2">  1       -2 0.12248498E+00 0.21185982E+04</pdfrwt>
<totfact> 0.66362724E+00</totfact>
</mgrwt>
</event>
<event>
 6    1  0.1878398E-004  0.7082402E+03  0.7818608E-02  0.9703243E-01
         -2   -1    0    0    0  501 -0.00000000000E+00  0.00000000000E+00  0.10461594343E+03  0.10461594343E+03  0.00000000000E+00 0. -1.
          2   -1    0    0  501    0  0.00000000000E+00 -0.00000000000E+00 -0.11986801938E+04  0.11986801938E+04  0.00000000000E+00 0.  1.
         23    2    1    2    0    0  0.30495224939E+03 -0.13687594037E+03 -0.38320834632E+03  0.51777273606E+03  0.97514471056E+02 0.  0.
         13    1    3    3    0    0  0.22180449137E+03 -0.13898582766E+03 -0.31932899375E+03  0.41289865455E+03  0.00000000000E+00 0. -1.
        -13    1    3    3    0    0  0.83147758025E+02  0.21098872939E+01 -0.63879352565E+02  0.10487408151E+03  0.00000000000E+00 0.  1.
         22    1    1    2    0    0 -0.30495224939E+03  0.13687594037E+03 -0.71085590403E+03  0.78552340115E+03  0.00000000000E+00 0. -1.
<mgrwt>
<rscale>  0 0.70824024E+03</rscale>
<asrwt>0</asrwt>
<pdfrwt beam="1">  1        2 0.18441233E+00 0.70824024E+03</pdfrwt>
<pdfrwt beam="2">  1       -2 0.16094761E-01 0.70824024E+03</pdfrwt>
<totfact> 0.59517744E+02</totfact>
</mgrwt>
</event>
<event>
 6    1  0.1878398E-004  0.3236475E+04  0.7818608E-02  0.8179250E-01
          1   -1    0    0  501    0  0.00000000000E+00  0.00000000000E+00  0.13775781331E+04  0.13775781331E+04  0.00000000000E+00 0.  1.
         -1   -1    0    0    0  501 -0.00000000000E+00 -0.00000000000E+00 -0.19009390456E+04  0.19009390456E+04  0.00000000000E+00 0. -1.
         23    2    1    2    0    0  0.39089259579E+03  0.15303922790E+04  0.88776729441E+02  0.15845248406E+04  0.89107314232E+02 0.  0.
         11    1    3    3    0    0  0.25050666445E+03  0.96605055799E+03  0.13159847793E+02  0.99808839845E+03  0.00000000000E+00 0.  1.
        -11    1    3    3    0    0  0.14038593134E+03  0.56434172105E+03  0.75616881648E+02  0.58643644210E+03  0.00000000000E+00 0. -1.
         22    1    1    2    0    0 -0.39089259579E+03 -0.15303922790E+04 -0.61213764189E+03  0.16939923382E+04  0.00000000000E+00 0. -1.
<mgrwt>
<rscale>  0 0.32364747E+04</rscale>
<asrwt>0</asrwt>
<pdfrwt beam="1">  1        1 0.21193510E+00 0.32364747E+04</pdfrwt>
<pdfrwt beam="2">  1       -1 0.29245216E+00 0.32364747E+04</pdfrwt>
<totfact> 0.24559891E-01</totfact>
</mgrwt>
</event>
<event>
 6    1  0.1878398E-004  0.1626754E+04  0.7818608E-02  0.8804279E-01
          1   -1    0    0  501    0  0.00000000000E+00  0.00000000000E+00  0.38282300763E+03  0.38282300763E+03  0.00000000000E+00 0.  1.
         -1   -1    0    0    0  501 -0.00000000000E+00 -0.00000000000E+00 -0.17281669117E+04  0.17281669117E+04  0.00000000000E+00 0. -1.
         23    2    1    2    0    0 -0.22861202030E+03  0.39390778538E+03 -0.15453825589E+04  0.16135542324E+04  0.89012405338E+02 0.  0.
         11    1    3    3    0    0 -0.99531210288E+02  0.23780104639E+03 -0.76287632409E+03  0.80525529203E+03  0.00000000000E+00 0. -1.
        -11    1    3    3    0    0 -0.12908081001E+03  0.15610673899E+03 -0.78250623477E+03  0.80829894032E+03  0.00000000000E+00 0.  1.
         22    1    1    2    0    0  0.22861202030E+03 -0.39390778538E+03  0.20003865483E+03  0.49743568693E+03  0.00000000000E+00 0.  1.
<mgrwt>
<rscale>  0 0.16267539E+04</rscale>
<asrwt>0</asrwt>
<pdfrwt beam="1">  1        1 0.58895848E-01 0.16267539E+04</pdfrwt>
<pdfrwt beam="2">  1       -1 0.26587183E+00 0.16267539E+04</pdfrwt>
<totfact> 0.33493375E+00</totfact>
</mgrwt>
</event>
<event>
 6    1  0.1878398E-004  0.2779732E+04  0.7818608E-02  0.8309588E-01
          2   -1    0    0  501    0  0.00000000000E+00  0.00000000000E+00  0.11200494705E+04  0.11200494705E+04  0.00000000000E+00 0.  1.
         -2   -1    0    0    0  501 -0.00000000000E+00 -0.00000000000E+00 -0.17246807957E+04  0.17246807957E+04  0.00000000000E+00 0. -1.
         23    2    1    2    0    0 -0.21730247415E+03  0.41420082961E+03 -0.16404830017E+04  0.17081690543E+04  0.88737516164E+02 0.  0.
         13    1    3    3    0    0 -0.11851379410E+03  0.28423657212E+03 -0.11832323152E+04  0.12226506697E+04  0.00000000000E+00 0. -1.
        -13    1    3    3    0    0 -0.98788680053E+02  0.12996425748E+03 -0.45725068649E+03  0.48551838464E+03  0.00000000000E+00 0.  1.
         22    1    1    2    0    0  0.21730247415E+03 -0.41420082961E+03  0.10358516766E+04  0.11365612119E+04  0.00000000000E+00 0.  1.
<mgrwt>
<rscale>  0 0.27797322E+04</rscale>
<asrwt>0</asrwt>
<pdfrwt beam="1">  1        2 0.17231531E+00 0.27797322E+04</pdfrwt>
<pdfrwt beam="2">  1       -2 0.26533550E+00 0.27797322E+04</pdfrwt>
<totfact> 0.95519590E-01</totfact>
</mgrwt>
</event>
<event>
 6    1  0.1878398E-004  0.1200653E+04  0.7818608E-02  0.9112286E-01
          2   -1    0    0  501    0  0.00000000000E+00  0.00000000000E+00  0.58543758249E+03  0.58543758249E+03  0.00000000000E+00 0.  1.
         -2   -1    0    0    0  501 -0.00000000000E+00 -0.00000000000E+00 -0.61559356631E+03  0.61559356631E+03  0.00000000000E+00 0. -1.
         23    2    1    2    0    0  0.11959590802E+03  0.49094397810E+03 -0.33290699029E+03  0.61197483335E+03  0.91416418730E+02 0.  0.
         13    1    3    3    0    0  0.98785034770E+02  0.21326701956E+03 -0.15457947556E+03  0.28131142706E+03  0.00000000000E+00 0.  1.
        -13    1    3    3    0    0  0.20810873253E+02  0.27767695854E+03 -0.17832751473E+03  0.33066340629E+03  0.00000000000E+00 0. -1.
         22    1    1    2    0    0 -0.11959590802E+03 -0.49094397810E+03  0.30275100647E+03  0.58905631545E+03  0.00000000000E+00 0.  1.
<mgrwt>
<rscale>  0 0.12006525E+04</rscale>
<asrwt>0</asrwt>
<pdfrwt beam="1">  1        2 0.90067320E-01 0.12006525E+04</pdfrwt>
<pdfrwt beam="2">  1       -2 0.94706703E-01 0.12006525E+04</pdfrwt>
<totfact> 0.47341554E+01</totfact>
</mgrwt>
</event>
<event>
 6    1  0.1912035E-004  0.3653910E+04  0.7818608E-02  0.8078253E-01
         -2   -1    0    0    0  501 -0.00000000000E+00  0.00000000000E+00  0.16957591866E+04  0.16957591866E+04  0.00000000000E+00 0. -1.
          2   -1    0    0  501    0  0.00000000000E+00 -0.00000000000E+00 -0.19683006377E+04  0.19683006377E+04  0.00000000000E+00 0.  1.
         23    2    1    2    0    0 -0.10204577950E+04 -0.24883502644E+03 -0.16342755216E+04  0.19443003468E+04  0.78704361115E+02 0.  0.
         13    1    3    3    0    0 -0.35015297973E+03 -0.10015921420E+03 -0.50374878017E+03  0.62161226735E+03  0.00000000000E+00 0. -1.
        -13    1    3    3    0    0 -0.67030481522E+03 -0.14867581224E+03 -0.11305267415E+04  0.13226880795E+04  0.00000000000E+00 0.  1.
         22    1    1    2    0    0  0.10204577950E+04  0.24883502644E+03  0.13617340705E+04  0.17197594775E+04  0.00000000000E+00 0. -1.
<mgrwt>
<rscale>  0 0.36539096E+04</rscale>
<asrwt>0</asrwt>
<pdfrwt beam="1">  1        2 0.30281548E+00 0.36539096E+04</pdfrwt>
<pdfrwt beam="2">  1       -2 0.26088603E+00 0.36539096E+04</pdfrwt>
<totfact> 0.31112541E-01</totfact>
</mgrwt>
</event>
<event>
 6    1  0.1878398E-004  0.1928510E+04  0.7818608E-02  0.8640794E-01
         -2   -1    0    0    0  501 -0.00000000000E+00  0.00000000000E+00  0.15271805380E+04  0.15271805380E+04  0.00000000000E+00 0. -1.
          2   -1    0    0  501    0  0.00000000000E+00 -0.00000000000E+00 -0.60882651394E+03  0.60882651394E+03  0.00000000000E+00 0.  1.
         23    2    1    2    0    0  0.79367433521E+03  0.11034985491E+03 -0.13001084180E+03  0.81647496335E+03  0.87364214284E+02 0.  0.
         11    1    3    3    0    0  0.37213342732E+03  0.95145457524E+02 -0.69518638563E+02  0.39034444651E+03  0.00000000000E+00 0. -1.
        -11    1    3    3    0    0  0.42154090789E+03  0.15204397390E+02 -0.60492203237E+02  0.42613051683E+03  0.00000000000E+00 0.  1.
         22    1    1    2    0    0 -0.79367433521E+03 -0.11034985491E+03  0.10483648659E+04  0.13195320886E+04  0.00000000000E+00 0. -1.
<mgrwt>
<rscale>  0 0.19285103E+04</rscale>
<asrwt>0</asrwt>
<pdfrwt beam="1">  1        2 0.93665618E-01 0.19285103E+04</pdfrwt>
<pdfrwt beam="2">  1       -2 0.23495085E+00 0.19285103E+04</pdfrwt>
<totfact> 0.36236279E+00</totfact>
</mgrwt>
</event>
<event>
 6    1  0.1878398E-004  0.3834499E+04  0.7818608E-02  0.8038792E-01
          2   -1    0    0  501    0  0.00000000000E+00  0.00000000000E+00  0.31294253758E+04  0.31294253758E+04  0.00000000000E+00 0.  1.
         -2   -1    0    0    0  501 -0.00000000000E+00 -0.00000000000E+00 -0.11746074499E+04  0.11746074499E+04  0.00000000000E+00 0. -1.
         23    2    1    2    0    0 -0.16022780323E+03 -0.54025713175E+03  0.30336598418E+04  0.30868842741E+04  0.90618810463E+02 0.  0.
         13    1    3    3    0    0 -0.96837666220E+02 -0.28613442150E+03  0.13858882990E+04  0.14184275865E+04  0.00000000000E+00 0. -1.
        -13    1    3    3    0    0 -0.63390137013E+02 -0.25412271025E+03  0.16477715428E+04  0.16684566876E+04  0.00000000000E+00 0.  1.
         22    1    1    2    0    0  0.16022780323E+03  0.54025713175E+03 -0.10788419158E+04  0.12171485516E+04  0.00000000000E+00 0. -1.
<mgrwt>
<rscale>  0 0.38344994E+04</rscale>
<asrwt>0</asrwt>
<pdfrwt beam="1">  1        2 0.48145006E+00 0.38344994E+04</pdfrwt>
<pdfrwt beam="2">  1       -2 0.18070884E+00 0.38344994E+04</pdfrwt>
<totfact> 0.20636836E-01</totfact>
</mgrwt>
</event>
<event>
 6    1  0.1878398E-004  0.1022122E+04  0.7818608E-02  0.9284609E-01
         -2   -1    0    0    0  501 -0.00000000000E+00  0.00000000000E+00  0.12821222255E+03  0.12821222255E+03  0.00000000000E+00 0.  1.
          2   -1    0    0  501    0  0.00000000000E+00 -0.00000000000E+00 -0.20371189566E+04  0.20371189566E+04  0.00000000000E+00 0. -1.
         23    2    1    2    0    0  0.13515063548E+03  0.48843453582E+03 -0.94321769742E+03  0.10747399150E+04  0.92586554426E+02 0.  0.
         11    1    3    3    0    0  0.95832566157E+02  0.32947227758E+03 -0.72321159756E+03  0.80048165330E+03  0.00000000000E+00 0.  1.
        -11    1    3    3    0    0  0.39318069326E+02  0.15896225823E+03 -0.22000609987E+03  0.27425826168E+03  0.00000000000E+00 0. -1.
         22    1    1    2    0    0 -0.13515063548E+03 -0.48843453582E+03 -0.96568903666E+03  0.10905912642E+04  0.00000000000E+00 0.  1.
<mgrwt>
<rscale>  0 0.10221224E+04</rscale>
<asrwt>0</asrwt>
<pdfrwt beam="1">  1        2 0.31340292E+00 0.10221224E+04</pdfrwt>
<pdfrwt beam="2">  1       -2 0.19724957E-01 0.10221224E+04</pdfrwt>
<totfact> 0.13966059E+02</totfact>
</mgrwt>
</event>
<event>
 6    1  0.1878398E-004  0.4120114E+04  0.7818608E-02  0.7980745E-01
         -2   -1    0    0    0  501 -0.00000000000E+00  0.00000000000E+00  0.30706521023E+04  0.30706521023E+04  0.00000000000E+00 0. -1.
          2   -1    0    0  501    0  0.00000000000E+00 -0.00000000000E+00 -0.13820631198E+04  0.13820631198E+04  0.00000000000E+00 0.  1.
         23    2    1    2    0    0  0.13592177978E+04 -0.59660440735E+03  0.23868604968E+04  0.28122905978E+04  0.92008338834E+02 0.  0.
         11    1    3    3    0    0  0.87613688661E+03 -0.33618295886E+03  0.15007533069E+04  0.17699986763E+04  0.00000000000E+00 0. -1.
        -11    1    3    3    0    0  0.48308091114E+03 -0.26042144849E+03  0.88610718987E+03  0.10422919214E+04  0.00000000000E+00 0.  1.
         22    1    1    2    0    0 -0.13592177978E+04  0.59660440735E+03 -0.69827151434E+03  0.16404246244E+04  0.00000000000E+00 0.  1.
<mgrwt>
<rscale>  0 0.41201141E+04</rscale>
<asrwt>0</asrwt>
<pdfrwt beam="1">  1        2 0.21262510E+00 0.41201141E+04</pdfrwt>
<pdfrwt beam="2">  1       -2 0.47240802E+00 0.41201141E+04</pdfrwt>
<totfact> 0.28656238E-02</totfact>
</mgrwt>
</event>
<event>
 6    1  0.1878398E-004  0.5163095E+04  0.7818608E-02  0.7803829E-01
          2   -1    0    0  501    0  0.00000000000E+00  0.00000000000E+00  0.23993788302E+04  0.23993788302E+04  0.00000000000E+00 0.  1.
         -2   -1    0    0    0  501 -0.00000000000E+00 -0.00000000000E+00 -0.27775474049E+04  0.27775474049E+04  0.00000000000E+00 0. -1.
         23    2    1    2    0    0  0.17470551393E+04 -0.89054126967E+03 -0.18713689207E+04  0.27121924390E+04  0.93277953205E+02 0.  0.
         13    1    3    3    0    0  0.15513767286E+04 -0.75715990165E+03 -0.16520940573E+04  0.23894509086E+04  0.00000000000E+00 0. -1.
        -13    1    3    3    0    0  0.19567841072E+03 -0.13338136801E+03 -0.21927486340E+03  0.32274153044E+03  0.00000000000E+00 0.  1.
         22    1    1    2    0    0 -0.17470551393E+04  0.89054126967E+03  0.14932003459E+04  0.24647337961E+04  0.00000000000E+00 0.  1.
<mgrwt>
<rscale>  0 0.51630954E+04</rscale>
<asrwt>0</asrwt>
<pdfrwt beam="1">  1        2 0.36913520E+00 0.51630954E+04</pdfrwt>
<pdfrwt beam="2">  1       -2 0.42731499E+00 0.51630954E+04</pdfrwt>
<totfact> 0.14052198E-02</totfact>
</mgrwt>
</event>
<event>
 6    1  0.1878398E-004  0.5487926E+03  0.7818608E-02  0.1001774E+00
         -1   -1    0    0    0  501 -0.00000000000E+00  0.00000000000E+00  0.38839866583E+02  0.38839866583E+02  0.00000000000E+00 0.  1.
          1   -1    0    0  501    0  0.00000000000E+00 -0.00000000000E+00 -0.19385576071E+04  0.19385576071E+04  0.00000000000E+00 0. -1.
         23    2    1    2    0    0 -0.19023686908E+02 -0.25596084477E+03 -0.12418549128E+04  0.12712378920E+04  0.89242920619E+02 0.  0.
         13    1    3    3    0    0 -0.13580469902E+02 -0.12443053712E+03 -0.39924236185E+03  0.41840393309E+03  0.00000000000E+00 0.  1.
        -13    1    3    3    0    0 -0.54432170063E+01 -0.13153030765E+03 -0.84261255095E+03  0.85283395890E+03  0.00000000000E+00 0. -1.
         22    1    1    2    0    0  0.19023686908E+02  0.25596084477E+03 -0.65786282776E+03  0.70615958173E+03  0.00000000000E+00 0.  1.
<mgrwt>
<rscale>  0 0.54879256E+03</rscale>
<asrwt>0</asrwt>
<pdfrwt beam="1">  1        1 0.29823966E+00 0.54879256E+03</pdfrwt>
<pdfrwt beam="2">  1       -1 0.59753635E-02 0.54879256E+03</pdfrwt>
<totfact> 0.48273912E+02</totfact>
</mgrwt>
</event>
<event>
 6    1  0.2104743E-004  0.1906175E+04  0.7818608E-02  0.8651789E-01
         -2   -1    0    0    0  501 -0.00000000000E+00  0.00000000000E+00  0.49396143827E+03  0.49396143827E+03  0.00000000000E+00 0. -1.
          2   -1    0    0  501    0  0.00000000000E+00 -0.00000000000E+00 -0.18389606960E+04  0.18389606960E+04  0.00000000000E+00 0.  1.
         23    2    1    2    0    0 -0.92846818031E+03 -0.14726714824E+03 -0.50075359163E+03  0.10693986800E+04  0.95491373703E+02 0.  0.
         11    1    3    3    0    0 -0.48756920245E+03 -0.49102912352E+02 -0.21669297403E+03  0.53580842488E+03  0.00000000000E+00 0. -1.
        -11    1    3    3    0    0 -0.44089897786E+03 -0.98164235885E+02 -0.28406061759E+03  0.53359025511E+03  0.00000000000E+00 0.  1.
         22    1    1    2    0    0  0.92846818031E+03  0.14726714824E+03 -0.84424566611E+03  0.12635234543E+04  0.00000000000E+00 0.  1.
<mgrwt>
<rscale>  0 0.19061749E+04</rscale>
<asrwt>0</asrwt>
<pdfrwt beam="1">  1        2 0.28291703E+00 0.19061749E+04</pdfrwt>
<pdfrwt beam="2">  1       -2 0.75994068E-01 0.19061749E+04</pdfrwt>
<totfact> 0.11916427E+01</totfact>
</mgrwt>
</event>
<event>
 6    1  0.1878398E-004  0.1808579E+04  0.7818608E-02  0.8701751E-01
          2   -1    0    0  501    0  0.00000000000E+00  0.00000000000E+00  0.42722878574E+04  0.42722878574E+04  0.00000000000E+00 0.  1.
         -2   -1    0    0    0  501 -0.00000000000E+00 -0.00000000000E+00 -0.19140544758E+03  0.19140544758E+03  0.00000000000E+00 0. -1.
         23    2    1    2    0    0  0.31732023098E+03  0.64698277866E+03  0.33847066591E+04  0.34617254808E+04  0.89583989477E+02 0.  0.
         11    1    3    3    0    0  0.94907204704E+02  0.28356626597E+03  0.13048236601E+04  0.13386493150E+04  0.00000000000E+00 0.  1.
        -11    1    3    3    0    0  0.22241302627E+03  0.36341651269E+03  0.20798829990E+04  0.21230761657E+04  0.00000000000E+00 0. -1.
         22    1    1    2    0    0 -0.31732023098E+03 -0.64698277866E+03  0.69617575072E+03  0.10019678242E+04  0.00000000000E+00 0. -1.
<mgrwt>
<rscale>  0 0.18085786E+04</rscale>
<asrwt>0</asrwt>
<pdfrwt beam="1">  1        2 0.65727498E+00 0.18085786E+04</pdfrwt>
<pdfrwt beam="2">  1       -2 0.29446995E-01 0.18085786E+04</pdfrwt>
<totfact> 0.20492868E+00</totfact>
</mgrwt>
</event>
<event>
 6    1  0.1878398E-004  0.4492336E+04  0.7818608E-02  0.7911980E-01
          1   -1    0    0  501    0  0.00000000000E+00  0.00000000000E+00  0.34454954170E+04  0.34454954170E+04  0.00000000000E+00 0. -1.
         -1   -1    0    0    0  501 -0.00000000000E+00 -0.00000000000E+00 -0.14643094708E+04  0.14643094708E+04  0.00000000000E+00 0.  1.
         23    2    1    2    0    0 -0.19939225776E+04 -0.47293398480E+03  0.19942418472E+04  0.28605210480E+04  0.78653172804E+02 0.  0.
         13    1    3    3    0    0 -0.13679047179E+04 -0.34331742113E+03  0.14157167508E+04  0.19983203165E+04  0.00000000000E+00 0. -1.
        -13    1    3    3    0    0 -0.62601785966E+03 -0.12961656367E+03  0.57852509640E+03  0.86220073148E+03  0.00000000000E+00 0.  1.
         22    1    1    2    0    0  0.19939225776E+04  0.47293398480E+03 -0.13055901022E+02  0.20492838398E+04  0.00000000000E+00 0.  1.
<mgrwt>
<rscale>  0 0.44923364E+04</rscale>
<asrwt>0</asrwt>
<pdfrwt beam="1">  1        1 0.53007622E+00 0.44923364E+04</pdfrwt>
<pdfrwt beam="2">  1       -1 0.22527838E+00 0.44923364E+04</pdfrwt>
<totfact> 0.21013977E-02</totfact>
</mgrwt>
</event>
<event>
 6    1  0.1878398E-004  0.1274760E+04  0.7818608E-02  0.9049824E-01
         -2   -1    0    0    0  501 -0.00000000000E+00  0.00000000000E+00  0.12173182367E+03  0.12173182367E+03  0.00000000000E+00 0. -1.
          2   -1    0    0  501    0  0.00000000000E+00 -0.00000000000E+00 -0.33372794778E+04  0.33372794778E+04  0.00000000000E+00 0.  1.
         23    2    1    2    0    0  0.44421995043E+03 -0.45681014309E+02 -0.28374234631E+04  0.28738651460E+04  0.93331928450E+02 0.  0.
         11    1    3    3    0    0  0.27103727078E+03 -0.37719359197E+02 -0.14442389636E+04  0.14699354191E+04  0.00000000000E+00 0. -1.
        -11    1    3    3    0    0  0.17318267965E+03 -0.79616551119E+01 -0.13931844995E+04  0.14039297269E+04  0.00000000000E+00 0.  1.
         22    1    1    2    0    0 -0.44421995043E+03  0.45681014309E+02 -0.37812419095E+03  0.58514615543E+03  0.00000000000E+00 0. -1.
<mgrwt>
<rscale>  0 0.12747598E+04</rscale>
<asrwt>0</asrwt>
<pdfrwt beam="1">  1        2 0.51342752E+00 0.12747598E+04</pdfrwt>
<pdfrwt beam="2">  1       -2 0.18727976E-01 0.12747598E+04</pdfrwt>
<totfact> 0.25221408E+01</totfact>
</mgrwt>
</event>
<event>
 6    1  0.1878398E-004  0.2228981E+04  0.7818608E-02  0.8506461E-01
         -2   -1    0    0    0  501 -0.00000000000E+00  0.00000000000E+00  0.60412992090E+03  0.60412992090E+03  0.00000000000E+00 0. -1.
          2   -1    0    0  501    0  0.00000000000E+00 -0.00000000000E+00 -0.20559975159E+04  0.20559975159E+04  0.00000000000E+00 0.  1.
         23    2    1    2    0    0 -0.88288846432E+03 -0.67656138093E+03 -0.75803261311E+03  0.13491604942E+04  0.91614703438E+02 0.  0.
         13    1    3    3    0    0 -0.31075830193E+03 -0.20478825553E+03 -0.29513816501E+03  0.47498998754E+03  0.00000000000E+00 0. -1.
        -13    1    3    3    0    0 -0.57213016239E+03 -0.47177312540E+03 -0.46289444810E+03  0.87417050662E+03  0.00000000000E+00 0.  1.
         22    1    1    2    0    0  0.88288846432E+03  0.67656138093E+03 -0.69383498189E+03  0.13109669426E+04  0.00000000000E+00 0. -1.
<mgrwt>
<rscale>  0 0.22289815E+04</rscale>
<asrwt>0</asrwt>
<pdfrwt beam="1">  1        2 0.31630731E+00 0.22289815E+04</pdfrwt>
<pdfrwt beam="2">  1       -2 0.92943065E-01 0.22289815E+04</pdfrwt>
<totfact> 0.55608200E+00</totfact>
</mgrwt>
</event>
<event>
 6    1  0.1878398E-004  0.4573448E+04  0.7818608E-02  0.7897903E-01
         -2   -1    0    0    0  501 -0.00000000000E+00  0.00000000000E+00  0.19526993751E+04  0.19526993751E+04  0.00000000000E+00 0. -1.
          2   -1    0    0  501    0  0.00000000000E+00 -0.00000000000E+00 -0.26778862723E+04  0.26778862723E+04  0.00000000000E+00 0.  1.
         23    2    1    2    0    0  0.17402534594E+04 -0.75451115050E+03  0.92863826995E+03  0.21140589015E+04  0.95429679559E+02 0.  0.
         13    1    3    3    0    0  0.92237778495E+03 -0.34893291478E+03  0.49254306330E+03  0.11023309967E+04  0.00000000000E+00 0. -1.
        -13    1    3    3    0    0  0.81787567441E+03 -0.40557823572E+03  0.43609520666E+03  0.10117279048E+04  0.00000000000E+00 0.  1.
         22    1    1    2    0    0 -0.17402534594E+04  0.75451115050E+03 -0.16538251672E+04  0.25165267459E+04  0.00000000000E+00 0.  1.
<mgrwt>
<rscale>  0 0.45734481E+04</rscale>
<asrwt>0</asrwt>
<pdfrwt beam="1">  1        2 0.41198250E+00 0.45734481E+04</pdfrwt>
<pdfrwt beam="2">  1       -2 0.30041529E+00 0.45734481E+04</pdfrwt>
<totfact> 0.65141898E-02</totfact>
</mgrwt>
</event>
<event>
 6    1  0.1878398E-004  0.1479935E+04  0.7818608E-02  0.8897906E-01
         -2   -1    0    0    0  501 -0.00000000000E+00  0.00000000000E+00  0.12697811812E+04  0.12697811812E+04  0.00000000000E+00 0.  1.
          2   -1    0    0  501    0  0.00000000000E+00 -0.00000000000E+00 -0.43121777263E+03  0.43121777263E+03  0.00000000000E+00 0. -1.
         23    2    1    2    0    0  0.55540538032E+03 -0.41496362461E+03  0.70871019935E+03  0.99563961127E+03  0.91422878066E+02 0.  0.
         13    1    3    3    0    0  0.18914807570E+03 -0.10385122880E+03  0.17836727322E+03  0.27995884773E+03  0.00000000000E+00 0. -1.
        -13    1    3    3    0    0  0.36625730462E+03 -0.31111239580E+03  0.53034292613E+03  0.71568076354E+03  0.00000000000E+00 0.  1.
         22    1    1    2    0    0 -0.55540538032E+03  0.41496362461E+03  0.12985320925E+03  0.70535934260E+03  0.00000000000E+00 0. -1.
<mgrwt>
<rscale>  0 0.14799354E+04</rscale>
<asrwt>0</asrwt>
<pdfrwt beam="1">  1        2 0.66341196E-01 0.14799354E+04</pdfrwt>
<pdfrwt beam="2">  1       -2 0.19535095E+00 0.14799354E+04</pdfrwt>
<totfact> 0.10075442E+01</totfact>
</mgrwt>
</event>
<event>
 6    1  0.1878398E-004  0.3484872E+04  0.7818608E-02  0.8117384E-01
         -1   -1    0    0    0  501 -0.00000000000E+00  0.00000000000E+00  0.18352626724E+04  0.18352626724E+04  0.00000000000E+00 0. -1.
          1   -1    0    0  501    0  0.00000000000E+00 -0.00000000000E+00 -0.16543044291E+04  0.16543044291E+04  0.00000000000E+00 0.  1.
         23    2    1    2    0    0 -0.10657425673E+04  0.12441867485E+03 -0.12827231701E+04  0.16747253711E+04  0.89661090225E+02 0.  0.
         13    1    3    3    0    0 -0.62644303284E+03  0.11342379736E+03 -0.73004938249E+03  0.96864231379E+03  0.00000000000E+00 0. -1.
        -13    1    3    3    0    0 -0.43929953451E+03  0.10994877494E+02 -0.55267378762E+03  0.70608305735E+03  0.00000000000E+00 0.  1.
         22    1    1    2    0    0  0.10657425673E+04 -0.12441867485E+03  0.14636814133E+04  0.18148417304E+04  0.00000000000E+00 0. -1.
<mgrwt>
<rscale>  0 0.34848720E+04</rscale>
<asrwt>0</asrwt>
<pdfrwt beam="1">  1        1 0.25450837E+00 0.34848720E+04</pdfrwt>
<pdfrwt beam="2">  1       -1 0.28234810E+00 0.34848720E+04</pdfrwt>
<totfact> 0.17978597E-01</totfact>
</mgrwt>
</event>
<event>
 6    1  0.1878398E-004  0.1035354E+04  0.7818608E-02  0.9270597E-01
          2   -1    0    0  501    0  0.00000000000E+00  0.00000000000E+00  0.14687746493E+04  0.14687746493E+04  0.00000000000E+00 0.  1.
         -2   -1    0    0    0  501 -0.00000000000E+00 -0.00000000000E+00 -0.18245775614E+03  0.18245775614E+03  0.00000000000E+00 0. -1.
         23    2    1    2    0    0 -0.29595758052E+03  0.12500630345E+03  0.12874065589E+04  0.13299558069E+04  0.90273667242E+02 0.  0.
         11    1    3    3    0    0 -0.43605040895E+02  0.57709048502E+02  0.26004706153E+03  0.26991889167E+03  0.00000000000E+00 0.  1.
        -11    1    3    3    0    0 -0.25235253963E+03  0.67297254946E+02  0.10273594974E+04  0.10600369153E+04  0.00000000000E+00 0. -1.
         22    1    1    2    0    0  0.29595758052E+03 -0.12500630345E+03 -0.10896657953E+01  0.32127659850E+03  0.00000000000E+00 0. -1.
<mgrwt>
<rscale>  0 0.10353537E+04</rscale>
<asrwt>0</asrwt>
<pdfrwt beam="1">  1        2 0.22596532E+00 0.10353537E+04</pdfrwt>
<pdfrwt beam="2">  1       -2 0.28070425E-01 0.10353537E+04</pdfrwt>
<totfact> 0.15272725E+02</totfact>
</mgrwt>
</event>
<event>
 6    1  0.1878398E-004  0.1835960E+04  0.7818608E-02  0.8687406E-01
         -2   -1    0    0    0  501 -0.00000000000E+00  0.00000000000E+00  0.26147212747E+03  0.26147212747E+03  0.00000000000E+00 0. -1.
          2   -1    0    0  501    0  0.00000000000E+00 -0.00000000000E+00 -0.32228585887E+04  0.32228585887E+04  0.00000000000E+00 0.  1.
         23    2    1    2    0    0 -0.70318452080E+03  0.41034218458E+03 -0.68913563095E+03  0.10706254702E+04  0.92096692917E+02 0.  0.
         13    1    3    3    0    0 -0.57432529821E+03  0.35158356242E+03 -0.52520641962E+03  0.85399199806E+03  0.00000000000E+00 0. -1.
        -13    1    3    3    0    0 -0.12885922259E+03  0.58758622154E+02 -0.16392921133E+03  0.21663347214E+03  0.00000000000E+00 0.  1.
         22    1    1    2    0    0  0.70318452080E+03 -0.41034218458E+03 -0.22722508302E+04  0.24137052459E+04  0.00000000000E+00 0.  1.
<mgrwt>
<rscale>  0 0.18359604E+04</rscale>
<asrwt>0</asrwt>
<pdfrwt beam="1">  1        2 0.49582442E+00 0.18359604E+04</pdfrwt>
<pdfrwt beam="2">  1       -2 0.40226480E-01 0.18359604E+04</pdfrwt>
<totfact> 0.69340217E+00</totfact>
</mgrwt>
</event>
<event>
 6    1  0.1878398E-004  0.2255623E+04  0.7818608E-02  0.8495627E-01
         -2   -1    0    0    0  501 -0.00000000000E+00  0.00000000000E+00  0.24036937273E+04  0.24036937273E+04  0.00000000000E+00 0. -1.
          2   -1    0    0  501    0  0.00000000000E+00 -0.00000000000E+00 -0.52916843094E+03  0.52916843094E+03  0.00000000000E+00 0.  1.
         23    2    1    2    0    0  0.10435428536E+04 -0.41330421803E+03  0.10568022478E+04  0.15441674300E+04  0.88430748325E+02 0.  0.
         13    1    3    3    0    0  0.58589855659E+03 -0.27458055023E+03  0.58203950385E+03  0.87031119792E+03  0.00000000000E+00 0. -1.
        -13    1    3    3    0    0  0.45764429700E+03 -0.13872366780E+03  0.47476274390E+03  0.67385623213E+03  0.00000000000E+00 0.  1.
         22    1    1    2    0    0 -0.10435428536E+04  0.41330421803E+03  0.81772304862E+03  0.13886947282E+04  0.00000000000E+00 0.  1.
<mgrwt>
<rscale>  0 0.22556231E+04</rscale>
<asrwt>0</asrwt>
<pdfrwt beam="1">  1        2 0.81410529E-01 0.22556231E+04</pdfrwt>
<pdfrwt beam="2">  1       -2 0.36979903E+00 0.22556231E+04</pdfrwt>
<totfact> 0.61136116E-01</totfact>
</mgrwt>
</event>
<event>
 6    1  0.1878398E-004  0.3680228E+04  0.7818608E-02  0.8072358E-01
         -2   -1    0    0    0  501 -0.00000000000E+00  0.00000000000E+00  0.98599642487E+03  0.98599642487E+03  0.00000000000E+00 0. -1.
          2   -1    0    0  501    0  0.00000000000E+00 -0.00000000000E+00 -0.34341096423E+04  0.34341096423E+04  0.00000000000E+00 0.  1.
         23    2    1    2    0    0 -0.22964752135E+03 -0.14068281723E+04 -0.26202541596E+04  0.29843010685E+04  0.91747021011E+02 0.  0.
         13    1    3    3    0    0 -0.10566550725E+02 -0.25866729698E+03 -0.44144126331E+03  0.51175268585E+03  0.00000000000E+00 0. -1.
        -13    1    3    3    0    0 -0.21908097063E+03 -0.11481608753E+04 -0.21788128963E+04  0.24725483826E+04  0.00000000000E+00 0.  1.
         22    1    1    2    0    0  0.22964752135E+03  0.14068281723E+04  0.17214094216E+03  0.14358049987E+04  0.00000000000E+00 0. -1.
<mgrwt>
<rscale>  0 0.36802282E+04</rscale>
<asrwt>0</asrwt>
<pdfrwt beam="1">  1        2 0.52832456E+00 0.36802282E+04</pdfrwt>
<pdfrwt beam="2">  1       -2 0.15169176E+00 0.36802282E+04</pdfrwt>
<totfact> 0.21238960E-01</totfact>
</mgrwt>
</event>
<event>
 6    1  0.1878398E-004  0.2651601E+04  0.7818608E-02  0.8350882E-01
         -1   -1    0    0    0  501 -0.00000000000E+00  0.00000000000E+00  0.63061253618E+03  0.63061253618E+03  0.00000000000E+00 0.  1.
          1   -1    0    0  501    0  0.00000000000E+00 -0.00000000000E+00 -0.27873641313E+04  0.27873641313E+04  0.00000000000E+00 0. -1.
         23    2    1    2    0    0 -0.64464116677E+03  0.23431969781E+03  0.38040910970E+03  0.78973535498E+03  0.92211091924E+02 0.  0.
         13    1    3    3    0    0 -0.22948988495E+03  0.12941173595E+03  0.13171674366E+03  0.29455441815E+03  0.00000000000E+00 0.  1.
        -13    1    3    3    0    0 -0.41515128183E+03  0.10490796187E+03  0.24869236604E+03  0.49518093682E+03  0.00000000000E+00 0. -1.
         22    1    1    2    0    0  0.64464116677E+03 -0.23431969781E+03 -0.25371607048E+04  0.26282413125E+04  0.00000000000E+00 0. -1.
<mgrwt>
<rscale>  0 0.26516008E+04</rscale>
<asrwt>0</asrwt>
<pdfrwt beam="1">  1        1 0.42882524E+00 0.26516008E+04</pdfrwt>
<pdfrwt beam="2">  1       -1 0.97017315E-01 0.26516008E+04</pdfrwt>
<totfact> 0.76149256E-01</totfact>
</mgrwt>
</event>
<event>
 6    1  0.1878398E-004  0.5359977E+04  0.7818608E-02  0.7775256E-01
          2   -1    0    0  501    0  0.00000000000E+00  0.00000000000E+00  0.34270330212E+04  0.34270330212E+04  0.00000000000E+00 0.  1.
         -2   -1    0    0    0  501 -0.00000000000E+00 -0.00000000000E+00 -0.20957893501E+04  0.20957893501E+04  0.00000000000E+00 0. -1.
         23    2    1    2    0    0  0.62196326718E+02 -0.21419383569E+04 -0.99147643256E+03  0.23626329802E+04  0.85092745015E+02 0.  0.
         13    1    3    3    0    0  0.74449672941E+02 -0.14480045272E+04 -0.69592861377E+03  0.16082837125E+04  0.00000000000E+00 0.  1.
        -13    1    3    3    0    0 -0.12253346222E+02 -0.69393382968E+03 -0.29554781879E+03  0.75434926769E+03  0.00000000000E+00 0. -1.
         22    1    1    2    0    0 -0.62196326718E+02  0.21419383569E+04  0.23227201037E+04  0.31601893911E+04  0.00000000000E+00 0. -1.
<mgrwt>
<rscale>  0 0.53599774E+04</rscale>
<asrwt>0</asrwt>
<pdfrwt beam="1">  1        2 0.52723585E+00 0.53599774E+04</pdfrwt>
<pdfrwt beam="2">  1       -2 0.32242913E+00 0.53599774E+04</pdfrwt>
<totfact> 0.14925828E-02</totfact>
</mgrwt>
</event>
<event>
 6    1  0.1878398E-004  0.3260705E+04  0.7818608E-02  0.8172967E-01
         -2   -1    0    0    0  501 -0.00000000000E+00  0.00000000000E+00  0.10155059598E+04  0.10155059598E+04  0.00000000000E+00 0. -1.
          2   -1    0    0  501    0  0.00000000000E+00 -0.00000000000E+00 -0.26174628348E+04  0.26174628348E+04  0.00000000000E+00 0.  1.
         23    2    1    2    0    0  0.31473835066E+03 -0.11657986901E+04 -0.20199456254E+04  0.23551341375E+04  0.91266976683E+02 0.  0.
         13    1    3    3    0    0  0.26376626246E+03 -0.92881980761E+03 -0.16784267140E+04  0.19363354850E+04  0.00000000000E+00 0.  1.
        -13    1    3    3    0    0  0.50972088192E+02 -0.23697888253E+03 -0.34151891140E+03  0.41879865256E+03  0.00000000000E+00 0. -1.
         22    1    1    2    0    0 -0.31473835066E+03  0.11657986901E+04  0.41798875033E+03  0.12778346570E+04  0.00000000000E+00 0. -1.
<mgrwt>
<rscale>  0 0.32607049E+04</rscale>
<asrwt>0</asrwt>
<pdfrwt beam="1">  1        2 0.40268659E+00 0.32607049E+04</pdfrwt>
<pdfrwt beam="2">  1       -2 0.15623169E+00 0.32607049E+04</pdfrwt>
<totfact> 0.66900142E-01</totfact>
</mgrwt>
</event>
<event>
 6    1  0.1878398E-004  0.6707012E+04  0.7818608E-02  0.7608430E-01
          2   -1    0    0  501    0  0.00000000000E+00  0.00000000000E+00  0.20924191304E+04  0.20924191304E+04  0.00000000000E+00 0.  1.
         -2   -1    0    0    0  501 -0.00000000000E+00 -0.00000000000E+00 -0.53746414266E+04  0.53746414266E+04  0.00000000000E+00 0. -1.
         23    2    1    2    0    0 -0.19731760639E+04 -0.58224700550E+03 -0.45890224123E+04  0.50298158221E+04  0.86516755801E+02 0.  0.
         13    1    3    3    0    0 -0.14750672184E+04 -0.47381858427E+03 -0.34653565028E+04  0.37959218960E+04  0.00000000000E+00 0. -1.
        -13    1    3    3    0    0 -0.49810884553E+03 -0.10842842124E+03 -0.11236659095E+04  0.12338939260E+04  0.00000000000E+00 0.  1.
         22    1    1    2    0    0  0.19731760639E+04  0.58224700550E+03  0.13068001161E+04  0.24372447350E+04  0.00000000000E+00 0.  1.
<mgrwt>
<rscale>  0 0.67070120E+04</rscale>
<asrwt>0</asrwt>
<pdfrwt beam="1">  1        2 0.32191064E+00 0.67070120E+04</pdfrwt>
<pdfrwt beam="2">  1       -2 0.82686791E+00 0.67070120E+04</pdfrwt>
<totfact> 0.19288409E-04</totfact>
</mgrwt>
</event>
<event>
 6    1  0.1878398E-004  0.1481530E+04  0.7818608E-02  0.8896829E-01
         -2   -1    0    0    0  501 -0.00000000000E+00  0.00000000000E+00  0.31622936594E+03  0.31622936594E+03  0.00000000000E+00 0. -1.
          2   -1    0    0  501    0  0.00000000000E+00 -0.00000000000E+00 -0.17352369397E+04  0.17352369397E+04  0.00000000000E+00 0.  1.
         23    2    1    2    0    0 -0.63578186120E+03 -0.14909680718E+03 -0.11880814663E+04  0.13588081648E+04  0.91507515352E+02 0.  0.
         11    1    3    3    0    0 -0.25490875153E+03 -0.16351747109E+02 -0.43187870433E+03  0.50176196198E+03  0.00000000000E+00 0. -1.
        -11    1    3    3    0    0 -0.38087310967E+03 -0.13274506007E+03 -0.75620276195E+03  0.85704620285E+03  0.00000000000E+00 0.  1.
         22    1    1    2    0    0  0.63578186120E+03  0.14909680718E+03 -0.23092610751E+03  0.69265814084E+03  0.00000000000E+00 0.  1.
<mgrwt>
<rscale>  0 0.14815301E+04</rscale>
<asrwt>0</asrwt>
<pdfrwt beam="1">  1        2 0.26695953E+00 0.14815301E+04</pdfrwt>
<pdfrwt beam="2">  1       -2 0.48650671E-01 0.14815301E+04</pdfrwt>
<totfact> 0.36286202E+01</totfact>
</mgrwt>
</event>
<event>
 6    1  0.1878398E-004  0.1743134E+04  0.7818608E-02  0.8737139E-01
         -2   -1    0    0    0  501 -0.00000000000E+00  0.00000000000E+00  0.53792291242E+03  0.53792291242E+03  0.00000000000E+00 0. -1.
          2   -1    0    0  501    0  0.00000000000E+00 -0.00000000000E+00 -0.14121524389E+04  0.14121524389E+04  0.00000000000E+00 0.  1.
         23    2    1    2    0    0 -0.36048813475E+03 -0.54448563368E+03  0.20328257528E+03  0.69013542021E+03  0.92448862792E+02 0.  0.
         11    1    3    3    0    0 -0.11925874980E+02 -0.12245145072E+02  0.23393896936E+02  0.28973168376E+02  0.00000000000E+00 0.  1.
        -11    1    3    3    0    0 -0.34856225977E+03 -0.53224048861E+03  0.17988867834E+03  0.66116225183E+03  0.00000000000E+00 0. -1.
         22    1    1    2    0    0  0.36048813475E+03  0.54448563368E+03 -0.10775121017E+04  0.12599399311E+04  0.00000000000E+00 0.  1.
<mgrwt>
<rscale>  0 0.17431341E+04</rscale>
<asrwt>0</asrwt>
<pdfrwt beam="1">  1        2 0.21725422E+00 0.17431341E+04</pdfrwt>
<pdfrwt beam="2">  1       -2 0.82757372E-01 0.17431341E+04</pdfrwt>
<totfact> 0.17292467E+01</totfact>
</mgrwt>
</event>
<event>
 6    1  0.1878398E-004  0.1997342E+04  0.7818608E-02  0.8607864E-01
         -1   -1    0    0    0  501 -0.00000000000E+00  0.00000000000E+00  0.72852605488E+03  0.72852605488E+03  0.00000000000E+00 0.  1.
          1   -1    0    0  501    0  0.00000000000E+00 -0.00000000000E+00 -0.13689888623E+04  0.13689888623E+04  0.00000000000E+00 0. -1.
         23    2    1    2    0    0 -0.95111210250E+03  0.11914471006E+02 -0.88675468164E+01  0.95573176818E+03  0.92673584008E+02 0.  0.
         13    1    3    3    0    0 -0.76061904112E+03  0.42660409299E+02  0.97548862266E+01  0.76187688903E+03  0.00000000000E+00 0. -1.
        -13    1    3    3    0    0 -0.19049306138E+03 -0.30745938293E+02 -0.18622433043E+02  0.19385487914E+03  0.00000000000E+00 0.  1.
         22    1    1    2    0    0  0.95111210250E+03 -0.11914471006E+02 -0.63159526063E+03  0.11417831490E+04  0.00000000000E+00 0. -1.
<mgrwt>
<rscale>  0 0.19973423E+04</rscale>
<asrwt>0</asrwt>
<pdfrwt beam="1">  1        1 0.21061367E+00 0.19973423E+04</pdfrwt>
<pdfrwt beam="2">  1       -1 0.11208093E+00 0.19973423E+04</pdfrwt>
<totfact> 0.54723504E+00</totfact>
</mgrwt>
</event>
<event>
 6    1  0.1878398E-004  0.6959689E+03  0.7818608E-02  0.9724151E-01
         -2   -1    0    0    0  501 -0.00000000000E+00  0.00000000000E+00  0.18857602676E+03  0.18857602676E+03  0.00000000000E+00 0. -1.
          2   -1    0    0  501    0  0.00000000000E+00 -0.00000000000E+00 -0.64214510515E+03  0.64214510515E+03  0.00000000000E+00 0.  1.
         23    2    1    2    0    0 -0.27997223982E+03 -0.17795258610E+03 -0.33013038148E+03  0.47675970764E+03  0.90896491056E+02 0.  0.
         13    1    3    3    0    0 -0.20019016649E+03 -0.75633126316E+02 -0.21371580543E+03  0.30244159443E+03  0.00000000000E+00 0. -1.
        -13    1    3    3    0    0 -0.79782073338E+02 -0.10231945978E+03 -0.11641457605E+03  0.17431811321E+03  0.00000000000E+00 0.  1.
         22    1    1    2    0    0  0.27997223982E+03  0.17795258610E+03 -0.12343869692E+03  0.35396142426E+03  0.00000000000E+00 0.  1.
<mgrwt>
<rscale>  0 0.69596889E+03</rscale>
<asrwt>0</asrwt>
<pdfrwt beam="1">  1        2 0.98791556E-01 0.69596889E+03</pdfrwt>
<pdfrwt beam="2">  1       -2 0.29011696E-01 0.69596889E+03</pdfrwt>
<totfact> 0.50108587E+02</totfact>
</mgrwt>
</event>
<event>
 6    1  0.1878398E-004  0.2896040E+04  0.7818608E-02  0.8274057E-01
         -2   -1    0    0    0  501 -0.00000000000E+00  0.00000000000E+00  0.95951359839E+03  0.95951359839E+03  0.00000000000E+00 0. -1.
          2   -1    0    0  501    0  0.00000000000E+00 -0.00000000000E+00 -0.21852339550E+04  0.21852339550E+04  0.00000000000E+00 0.  1.
         23    2    1    2    0    0  0.66189326495E+03  0.60383555020E+03 -0.18467561896E+04  0.20546073919E+04  0.90460186059E+02 0.  0.
         13    1    3    3    0    0  0.48674734291E+03  0.41054956331E+03 -0.12328016428E+04  0.13875423634E+04  0.00000000000E+00 0.  1.
        -13    1    3    3    0    0  0.17514592204E+03  0.19328598689E+03 -0.61395454680E+03  0.66706502852E+03  0.00000000000E+00 0. -1.
         22    1    1    2    0    0 -0.66189326495E+03 -0.60383555020E+03  0.62103583295E+03  0.10901401615E+04  0.00000000000E+00 0. -1.
<mgrwt>
<rscale>  0 0.28960398E+04</rscale>
<asrwt>0</asrwt>
<pdfrwt beam="1">  1        2 0.33618984E+00 0.28960398E+04</pdfrwt>
<pdfrwt beam="2">  1       -2 0.14761748E+00 0.28960398E+04</pdfrwt>
<totfact> 0.14204628E+00</totfact>
</mgrwt>
</event>
<event>
 6    1  0.1878398E-004  0.2372104E+04  0.7818608E-02  0.8450022E-01
          2   -1    0    0  501    0  0.00000000000E+00  0.00000000000E+00  0.19501147082E+04  0.19501147082E+04  0.00000000000E+00 0.  1.
         -2   -1    0    0    0  501 -0.00000000000E+00 -0.00000000000E+00 -0.72135180284E+03  0.72135180284E+03  0.00000000000E+00 0. -1.
         23    2    1    2    0    0 -0.51431323511E+03  0.88177885056E+03  0.12908494940E+04  0.16487706669E+04  0.10050000452E+03 0.  0.
         11    1    3    3    0    0 -0.34027433104E+03  0.54787798639E+03  0.88606737993E+03  0.10959344461E+04  0.00000000000E+00 0. -1.
        -11    1    3    3    0    0 -0.17403890407E+03  0.33390086417E+03  0.40478211406E+03  0.55283622085E+03  0.00000000000E+00 0.  1.
         22    1    1    2    0    0  0.51431323511E+03 -0.88177885056E+03 -0.62086588614E+02  0.10226958441E+04  0.00000000000E+00 0. -1.
<mgrwt>
<rscale>  0 0.23721035E+04</rscale>
<asrwt>0</asrwt>
<pdfrwt beam="1">  1        2 0.30001765E+00 0.23721035E+04</pdfrwt>
<pdfrwt beam="2">  1       -2 0.11097720E+00 0.23721035E+04</pdfrwt>
<totfact> 0.41278010E+00</totfact>
</mgrwt>
</event>
<event>
 6    1  0.1878398E-004  0.1566678E+04  0.7818608E-02  0.8841285E-01
         -2   -1    0    0    0  501 -0.00000000000E+00  0.00000000000E+00  0.32488683630E+03  0.32488683630E+03  0.00000000000E+00 0. -1.
          2   -1    0    0  501    0  0.00000000000E+00 -0.00000000000E+00 -0.18887187978E+04  0.18887187978E+04  0.00000000000E+00 0.  1.
         23    2    1    2    0    0 -0.97330081066E+02  0.54707986930E+03 -0.15591895246E+04  0.16579159003E+04  0.94040580060E+02 0.  0.
         13    1    3    3    0    0  0.12106683281E+02  0.16945288107E+03 -0.43825813053E+03  0.47003301975E+03  0.00000000000E+00 0. -1.
        -13    1    3    3    0    0 -0.10943676435E+03  0.37762698823E+03 -0.11209313941E+04  0.11878828806E+04  0.00000000000E+00 0.  1.
         22    1    1    2    0    0  0.97330081066E+02 -0.54707986930E+03 -0.46424369088E+01  0.55568973384E+03  0.00000000000E+00 0. -1.
<mgrwt>
<rscale>  0 0.15666779E+04</rscale>
<asrwt>0</asrwt>
<pdfrwt beam="1">  1        2 0.29057212E+00 0.15666779E+04</pdfrwt>
<pdfrwt beam="2">  1       -2 0.49982591E-01 0.15666779E+04</pdfrwt>
<totfact> 0.28048197E+01</totfact>
</mgrwt>
</event>
<event>
 6    1  0.1878398E-004  0.2031573E+04  0.7818608E-02  0.8592000E-01
          1   -1    0    0  501    0  0.00000000000E+00  0.00000000000E+00  0.15437974190E+04  0.15437974190E+04  0.00000000000E+00 0.  1.
         -1   -1    0    0    0  501 -0.00000000000E+00 -0.00000000000E+00 -0.66836627721E+03  0.66836627721E+03  0.00000000000E+00 0. -1.
         23    2    1    2    0    0 -0.10129457542E+04 -0.19111033558E+02  0.39966082722E+03  0.10928863737E+04  0.90815837937E+02 0.  0.
         13    1    3    3    0    0 -0.74292539648E+03  0.24958007323E+02  0.28132954672E+03  0.79480020176E+03  0.00000000000E+00 0.  1.
        -13    1    3    3    0    0 -0.27002035771E+03 -0.44069040880E+02  0.11833128050E+03  0.29808617192E+03  0.00000000000E+00 0. -1.
         22    1    1    2    0    0  0.10129457542E+04  0.19111033558E+02  0.47577031459E+03  0.11192773226E+04  0.00000000000E+00 0.  1.
<mgrwt>
<rscale>  0 0.20315729E+04</rscale>
<asrwt>0</asrwt>
<pdfrwt beam="1">  1        1 0.23750729E+00 0.20315729E+04</pdfrwt>
<pdfrwt beam="2">  1       -1 0.10282558E+00 0.20315729E+04</pdfrwt>
<totfact> 0.50441948E+00</totfact>
</mgrwt>
</event>
<event>
 6    1  0.1878398E-004  0.3610846E+04  0.7818608E-02  0.8088012E-01
          2   -1    0    0  501    0  0.00000000000E+00  0.00000000000E+00  0.24896600166E+04  0.24896600166E+04  0.00000000000E+00 0.  1.
         -2   -1    0    0    0  501 -0.00000000000E+00 -0.00000000000E+00 -0.13092361273E+04  0.13092361273E+04  0.00000000000E+00 0. -1.
         23    2    1    2    0    0 -0.37096027930E+03  0.16900498918E+04  0.11285345122E+04  0.20678350032E+04  0.92039609201E+02 0.  0.
         13    1    3    3    0    0 -0.19274511236E+03  0.66774887276E+03  0.45349213135E+03  0.82987610438E+03  0.00000000000E+00 0. -1.
        -13    1    3    3    0    0 -0.17821516694E+03  0.10223010190E+04  0.67504238083E+03  0.12379588988E+04  0.00000000000E+00 0.  1.
         22    1    1    2    0    0  0.37096027930E+03 -0.16900498918E+04  0.51889377085E+02  0.17310611407E+04  0.00000000000E+00 0. -1.
<mgrwt>
<rscale>  0 0.36108463E+04</rscale>
<asrwt>0</asrwt>
<pdfrwt beam="1">  1        2 0.38302462E+00 0.36108463E+04</pdfrwt>
<pdfrwt beam="2">  1       -2 0.20142094E+00 0.36108463E+04</pdfrwt>
<totfact> 0.37410790E-01</totfact>
</mgrwt>
</event>
<event>
 6    1  0.1878398E-004  0.2780807E+04  0.7818608E-02  0.8309252E-01
          2   -1    0    0  501    0  0.00000000000E+00  0.00000000000E+00  0.14947503804E+04  0.14947503804E+04  0.00000000000E+00 0.  1.
         -2   -1    0    0    0  501 -0.00000000000E+00 -0.00000000000E+00 -0.12933406020E+04  0.12933406020E+04  0.00000000000E+00 0. -1.
         23    2    1    2    0    0 -0.12538600456E+04  0.54744015009E+03 -0.13924825556E+03  0.13781606196E+04  0.89893742427E+02 0.  0.
         11    1    3    3    0    0 -0.51219770026E+03  0.27019179397E+03 -0.71148976546E+02  0.58344859803E+03  0.00000000000E+00 0.  1.
        -11    1    3    3    0    0 -0.74166234532E+03  0.27724835612E+03 -0.68099279012E+02  0.79471202158E+03  0.00000000000E+00 0. -1.
         22    1    1    2    0    0  0.12538600456E+04 -0.54744015009E+03  0.34065803393E+03  0.14099303628E+04  0.00000000000E+00 0. -1.
<mgrwt>
<rscale>  0 0.27808066E+04</rscale>
<asrwt>0</asrwt>
<pdfrwt beam="1">  1        2 0.22996160E+00 0.27808066E+04</pdfrwt>
<pdfrwt beam="2">  1       -2 0.19897548E+00 0.27808066E+04</pdfrwt>
<totfact> 0.15047996E+00</totfact>
</mgrwt>
</event>
<event>
 6    1  0.1878398E-004  0.2136136E+04  0.7818608E-02  0.8545490E-01
          1   -1    0    0  501    0  0.00000000000E+00  0.00000000000E+00  0.21123911285E+04  0.21123911285E+04  0.00000000000E+00 0.  1.
         -1   -1    0    0    0  501 -0.00000000000E+00 -0.00000000000E+00 -0.54003688929E+03  0.54003688929E+03  0.00000000000E+00 0. -1.
         23    2    1    2    0    0 -0.35733662052E+03 -0.51147805004E+03 -0.28578585509E+03  0.69233009522E+03  0.91368209649E+02 0.  0.
         11    1    3    3    0    0 -0.28547692074E+03 -0.35139172288E+03 -0.17850726582E+03  0.48666010637E+03  0.00000000000E+00 0.  1.
        -11    1    3    3    0    0 -0.71859699787E+02 -0.16008632716E+03 -0.10727858926E+03  0.20566998885E+03  0.00000000000E+00 0. -1.
         22    1    1    2    0    0  0.35733662052E+03  0.51147805004E+03  0.18581400942E+04  0.19600979225E+04  0.00000000000E+00 0.  1.
<mgrwt>
<rscale>  0 0.21361359E+04</rscale>
<asrwt>0</asrwt>
<pdfrwt beam="1">  1        1 0.32498325E+00 0.21361359E+04</pdfrwt>
<pdfrwt beam="2">  1       -1 0.83082599E-01 0.21361359E+04</pdfrwt>
<totfact> 0.32957027E+00</totfact>
</mgrwt>
</event>
<event>
 6    1  0.1878398E-004  0.2455498E+04  0.7818608E-02  0.8419013E-01
          1   -1    0    0  501    0  0.00000000000E+00  0.00000000000E+00  0.18964944377E+04  0.18964944377E+04  0.00000000000E+00 0.  1.
         -1   -1    0    0    0  501 -0.00000000000E+00 -0.00000000000E+00 -0.79481761592E+03  0.79481761592E+03  0.00000000000E+00 0. -1.
         23    2    1    2    0    0 -0.28550266586E+03  0.11903689589E+04  0.62863653732E+03  0.13789641039E+04  0.88702160305E+02 0.  0.
         13    1    3    3    0    0 -0.10578294328E+03  0.55895880133E+03  0.33085026189E+03  0.65809335847E+03  0.00000000000E+00 0. -1.
        -13    1    3    3    0    0 -0.17971972259E+03  0.63141015755E+03  0.29778627543E+03  0.72087074541E+03  0.00000000000E+00 0.  1.
         22    1    1    2    0    0  0.28550266586E+03 -0.11903689589E+04  0.47304028449E+03  0.13123479498E+04  0.00000000000E+00 0. -1.
<mgrwt>
<rscale>  0 0.24554977E+04</rscale>
<asrwt>0</asrwt>
<pdfrwt beam="1">  1        1 0.29176837E+00 0.24554977E+04</pdfrwt>
<pdfrwt beam="2">  1       -1 0.12227963E+00 0.24554977E+04</pdfrwt>
<totfact> 0.18463555E+00</totfact>
</mgrwt>
</event>
<event>
 6    1  0.1878398E-004  0.1072193E+04  0.7818608E-02  0.9232726E-01
          1   -1    0    0  501    0  0.00000000000E+00  0.00000000000E+00  0.17360263006E+04  0.17360263006E+04  0.00000000000E+00 0.  1.
         -1   -1    0    0    0  501 -0.00000000000E+00 -0.00000000000E+00 -0.16555018741E+03  0.16555018741E+03  0.00000000000E+00 0. -1.
         23    2    1    2    0    0  0.48321269627E+03 -0.17079985008E+03  0.53652020294E+03  0.74756958900E+03  0.91319568586E+02 0.  0.
         11    1    3    3    0    0  0.31083664947E+03 -0.77471871946E+02  0.28569729498E+03  0.42923683201E+03  0.00000000000E+00 0. -1.
        -11    1    3    3    0    0  0.17237604680E+03 -0.93327978129E+02  0.25082290796E+03  0.31833275699E+03  0.00000000000E+00 0.  1.
         22    1    1    2    0    0 -0.48321269627E+03  0.17079985008E+03  0.10339559102E+04  0.11540068990E+04  0.00000000000E+00 0.  1.
<mgrwt>
<rscale>  0 0.10721930E+04</rscale>
<asrwt>0</asrwt>
<pdfrwt beam="1">  1        1 0.26708096E+00 0.10721930E+04</pdfrwt>
<pdfrwt beam="2">  1       -1 0.25469261E-01 0.10721930E+04</pdfrwt>
<totfact> 0.61057652E+01</totfact>
</mgrwt>
</event>
<event>
 6    1  0.1878398E-004  0.1239974E+04  0.7818608E-02  0.9078569E-01
         -2   -1    0    0    0  501 -0.00000000000E+00  0.00000000000E+00  0.56747248138E+03  0.56747248138E+03  0.00000000000E+00 0. -1.
          2   -1    0    0  501    0  0.00000000000E+00 -0.00000000000E+00 -0.67736116766E+03  0.67736116766E+03  0.00000000000E+00 0.  1.
         23    2    1    2    0    0 -0.22742825698E+03 -0.35714755206E+03  0.39504206332E+03  0.58587003251E+03  0.88923996694E+02 0.  0.
         13    1    3    3    0    0 -0.46038362469E+02 -0.15141333778E+03  0.15100933709E+03  0.21874494181E+03  0.00000000000E+00 0. -1.
        -13    1    3    3    0    0 -0.18138989451E+03 -0.20573421428E+03  0.24403272623E+03  0.36712509071E+03  0.00000000000E+00 0.  1.
         22    1    1    2    0    0  0.22742825698E+03  0.35714755206E+03 -0.50493074960E+03  0.65896361653E+03  0.00000000000E+00 0.  1.
<mgrwt>
<rscale>  0 0.12399739E+04</rscale>
<asrwt>0</asrwt>
<pdfrwt beam="1">  1        2 0.10420941E+00 0.12399739E+04</pdfrwt>
<pdfrwt beam="2">  1       -2 0.87303458E-01 0.12399739E+04</pdfrwt>
<totfact> 0.47662331E+01</totfact>
</mgrwt>
</event>
<event>
 6    1  0.1878398E-004  0.1605713E+04  0.7818608E-02  0.8817046E-01
          2   -1    0    0  501    0  0.00000000000E+00  0.00000000000E+00  0.13753548506E+04  0.13753548506E+04  0.00000000000E+00 0.  1.
         -2   -1    0    0    0  501 -0.00000000000E+00 -0.00000000000E+00 -0.46866358884E+03  0.46866358884E+03  0.00000000000E+00 0. -1.
         23    2    1    2    0    0 -0.41284048130E+03 -0.19571694298E+03 -0.29950276213E+03  0.55419426227E+03  0.93204029062E+02 0.  0.
         13    1    3    3    0    0 -0.29367663277E+03 -0.10398990449E+03 -0.16551068878E+03  0.35277989309E+03  0.00000000000E+00 0.  1.
        -13    1    3    3    0    0 -0.11916384853E+03 -0.91727038496E+02 -0.13399207335E+03  0.20141436917E+03  0.00000000000E+00 0. -1.
         22    1    1    2    0    0  0.41284048130E+03  0.19571694298E+03  0.12061940239E+04  0.12898241772E+04  0.00000000000E+00 0. -1.
<mgrwt>
<rscale>  0 0.16057132E+04</rscale>
<asrwt>0</asrwt>
<pdfrwt beam="1">  1        2 0.21159305E+00 0.16057132E+04</pdfrwt>
<pdfrwt beam="2">  1       -2 0.72102091E-01 0.16057132E+04</pdfrwt>
<totfact> 0.24963755E+01</totfact>
</mgrwt>
</event>
<event>
 6    1  0.1878398E-004  0.1237178E+04  0.7818608E-02  0.9080923E-01
         -2   -1    0    0    0  501 -0.00000000000E+00  0.00000000000E+00  0.10051411116E+03  0.10051411116E+03  0.00000000000E+00 0. -1.
          2   -1    0    0  501    0  0.00000000000E+00 -0.00000000000E+00 -0.38069511278E+04  0.38069511278E+04  0.00000000000E+00 0.  1.
         23    2    1    2    0    0  0.19996161942E+03 -0.55499888893E+03 -0.24165619647E+04  0.24890907942E+04  0.88277044171E+02 0.  0.
         13    1    3    3    0    0  0.17503193562E+03 -0.44317891281E+03 -0.20679706165E+04  0.21221560258E+04  0.00000000000E+00 0. -1.
        -13    1    3    3    0    0  0.24929683797E+02 -0.11181997612E+03 -0.34859134826E+03  0.36693476842E+03  0.00000000000E+00 0.  1.
         22    1    1    2    0    0 -0.19996161942E+03  0.55499888893E+03 -0.12898750519E+04  0.14183744447E+04  0.00000000000E+00 0. -1.
<mgrwt>
<rscale>  0 0.12371779E+04</rscale>
<asrwt>0</asrwt>
<pdfrwt beam="1">  1        2 0.58568474E+00 0.12371779E+04</pdfrwt>
<pdfrwt beam="2">  1       -2 0.15463711E-01 0.12371779E+04</pdfrwt>
<totfact> 0.16440267E+01</totfact>
</mgrwt>
</event>
<event>
 6    1  0.1878398E-004  0.6776401E+03  0.7818608E-02  0.9756254E-01
          2   -1    0    0  501    0  0.00000000000E+00  0.00000000000E+00  0.92706382536E+03  0.92706382536E+03  0.00000000000E+00 0. -1.
         -2   -1    0    0    0  501 -0.00000000000E+00 -0.00000000000E+00 -0.12383077565E+03  0.12383077565E+03  0.00000000000E+00 0.  1.
         23    2    1    2    0    0  0.11824585991E+03 -0.29592792088E+03  0.27350399503E+03  0.43269698769E+03  0.10424408913E+03 0.  0.
         11    1    3    3    0    0  0.46591931766E+02 -0.20611661823E+03  0.22292073359E+03  0.30716204499E+03  0.00000000000E+00 0.  1.
        -11    1    3    3    0    0  0.71653928140E+02 -0.89811302650E+02  0.50583261435E+02  0.12553494270E+03  0.00000000000E+00 0. -1.
         22    1    1    2    0    0 -0.11824585991E+03  0.29592792088E+03  0.52972905469E+03  0.61819761332E+03  0.00000000000E+00 0. -1.
<mgrwt>
<rscale>  0 0.67764012E+03</rscale>
<asrwt>0</asrwt>
<pdfrwt beam="1">  1        2 0.14262520E+00 0.67764012E+03</pdfrwt>
<pdfrwt beam="2">  1       -2 0.19050889E-01 0.67764012E+03</pdfrwt>
<totfact> 0.65768626E+02</totfact>
</mgrwt>
</event>
<event>
 6    1  0.1878398E-004  0.2293505E+04  0.7818608E-02  0.8480486E-01
          2   -1    0    0  501    0  0.00000000000E+00  0.00000000000E+00  0.99490221666E+03  0.99490221666E+03  0.00000000000E+00 0.  1.
         -2   -1    0    0    0  501 -0.00000000000E+00 -0.00000000000E+00 -0.13217796375E+04  0.13217796375E+04  0.00000000000E+00 0. -1.
         23    2    1    2    0    0  0.29511783461E+03 -0.48246821792E+03  0.84170791006E+03  0.10184284917E+04  0.94097126464E+02 0.  0.
         13    1    3    3    0    0  0.18837893789E+03 -0.31025705027E+03  0.45676050372E+03  0.58341770563E+03  0.00000000000E+00 0.  1.
        -13    1    3    3    0    0  0.10673889672E+03 -0.17221116764E+03  0.38494740634E+03  0.43501078605E+03  0.00000000000E+00 0. -1.
         22    1    1    2    0    0 -0.29511783461E+03  0.48246821792E+03 -0.11685853309E+04  0.12982533625E+04  0.00000000000E+00 0. -1.
<mgrwt>
<rscale>  0 0.22935052E+04</rscale>
<asrwt>0</asrwt>
<pdfrwt beam="1">  1        2 0.15306188E+00 0.22935052E+04</pdfrwt>
<pdfrwt beam="2">  1       -2 0.20335071E+00 0.22935052E+04</pdfrwt>
<totfact> 0.29103875E+00</totfact>
</mgrwt>
</event>
<event>
 6    1  0.1878398E-004  0.1972961E+04  0.7818608E-02  0.8619368E-01
         -2   -1    0    0    0  501 -0.00000000000E+00  0.00000000000E+00  0.48792674688E+03  0.48792674688E+03  0.00000000000E+00 0. -1.
          2   -1    0    0  501    0  0.00000000000E+00 -0.00000000000E+00 -0.19944458478E+04  0.19944458478E+04  0.00000000000E+00 0.  1.
         23    2    1    2    0    0 -0.61075520791E+03 -0.51863193005E+03 -0.35451667304E+02  0.80724860013E+03  0.91610473432E+02 0.  0.
         13    1    3    3    0    0 -0.86757246555E+02 -0.38789507724E+02 -0.16716455869E+02  0.96492930499E+02  0.00000000000E+00 0.  1.
        -13    1    3    3    0    0 -0.52399796136E+03 -0.47984242233E+03 -0.18735211435E+02  0.71075566964E+03  0.00000000000E+00 0. -1.
         22    1    1    2    0    0  0.61075520791E+03  0.51863193005E+03 -0.14710674336E+04  0.16751239946E+04  0.00000000000E+00 0.  1.
<mgrwt>
<rscale>  0 0.19729607E+04</rscale>
<asrwt>0</asrwt>
<pdfrwt beam="1">  1        2 0.30683782E+00 0.19729607E+04</pdfrwt>
<pdfrwt beam="2">  1       -2 0.75065654E-01 0.19729607E+04</pdfrwt>
<totfact> 0.99842046E+00</totfact>
</mgrwt>
</event>
<event>
 6    1  0.1878398E-004  0.1128538E+04  0.7818608E-02  0.9177815E-01
          2   -1    0    0  501    0  0.00000000000E+00  0.00000000000E+00  0.19370755832E+03  0.19370755832E+03  0.00000000000E+00 0.  1.
         -2   -1    0    0    0  501 -0.00000000000E+00 -0.00000000000E+00 -0.16437120682E+04  0.16437120682E+04  0.00000000000E+00 0. -1.
         23    2    1    2    0    0  0.21771077015E+02 -0.17434752105E+03 -0.15964981229E+04  0.16086590168E+04  0.90036315938E+02 0.  0.
         11    1    3    3    0    0  0.23292025226E+02 -0.18477804389E+03 -0.15359782401E+04  0.15472280368E+04  0.00000000000E+00 0.  1.
        -11    1    3    3    0    0 -0.15209482110E+01  0.10430522847E+02 -0.60519882795E+02  0.61430980000E+02  0.00000000000E+00 0. -1.
         22    1    1    2    0    0 -0.21771077015E+02  0.17434752105E+03  0.14649361301E+03  0.22876060968E+03  0.00000000000E+00 0.  1.
<mgrwt>
<rscale>  0 0.11285379E+04</rscale>
<asrwt>0</asrwt>
<pdfrwt beam="1">  1        2 0.29801162E-01 0.11285379E+04</pdfrwt>
<pdfrwt beam="2">  1       -2 0.25287879E+00 0.11285379E+04</pdfrwt>
<totfact> 0.11018861E+01</totfact>
</mgrwt>
</event>
<event>
 6    1  0.1878398E-004  0.2498292E+04  0.7818608E-02  0.8403594E-01
         -2   -1    0    0    0  501 -0.00000000000E+00  0.00000000000E+00  0.11130909658E+04  0.11130909658E+04  0.00000000000E+00 0. -1.
          2   -1    0    0  501    0  0.00000000000E+00 -0.00000000000E+00 -0.14018315251E+04  0.14018315251E+04  0.00000000000E+00 0.  1.
         23    2    1    2    0    0  0.10380217812E+04 -0.23894203316E+02 -0.84023760485E+03  0.13392485810E+04  0.97608288183E+02 0.  0.
         13    1    3    3    0    0  0.72254388002E+03 -0.56941154879E+02 -0.60958078530E+03  0.94704840820E+03  0.00000000000E+00 0.  1.
        -13    1    3    3    0    0  0.31547790119E+03  0.33046951564E+02 -0.23065681955E+03  0.39220017281E+03  0.00000000000E+00 0. -1.
         22    1    1    2    0    0 -0.10380217812E+04  0.23894203316E+02  0.55149704552E+03  0.11756739099E+04  0.00000000000E+00 0. -1.
<mgrwt>
<rscale>  0 0.24982922E+04</rscale>
<asrwt>0</asrwt>
<pdfrwt beam="1">  1        2 0.21566639E+00 0.24982922E+04</pdfrwt>
<pdfrwt beam="2">  1       -2 0.17124476E+00 0.24982922E+04</pdfrwt>
<totfact> 0.26894709E+00</totfact>
</mgrwt>
</event>
<event>
 6    1  0.1878398E-004  0.3912974E+04  0.7818608E-02  0.8022336E-01
         -1   -1    0    0    0  501 -0.00000000000E+00  0.00000000000E+00  0.17403431780E+04  0.17403431780E+04  0.00000000000E+00 0. -1.
          1   -1    0    0  501    0  0.00000000000E+00 -0.00000000000E+00 -0.21994752133E+04  0.21994752133E+04  0.00000000000E+00 0.  1.
         23    2    1    2    0    0 -0.39444830143E+03 -0.13544672392E+04 -0.15930630880E+04  0.21298541383E+04  0.90871797297E+02 0.  0.
         13    1    3    3    0    0 -0.18266036132E+03 -0.59594064131E+03 -0.63747621936E+03  0.89156378673E+03  0.00000000000E+00 0. -1.
        -13    1    3    3    0    0 -0.21178794012E+03 -0.75852659790E+03 -0.95558686867E+03  0.12382903516E+04  0.00000000000E+00 0.  1.
         22    1    1    2    0    0  0.39444830143E+03  0.13544672392E+04  0.11339310527E+04  0.18099642529E+04  0.00000000000E+00 0.  1.
<mgrwt>
<rscale>  0 0.39129742E+04</rscale>
<asrwt>0</asrwt>
<pdfrwt beam="1">  1        1 0.33838080E+00 0.39129742E+04</pdfrwt>
<pdfrwt beam="2">  1       -1 0.26774511E+00 0.39129742E+04</pdfrwt>
<totfact> 0.91847636E-02</totfact>
</mgrwt>
</event>
<event>
 6    1  0.1878398E-004  0.6659435E+03  0.7818608E-02  0.9777314E-01
          1   -1    0    0  501    0  0.00000000000E+00  0.00000000000E+00  0.11462590716E+04  0.11462590716E+04  0.00000000000E+00 0. -1.
         -1   -1    0    0    0  501 -0.00000000000E+00 -0.00000000000E+00 -0.96723494050E+02  0.96723494050E+02  0.00000000000E+00 0.  1.
         23    2    1    2    0    0  0.20680804798E+03  0.72285902321E+02  0.82222479174E+02  0.25117136856E+03  0.91278145914E+02 0.  0.
         13    1    3    3    0    0  0.11768212770E+03  0.52173267402E+02  0.93512808230E+02  0.15910932818E+03  0.00000000000E+00 0. -1.
        -13    1    3    3    0    0  0.89125920281E+02  0.20112634918E+02 -0.11290329056E+02  0.92062040383E+02  0.00000000000E+00 0.  1.
         22    1    1    2    0    0 -0.20680804798E+03 -0.72285902321E+02  0.96731309834E+03  0.99181119705E+03  0.00000000000E+00 0. -1.
<mgrwt>
<rscale>  0 0.66594349E+03</rscale>
<asrwt>0</asrwt>
<pdfrwt beam="1">  1        1 0.17634754E+00 0.66594349E+03</pdfrwt>
<pdfrwt beam="2">  1       -1 0.14880538E-01 0.66594349E+03</pdfrwt>
<totfact> 0.39633249E+02</totfact>
</mgrwt>
</event>
<event>
 6    1  0.1878398E-004  0.1063172E+04  0.7818608E-02  0.9241849E-01
          3   -1    0    0  501    0  0.00000000000E+00  0.00000000000E+00  0.27386731382E+03  0.27386731382E+03  0.00000000000E+00 0.  1.
         -3   -1    0    0    0  501 -0.00000000000E+00 -0.00000000000E+00 -0.10318279123E+04  0.10318279123E+04  0.00000000000E+00 0. -1.
         23    2    1    2    0    0 -0.34314503504E+03 -0.81824116640E+02  0.10086186838E+03  0.37724504938E+03  0.87732603118E+02 0.  0.
         13    1    3    3    0    0 -0.28274594069E+03 -0.39442039338E+02  0.10281582852E+03  0.30343374242E+03  0.00000000000E+00 0.  1.
        -13    1    3    3    0    0 -0.60399094350E+02 -0.42382077302E+02 -0.19539601404E+01  0.73811306959E+02  0.00000000000E+00 0. -1.
         22    1    1    2    0    0  0.34314503504E+03  0.81824116640E+02 -0.85882246686E+03  0.92845017676E+03  0.00000000000E+00 0. -1.
<mgrwt>
<rscale>  0 0.10631725E+04</rscale>
<asrwt>0</asrwt>
<pdfrwt beam="1">  1        3 0.42133433E-01 0.10631725E+04</pdfrwt>
<pdfrwt beam="2">  1       -3 0.15874275E+00 0.10631725E+04</pdfrwt>
<totfact> 0.40648209E+00</totfact>
</mgrwt>
</event>
<event>
 6    1  0.1878398E-004  0.4138059E+04  0.7818608E-02  0.7977260E-01
         -1   -1    0    0    0  501 -0.00000000000E+00  0.00000000000E+00  0.21933959590E+04  0.21933959590E+04  0.00000000000E+00 0. -1.
          1   -1    0    0  501    0  0.00000000000E+00 -0.00000000000E+00 -0.19517143012E+04  0.19517143012E+04  0.00000000000E+00 0.  1.
         23    2    1    2    0    0  0.12607395419E+04  0.93451620316E+03  0.14700216559E+04  0.21522219347E+04  0.91163924313E+02 0.  0.
         11    1    3    3    0    0  0.38899940576E+03  0.24320857630E+03  0.45689859593E+03  0.64747762605E+03  0.00000000000E+00 0. -1.
        -11    1    3    3    0    0  0.87174013612E+03  0.69130762687E+03  0.10131230600E+04  0.15047443087E+04  0.00000000000E+00 0.  1.
         22    1    1    2    0    0 -0.12607395419E+04 -0.93451620316E+03 -0.12283399981E+04  0.19928883254E+04  0.00000000000E+00 0.  1.
<mgrwt>
<rscale>  0 0.41380586E+04</rscale>
<asrwt>0</asrwt>
<pdfrwt beam="1">  1        1 0.30026374E+00 0.41380586E+04</pdfrwt>
<pdfrwt beam="2">  1       -1 0.33744553E+00 0.41380586E+04</pdfrwt>
<totfact> 0.46767420E-02</totfact>
</mgrwt>
</event>
<event>
 6    1  0.1878398E-004  0.8795165E+03  0.7818608E-02  0.9451555E-01
         -1   -1    0    0    0  501 -0.00000000000E+00  0.00000000000E+00  0.91871628375E+02  0.91871628375E+02  0.00000000000E+00 0. -1.
          1   -1    0    0  501    0  0.00000000000E+00 -0.00000000000E+00 -0.21049733438E+04  0.21049733438E+04  0.00000000000E+00 0.  1.
         23    2    1    2    0    0 -0.22180868202E+03  0.83196393554E+01 -0.19521073297E+04  0.19666523943E+04  0.87922155736E+02 0.  0.
         11    1    3    3    0    0 -0.11726267223E+03  0.35756544256E+02 -0.78041026954E+03  0.78998053999E+03  0.00000000000E+00 0. -1.
        -11    1    3    3    0    0 -0.10454600979E+03 -0.27436904901E+02 -0.11716970602E+04  0.11766718543E+04  0.00000000000E+00 0.  1.
         22    1    1    2    0    0  0.22180868202E+03 -0.83196393554E+01 -0.60994385708E+02  0.23019257787E+03  0.00000000000E+00 0. -1.
<mgrwt>
<rscale>  0 0.87951652E+03</rscale>
<asrwt>0</asrwt>
<pdfrwt beam="1">  1        1 0.32384204E+00 0.87951652E+03</pdfrwt>
<pdfrwt beam="2">  1       -1 0.14134097E-01 0.87951652E+03</pdfrwt>
<totfact> 0.93463002E+01</totfact>
</mgrwt>
</event>
<event>
 6    1  0.1878398E-004  0.3300901E+04  0.7818608E-02  0.8162666E-01
         -2   -1    0    0    0  501 -0.00000000000E+00  0.00000000000E+00  0.31551094234E+04  0.31551094234E+04  0.00000000000E+00 0. -1.
          2   -1    0    0  501    0  0.00000000000E+00 -0.00000000000E+00 -0.86335723627E+03  0.86335723627E+03  0.00000000000E+00 0.  1.
         23    2    1    2    0    0  0.21757589260E+03  0.47999891773E+03  0.30492653515E+04  0.30956641757E+04  0.85902705937E+02 0.  0.
         13    1    3    3    0    0  0.19094106252E+03  0.32768572084E+03  0.21905055720E+04  0.22230949332E+04  0.00000000000E+00 0.  1.
        -13    1    3    3    0    0  0.26634830082E+02  0.15231319688E+03  0.85875977953E+03  0.87256924256E+03  0.00000000000E+00 0. -1.
         22    1    1    2    0    0 -0.21757589260E+03 -0.47999891773E+03 -0.75751316441E+03  0.92280248391E+03  0.00000000000E+00 0.  1.
<mgrwt>
<rscale>  0 0.33009008E+04</rscale>
<asrwt>0</asrwt>
<pdfrwt beam="1">  1        2 0.13282419E+00 0.33009008E+04</pdfrwt>
<pdfrwt beam="2">  1       -2 0.48540144E+00 0.33009008E+04</pdfrwt>
<totfact> 0.52801773E-02</totfact>
</mgrwt>
</event>
<event>
 6    1  0.1878398E-004  0.9226870E+03  0.7818608E-02  0.9397658E-01
         -2   -1    0    0    0  501 -0.00000000000E+00  0.00000000000E+00  0.33898627700E+03  0.33898627700E+03  0.00000000000E+00 0. -1.
          2   -1    0    0  501    0  0.00000000000E+00 -0.00000000000E+00 -0.62786555664E+03  0.62786555664E+03  0.00000000000E+00 0.  1.
         23    2    1    2    0    0 -0.70619376635E+02  0.43157460244E+03 -0.28378567840E+03  0.52950794308E+03  0.92739509879E+02 0.  0.
         13    1    3    3    0    0 -0.52502493535E+02  0.24498290097E+03 -0.21390952291E+03  0.32943955074E+03  0.00000000000E+00 0.  1.
        -13    1    3    3    0    0 -0.18116883100E+02  0.18659170147E+03 -0.69876155490E+02  0.20006839235E+03  0.00000000000E+00 0. -1.
         22    1    1    2    0    0  0.70619376635E+02 -0.43157460244E+03 -0.50936012374E+01  0.43734389055E+03  0.00000000000E+00 0. -1.
<mgrwt>
<rscale>  0 0.92268696E+03</rscale>
<asrwt>0</asrwt>
<pdfrwt beam="1">  1        2 0.96594699E-01 0.92268696E+03</pdfrwt>
<pdfrwt beam="2">  1       -2 0.52151736E-01 0.92268696E+03</pdfrwt>
<totfact> 0.16327037E+02</totfact>
</mgrwt>
</event>
<event>
 6    1  0.1878398E-004  0.1154574E+04  0.7818608E-02  0.9153574E-01
          2   -1    0    0  501    0  0.00000000000E+00  0.00000000000E+00  0.10070908051E+04  0.10070908051E+04  0.00000000000E+00 0.  1.
         -2   -1    0    0    0  501 -0.00000000000E+00 -0.00000000000E+00 -0.33091378252E+03  0.33091378252E+03  0.00000000000E+00 0. -1.
         23    2    1    2    0    0  0.35917888390E+02 -0.56806073643E+03  0.42695563105E+03  0.71663964090E+03  0.85429321879E+02 0.  0.
         13    1    3    3    0    0 -0.31950018802E+00 -0.34120745979E+03  0.29900748178E+03  0.45368282627E+03  0.00000000000E+00 0.  1.
        -13    1    3    3    0    0  0.36237388578E+02 -0.22685327664E+03  0.12794814927E+03  0.26295681462E+03  0.00000000000E+00 0. -1.
         22    1    1    2    0    0 -0.35917888390E+02  0.56806073643E+03  0.24922139148E+03  0.62136494667E+03  0.00000000000E+00 0. -1.
<mgrwt>
<rscale>  0 0.11545739E+04</rscale>
<asrwt>0</asrwt>
<pdfrwt beam="1">  1        2 0.15493705E+00 0.11545739E+04</pdfrwt>
<pdfrwt beam="2">  1       -2 0.50909813E-01 0.11545739E+04</pdfrwt>
<totfact> 0.89946074E+01</totfact>
</mgrwt>
</event>
<event>
 6    1  0.1878398E-004  0.1500674E+04  0.7818608E-02  0.8884005E-01
         -2   -1    0    0    0  501 -0.00000000000E+00  0.00000000000E+00  0.53206627806E+03  0.53206627806E+03  0.00000000000E+00 0. -1.
          2   -1    0    0  501    0  0.00000000000E+00 -0.00000000000E+00 -0.10581490201E+04  0.10581490201E+04  0.00000000000E+00 0.  1.
         23    2    1    2    0    0  0.24100161878E+03 -0.24403138259E+03 -0.96810041669E+03  0.10307399005E+04  0.87024305791E+02 0.  0.
         11    1    3    3    0    0  0.44085096297E+02 -0.97513216258E+02 -0.33732442999E+03  0.35389277208E+03  0.00000000000E+00 0.  1.
        -11    1    3    3    0    0  0.19691652249E+03 -0.14651816633E+03 -0.63077598670E+03  0.67684712845E+03  0.00000000000E+00 0. -1.
         22    1    1    2    0    0 -0.24100161878E+03  0.24403138259E+03  0.44201767460E+03  0.55947539767E+03  0.00000000000E+00 0. -1.
<mgrwt>
<rscale>  0 0.15006737E+04</rscale>
<asrwt>0</asrwt>
<pdfrwt beam="1">  1        2 0.16279216E+00 0.15006737E+04</pdfrwt>
<pdfrwt beam="2">  1       -2 0.81856351E-01 0.15006737E+04</pdfrwt>
<totfact> 0.29342771E+01</totfact>
</mgrwt>
</event>
<event>
 6    1  0.1878398E-004  0.7390680E+03  0.7818608E-02  0.9652659E-01
         -1   -1    0    0    0  501 -0.00000000000E+00  0.00000000000E+00  0.84044743288E+02  0.84044743288E+02  0.00000000000E+00 0. -1.
          1   -1    0    0  501    0  0.00000000000E+00 -0.00000000000E+00 -0.16247937570E+04  0.16247937570E+04  0.00000000000E+00 0.  1.
         23    2    1    2    0    0 -0.33427146832E+02 -0.35759567797E+03 -0.64414374319E+03  0.74297461020E+03  0.89989257476E+02 0.  0.
         13    1    3    3    0    0  0.14853304900E+02 -0.17435468264E+03 -0.37495851876E+03  0.41378021559E+03  0.00000000000E+00 0.  1.
        -13    1    3    3    0    0 -0.48280451731E+02 -0.18324099533E+03 -0.26918522443E+03  0.32919439461E+03  0.00000000000E+00 0. -1.
         22    1    1    2    0    0  0.33427146832E+02  0.35759567797E+03 -0.89660527052E+03  0.96586389009E+03  0.00000000000E+00 0.  1.
<mgrwt>
<rscale>  0 0.73906799E+03</rscale>
<asrwt>0</asrwt>
<pdfrwt beam="1">  1        1 0.24996828E+00 0.73906799E+03</pdfrwt>
<pdfrwt beam="2">  1       -1 0.12929960E-01 0.73906799E+03</pdfrwt>
<totfact> 0.22940850E+02</totfact>
</mgrwt>
</event>
<event>
 6    1  0.1878398E-004  0.2193502E+04  0.7818608E-02  0.8521138E-01
          1   -1    0    0  501    0  0.00000000000E+00  0.00000000000E+00  0.51963400081E+03  0.51963400081E+03  0.00000000000E+00 0.  1.
         -1   -1    0    0    0  501 -0.00000000000E+00 -0.00000000000E+00 -0.23148265147E+04  0.23148265147E+04  0.00000000000E+00 0. -1.
         23    2    1    2    0    0 -0.27798893176E+03 -0.36579901083E+03 -0.21827636612E+04  0.22333796917E+04  0.11153871222E+03 0.  0.
         11    1    3    3    0    0 -0.28580192320E+01 -0.63522080811E+02 -0.32909095319E+03  0.33517768198E+03  0.00000000000E+00 0.  1.
        -11    1    3    3    0    0 -0.27513091252E+03 -0.30227693002E+03 -0.18536727080E+04  0.18982020097E+04  0.00000000000E+00 0. -1.
         22    1    1    2    0    0  0.27798893176E+03  0.36579901083E+03  0.38757114729E+03  0.60108082378E+03  0.00000000000E+00 0.  1.
<mgrwt>
<rscale>  0 0.21935018E+04</rscale>
<asrwt>0</asrwt>
<pdfrwt beam="1">  1        1 0.79943693E-01 0.21935018E+04</pdfrwt>
<pdfrwt beam="2">  1       -1 0.35612715E+00 0.21935018E+04</pdfrwt>
<totfact> 0.54273847E-01</totfact>
</mgrwt>
</event>
<event>
 6    1  0.1878398E-004  0.1447557E+04  0.7818608E-02  0.8920096E-01
          2   -1    0    0  501    0  0.00000000000E+00  0.00000000000E+00  0.25784027664E+03  0.25784027664E+03  0.00000000000E+00 0.  1.
         -2   -1    0    0    0  501 -0.00000000000E+00 -0.00000000000E+00 -0.20317058862E+04  0.20317058862E+04  0.00000000000E+00 0. -1.
         23    2    1    2    0    0  0.47538827325E+03  0.32322337496E+03 -0.15783146759E+04  0.16823332446E+04  0.93276841908E+02 0.  0.
         13    1    3    3    0    0  0.13496263844E+03  0.43821488658E+02 -0.37280277876E+03  0.39889490908E+03  0.00000000000E+00 0.  1.
        -13    1    3    3    0    0  0.34042563481E+03  0.27940188630E+03 -0.12055118971E+04  0.12834383355E+04  0.00000000000E+00 0. -1.
         22    1    1    2    0    0 -0.47538827325E+03 -0.32322337496E+03 -0.19555093370E+03  0.60721291829E+03  0.00000000000E+00 0.  1.
<mgrwt>
<rscale>  0 0.14475574E+04</rscale>
<asrwt>0</asrwt>
<pdfrwt beam="1">  1        2 0.39667735E-01 0.14475574E+04</pdfrwt>
<pdfrwt beam="2">  1       -2 0.31257013E+00 0.14475574E+04</pdfrwt>
<totfact> 0.33733197E+00</totfact>
</mgrwt>
</event>
<event>
 6    1  0.1878398E-004  0.1140089E+04  0.7818608E-02  0.9166976E-01
         -1   -1    0    0    0  501 -0.00000000000E+00  0.00000000000E+00  0.36642720341E+03  0.36642720341E+03  0.00000000000E+00 0. -1.
          1   -1    0    0  501    0  0.00000000000E+00 -0.00000000000E+00 -0.88680795195E+03  0.88680795195E+03  0.00000000000E+00 0.  1.
         23    2    1    2    0    0  0.14833838350E+03 -0.37332539944E+03 -0.69759926178E+03  0.81416507972E+03  0.12183561516E+03 0.  0.
         13    1    3    3    0    0  0.83376570283E+02 -0.12600530214E+03 -0.36185387477E+03  0.39213163010E+03  0.00000000000E+00 0. -1.
        -13    1    3    3    0    0  0.64961813213E+02 -0.24732009729E+03 -0.33574538701E+03  0.42203344962E+03  0.00000000000E+00 0.  1.
         22    1    1    2    0    0 -0.14833838350E+03  0.37332539944E+03  0.17721851324E+03  0.43907007564E+03  0.00000000000E+00 0. -1.
<mgrwt>
<rscale>  0 0.11400887E+04</rscale>
<asrwt>0</asrwt>
<pdfrwt beam="1">  1        1 0.13643199E+00 0.11400887E+04</pdfrwt>
<pdfrwt beam="2">  1       -1 0.56373416E-01 0.11400887E+04</pdfrwt>
<totfact> 0.59042265E+01</totfact>
</mgrwt>
</event>
<event>
 6    1  0.1878398E-004  0.2196897E+04  0.7818608E-02  0.8519721E-01
          2   -1    0    0  501    0  0.00000000000E+00  0.00000000000E+00  0.36979196979E+04  0.36979196979E+04  0.00000000000E+00 0.  1.
         -2   -1    0    0    0  501 -0.00000000000E+00 -0.00000000000E+00 -0.32628868439E+03  0.32628868439E+03  0.00000000000E+00 0. -1.
         23    2    1    2    0    0  0.28870683284E+03  0.84415662441E+03  0.52098044670E+03  0.10372097723E+04  0.91822895325E+02 0.  0.
         11    1    3    3    0    0  0.12308478325E+03  0.33561261004E+03  0.15799172398E+03  0.39082869998E+03  0.00000000000E+00 0. -1.
        -11    1    3    3    0    0  0.16562204959E+03  0.50854401437E+03  0.36298872272E+03  0.64638107235E+03  0.00000000000E+00 0.  1.
         22    1    1    2    0    0 -0.28870683284E+03 -0.84415662441E+03  0.28506505668E+04  0.29869986100E+04  0.00000000000E+00 0.  1.
<mgrwt>
<rscale>  0 0.21968972E+04</rscale>
<asrwt>0</asrwt>
<pdfrwt beam="1">  1        2 0.56891069E+00 0.21968972E+04</pdfrwt>
<pdfrwt beam="2">  1       -2 0.50198262E-01 0.21968972E+04</pdfrwt>
<totfact> 0.20200828E+00</totfact>
</mgrwt>
</event>
<event>
 6    1  0.1878398E-004  0.2769949E+04  0.7818608E-02  0.8312659E-01
         -2   -1    0    0    0  501 -0.00000000000E+00  0.00000000000E+00  0.91169468760E+03  0.91169468760E+03  0.00000000000E+00 0. -1.
          2   -1    0    0  501    0  0.00000000000E+00 -0.00000000000E+00 -0.21039437743E+04  0.21039437743E+04  0.00000000000E+00 0.  1.
         23    2    1    2    0    0  0.34042867992E+03 -0.21968341433E+03  0.84335820017E+03  0.94010250341E+03  0.91581518247E+02 0.  0.
         13    1    3    3    0    0  0.31339135763E+03 -0.16898825015E+03  0.75444760799E+03  0.83424358848E+03  0.00000000000E+00 0.  1.
        -13    1    3    3    0    0  0.27037322295E+02 -0.50695164182E+02  0.88910592179E+02  0.10585891493E+03  0.00000000000E+00 0. -1.
         22    1    1    2    0    0 -0.34042867992E+03  0.21968341433E+03 -0.20356072869E+04  0.20755359585E+04  0.00000000000E+00 0.  1.
<mgrwt>
<rscale>  0 0.27699490E+04</rscale>
<asrwt>0</asrwt>
<pdfrwt beam="1">  1        2 0.32368365E+00 0.27699490E+04</pdfrwt>
<pdfrwt beam="2">  1       -2 0.14026072E+00 0.27699490E+04</pdfrwt>
<totfact> 0.18227213E+00</totfact>
</mgrwt>
</event>
<event>
 6    1  0.1878398E-004  0.3237001E+04  0.7818608E-02  0.8179113E-01
          2   -1    0    0  501    0  0.00000000000E+00  0.00000000000E+00  0.15441260871E+04  0.15441260871E+04  0.00000000000E+00 0.  1.
         -2   -1    0    0    0  501 -0.00000000000E+00 -0.00000000000E+00 -0.16964570547E+04  0.16964570547E+04  0.00000000000E+00 0. -1.
         23    2    1    2    0    0 -0.42838747377E+03  0.84201672158E+03  0.12380161180E+04  0.15596390601E+04  0.85335234881E+02 0.  0.
         11    1    3    3    0    0 -0.31289164329E+03  0.56901034796E+03  0.90398921476E+03  0.11130455772E+04  0.00000000000E+00 0. -1.
        -11    1    3    3    0    0 -0.11549583049E+03  0.27300637362E+03  0.33402690325E+03  0.44659348293E+03  0.00000000000E+00 0.  1.
         22    1    1    2    0    0  0.42838747377E+03 -0.84201672158E+03 -0.13903470856E+04  0.16809440817E+04  0.00000000000E+00 0. -1.
<mgrwt>
<rscale>  0 0.32370008E+04</rscale>
<asrwt>0</asrwt>
<pdfrwt beam="1">  1        2 0.23755786E+00 0.32370008E+04</pdfrwt>
<pdfrwt beam="2">  1       -2 0.26099339E+00 0.32370008E+04</pdfrwt>
<totfact> 0.55364576E-01</totfact>
</mgrwt>
</event>
<event>
 6    1  0.1878398E-004  0.3562813E+04  0.7818608E-02  0.8099063E-01
         -2   -1    0    0    0  501 -0.00000000000E+00  0.00000000000E+00  0.22011120792E+04  0.22011120792E+04  0.00000000000E+00 0. -1.
          2   -1    0    0  501    0  0.00000000000E+00 -0.00000000000E+00 -0.14417297218E+04  0.14417297218E+04  0.00000000000E+00 0.  1.
         23    2    1    2    0    0 -0.63521206933E+03  0.15236572814E+04  0.10614413805E+04  0.19646685269E+04  0.90767461591E+02 0.  0.
         13    1    3    3    0    0 -0.15172713744E+03  0.27378797435E+03  0.19190318843E+03  0.36716183470E+03  0.00000000000E+00 0. -1.
        -13    1    3    3    0    0 -0.48348493190E+03  0.12498693071E+04  0.86953819207E+03  0.15975066922E+04  0.00000000000E+00 0.  1.
         22    1    1    2    0    0  0.63521206933E+03 -0.15236572814E+04 -0.30205902310E+03  0.16781732740E+04  0.00000000000E+00 0. -1.
<mgrwt>
<rscale>  0 0.35628128E+04</rscale>
<asrwt>0</asrwt>
<pdfrwt beam="1">  1        2 0.22180457E+00 0.35628128E+04</pdfrwt>
<pdfrwt beam="2">  1       -2 0.33863263E+00 0.35628128E+04</pdfrwt>
<totfact> 0.20529139E-01</totfact>
</mgrwt>
</event>
<event>
 6    1  0.1878398E-004  0.6808676E+04  0.7818608E-02  0.7597495E-01
          2   -1    0    0  501    0  0.00000000000E+00  0.00000000000E+00  0.48813036610E+04  0.48813036610E+04  0.00000000000E+00 0.  1.
         -2   -1    0    0    0  501 -0.00000000000E+00 -0.00000000000E+00 -0.23742666345E+04  0.23742666345E+04  0.00000000000E+00 0. -1.
         23    2    1    2    0    0  0.28913020070E+03  0.25463554707E+04 -0.11332718641E+04  0.28036750502E+04  0.93628057190E+02 0.  0.
         13    1    3    3    0    0  0.17906433683E+03  0.14791794983E+04 -0.60971275234E+03  0.16099023776E+04  0.00000000000E+00 0. -1.
        -13    1    3    3    0    0  0.11006586387E+03  0.10671759724E+04 -0.52355911172E+03  0.11937726726E+04  0.00000000000E+00 0.  1.
         22    1    1    2    0    0 -0.28913020070E+03 -0.25463554707E+04  0.36403088906E+04  0.44518952453E+04  0.00000000000E+00 0.  1.
<mgrwt>
<rscale>  0 0.68086758E+04</rscale>
<asrwt>0</asrwt>
<pdfrwt beam="1">  1        2 0.75096979E+00 0.68086758E+04</pdfrwt>
<pdfrwt beam="2">  1       -2 0.36527179E+00 0.68086758E+04</pdfrwt>
<totfact> 0.36981219E-04</totfact>
</mgrwt>
</event>
<event>
 6    1  0.1878398E-004  0.4138520E+04  0.7818608E-02  0.7977171E-01
         -1   -1    0    0    0  501 -0.00000000000E+00  0.00000000000E+00  0.13979095624E+04  0.13979095624E+04  0.00000000000E+00 0.  1.
          1   -1    0    0  501    0  0.00000000000E+00 -0.00000000000E+00 -0.30630290093E+04  0.30630290093E+04  0.00000000000E+00 0. -1.
         23    2    1    2    0    0 -0.17326396138E+04  0.30606915388E+03 -0.20046409998E+04  0.26690141193E+04  0.96604724088E+02 0.  0.
         11    1    3    3    0    0 -0.28492990405E+03  0.46080348347E+02 -0.27696280357E+03  0.40002105356E+03  0.00000000000E+00 0. -1.
        -11    1    3    3    0    0 -0.14477097098E+04  0.25998880553E+03 -0.17276781962E+04  0.22689930657E+04  0.00000000000E+00 0.  1.
         22    1    1    2    0    0  0.17326396138E+04 -0.30606915388E+03  0.33952155292E+03  0.17919244524E+04  0.00000000000E+00 0.  1.
<mgrwt>
<rscale>  0 0.41385203E+04</rscale>
<asrwt>0</asrwt>
<pdfrwt beam="1">  1        1 0.47123523E+00 0.41385203E+04</pdfrwt>
<pdfrwt beam="2">  1       -1 0.21506301E+00 0.41385203E+04</pdfrwt>
<totfact> 0.49376554E-02</totfact>
</mgrwt>
</event>
<event>
 6    1  0.1878398E-004  0.3931236E+04  0.7818608E-02  0.8018564E-01
         -1   -1    0    0    0  501 -0.00000000000E+00  0.00000000000E+00  0.17005741321E+04  0.17005741321E+04  0.00000000000E+00 0. -1.
          1   -1    0    0  501    0  0.00000000000E+00 -0.00000000000E+00 -0.22719709327E+04  0.22719709327E+04  0.00000000000E+00 0.  1.
         23    2    1    2    0    0  0.11841971441E+04 -0.14118321105E+04 -0.97322124473E+03  0.20865292461E+04  0.10417254373E+03 0.  0.
         13    1    3    3    0    0  0.40144817090E+03 -0.44720420013E+03 -0.26747904793E+03  0.65779728763E+03  0.00000000000E+00 0. -1.
        -13    1    3    3    0    0  0.78274897325E+03 -0.96462791042E+03 -0.70574219680E+03  0.14287319584E+04  0.00000000000E+00 0.  1.
         22    1    1    2    0    0 -0.11841971441E+04  0.14118321105E+04  0.40182444409E+03  0.18860158187E+04  0.00000000000E+00 0.  1.
<mgrwt>
<rscale>  0 0.39312364E+04</rscale>
<asrwt>0</asrwt>
<pdfrwt beam="1">  1        1 0.34953399E+00 0.39312364E+04</pdfrwt>
<pdfrwt beam="2">  1       -1 0.26162679E+00 0.39312364E+04</pdfrwt>
<totfact> 0.89661458E-02</totfact>
</mgrwt>
</event>
<event>
 6    1  0.1878398E-004  0.5225178E+04  0.7818608E-02  0.7794680E-01
         -2   -1    0    0    0  501 -0.00000000000E+00  0.00000000000E+00  0.29825153301E+04  0.29825153301E+04  0.00000000000E+00 0. -1.
          2   -1    0    0  501    0  0.00000000000E+00 -0.00000000000E+00 -0.22885448859E+04  0.22885448859E+04  0.00000000000E+00 0.  1.
         23    2    1    2    0    0  0.36943440676E+03  0.20301458939E+04  0.19623057344E+04  0.28489436746E+04  0.88668678746E+02 0.  0.
         11    1    3    3    0    0  0.20807640054E+03  0.12769709206E+04  0.11805922565E+04  0.17514989571E+04  0.00000000000E+00 0. -1.
        -11    1    3    3    0    0  0.16135800621E+03  0.75317497325E+03  0.78171347796E+03  0.10974447176E+04  0.00000000000E+00 0.  1.
         22    1    1    2    0    0 -0.36943440676E+03 -0.20301458939E+04 -0.12683352902E+04  0.24221165413E+04  0.00000000000E+00 0.  1.
<mgrwt>
<rscale>  0 0.52251776E+04</rscale>
<asrwt>0</asrwt>
<pdfrwt beam="1">  1        2 0.35208383E+00 0.52251776E+04</pdfrwt>
<pdfrwt beam="2">  1       -2 0.45884851E+00 0.52251776E+04</pdfrwt>
<totfact> 0.10025827E-02</totfact>
</mgrwt>
</event>
<event>
 6    1  0.1878398E-004  0.2113373E+04  0.7818608E-02  0.8555375E-01
          2   -1    0    0  501    0  0.00000000000E+00  0.00000000000E+00  0.19114576593E+04  0.19114576593E+04  0.00000000000E+00 0.  1.
         -2   -1    0    0    0  501 -0.00000000000E+00 -0.00000000000E+00 -0.58415459765E+03  0.58415459765E+03  0.00000000000E+00 0. -1.
         23    2    1    2    0    0 -0.58089709451E+03 -0.55415793811E+03 -0.13997769713E+03  0.82305574673E+03  0.11530200241E+03 0.  0.
         11    1    3    3    0    0 -0.22446873357E+03 -0.18707699634E+03  0.14737637940E+01  0.29220914922E+03  0.00000000000E+00 0. -1.
        -11    1    3    3    0    0 -0.35642836094E+03 -0.36708094177E+03 -0.14145146092E+03  0.53084659751E+03  0.00000000000E+00 0.  1.
         22    1    1    2    0    0  0.58089709451E+03  0.55415793811E+03  0.14672807587E+04  0.16725565102E+04  0.00000000000E+00 0.  1.
<mgrwt>
<rscale>  0 0.21133734E+04</rscale>
<asrwt>0</asrwt>
<pdfrwt beam="1">  1        2 0.29407041E+00 0.21133734E+04</pdfrwt>
<pdfrwt beam="2">  1       -2 0.89869939E-01 0.21133734E+04</pdfrwt>
<totfact> 0.73036584E+00</totfact>
</mgrwt>
</event>
<event>
 6    1  0.1878398E-004  0.1368548E+04  0.7818608E-02  0.8976905E-01
          1   -1    0    0  501    0  0.00000000000E+00  0.00000000000E+00  0.57198852042E+03  0.57198852042E+03  0.00000000000E+00 0.  1.
         -1   -1    0    0    0  501 -0.00000000000E+00 -0.00000000000E+00 -0.81860173966E+03  0.81860173966E+03  0.00000000000E+00 0. -1.
         23    2    1    2    0    0  0.13431003415E+03 -0.54874043339E+03 -0.51076717868E+03  0.76694567956E+03  0.90373204353E+02 0.  0.
         11    1    3    3    0    0 -0.10834660813E+02 -0.13332970779E+02 -0.11974787046E+02  0.20941669215E+02  0.00000000000E+00 0.  1.
        -11    1    3    3    0    0  0.14514469496E+03 -0.53540746261E+03 -0.49879239164E+03  0.74600401035E+03  0.00000000000E+00 0. -1.
         22    1    1    2    0    0 -0.13431003415E+03  0.54874043339E+03  0.26415395944E+03  0.62364458051E+03  0.00000000000E+00 0.  1.
<mgrwt>
<rscale>  0 0.13685478E+04</rscale>
<asrwt>0</asrwt>
<pdfrwt beam="1">  1        1 0.87998234E-01 0.13685478E+04</pdfrwt>
<pdfrwt beam="2">  1       -1 0.12593873E+00 0.13685478E+04</pdfrwt>
<totfact> 0.19703070E+01</totfact>
</mgrwt>
</event>
<event>
 6    1  0.1878398E-004  0.1537793E+04  0.7818608E-02  0.8859703E-01
          2   -1    0    0  501    0  0.00000000000E+00  0.00000000000E+00  0.31295659971E+04  0.31295659971E+04  0.00000000000E+00 0.  1.
         -2   -1    0    0    0  501 -0.00000000000E+00 -0.00000000000E+00 -0.18890859755E+03  0.18890859755E+03  0.00000000000E+00 0. -1.
         23    2    1    2    0    0 -0.40346445711E+03 -0.57985832261E+03  0.83430447115E+03  0.10968216286E+04  0.89075765606E+02 0.  0.
         13    1    3    3    0    0 -0.24082931709E+03 -0.30735332276E+03  0.40062956535E+03  0.55943621049E+03  0.00000000000E+00 0. -1.
        -13    1    3    3    0    0 -0.16263514002E+03 -0.27250499985E+03  0.43367490580E+03  0.53738541815E+03  0.00000000000E+00 0.  1.
         22    1    1    2    0    0  0.40346445711E+03  0.57985832261E+03  0.21063529284E+04  0.22216529660E+04  0.00000000000E+00 0.  1.
<mgrwt>
<rscale>  0 0.15377931E+04</rscale>
<asrwt>0</asrwt>
<pdfrwt beam="1">  1        2 0.48147165E+00 0.15377931E+04</pdfrwt>
<pdfrwt beam="2">  1       -2 0.29062863E-01 0.15377931E+04</pdfrwt>
<totfact> 0.15223842E+01</totfact>
</mgrwt>
</event>
<event>
 6    1  0.1878398E-004  0.9895885E+03  0.7818608E-02  0.9320038E-01
          2   -1    0    0  501    0  0.00000000000E+00  0.00000000000E+00  0.47840890270E+03  0.47840890270E+03  0.00000000000E+00 0.  1.
         -2   -1    0    0    0  501 -0.00000000000E+00 -0.00000000000E+00 -0.51174081228E+03  0.51174081228E+03  0.00000000000E+00 0. -1.
         23    2    1    2    0    0  0.11263147684E+03 -0.33972750234E+03 -0.35306284621E+03  0.51022420279E+03  0.87032972575E+02 0.  0.
         11    1    3    3    0    0  0.67325831618E+02 -0.16589976473E+03 -0.23431387727E+03  0.29488725409E+03  0.00000000000E+00 0. -1.
        -11    1    3    3    0    0  0.45305645225E+02 -0.17382773761E+03 -0.11874896893E+03  0.21533694870E+03  0.00000000000E+00 0.  1.
         22    1    1    2    0    0 -0.11263147684E+03  0.33972750234E+03  0.31973093662E+03  0.47992551220E+03  0.00000000000E+00 0.  1.
<mgrwt>
<rscale>  0 0.98958852E+03</rscale>
<asrwt>0</asrwt>
<pdfrwt beam="1">  1        2 0.73601370E-01 0.98958852E+03</pdfrwt>
<pdfrwt beam="2">  1       -2 0.78729355E-01 0.98958852E+03</pdfrwt>
<totfact> 0.92849338E+01</totfact>
</mgrwt>
</event>
<event>
 6    1  0.1878398E-004  0.1533727E+04  0.7818608E-02  0.8862329E-01
          2   -1    0    0  501    0  0.00000000000E+00  0.00000000000E+00  0.47027082640E+03  0.47027082640E+03  0.00000000000E+00 0.  1.
         -2   -1    0    0    0  501 -0.00000000000E+00 -0.00000000000E+00 -0.12505134158E+04  0.12505134158E+04  0.00000000000E+00 0. -1.
         23    2    1    2    0    0  0.40840987047E+02  0.41645839575E+03 -0.11088494802E+04  0.11887240292E+04  0.91717316811E+02 0.  0.
         11    1    3    3    0    0  0.70546044033E+02  0.29129669842E+03 -0.76897372261E+03  0.82531878502E+03  0.00000000000E+00 0. -1.
        -11    1    3    3    0    0 -0.29705056986E+02  0.12516169733E+03 -0.33987575757E+03  0.36340524415E+03  0.00000000000E+00 0.  1.
         22    1    1    2    0    0 -0.40840987047E+02 -0.41645839575E+03  0.32860689078E+03  0.53206021303E+03  0.00000000000E+00 0.  1.
<mgrwt>
<rscale>  0 0.15337275E+04</rscale>
<asrwt>0</asrwt>
<pdfrwt beam="1">  1        2 0.72349358E-01 0.15337275E+04</pdfrwt>
<pdfrwt beam="2">  1       -2 0.19238668E+00 0.15337275E+04</pdfrwt>
<totfact> 0.95089684E+00</totfact>
</mgrwt>
</event>
<event>
 6    1  0.1878398E-004  0.1948396E+04  0.7818608E-02  0.8631135E-01
          2   -1    0    0  501    0  0.00000000000E+00  0.00000000000E+00  0.14812137257E+04  0.14812137257E+04  0.00000000000E+00 0.  1.
         -2   -1    0    0    0  501 -0.00000000000E+00 -0.00000000000E+00 -0.64073231523E+03  0.64073231523E+03  0.00000000000E+00 0. -1.
         23    2    1    2    0    0  0.72757523990E+03 -0.61108219629E+03  0.19772110268E+03  0.97480699372E+03  0.91476009009E+02 0.  0.
         13    1    3    3    0    0  0.26449700597E+03 -0.27697477336E+03  0.95462587916E+02  0.39469836197E+03  0.00000000000E+00 0. -1.
        -13    1    3    3    0    0  0.46307823393E+03 -0.33410742292E+03  0.10225851477E+03  0.58010863176E+03  0.00000000000E+00 0.  1.
         22    1    1    2    0    0 -0.72757523990E+03  0.61108219629E+03  0.64276030775E+03  0.11471390472E+04  0.00000000000E+00 0.  1.
<mgrwt>
<rscale>  0 0.19483958E+04</rscale>
<asrwt>0</asrwt>
<pdfrwt beam="1">  1        2 0.22787903E+00 0.19483958E+04</pdfrwt>
<pdfrwt beam="2">  1       -2 0.98574202E-01 0.19483958E+04</pdfrwt>
<totfact> 0.10371811E+01</totfact>
</mgrwt>
</event>
<event>
 6    1  0.1878398E-004  0.3426981E+04  0.7818608E-02  0.8131316E-01
         -1   -1    0    0    0  501 -0.00000000000E+00  0.00000000000E+00  0.15600256806E+04  0.15600256806E+04  0.00000000000E+00 0.  1.
          1   -1    0    0  501    0  0.00000000000E+00 -0.00000000000E+00 -0.18820520694E+04  0.18820520694E+04  0.00000000000E+00 0. -1.
         23    2    1    2    0    0 -0.14065832711E+03  0.83665446764E+03  0.13331007736E+04  0.15821795305E+04  0.79742904929E+02 0.  0.
         11    1    3    3    0    0 -0.84695199248E+02  0.28321495479E+03  0.44392423020E+03  0.53334108181E+03  0.00000000000E+00 0. -1.
        -11    1    3    3    0    0 -0.55963127861E+02  0.55343951284E+03  0.88917654344E+03  0.10488384487E+04  0.00000000000E+00 0.  1.
         22    1    1    2    0    0  0.14065832711E+03 -0.83665446764E+03 -0.16551271624E+04  0.18598982195E+04  0.00000000000E+00 0. -1.
<mgrwt>
<rscale>  0 0.34269809E+04</rscale>
<asrwt>0</asrwt>
<pdfrwt beam="1">  1        1 0.28954647E+00 0.34269809E+04</pdfrwt>
<pdfrwt beam="2">  1       -1 0.24000395E+00 0.34269809E+04</pdfrwt>
<totfact> 0.23846169E-01</totfact>
</mgrwt>
</event>
<event>
 6    1  0.1878398E-004  0.3812256E+03  0.7818608E-02  0.1050482E+00
          2   -1    0    0  501    0  0.00000000000E+00  0.00000000000E+00  0.31398074197E+03  0.31398074197E+03  0.00000000000E+00 0.  1.
         -2   -1    0    0    0  501 -0.00000000000E+00 -0.00000000000E+00 -0.11571807578E+03  0.11571807578E+03  0.00000000000E+00 0. -1.
         23    2    1    2    0    0  0.28642260019E+02  0.83910792205E+02 -0.81611440590E+02  0.13611592357E+03  0.63290736350E+02 0.  0.
         11    1    3    3    0    0  0.38720788307E+02  0.64987603421E+02 -0.32129282355E+02  0.82188678236E+02  0.00000000000E+00 0.  1.
        -11    1    3    3    0    0 -0.10078528288E+02  0.18923188784E+02 -0.49482158235E+02  0.53927245338E+02  0.00000000000E+00 0. -1.
         22    1    1    2    0    0 -0.28642260019E+02 -0.83910792205E+02  0.27987410678E+03  0.29358289418E+03  0.00000000000E+00 0.  1.
<mgrwt>
<rscale>  0 0.38122564E+03</rscale>
<asrwt>0</asrwt>
<pdfrwt beam="1">  1        2 0.48304729E-01 0.38122564E+03</pdfrwt>
<pdfrwt beam="2">  1       -2 0.17802781E-01 0.38122564E+03</pdfrwt>
<totfact> 0.26843909E+03</totfact>
</mgrwt>
</event>
<event>
 6    1  0.1878398E-004  0.7570137E+03  0.7818608E-02  0.9624411E-01
         -1   -1    0    0    0  501 -0.00000000000E+00  0.00000000000E+00  0.10792870405E+03  0.10792870405E+03  0.00000000000E+00 0. -1.
          1   -1    0    0  501    0  0.00000000000E+00 -0.00000000000E+00 -0.13274264890E+04  0.13274264890E+04  0.00000000000E+00 0.  1.
         23    2    1    2    0    0  0.29895778830E+02 -0.31235272901E+03 -0.23359173132E+03  0.40072060466E+03  0.86913296723E+02 0.  0.
         13    1    3    3    0    0  0.57391907908E+02 -0.20064026699E+03 -0.17068152495E+03  0.26959697846E+03  0.00000000000E+00 0. -1.
        -13    1    3    3    0    0 -0.27496129078E+02 -0.11171246201E+03 -0.62910206366E+02  0.13112362620E+03  0.00000000000E+00 0.  1.
         22    1    1    2    0    0 -0.29895778830E+02  0.31235272901E+03 -0.98590605366E+03  0.10346345884E+04  0.00000000000E+00 0.  1.
<mgrwt>
<rscale>  0 0.75701366E+03</rscale>
<asrwt>0</asrwt>
<pdfrwt beam="1">  1        1 0.20421944E+00 0.75701366E+03</pdfrwt>
<pdfrwt beam="2">  1       -1 0.16604417E-01 0.75701366E+03</pdfrwt>
<totfact> 0.24443340E+02</totfact>
</mgrwt>
</event>
<event>
 6    1  0.1878398E-004  0.3075501E+04  0.7818608E-02  0.8222494E-01
         -2   -1    0    0    0  501 -0.00000000000E+00  0.00000000000E+00  0.13893784884E+04  0.13893784884E+04  0.00000000000E+00 0. -1.
          2   -1    0    0  501    0  0.00000000000E+00 -0.00000000000E+00 -0.17019675172E+04  0.17019675172E+04  0.00000000000E+00 0.  1.
         23    2    1    2    0    0  0.73895175322E+02 -0.54363752084E+03 -0.15989505195E+04  0.16928725036E+04  0.90400765943E+02 0.  0.
         13    1    3    3    0    0  0.18964177022E+02 -0.20846942238E+03 -0.74525018885E+03  0.77409106962E+03  0.00000000000E+00 0.  1.
        -13    1    3    3    0    0  0.54930998300E+02 -0.33516809847E+03 -0.85370033065E+03  0.91878143394E+03  0.00000000000E+00 0. -1.
         22    1    1    2    0    0 -0.73895175322E+02  0.54363752084E+03  0.12863614907E+04  0.13984735020E+04  0.00000000000E+00 0. -1.
<mgrwt>
<rscale>  0 0.30755013E+04</rscale>
<asrwt>0</asrwt>
<pdfrwt beam="1">  1        2 0.26184116E+00 0.30755013E+04</pdfrwt>
<pdfrwt beam="2">  1       -2 0.21375054E+00 0.30755013E+04</pdfrwt>
<totfact> 0.90158208E-01</totfact>
</mgrwt>
</event>
<event>
 6    1  0.1878398E-004  0.2242448E+04  0.7818608E-02  0.8500965E-01
         -1   -1    0    0    0  501 -0.00000000000E+00  0.00000000000E+00  0.76361906681E+03  0.76361906681E+03  0.00000000000E+00 0.  1.
          1   -1    0    0  501    0  0.00000000000E+00 -0.00000000000E+00 -0.16462967529E+04  0.16462967529E+04  0.00000000000E+00 0. -1.
         23    2    1    2    0    0 -0.56576248846E+03  0.47756319862E+03  0.46022985379E+03  0.87643792203E+03  0.90432907933E+02 0.  0.
         11    1    3    3    0    0 -0.15914451559E+03  0.13290844242E+03  0.82593873840E+02  0.22318911018E+03  0.00000000000E+00 0. -1.
        -11    1    3    3    0    0 -0.40661797286E+03  0.34465475620E+03  0.37763597995E+03  0.65324881185E+03  0.00000000000E+00 0.  1.
         22    1    1    2    0    0  0.56576248846E+03 -0.47756319862E+03 -0.13429075399E+04  0.15334778977E+04  0.00000000000E+00 0. -1.
<mgrwt>
<rscale>  0 0.22424483E+04</rscale>
<asrwt>0</asrwt>
<pdfrwt beam="1">  1        1 0.25327642E+00 0.22424483E+04</pdfrwt>
<pdfrwt beam="2">  1       -1 0.11747986E+00 0.22424483E+04</pdfrwt>
<totfact> 0.30715195E+00</totfact>
</mgrwt>
</event>
<event>
 6    1  0.1878398E-004  0.3411949E+04  0.7818608E-02  0.8134980E-01
         -2   -1    0    0    0  501 -0.00000000000E+00  0.00000000000E+00  0.10361506910E+04  0.10361506910E+04  0.00000000000E+00 0. -1.
          2   -1    0    0  501    0  0.00000000000E+00 -0.00000000000E+00 -0.28088087500E+04  0.28088087500E+04  0.00000000000E+00 0.  1.
         23    2    1    2    0    0 -0.74841667945E+03  0.42663763739E+02 -0.26124395924E+04  0.27192682104E+04  0.87357044594E+02 0.  0.
         13    1    3    3    0    0 -0.56731318577E+03  0.49598564757E+01 -0.20589686950E+04  0.21357015095E+04  0.00000000000E+00 0. -1.
        -13    1    3    3    0    0 -0.18110349368E+03  0.37703907263E+02 -0.55347089740E+03  0.58356670083E+03  0.00000000000E+00 0.  1.
         22    1    1    2    0    0  0.74841667945E+03 -0.42663763739E+02  0.83978153346E+03  0.11256912306E+04  0.00000000000E+00 0. -1.
<mgrwt>
<rscale>  0 0.34119491E+04</rscale>
<asrwt>0</asrwt>
<pdfrwt beam="1">  1        2 0.43212441E+00 0.34119491E+04</pdfrwt>
<pdfrwt beam="2">  1       -2 0.15940780E+00 0.34119491E+04</pdfrwt>
<totfact> 0.48079983E-01</totfact>
</mgrwt>
</event>
<event>
 6    1  0.1878398E-004  0.2463131E+04  0.7818608E-02  0.8416239E-01
          1   -1    0    0  501    0  0.00000000000E+00  0.00000000000E+00  0.98191581158E+03  0.98191581158E+03  0.00000000000E+00 0.  1.
         -1   -1    0    0    0  501 -0.00000000000E+00 -0.00000000000E+00 -0.15446881286E+04  0.15446881286E+04  0.00000000000E+00 0. -1.
         23    2    1    2    0    0  0.44756505952E+03  0.15950294254E+03  0.88187046284E+03  0.10058316257E+04  0.90807900530E+02 0.  0.
         11    1    3    3    0    0  0.34355770462E+03  0.14774775538E+03  0.62340571528E+03  0.72697729089E+03  0.00000000000E+00 0.  1.
        -11    1    3    3    0    0  0.10400735490E+03  0.11755187159E+02  0.25846474756E+03  0.27885433479E+03  0.00000000000E+00 0. -1.
         22    1    1    2    0    0 -0.44756505952E+03 -0.15950294254E+03 -0.14446427798E+04  0.15207723145E+04  0.00000000000E+00 0. -1.
<mgrwt>
<rscale>  0 0.24631311E+04</rscale>
<asrwt>0</asrwt>
<pdfrwt beam="1">  1        1 0.15106397E+00 0.24631311E+04</pdfrwt>
<pdfrwt beam="2">  1       -1 0.23764433E+00 0.24631311E+04</pdfrwt>
<totfact> 0.11706874E+00</totfact>
</mgrwt>
</event>
<event>
 6    1  0.1878398E-004  0.3537773E+04  0.7818608E-02  0.8104896E-01
         -1   -1    0    0    0  501 -0.00000000000E+00  0.00000000000E+00  0.16100377549E+04  0.16100377549E+04  0.00000000000E+00 0. -1.
          1   -1    0    0  501    0  0.00000000000E+00 -0.00000000000E+00 -0.19434079808E+04  0.19434079808E+04  0.00000000000E+00 0.  1.
         23    2    1    2    0    0  0.11268424227E+03 -0.51217166586E+03 -0.18624008428E+04  0.19369828746E+04  0.91368503870E+02 0.  0.
         11    1    3    3    0    0  0.34509923945E+02 -0.92300708319E+02 -0.24323354627E+03  0.26243649449E+03  0.00000000000E+00 0. -1.
        -11    1    3    3    0    0  0.78174318327E+02 -0.41987095754E+03 -0.16191672965E+04  0.16745463801E+04  0.00000000000E+00 0.  1.
         22    1    1    2    0    0 -0.11268424227E+03  0.51217166586E+03  0.15290306169E+04  0.16164628611E+04  0.00000000000E+00 0. -1.
<mgrwt>
<rscale>  0 0.35377734E+04</rscale>
<asrwt>0</asrwt>
<pdfrwt beam="1">  1        1 0.29898584E+00 0.35377734E+04</pdfrwt>
<pdfrwt beam="2">  1       -1 0.24769812E+00 0.35377734E+04</pdfrwt>
<totfact> 0.19111851E-01</totfact>
</mgrwt>
</event>
<event>
 6    1  0.1878398E-004  0.5799865E+04  0.7818608E-02  0.7715723E-01
          2   -1    0    0  501    0  0.00000000000E+00  0.00000000000E+00  0.33270124028E+04  0.33270124028E+04  0.00000000000E+00 0.  1.
         -2   -1    0    0    0  501 -0.00000000000E+00 -0.00000000000E+00 -0.25276760035E+04  0.25276760035E+04  0.00000000000E+00 0. -1.
         23    2    1    2    0    0  0.14217319443E+04  0.24244348535E+04 -0.31736138169E+03  0.28304165907E+04  0.10646008441E+03 0.  0.
         13    1    3    3    0    0  0.56356214658E+03  0.10469764494E+04 -0.16398329826E+03  0.12002718445E+04  0.00000000000E+00 0. -1.
        -13    1    3    3    0    0  0.85816979773E+03  0.13774584041E+04 -0.15337808343E+03  0.16301447461E+04  0.00000000000E+00 0.  1.
         22    1    1    2    0    0 -0.14217319443E+04 -0.24244348535E+04  0.11166977810E+04  0.30242718156E+04  0.00000000000E+00 0.  1.
<mgrwt>
<rscale>  0 0.57998653E+04</rscale>
<asrwt>0</asrwt>
<pdfrwt beam="1">  1        2 0.51184806E+00 0.57998653E+04</pdfrwt>
<pdfrwt beam="2">  1       -2 0.38887323E+00 0.57998653E+04</pdfrwt>
<totfact> 0.64026653E-03</totfact>
</mgrwt>
</event>
<event>
 6    1  0.1878398E-004  0.1972447E+04  0.7818608E-02  0.8619612E-01
          2   -1    0    0  501    0  0.00000000000E+00  0.00000000000E+00  0.25845895749E+04  0.25845895749E+04  0.00000000000E+00 0.  1.
         -2   -1    0    0    0  501 -0.00000000000E+00 -0.00000000000E+00 -0.37632173267E+03  0.37632173267E+03  0.00000000000E+00 0. -1.
         23    2    1    2    0    0 -0.97708594571E+03  0.95508384442E+02  0.10030382370E+04  0.14064348047E+04  0.90301483980E+02 0.  0.
         13    1    3    3    0    0 -0.83117035327E+03  0.76524197158E+02  0.80416105993E+03  0.11590406029E+04  0.00000000000E+00 0. -1.
        -13    1    3    3    0    0 -0.14591559244E+03  0.18984187284E+02  0.19887717710E+03  0.24739420174E+03  0.00000000000E+00 0.  1.
         22    1    1    2    0    0  0.97708594571E+03 -0.95508384442E+02  0.12052296052E+04  0.15544765029E+04  0.00000000000E+00 0.  1.
<mgrwt>
<rscale>  0 0.19724474E+04</rscale>
<asrwt>0</asrwt>
<pdfrwt beam="1">  1        2 0.39762915E+00 0.19724474E+04</pdfrwt>
<pdfrwt beam="2">  1       -2 0.57895653E-01 0.19724474E+04</pdfrwt>
<totfact> 0.80866198E+00</totfact>
</mgrwt>
</event>
<event>
 6    1  0.1878398E-004  0.6457218E+03  0.7818608E-02  0.9814840E-01
         -2   -1    0    0    0  501 -0.00000000000E+00  0.00000000000E+00  0.58121601348E+03  0.58121601348E+03  0.00000000000E+00 0. -1.
          2   -1    0    0  501    0  0.00000000000E+00 -0.00000000000E+00 -0.17934668764E+03  0.17934668764E+03  0.00000000000E+00 0.  1.
         23    2    1    2    0    0 -0.21806153444E+03  0.10470590009E+03  0.44555682914E+03  0.51475229396E+03  0.89077931187E+02 0.  0.
         11    1    3    3    0    0 -0.15070403591E+03  0.74048481127E+02  0.21617218173E+03  0.27372485482E+03  0.00000000000E+00 0.  1.
        -11    1    3    3    0    0 -0.67357498535E+02  0.30657418967E+02  0.22938464742E+03  0.24102743914E+03  0.00000000000E+00 0. -1.
         22    1    1    2    0    0  0.21806153444E+03 -0.10470590009E+03 -0.43687503306E+02  0.24581040715E+03  0.00000000000E+00 0.  1.
<mgrwt>
<rscale>  0 0.64572182E+03</rscale>
<asrwt>0</asrwt>
<pdfrwt beam="1">  1        2 0.27591798E-01 0.64572182E+03</pdfrwt>
<pdfrwt beam="2">  1       -2 0.89417847E-01 0.64572182E+03</pdfrwt>
<totfact> 0.21229044E+02</totfact>
</mgrwt>
</event>
<event>
 6    1  0.1878398E-004  0.7125886E+04  0.7818608E-02  0.7564590E-01
         -2   -1    0    0    0  501 -0.00000000000E+00  0.00000000000E+00  0.31547352577E+04  0.31547352577E+04  0.00000000000E+00 0. -1.
          2   -1    0    0  501    0  0.00000000000E+00 -0.00000000000E+00 -0.40239709867E+04  0.40239709867E+04  0.00000000000E+00 0.  1.
         23    2    1    2    0    0  0.76373803122E+03 -0.30153023831E+04  0.13145952411E+04  0.33781191913E+04  0.90467566498E+02 0.  0.
         13    1    3    3    0    0  0.53560622765E+03 -0.19890683966E+04  0.83808614032E+03  0.22238829772E+04  0.00000000000E+00 0.  1.
        -13    1    3    3    0    0  0.22813180357E+03 -0.10262339865E+04  0.47650910075E+03  0.11542362141E+04  0.00000000000E+00 0. -1.
         22    1    1    2    0    0 -0.76373803122E+03  0.30153023831E+04 -0.21838309701E+04  0.38005870531E+04  0.00000000000E+00 0.  1.
<mgrwt>
<rscale>  0 0.71258861E+04</rscale>
<asrwt>0</asrwt>
<pdfrwt beam="1">  1        2 0.61907246E+00 0.71258861E+04</pdfrwt>
<pdfrwt beam="2">  1       -2 0.48534389E+00 0.71258861E+04</pdfrwt>
<totfact> 0.41487888E-04</totfact>
</mgrwt>
</event>
<event>
 6    1  0.3014109E-004  0.3426513E+04  0.7818608E-02  0.8131430E-01
          2   -1    0    0  501    0  0.00000000000E+00  0.00000000000E+00  0.15139407220E+04  0.15139407220E+04  0.00000000000E+00 0.  1.
         -2   -1    0    0    0  501 -0.00000000000E+00 -0.00000000000E+00 -0.19388131200E+04  0.19388131200E+04  0.00000000000E+00 0. -1.
         23    2    1    2    0    0 -0.64973727006E+03 -0.53527976245E+03 -0.17148071687E+04  0.19124244432E+04  0.90114821825E+02 0.  0.
         11    1    3    3    0    0 -0.48782766794E+03 -0.35946781368E+03 -0.11741833423E+04  0.13213248897E+04  0.00000000000E+00 0. -1.
        -11    1    3    3    0    0 -0.16190960212E+03 -0.17581194877E+03 -0.54062382640E+03  0.59109955359E+03  0.00000000000E+00 0.  1.
         22    1    1    2    0    0  0.64973727006E+03  0.53527976245E+03  0.12899347706E+04  0.15403293988E+04  0.00000000000E+00 0.  1.
<mgrwt>
<rscale>  0 0.34265132E+04</rscale>
<asrwt>0</asrwt>
<pdfrwt beam="1">  1        2 0.23291396E+00 0.34265132E+04</pdfrwt>
<pdfrwt beam="2">  1       -2 0.29827894E+00 0.34265132E+04</pdfrwt>
<totfact> 0.33553346E-01</totfact>
</mgrwt>
</event>
<event>
 6    1  0.1878398E-004  0.1699529E+04  0.7818608E-02  0.8761633E-01
          1   -1    0    0  501    0  0.00000000000E+00  0.00000000000E+00  0.12741581869E+04  0.12741581869E+04  0.00000000000E+00 0.  1.
         -1   -1    0    0    0  501 -0.00000000000E+00 -0.00000000000E+00 -0.56672689553E+03  0.56672689553E+03  0.00000000000E+00 0. -1.
         23    2    1    2    0    0  0.10422526822E+03  0.78604074034E+01  0.12655407759E+04  0.12730727109E+04  0.90531648165E+02 0.  0.
         11    1    3    3    0    0  0.16753756251E+02 -0.13593862303E+02  0.70602455859E+03  0.70635413128E+03  0.00000000000E+00 0.  1.
        -11    1    3    3    0    0  0.87471511968E+02  0.21454269706E+02  0.55951621729E+03  0.56671857964E+03  0.00000000000E+00 0. -1.
         22    1    1    2    0    0 -0.10422526822E+03 -0.78604074034E+01 -0.55810948451E+03  0.56781237151E+03  0.00000000000E+00 0. -1.
<mgrwt>
<rscale>  0 0.16995290E+04</rscale>
<asrwt>0</asrwt>
<pdfrwt beam="1">  1        1 0.19602434E+00 0.16995290E+04</pdfrwt>
<pdfrwt beam="2">  1       -1 0.87188753E-01 0.16995290E+04</pdfrwt>
<totfact> 0.11637154E+01</totfact>
</mgrwt>
</event>
<event>
 6    1  0.7314231E-004  0.4602281E+04  0.7818608E-02  0.7892971E-01
         -2   -1    0    0    0  501 -0.00000000000E+00  0.00000000000E+00  0.16867778373E+04  0.16867778373E+04  0.00000000000E+00 0. -1.
          2   -1    0    0  501    0  0.00000000000E+00 -0.00000000000E+00 -0.31392686137E+04  0.31392686137E+04  0.00000000000E+00 0.  1.
         23    2    1    2    0    0 -0.78415702359E+03  0.61127389726E+03  0.14485877849E+04  0.17593193953E+04  0.90775267484E+02 0.  0.
         11    1    3    3    0    0 -0.51540024187E+03  0.38698059663E+03  0.10106912033E+04  0.11987026737E+04  0.00000000000E+00 0. -1.
        -11    1    3    3    0    0 -0.26875678172E+03  0.22429330062E+03  0.43789658157E+03  0.56061672163E+03  0.00000000000E+00 0.  1.
         22    1    1    2    0    0  0.78415702359E+03 -0.61127389726E+03 -0.29010785613E+04  0.30667270556E+04  0.00000000000E+00 0.  1.
<mgrwt>
<rscale>  0 0.46022815E+04</rscale>
<asrwt>0</asrwt>
<pdfrwt beam="1">  1        2 0.48296440E+00 0.46022815E+04</pdfrwt>
<pdfrwt beam="2">  1       -2 0.25950428E+00 0.46022815E+04</pdfrwt>
<totfact> 0.59902485E-02</totfact>
</mgrwt>
</event>
<event>
 6    1  0.1878398E-004  0.1802613E+04  0.7818608E-02  0.8704911E-01
         -2   -1    0    0    0  501 -0.00000000000E+00  0.00000000000E+00  0.37217853321E+03  0.37217853321E+03  0.00000000000E+00 0. -1.
          2   -1    0    0  501    0  0.00000000000E+00 -0.00000000000E+00 -0.21826983318E+04  0.21826983318E+04  0.00000000000E+00 0.  1.
         23    2    1    2    0    0  0.60712571276E+03 -0.54945155234E+03 -0.38175561665E+03  0.90810252497E+03  0.91728978804E+02 0.  0.
         13    1    3    3    0    0  0.34634423117E+03 -0.36116424335E+03 -0.26240881820E+03  0.56502418091E+03  0.00000000000E+00 0. -1.
        -13    1    3    3    0    0  0.26078148158E+03 -0.18828730898E+03 -0.11934679846E+03  0.34307834406E+03  0.00000000000E+00 0.  1.
         22    1    1    2    0    0 -0.60712571276E+03  0.54945155234E+03 -0.14287641820E+04  0.16467743401E+04  0.00000000000E+00 0.  1.
<mgrwt>
<rscale>  0 0.18026131E+04</rscale>
<asrwt>0</asrwt>
<pdfrwt beam="1">  1        2 0.33579975E+00 0.18026131E+04</pdfrwt>
<pdfrwt beam="2">  1       -2 0.57258235E-01 0.18026131E+04</pdfrwt>
<totfact> 0.14250245E+01</totfact>
</mgrwt>
</event>
<event>
 6    1  0.1878398E-004  0.2074294E+04  0.7818608E-02  0.8572652E-01
          2   -1    0    0  501    0  0.00000000000E+00  0.00000000000E+00  0.19979275117E+04  0.19979275117E+04  0.00000000000E+00 0.  1.
         -2   -1    0    0    0  501 -0.00000000000E+00 -0.00000000000E+00 -0.53839477923E+03  0.53839477923E+03  0.00000000000E+00 0. -1.
         23    2    1    2    0    0 -0.37386077172E+03  0.91463903865E+03  0.11083468821E+04  0.14876717537E+04  0.91640537296E+02 0.  0.
         13    1    3    3    0    0 -0.49629759333E+02  0.17021464059E+03  0.15591843920E+03  0.23610738354E+03  0.00000000000E+00 0.  1.
        -13    1    3    3    0    0 -0.32423101239E+03  0.74442439807E+03  0.95242844294E+03  0.12515643702E+04  0.00000000000E+00 0. -1.
         22    1    1    2    0    0  0.37386077172E+03 -0.91463903865E+03  0.35118585032E+03  0.10486505372E+04  0.00000000000E+00 0. -1.
<mgrwt>
<rscale>  0 0.20742938E+04</rscale>
<asrwt>0</asrwt>
<pdfrwt beam="1">  1        2 0.30737346E+00 0.20742938E+04</pdfrwt>
<pdfrwt beam="2">  1       -2 0.82829967E-01 0.20742938E+04</pdfrwt>
<totfact> 0.79046456E+00</totfact>
</mgrwt>
</event>
<event>
 6    1  0.1878398E-004  0.5542196E+03  0.7818608E-02  0.1000522E+00
          2   -1    0    0  501    0  0.00000000000E+00  0.00000000000E+00  0.28089912848E+03  0.28089912848E+03  0.00000000000E+00 0.  1.
         -2   -1    0    0    0  501 -0.00000000000E+00 -0.00000000000E+00 -0.27337156983E+03  0.27337156983E+03  0.00000000000E+00 0. -1.
         23    2    1    2    0    0 -0.12781722252E+03 -0.23604852651E+03  0.29674033776E+02  0.28492590886E+03  0.90807907244E+02 0.  0.
         11    1    3    3    0    0 -0.57216415406E+02 -0.36083000985E+02 -0.12288656670E+02  0.68751088972E+02  0.00000000000E+00 0.  1.
        -11    1    3    3    0    0 -0.70600807115E+02 -0.19996552553E+03  0.41962690446E+02  0.21617481989E+03  0.00000000000E+00 0. -1.
         22    1    1    2    0    0  0.12781722252E+03  0.23604852651E+03 -0.22146475125E+02  0.26934478945E+03  0.00000000000E+00 0.  1.
<mgrwt>
<rscale>  0 0.55421958E+03</rscale>
<asrwt>0</asrwt>
<pdfrwt beam="1">  1        2 0.43215250E-01 0.55421958E+03</pdfrwt>
<pdfrwt beam="2">  1       -2 0.42057165E-01 0.55421958E+03</pdfrwt>
<totfact> 0.63719877E+02</totfact>
</mgrwt>
</event>
<event>
 6    1  0.1878398E-004  0.8595425E+03  0.7818608E-02  0.9477618E-01
          2   -1    0    0  501    0  0.00000000000E+00  0.00000000000E+00  0.21593368096E+04  0.21593368096E+04  0.00000000000E+00 0.  1.
         -2   -1    0    0    0  501 -0.00000000000E+00 -0.00000000000E+00 -0.85537060783E+02  0.85537060783E+02  0.00000000000E+00 0. -1.
         23    2    1    2    0    0 -0.37012884973E+03  0.15767200450E+03  0.69268407496E+03  0.80635507280E+03  0.92419961748E+02 0.  0.
         13    1    3    3    0    0 -0.68935831409E+02  0.66145836875E+02  0.12622524995E+03  0.15830424604E+03  0.00000000000E+00 0. -1.
        -13    1    3    3    0    0 -0.30119301833E+03  0.91526167628E+02  0.56645882500E+03  0.64805082677E+03  0.00000000000E+00 0.  1.
         22    1    1    2    0    0  0.37012884973E+03 -0.15767200450E+03  0.13811156739E+04  0.14385187976E+04  0.00000000000E+00 0. -1.
<mgrwt>
<rscale>  0 0.85954249E+03</rscale>
<asrwt>0</asrwt>
<pdfrwt beam="1">  1        2 0.33220562E+00 0.85954249E+03</pdfrwt>
<pdfrwt beam="2">  1       -2 0.13159550E-01 0.85954249E+03</pdfrwt>
<totfact> 0.24203764E+02</totfact>
</mgrwt>
</event>
<event>
 6    1  0.1878398E-004  0.1210943E+04  0.7818608E-02  0.9103332E-01
          2   -1    0    0  501    0  0.00000000000E+00  0.00000000000E+00  0.10597383999E+04  0.10597383999E+04  0.00000000000E+00 0.  1.
         -2   -1    0    0    0  501 -0.00000000000E+00 -0.00000000000E+00 -0.34593023065E+03  0.34593023065E+03  0.00000000000E+00 0. -1.
         23    2    1    2    0    0 -0.22471233207E+03 -0.10500326833E+02 -0.29109727935E+03  0.37589154317E+03  0.77142317410E+02 0.  0.
         13    1    3    3    0    0 -0.16032764123E+03 -0.30687230721E+02 -0.24413992588E+03  0.29368514106E+03  0.00000000000E+00 0.  1.
        -13    1    3    3    0    0 -0.64384690840E+02  0.20186903888E+02 -0.46957353472E+02  0.82206402112E+02  0.00000000000E+00 0. -1.
         22    1    1    2    0    0  0.22471233207E+03  0.10500326833E+02  0.10049054486E+04  0.10297770873E+04  0.00000000000E+00 0.  1.
<mgrwt>
<rscale>  0 0.12109427E+04</rscale>
<asrwt>0</asrwt>
<pdfrwt beam="1">  1        2 0.16303668E+00 0.12109427E+04</pdfrwt>
<pdfrwt beam="2">  1       -2 0.53220036E-01 0.12109427E+04</pdfrwt>
<totfact> 0.75746632E+01</totfact>
</mgrwt>
</event>
<event>
 6    1  0.1878398E-004  0.1303340E+04  0.7818608E-02  0.9026921E-01
          2   -1    0    0  501    0  0.00000000000E+00  0.00000000000E+00  0.12550026845E+04  0.12550026845E+04  0.00000000000E+00 0.  1.
         -2   -1    0    0    0  501 -0.00000000000E+00 -0.00000000000E+00 -0.33838470150E+03  0.33838470150E+03  0.00000000000E+00 0. -1.
         23    2    1    2    0    0 -0.19023675731E+03 -0.24672315389E+02  0.12179285218E+04  0.12361944580E+04  0.89599702869E+02 0.  0.
         13    1    3    3    0    0 -0.13800235311E+03 -0.55237916919E+02  0.77230193223E+03  0.78647705082E+03  0.00000000000E+00 0.  1.
        -13    1    3    3    0    0 -0.52234404196E+02  0.30565601530E+02  0.44562658961E+03  0.44971740721E+03  0.00000000000E+00 0. -1.
         22    1    1    2    0    0  0.19023675731E+03  0.24672315389E+02 -0.30131053885E+03  0.35719292798E+03  0.00000000000E+00 0. -1.
<mgrwt>
<rscale>  0 0.13033399E+04</rscale>
<asrwt>0</asrwt>
<pdfrwt beam="1">  1        2 0.19307733E+00 0.13033399E+04</pdfrwt>
<pdfrwt beam="2">  1       -2 0.52059185E-01 0.13033399E+04</pdfrwt>
<totfact> 0.59959907E+01</totfact>
</mgrwt>
</event>
<event>
 6    1  0.2183543E-004  0.2819034E+04  0.7818608E-02  0.8297383E-01
         -1   -1    0    0    0  501 -0.00000000000E+00  0.00000000000E+00  0.82447607407E+03  0.82447607407E+03  0.00000000000E+00 0. -1.
          1   -1    0    0  501    0  0.00000000000E+00 -0.00000000000E+00 -0.24096981161E+04  0.24096981161E+04  0.00000000000E+00 0.  1.
         23    2    1    2    0    0 -0.64467917634E+03  0.18626167911E+02  0.64252574773E+03  0.91494621748E+03  0.91263737822E+02 0.  0.
         11    1    3    3    0    0 -0.21950074097E+03 -0.21426660293E+02  0.26659963316E+03  0.34599861482E+03  0.00000000000E+00 0.  1.
        -11    1    3    3    0    0 -0.42517843537E+03  0.40052828204E+02  0.37592611457E+03  0.56894760266E+03  0.00000000000E+00 0. -1.
         22    1    1    2    0    0  0.64467917634E+03 -0.18626167911E+02 -0.22277477898E+04  0.23192279727E+04  0.00000000000E+00 0.  1.
<mgrwt>
<rscale>  0 0.28190342E+04</rscale>
<asrwt>0</asrwt>
<pdfrwt beam="1">  1        1 0.37072279E+00 0.28190342E+04</pdfrwt>
<pdfrwt beam="2">  1       -1 0.12684247E+00 0.28190342E+04</pdfrwt>
<totfact> 0.72925821E-01</totfact>
</mgrwt>
</event>
<event>
 6    1  0.1878398E-004  0.2066353E+04  0.7818608E-02  0.8576212E-01
          1   -1    0    0  501    0  0.00000000000E+00  0.00000000000E+00  0.31243349065E+04  0.31243349065E+04  0.00000000000E+00 0.  1.
         -1   -1    0    0    0  501 -0.00000000000E+00 -0.00000000000E+00 -0.34165795933E+03  0.34165795933E+03  0.00000000000E+00 0. -1.
         23    2    1    2    0    0 -0.40820927999E+03  0.22840362610E+03  0.29353891399E+04  0.29739318468E+04  0.94647735869E+02 0.  0.
         13    1    3    3    0    0 -0.54181102081E+02  0.63339433977E+02  0.66227175936E+03  0.66749633630E+03  0.00000000000E+00 0. -1.
        -13    1    3    3    0    0 -0.35402817791E+03  0.16506419212E+03  0.22731173805E+04  0.23064355105E+04  0.00000000000E+00 0.  1.
         22    1    1    2    0    0  0.40820927999E+03 -0.22840362610E+03 -0.15271219272E+03  0.49206101907E+03  0.00000000000E+00 0. -1.
<mgrwt>
<rscale>  0 0.20663532E+04</rscale>
<asrwt>0</asrwt>
<pdfrwt beam="1">  1        1 0.48066689E+00 0.20663532E+04</pdfrwt>
<pdfrwt beam="2">  1       -1 0.52562765E-01 0.20663532E+04</pdfrwt>
<totfact> 0.16319279E+00</totfact>
</mgrwt>
</event>
<event>
 6    1  0.1878398E-004  0.1728823E+04  0.7818608E-02  0.8745094E-01
          2   -1    0    0  501    0  0.00000000000E+00  0.00000000000E+00  0.13353787547E+04  0.13353787547E+04  0.00000000000E+00 0.  1.
         -2   -1    0    0    0  501 -0.00000000000E+00 -0.00000000000E+00 -0.55954698447E+03  0.55954698447E+03  0.00000000000E+00 0. -1.
         23    2    1    2    0    0 -0.64239234520E+03  0.21582930690E+03  0.97288878199E+03  0.11891767181E+04  0.91533981641E+02 0.  0.
         11    1    3    3    0    0 -0.43095751643E+03  0.11166794715E+03  0.58235738253E+03  0.73303085363E+03  0.00000000000E+00 0. -1.
        -11    1    3    3    0    0 -0.21143482876E+03  0.10416135975E+03  0.39053139946E+03  0.45614586444E+03  0.00000000000E+00 0.  1.
         22    1    1    2    0    0  0.64239234520E+03 -0.21582930690E+03 -0.19705701176E+03  0.70574902109E+03  0.00000000000E+00 0. -1.
<mgrwt>
<rscale>  0 0.17288229E+04</rscale>
<asrwt>0</asrwt>
<pdfrwt beam="1">  1        2 0.20544289E+00 0.17288229E+04</pdfrwt>
<pdfrwt beam="2">  1       -2 0.86084152E-01 0.17288229E+04</pdfrwt>
<totfact> 0.17522912E+01</totfact>
</mgrwt>
</event>
<event>
 6    1  0.1878398E-004  0.2155854E+04  0.7818608E-02  0.8537031E-01
          2   -1    0    0  501    0  0.00000000000E+00  0.00000000000E+00  0.27216003555E+04  0.27216003555E+04  0.00000000000E+00 0.  1.
         -2   -1    0    0    0  501 -0.00000000000E+00 -0.00000000000E+00 -0.42692766420E+03  0.42692766420E+03  0.00000000000E+00 0. -1.
         23    2    1    2    0    0 -0.55308075060E+03 -0.90891262416E+03  0.13864945952E+04  0.17496685095E+04  0.83379587222E+02 0.  0.
         11    1    3    3    0    0 -0.43002260833E+02 -0.11044905826E+03  0.12906696553E+03  0.17523261825E+03  0.00000000000E+00 0. -1.
        -11    1    3    3    0    0 -0.51007848977E+03 -0.79846356590E+03  0.12574276297E+04  0.15744358913E+04  0.00000000000E+00 0.  1.
         22    1    1    2    0    0  0.55308075060E+03  0.90891262416E+03  0.90817809607E+03  0.13988595102E+04  0.00000000000E+00 0. -1.
<mgrwt>
<rscale>  0 0.21558539E+04</rscale>
<asrwt>0</asrwt>
<pdfrwt beam="1">  1        2 0.41870774E+00 0.21558539E+04</pdfrwt>
<pdfrwt beam="2">  1       -2 0.65681181E-01 0.21558539E+04</pdfrwt>
<totfact> 0.50510705E+00</totfact>
</mgrwt>
</event>
<event>
 6    1  0.1878398E-004  0.3784508E+04  0.7818608E-02  0.8049488E-01
          1   -1    0    0  501    0  0.00000000000E+00  0.00000000000E+00  0.35030777938E+04  0.35030777938E+04  0.00000000000E+00 0.  1.
         -1   -1    0    0    0  501 -0.00000000000E+00 -0.00000000000E+00 -0.10221371386E+04  0.10221371386E+04  0.00000000000E+00 0. -1.
         23    2    1    2    0    0  0.15130212726E+04  0.57388136334E+03  0.70900454143E+02  0.16223082922E+04  0.91017195439E+02 0.  0.
         11    1    3    3    0    0  0.13447021523E+04  0.52487407285E+03  0.87870379948E+02  0.14461804433E+04  0.00000000000E+00 0.  1.
        -11    1    3    3    0    0  0.16831912031E+03  0.49007290491E+02 -0.16969925806E+02  0.17612784892E+03  0.00000000000E+00 0. -1.
         22    1    1    2    0    0 -0.15130212726E+04 -0.57388136334E+03  0.24100402011E+04  0.29029066402E+04  0.00000000000E+00 0.  1.
<mgrwt>
<rscale>  0 0.37845084E+04</rscale>
<asrwt>0</asrwt>
<pdfrwt beam="1">  1        1 0.53893504E+00 0.37845084E+04</pdfrwt>
<pdfrwt beam="2">  1       -1 0.15725187E+00 0.37845084E+04</pdfrwt>
<totfact> 0.60617249E-02</totfact>
</mgrwt>
</event>
<event>
 6    1  0.1878398E-004  0.3268698E+04  0.7818608E-02  0.8170906E-01
          1   -1    0    0  501    0  0.00000000000E+00  0.00000000000E+00  0.23129982771E+04  0.23129982771E+04  0.00000000000E+00 0.  1.
         -1   -1    0    0    0  501 -0.00000000000E+00 -0.00000000000E+00 -0.11548202206E+04  0.11548202206E+04  0.00000000000E+00 0. -1.
         23    2    1    2    0    0  0.17112794396E+03 -0.14204217198E+04  0.14149259651E+04  0.20142703823E+04  0.91580843845E+02 0.  0.
         13    1    3    3    0    0  0.77718908158E+02 -0.90774625617E+03  0.85629907195E+03  0.12503165979E+04  0.00000000000E+00 0.  1.
        -13    1    3    3    0    0  0.93409035798E+02 -0.51267546359E+03  0.55862689318E+03  0.76395378441E+03  0.00000000000E+00 0. -1.
         22    1    1    2    0    0 -0.17112794396E+03  0.14204217198E+04 -0.25674790867E+03  0.14535481154E+04  0.00000000000E+00 0. -1.
<mgrwt>
<rscale>  0 0.32686983E+04</rscale>
<asrwt>0</asrwt>
<pdfrwt beam="1">  1        1 0.35584589E+00 0.32686983E+04</pdfrwt>
<pdfrwt beam="2">  1       -1 0.17766465E+00 0.32686983E+04</pdfrwt>
<totfact> 0.32807290E-01</totfact>
</mgrwt>
</event>
<event>
 6    1  0.1878398E-004  0.4404162E+04  0.7818608E-02  0.7927633E-01
          2   -1    0    0  501    0  0.00000000000E+00  0.00000000000E+00  0.25809379386E+04  0.25809379386E+04  0.00000000000E+00 0.  1.
         -2   -1    0    0    0  501 -0.00000000000E+00 -0.00000000000E+00 -0.18788369474E+04  0.18788369474E+04  0.00000000000E+00 0. -1.
         23    2    1    2    0    0  0.76300643025E+03 -0.17449807295E+04  0.14687429078E+04  0.24067584742E+04  0.90244475380E+02 0.  0.
         13    1    3    3    0    0  0.56537417316E+03 -0.13455202172E+04  0.10842869816E+04  0.18181723981E+04  0.00000000000E+00 0. -1.
        -13    1    3    3    0    0  0.19763225710E+03 -0.39946051225E+03  0.38445592614E+03  0.58858607615E+03  0.00000000000E+00 0.  1.
         22    1    1    2    0    0 -0.76300643025E+03  0.17449807295E+04 -0.76664191653E+03  0.20530164118E+04  0.00000000000E+00 0. -1.
<mgrwt>
<rscale>  0 0.44041624E+04</rscale>
<asrwt>0</asrwt>
<pdfrwt beam="1">  1        2 0.39706738E+00 0.44041624E+04</pdfrwt>
<pdfrwt beam="2">  1       -2 0.28905184E+00 0.44041624E+04</pdfrwt>
<totfact> 0.88414645E-02</totfact>
</mgrwt>
</event>
<event>
 6    1  0.1878398E-004  0.2727201E+04  0.7818608E-02  0.8326233E-01
          2   -1    0    0  501    0  0.00000000000E+00  0.00000000000E+00  0.22439496467E+04  0.22439496467E+04  0.00000000000E+00 0.  1.
         -2   -1    0    0    0  501 -0.00000000000E+00 -0.00000000000E+00 -0.82863118931E+03  0.82863118931E+03  0.00000000000E+00 0. -1.
         23    2    1    2    0    0 -0.95946352679E+03 -0.96484400388E+03  0.77740044905E+03  0.15697722666E+04  0.91319765539E+02 0.  0.
         11    1    3    3    0    0 -0.41545349282E+03 -0.37460758955E+03  0.35746816514E+03  0.66386439876E+03  0.00000000000E+00 0. -1.
        -11    1    3    3    0    0 -0.54401003397E+03 -0.59023641433E+03  0.41993228391E+03  0.90590786779E+03  0.00000000000E+00 0.  1.
         22    1    1    2    0    0  0.95946352679E+03  0.96484400388E+03  0.63791800832E+03  0.15028085694E+04  0.00000000000E+00 0. -1.
<mgrwt>
<rscale>  0 0.27272012E+04</rscale>
<asrwt>0</asrwt>
<pdfrwt beam="1">  1        2 0.34522302E+00 0.27272012E+04</pdfrwt>
<pdfrwt beam="2">  1       -2 0.12748172E+00 0.27272012E+04</pdfrwt>
<totfact> 0.19480585E+00</totfact>
</mgrwt>
</event>
<event>
 6    1  0.1878398E-004  0.2625632E+04  0.7818608E-02  0.8359546E-01
         -2   -1    0    0    0  501 -0.00000000000E+00  0.00000000000E+00  0.10047933230E+04  0.10047933230E+04  0.00000000000E+00 0. -1.
          2   -1    0    0  501    0  0.00000000000E+00 -0.00000000000E+00 -0.17152638380E+04  0.17152638380E+04  0.00000000000E+00 0.  1.
         23    2    1    2    0    0 -0.48661697619E+03 -0.16194621011E+03 -0.16058589745E+04  0.16881932408E+04  0.90502573753E+02 0.  0.
         13    1    3    3    0    0 -0.30291336561E+03 -0.68047568423E+02 -0.85985530272E+03  0.91418713634E+03  0.00000000000E+00 0.  1.
        -13    1    3    3    0    0 -0.18370361058E+03 -0.93898641685E+02 -0.74600367180E+03  0.77400610449E+03  0.00000000000E+00 0. -1.
         22    1    1    2    0    0  0.48661697619E+03  0.16194621011E+03  0.89538845948E+03  0.10318639202E+04  0.00000000000E+00 0. -1.
<mgrwt>
<rscale>  0 0.26256318E+04</rscale>
<asrwt>0</asrwt>
<pdfrwt beam="1">  1        2 0.26388674E+00 0.26256318E+04</pdfrwt>
<pdfrwt beam="2">  1       -2 0.15458359E+00 0.26256318E+04</pdfrwt>
<totfact> 0.23476214E+00</totfact>
</mgrwt>
</event>
<event>
 6    1  0.1878398E-004  0.1480630E+04  0.7818608E-02  0.8897437E-01
          2   -1    0    0  501    0  0.00000000000E+00  0.00000000000E+00  0.64928369273E+03  0.64928369273E+03  0.00000000000E+00 0.  1.
         -2   -1    0    0    0  501 -0.00000000000E+00 -0.00000000000E+00 -0.84410906094E+03  0.84410906094E+03  0.00000000000E+00 0. -1.
         23    2    1    2    0    0 -0.12637143137E+03 -0.40095337798E+03 -0.70895976570E+03  0.82926360308E+03  0.91218550931E+02 0.  0.
         13    1    3    3    0    0 -0.95384314129E+02 -0.21897114458E+03 -0.32598607805E+03  0.40412059168E+03  0.00000000000E+00 0. -1.
        -13    1    3    3    0    0 -0.30987117239E+02 -0.18198223341E+03 -0.38297368765E+03  0.42514301140E+03  0.00000000000E+00 0.  1.
         22    1    1    2    0    0  0.12637143137E+03  0.40095337798E+03  0.51413439748E+03  0.66412915059E+03  0.00000000000E+00 0.  1.
<mgrwt>
<rscale>  0 0.14806299E+04</rscale>
<asrwt>0</asrwt>
<pdfrwt beam="1">  1        2 0.99889799E-01 0.14806299E+04</pdfrwt>
<pdfrwt beam="2">  1       -2 0.12986293E+00 0.14806299E+04</pdfrwt>
<totfact> 0.18964235E+01</totfact>
</mgrwt>
</event>
<event>
 6    1  0.1878398E-004  0.2738701E+04  0.7818608E-02  0.8322556E-01
          1   -1    0    0  501    0  0.00000000000E+00  0.00000000000E+00  0.13976261161E+04  0.13976261161E+04  0.00000000000E+00 0.  1.
         -1   -1    0    0    0  501 -0.00000000000E+00 -0.00000000000E+00 -0.13416469092E+04  0.13416469092E+04  0.00000000000E+00 0. -1.
         23    2    1    2    0    0 -0.16025467364E+03  0.71481062285E+03 -0.11273931645E+04  0.13475094116E+04  0.90169174777E+02 0.  0.
         13    1    3    3    0    0 -0.60193557342E+02  0.45018177229E+03 -0.72809222536E+03  0.85814053690E+03  0.00000000000E+00 0. -1.
        -13    1    3    3    0    0 -0.10006111630E+03  0.26462885057E+03 -0.39930093916E+03  0.48936887474E+03  0.00000000000E+00 0.  1.
         22    1    1    2    0    0  0.16025467364E+03 -0.71481062285E+03  0.11833723715E+04  0.13917636137E+04  0.00000000000E+00 0.  1.
<mgrwt>
<rscale>  0 0.27387010E+04</rscale>
<asrwt>0</asrwt>
<pdfrwt beam="1">  1        1 0.21501940E+00 0.27387010E+04</pdfrwt>
<pdfrwt beam="2">  1       -1 0.20640722E+00 0.27387010E+04</pdfrwt>
<totfact> 0.91290761E-01</totfact>
</mgrwt>
</event>
<event>
 6    1  0.1878398E-004  0.1550067E+04  0.7818608E-02  0.8851825E-01
         -1   -1    0    0    0  501 -0.00000000000E+00  0.00000000000E+00  0.28388488483E+03  0.28388488483E+03  0.00000000000E+00 0. -1.
          1   -1    0    0  501    0  0.00000000000E+00 -0.00000000000E+00 -0.21159177711E+04  0.21159177711E+04  0.00000000000E+00 0.  1.
         23    2    1    2    0    0 -0.15060713271E+03 -0.75723420909E+03 -0.93988713279E+03  0.12199678364E+04  0.94061382601E+02 0.  0.
         11    1    3    3    0    0 -0.14710242293E+03 -0.71281623031E+03 -0.91415819924E+03  0.11685167154E+04  0.00000000000E+00 0.  1.
        -11    1    3    3    0    0 -0.35047097856E+01 -0.44417978782E+02 -0.25728933557E+02  0.51451120996E+02  0.00000000000E+00 0. -1.
         22    1    1    2    0    0  0.15060713271E+03  0.75723420909E+03 -0.89214575346E+03  0.11798348195E+04  0.00000000000E+00 0. -1.
<mgrwt>
<rscale>  0 0.15500672E+04</rscale>
<asrwt>0</asrwt>
<pdfrwt beam="1">  1        1 0.32552582E+00 0.15500672E+04</pdfrwt>
<pdfrwt beam="2">  1       -1 0.43674596E-01 0.15500672E+04</pdfrwt>
<totfact> 0.12411293E+01</totfact>
</mgrwt>
</event>
<event>
 6    1  0.1878398E-004  0.1884693E+04  0.7818608E-02  0.8662513E-01
          1   -1    0    0  501    0  0.00000000000E+00  0.00000000000E+00  0.67645662284E+03  0.67645662284E+03  0.00000000000E+00 0.  1.
         -1   -1    0    0    0  501 -0.00000000000E+00 -0.00000000000E+00 -0.13127475296E+04  0.13127475296E+04  0.00000000000E+00 0. -1.
         23    2    1    2    0    0 -0.79921788458E+03 -0.49350990652E+03 -0.36091554748E+03  0.10103615484E+04  0.90934983741E+02 0.  0.
         13    1    3    3    0    0 -0.25194334635E+03 -0.18775449911E+03 -0.85487411738E+02  0.32563061784E+03  0.00000000000E+00 0.  1.
        -13    1    3    3    0    0 -0.54727453823E+03 -0.30575540741E+03 -0.27542813574E+03  0.68473093060E+03  0.00000000000E+00 0. -1.
         22    1    1    2    0    0  0.79921788458E+03  0.49350990652E+03 -0.27537535924E+03  0.97884260397E+03  0.00000000000E+00 0. -1.
<mgrwt>
<rscale>  0 0.18846928E+04</rscale>
<asrwt>0</asrwt>
<pdfrwt beam="1">  1        1 0.10407025E+00 0.18846928E+04</pdfrwt>
<pdfrwt beam="2">  1       -1 0.20196116E+00 0.18846928E+04</pdfrwt>
<totfact> 0.39210070E+00</totfact>
</mgrwt>
</event>
<event>
 6    1  0.1878398E-004  0.8966882E+03  0.7818608E-02  0.9429731E-01
          2   -1    0    0  501    0  0.00000000000E+00  0.00000000000E+00  0.20184179196E+04  0.20184179196E+04  0.00000000000E+00 0.  1.
         -2   -1    0    0    0  501 -0.00000000000E+00 -0.00000000000E+00 -0.99589098937E+02  0.99589098937E+02  0.00000000000E+00 0. -1.
         23    2    1    2    0    0  0.31675284951E+03 -0.30849812394E+03  0.87052934714E+03  0.98027451644E+03  0.87254359225E+02 0.  0.
         11    1    3    3    0    0  0.14180146253E+03 -0.90698419451E+02  0.27407991195E+03  0.32164212442E+03  0.00000000000E+00 0. -1.
        -11    1    3    3    0    0  0.17495138698E+03 -0.21779970449E+03  0.59644943519E+03  0.65863239202E+03  0.00000000000E+00 0.  1.
         22    1    1    2    0    0 -0.31675284951E+03  0.30849812394E+03  0.10482994736E+04  0.11377325021E+04  0.00000000000E+00 0.  1.
<mgrwt>
<rscale>  0 0.89668818E+03</rscale>
<asrwt>0</asrwt>
<pdfrwt beam="1">  1        2 0.31052580E+00 0.89668818E+03</pdfrwt>
<pdfrwt beam="2">  1       -2 0.15321401E-01 0.89668818E+03</pdfrwt>
<totfact> 0.22327177E+02</totfact>
</mgrwt>
</event>
<event>
 6    1  0.1878398E-004  0.2611486E+04  0.7818608E-02  0.8364310E-01
         -1   -1    0    0    0  501 -0.00000000000E+00  0.00000000000E+00  0.20720426341E+04  0.20720426341E+04  0.00000000000E+00 0. -1.
          1   -1    0    0  501    0  0.00000000000E+00 -0.00000000000E+00 -0.82284282917E+03  0.82284282917E+03  0.00000000000E+00 0.  1.
         23    2    1    2    0    0 -0.81106761533E+03 -0.18022641605E+03  0.17396252482E+04  0.19300904834E+04  0.92957152265E+02 0.  0.
         13    1    3    3    0    0 -0.70629195779E+03 -0.18512172870E+03  0.14883193633E+04  0.16577734801E+04  0.00000000000E+00 0.  1.
        -13    1    3    3    0    0 -0.10477565754E+03  0.48953126576E+01  0.25130588487E+03  0.27231700327E+03  0.00000000000E+00 0. -1.
         22    1    1    2    0    0  0.81106761533E+03  0.18022641605E+03 -0.49042544332E+03  0.96479497985E+03  0.00000000000E+00 0.  1.
<mgrwt>
<rscale>  0 0.26114865E+04</rscale>
<asrwt>0</asrwt>
<pdfrwt beam="1">  1        1 0.12659121E+00 0.26114865E+04</pdfrwt>
<pdfrwt beam="2">  1       -1 0.31877579E+00 0.26114865E+04</pdfrwt>
<totfact> 0.46338723E-01</totfact>
</mgrwt>
</event>
<event>
 6    1  0.1878398E-004  0.4448699E+04  0.7818608E-02  0.7919680E-01
          2   -1    0    0  501    0  0.00000000000E+00  0.00000000000E+00  0.23506811714E+04  0.23506811714E+04  0.00000000000E+00 0.  1.
         -2   -1    0    0    0  501 -0.00000000000E+00 -0.00000000000E+00 -0.21048076895E+04  0.21048076895E+04  0.00000000000E+00 0. -1.
         23    2    1    2    0    0 -0.37111659492E+03  0.68875564920E+03  0.22074058375E+04  0.23436836964E+04  0.90004811441E+02 0.  0.
         11    1    3    3    0    0 -0.28808568021E+03  0.45648256257E+03  0.15709165855E+04  0.16610685138E+04  0.00000000000E+00 0. -1.
        -11    1    3    3    0    0 -0.83030914706E+02  0.23227308663E+03  0.63648925200E+03  0.68261518257E+03  0.00000000000E+00 0.  1.
         22    1    1    2    0    0  0.37111659492E+03 -0.68875564920E+03 -0.19615323556E+04  0.21118051646E+04  0.00000000000E+00 0. -1.
<mgrwt>
<rscale>  0 0.44486995E+04</rscale>
<asrwt>0</asrwt>
<pdfrwt beam="1">  1        2 0.36164326E+00 0.44486995E+04</pdfrwt>
<pdfrwt beam="2">  1       -2 0.32381657E+00 0.44486995E+04</pdfrwt>
<totfact> 0.73195431E-02</totfact>
</mgrwt>
</event>
<event>
 6    1  0.1878398E-004  0.3873656E+04  0.7818608E-02  0.8030531E-01
          1   -1    0    0  501    0  0.00000000000E+00  0.00000000000E+00  0.35550736356E+04  0.35550736356E+04  0.00000000000E+00 0.  1.
         -1   -1    0    0    0  501 -0.00000000000E+00 -0.00000000000E+00 -0.10551967612E+04  0.10551967612E+04  0.00000000000E+00 0. -1.
         23    2    1    2    0    0 -0.82353176626E+03  0.64545566450E+03 -0.68756290337E+03  0.12554842751E+04  0.93168847250E+02 0.  0.
         11    1    3    3    0    0 -0.10331314620E+03  0.85583276018E+02 -0.12728629185E+03  0.18493215893E+03  0.00000000000E+00 0.  1.
        -11    1    3    3    0    0 -0.72021862006E+03  0.55987238848E+03 -0.56027661152E+03  0.10705521162E+04  0.00000000000E+00 0. -1.
         22    1    1    2    0    0  0.82353176626E+03 -0.64545566450E+03  0.31874397778E+04  0.33547861216E+04  0.00000000000E+00 0.  1.
<mgrwt>
<rscale>  0 0.38736557E+04</rscale>
<asrwt>0</asrwt>
<pdfrwt beam="1">  1        1 0.54693440E+00 0.38736557E+04</pdfrwt>
<pdfrwt beam="2">  1       -1 0.16233796E+00 0.38736557E+04</pdfrwt>
<totfact> 0.50056152E-02</totfact>
</mgrwt>
</event>
<event>
 6    1  0.1878398E-004  0.7243669E+03  0.7818608E-02  0.9676446E-01
         -2   -1    0    0    0  501 -0.00000000000E+00  0.00000000000E+00  0.23950284971E+03  0.23950284971E+03  0.00000000000E+00 0. -1.
          2   -1    0    0  501    0  0.00000000000E+00 -0.00000000000E+00 -0.54770470236E+03  0.54770470236E+03  0.00000000000E+00 0.  1.
         23    2    1    2    0    0 -0.87836760768E+02 -0.57984318186E+02  0.21353859689E+03  0.25495707120E+03  0.91251838875E+02 0.  0.
         13    1    3    3    0    0 -0.64156705901E+02  0.10048908898E+02  0.12457906652E+03  0.14048845966E+03  0.00000000000E+00 0. -1.
        -13    1    3    3    0    0 -0.23680054867E+02 -0.68033227083E+02  0.88959530373E+02  0.11446861155E+03  0.00000000000E+00 0.  1.
         22    1    1    2    0    0  0.87836760768E+02  0.57984318186E+02 -0.52174044954E+03  0.53225048087E+03  0.00000000000E+00 0.  1.
<mgrwt>
<rscale>  0 0.72436686E+03</rscale>
<asrwt>0</asrwt>
<pdfrwt beam="1">  1        2 0.84262261E-01 0.72436686E+03</pdfrwt>
<pdfrwt beam="2">  1       -2 0.36846593E-01 0.72436686E+03</pdfrwt>
<totfact> 0.38665037E+02</totfact>
</mgrwt>
</event>
<event>
 6    1  0.1878398E-004  0.9109415E+03  0.7818608E-02  0.9412006E-01
         -1   -1    0    0    0  501 -0.00000000000E+00  0.00000000000E+00  0.22130644568E+03  0.22130644568E+03  0.00000000000E+00 0. -1.
          1   -1    0    0  501    0  0.00000000000E+00 -0.00000000000E+00 -0.93740430242E+03  0.93740430242E+03  0.00000000000E+00 0.  1.
         23    2    1    2    0    0  0.29745457166E+03  0.21623844279E+03 -0.69381552014E+03  0.79028872260E+03  0.89095469836E+02 0.  0.
         11    1    3    3    0    0  0.22160317859E+03  0.10960689879E+03 -0.46850345153E+03  0.52973306969E+03  0.00000000000E+00 0. -1.
        -11    1    3    3    0    0  0.75851393075E+02  0.10663154399E+03 -0.22531206860E+03  0.26055565291E+03  0.00000000000E+00 0.  1.
         22    1    1    2    0    0 -0.29745457166E+03 -0.21623844279E+03 -0.22282336601E+02  0.36842202549E+03  0.00000000000E+00 0. -1.
<mgrwt>
<rscale>  0 0.91094152E+03</rscale>
<asrwt>0</asrwt>
<pdfrwt beam="1">  1        1 0.14421605E+00 0.91094152E+03</pdfrwt>
<pdfrwt beam="2">  1       -1 0.34047145E-01 0.91094152E+03</pdfrwt>
<totfact> 0.13913088E+02</totfact>
</mgrwt>
</event>
<event>
 6    1  0.1878398E-004  0.5091093E+04  0.7818608E-02  0.7814607E-01
         -2   -1    0    0    0  501 -0.00000000000E+00  0.00000000000E+00  0.25083647983E+04  0.25083647983E+04  0.00000000000E+00 0. -1.
          2   -1    0    0  501    0  0.00000000000E+00 -0.00000000000E+00 -0.25832789271E+04  0.25832789271E+04  0.00000000000E+00 0.  1.
         23    2    1    2    0    0 -0.79501238843E+03  0.23383517279E+04  0.57588875643E+03  0.25375337245E+04  0.86579687620E+02 0.  0.
         13    1    3    3    0    0 -0.20393112323E+03  0.50553197148E+03  0.10742289506E+03  0.55559891612E+03  0.00000000000E+00 0. -1.
        -13    1    3    3    0    0 -0.59108126520E+03  0.18328197564E+04  0.46846586137E+03  0.19819348084E+04  0.00000000000E+00 0.  1.
         22    1    1    2    0    0  0.79501238843E+03 -0.23383517279E+04 -0.65080288526E+03  0.25541100008E+04  0.00000000000E+00 0.  1.
<mgrwt>
<rscale>  0 0.50910926E+04</rscale>
<asrwt>0</asrwt>
<pdfrwt beam="1">  1        2 0.39742753E+00 0.50910926E+04</pdfrwt>
<pdfrwt beam="2">  1       -2 0.38590228E+00 0.50910926E+04</pdfrwt>
<totfact> 0.20640362E-02</totfact>
</mgrwt>
</event>
<event>
 6    1  0.1878398E-004  0.1802425E+04  0.7818608E-02  0.8705011E-01
         -2   -1    0    0    0  501 -0.00000000000E+00  0.00000000000E+00  0.61774197851E+03  0.61774197851E+03  0.00000000000E+00 0. -1.
          2   -1    0    0  501    0  0.00000000000E+00 -0.00000000000E+00 -0.13147624790E+04  0.13147624790E+04  0.00000000000E+00 0.  1.
         23    2    1    2    0    0  0.34788891012E+03  0.78529063693E+03 -0.63341908086E+03  0.10712534959E+04  0.93038928884E+02 0.  0.
         11    1    3    3    0    0  0.59402014474E+02  0.23397999685E+03 -0.16463209854E+03  0.29219679348E+03  0.00000000000E+00 0. -1.
        -11    1    3    3    0    0  0.28848689564E+03  0.55131064007E+03 -0.46878698232E+03  0.77905670244E+03  0.00000000000E+00 0.  1.
         22    1    1    2    0    0 -0.34788891012E+03 -0.78529063693E+03 -0.63601419596E+02  0.86125096157E+03  0.00000000000E+00 0. -1.
<mgrwt>
<rscale>  0 0.18024250E+04</rscale>
<asrwt>0</asrwt>
<pdfrwt beam="1">  1        2 0.20227115E+00 0.18024250E+04</pdfrwt>
<pdfrwt beam="2">  1       -2 0.95037227E-01 0.18024250E+04</pdfrwt>
<totfact> 0.14246381E+01</totfact>
</mgrwt>
</event>
<event>
 6    1  0.1878398E-004  0.3522750E+04  0.7818608E-02  0.8108420E-01
         -2   -1    0    0    0  501 -0.00000000000E+00  0.00000000000E+00  0.20894455986E+04  0.20894455986E+04  0.00000000000E+00 0.  1.
          2   -1    0    0  501    0  0.00000000000E+00 -0.00000000000E+00 -0.14848157100E+04  0.14848157100E+04  0.00000000000E+00 0. -1.
         23    2    1    2    0    0  0.46356226123E+02 -0.11340556828E+04  0.16676550735E+04  0.20191877620E+04  0.88400128208E+02 0.  0.
         11    1    3    3    0    0  0.52424954027E+02 -0.78543803739E+03  0.10915430043E+04  0.13457813405E+04  0.00000000000E+00 0.  1.
        -11    1    3    3    0    0 -0.60687279044E+01 -0.34861764537E+03  0.57611206925E+03  0.67340642145E+03  0.00000000000E+00 0. -1.
         22    1    1    2    0    0 -0.46356226123E+02  0.11340556828E+04 -0.10630251849E+04  0.15550735465E+04  0.00000000000E+00 0. -1.
<mgrwt>
<rscale>  0 0.35227499E+04</rscale>
<asrwt>0</asrwt>
<pdfrwt beam="1">  1        2 0.22843319E+00 0.35227499E+04</pdfrwt>
<pdfrwt beam="2">  1       -2 0.32145317E+00 0.35227499E+04</pdfrwt>
<totfact> 0.24901042E-01</totfact>
</mgrwt>
</event>
<event>
 6    1  0.1878398E-004  0.8258621E+03  0.7818608E-02  0.9523319E-01
          2   -1    0    0  501    0  0.00000000000E+00  0.00000000000E+00  0.55719394977E+03  0.55719394977E+03  0.00000000000E+00 0.  1.
         -2   -1    0    0    0  501 -0.00000000000E+00 -0.00000000000E+00 -0.30601919495E+03  0.30601919495E+03  0.00000000000E+00 0. -1.
         23    2    1    2    0    0 -0.57702495490E+02 -0.15628650284E+03  0.51651092294E+03  0.54991084491E+03  0.88675559616E+02 0.  0.
         11    1    3    3    0    0 -0.72307931456E+02 -0.76722614745E+02  0.24798498944E+03  0.26946493566E+03  0.00000000000E+00 0.  1.
        -11    1    3    3    0    0  0.14605435966E+02 -0.79563888092E+02  0.26852593350E+03  0.28044590924E+03  0.00000000000E+00 0. -1.
         22    1    1    2    0    0  0.57702495490E+02  0.15628650284E+03 -0.26533616812E+03  0.31330229981E+03  0.00000000000E+00 0. -1.
<mgrwt>
<rscale>  0 0.82586208E+03</rscale>
<asrwt>0</asrwt>
<pdfrwt beam="1">  1        2 0.85722146E-01 0.82586208E+03</pdfrwt>
<pdfrwt beam="2">  1       -2 0.47079876E-01 0.82586208E+03</pdfrwt>
<totfact> 0.23319433E+02</totfact>
</mgrwt>
</event>
<event>
 6    1  0.1878398E-004  0.3059802E+04  0.7818608E-02  0.8226857E-01
         -1   -1    0    0    0  501 -0.00000000000E+00  0.00000000000E+00  0.15159062492E+04  0.15159062492E+04  0.00000000000E+00 0. -1.
          1   -1    0    0  501    0  0.00000000000E+00 -0.00000000000E+00 -0.15440249957E+04  0.15440249957E+04  0.00000000000E+00 0.  1.
         23    2    1    2    0    0 -0.15187212933E+03 -0.89597710276E+03 -0.12428658680E+04  0.15428779560E+04  0.99582673443E+02 0.  0.
         11    1    3    3    0    0 -0.53744786469E+02 -0.35968264957E+03 -0.58023728155E+03  0.68478859028E+03  0.00000000000E+00 0. -1.
        -11    1    3    3    0    0 -0.98127342861E+02 -0.53629445319E+03 -0.66262858649E+03  0.85808936573E+03  0.00000000000E+00 0.  1.
         22    1    1    2    0    0  0.15187212933E+03  0.89597710276E+03  0.12147471215E+04  0.15170532890E+04  0.00000000000E+00 0. -1.
<mgrwt>
<rscale>  0 0.30598020E+04</rscale>
<asrwt>0</asrwt>
<pdfrwt beam="1">  1        1 0.23754231E+00 0.30598020E+04</pdfrwt>
<pdfrwt beam="2">  1       -1 0.23321635E+00 0.30598020E+04</pdfrwt>
<totfact> 0.46407287E-01</totfact>
</mgrwt>
</event>
<event>
 6    1  0.1878398E-004  0.2102750E+04  0.7818608E-02  0.8560033E-01
         -2   -1    0    0    0  501 -0.00000000000E+00  0.00000000000E+00  0.54145586494E+03  0.54145586494E+03  0.00000000000E+00 0. -1.
          2   -1    0    0  501    0  0.00000000000E+00 -0.00000000000E+00 -0.20415133855E+04  0.20415133855E+04  0.00000000000E+00 0.  1.
         23    2    1    2    0    0  0.51982300260E+02 -0.96123411096E+03 -0.23904605102E+03  0.99651940821E+03  0.96097558781E+02 0.  0.
         13    1    3    3    0    0 -0.26206467505E+02 -0.38754850035E+03 -0.95510605480E+02  0.40000361851E+03  0.00000000000E+00 0. -1.
        -13    1    3    3    0    0  0.78188767766E+02 -0.57368561061E+03 -0.14353544554E+03  0.59651578969E+03  0.00000000000E+00 0.  1.
         22    1    1    2    0    0 -0.51982300260E+02  0.96123411096E+03 -0.12610114696E+04  0.15864498422E+04  0.00000000000E+00 0.  1.
<mgrwt>
<rscale>  0 0.21027500E+04</rscale>
<asrwt>0</asrwt>
<pdfrwt beam="1">  1        2 0.31407899E+00 0.21027500E+04</pdfrwt>
<pdfrwt beam="2">  1       -2 0.83300901E-01 0.21027500E+04</pdfrwt>
<totfact> 0.73622081E+00</totfact>
</mgrwt>
</event>
<event>
 6    1  0.1878398E-004  0.4407416E+04  0.7818608E-02  0.7927049E-01
          2   -1    0    0  501    0  0.00000000000E+00  0.00000000000E+00  0.23369775445E+04  0.23369775445E+04  0.00000000000E+00 0.  1.
         -2   -1    0    0    0  501 -0.00000000000E+00 -0.00000000000E+00 -0.20780387818E+04  0.20780387818E+04  0.00000000000E+00 0. -1.
         23    2    1    2    0    0  0.21233543472E+04 -0.12812690210E+03  0.70238041997E+03  0.22420711613E+04  0.92166432267E+02 0.  0.
         11    1    3    3    0    0  0.72114016850E+03 -0.73546510393E+02  0.27280461145E+03  0.77451571181E+03  0.00000000000E+00 0. -1.
        -11    1    3    3    0    0  0.14022141787E+04 -0.54580391707E+02  0.42957580852E+03  0.14675554495E+04  0.00000000000E+00 0.  1.
         22    1    1    2    0    0 -0.21233543472E+04  0.12812690210E+03 -0.44344165724E+03  0.21729451650E+04  0.00000000000E+00 0. -1.
<mgrwt>
<rscale>  0 0.44074165E+04</rscale>
<asrwt>0</asrwt>
<pdfrwt beam="1">  1        2 0.35953501E+00 0.44074165E+04</pdfrwt>
<pdfrwt beam="2">  1       -2 0.31969827E+00 0.44074165E+04</pdfrwt>
<totfact> 0.79291888E-02</totfact>
</mgrwt>
</event>
<event>
 6    1  0.1878398E-004  0.1979942E+04  0.7818608E-02  0.8616056E-01
          4   -1    0    0  501    0  0.00000000000E+00  0.00000000000E+00  0.13024719063E+04  0.13024719063E+04  0.00000000000E+00 0.  1.
         -4   -1    0    0    0  501 -0.00000000000E+00 -0.00000000000E+00 -0.75244793359E+03  0.75244793359E+03  0.00000000000E+00 0. -1.
         23    2    1    2    0    0 -0.30724839007E+03 -0.49870293928E+03  0.11012010274E+04  0.12506174462E+04  0.91071945554E+02 0.  0.
         11    1    3    3    0    0 -0.19761380582E+03 -0.35179760422E+03  0.67077494858E+03  0.78278464614E+03  0.00000000000E+00 0.  1.
        -11    1    3    3    0    0 -0.10963458425E+03 -0.14690533506E+03  0.43042607879E+03  0.46783280008E+03  0.00000000000E+00 0. -1.
         22    1    1    2    0    0  0.30724839007E+03  0.49870293928E+03 -0.55117705467E+03  0.80430239366E+03  0.00000000000E+00 0. -1.
<mgrwt>
<rscale>  0 0.19799417E+04</rscale>
<asrwt>0</asrwt>
<pdfrwt beam="1">  1        4 0.20038029E+00 0.19799417E+04</pdfrwt>
<pdfrwt beam="2">  1       -4 0.11576122E+00 0.19799417E+04</pdfrwt>
<totfact> 0.14092271E-01</totfact>
</mgrwt>
</event>
<event>
 6    1  0.1878398E-004  0.1246977E+04  0.7818608E-02  0.9072703E-01
         -2   -1    0    0    0  501 -0.00000000000E+00  0.00000000000E+00  0.75074922863E+03  0.75074922863E+03  0.00000000000E+00 0. -1.
          2   -1    0    0  501    0  0.00000000000E+00 -0.00000000000E+00 -0.51779953050E+03  0.51779953050E+03  0.00000000000E+00 0.  1.
         23    2    1    2    0    0 -0.12970044326E+03 -0.52901520640E+03 -0.18461743536E+03  0.58222405131E+03  0.90674996042E+02 0.  0.
         11    1    3    3    0    0 -0.86311259625E+02 -0.31668010599E+03 -0.15667490659E+03  0.36370723037E+03  0.00000000000E+00 0. -1.
        -11    1    3    3    0    0 -0.43389183638E+02 -0.21233510041E+03 -0.27942528770E+02  0.21851682095E+03  0.00000000000E+00 0.  1.
         22    1    1    2    0    0  0.12970044326E+03  0.52901520640E+03  0.41756713349E+03  0.68632470781E+03  0.00000000000E+00 0. -1.
<mgrwt>
<rscale>  0 0.12469765E+04</rscale>
<asrwt>0</asrwt>
<pdfrwt beam="1">  1        2 0.79661467E-01 0.12469765E+04</pdfrwt>
<pdfrwt beam="2">  1       -2 0.11549988E+00 0.12469765E+04</pdfrwt>
<totfact> 0.33920524E+01</totfact>
</mgrwt>
</event>
<event>
 6    1  0.1878398E-004  0.2241481E+04  0.7818608E-02  0.8501358E-01
         -4   -1    0    0    0  501 -0.00000000000E+00  0.00000000000E+00  0.94160923536E+03  0.94160923536E+03  0.00000000000E+00 0. -1.
          4   -1    0    0  501    0  0.00000000000E+00 -0.00000000000E+00 -0.13339497463E+04  0.13339497463E+04  0.00000000000E+00 0.  1.
         23    2    1    2    0    0  0.35830102602E+03  0.78480450975E+03  0.52689874364E+03  0.10148851337E+04  0.89843223526E+02 0.  0.
         11    1    3    3    0    0  0.28034618181E+03  0.52631782910E+03  0.33898019238E+03  0.68593877986E+03  0.00000000000E+00 0.  1.
        -11    1    3    3    0    0  0.77954844211E+02  0.25848668065E+03  0.18791855126E+03  0.32894635385E+03  0.00000000000E+00 0. -1.
         22    1    1    2    0    0 -0.35830102602E+03 -0.78480450975E+03 -0.91923925462E+03  0.12606738480E+04  0.00000000000E+00 0.  1.
<mgrwt>
<rscale>  0 0.22414811E+04</rscale>
<asrwt>0</asrwt>
<pdfrwt beam="1">  1        4 0.20522304E+00 0.22414811E+04</pdfrwt>
<pdfrwt beam="2">  1       -4 0.14486296E+00 0.22414811E+04</pdfrwt>
<totfact> 0.72298998E-02</totfact>
</mgrwt>
</event>
<event>
 6    1  0.1878398E-004  0.5938970E+04  0.7818608E-02  0.7698015E-01
          2   -1    0    0  501    0  0.00000000000E+00  0.00000000000E+00  0.26330646954E+04  0.26330646954E+04  0.00000000000E+00 0.  1.
         -2   -1    0    0    0  501 -0.00000000000E+00 -0.00000000000E+00 -0.33488890949E+04  0.33488890949E+04  0.00000000000E+00 0. -1.
         23    2    1    2    0    0 -0.46735315718E+02 -0.17887182788E+04  0.20280809409E+04  0.27061769683E+04  0.92651013456E+02 0.  0.
         13    1    3    3    0    0 -0.66171601310E+02 -0.11219375994E+04  0.12340020130E+04  0.16690966497E+04  0.00000000000E+00 0.  1.
        -13    1    3    3    0    0  0.19436285592E+02 -0.66678067938E+03  0.79407892786E+03  0.10370803186E+04  0.00000000000E+00 0. -1.
         22    1    1    2    0    0  0.46735315718E+02  0.17887182788E+04 -0.27439053404E+04  0.32757768220E+04  0.00000000000E+00 0. -1.
<mgrwt>
<rscale>  0 0.59389702E+04</rscale>
<asrwt>0</asrwt>
<pdfrwt beam="1">  1        2 0.40508688E+00 0.59389702E+04</pdfrwt>
<pdfrwt beam="2">  1       -2 0.51521370E+00 0.59389702E+04</pdfrwt>
<totfact> 0.26588226E-03</totfact>
</mgrwt>
</event>
<event>
 6    1  0.1878398E-004  0.1360575E+04  0.7818608E-02  0.8982861E-01
         -2   -1    0    0    0  501 -0.00000000000E+00  0.00000000000E+00  0.93520536449E+03  0.93520536449E+03  0.00000000000E+00 0. -1.
          2   -1    0    0  501    0  0.00000000000E+00 -0.00000000000E+00 -0.49485498697E+03  0.49485498697E+03  0.00000000000E+00 0.  1.
         23    2    1    2    0    0  0.62351569884E+02  0.16036559719E+03  0.90897806186E+03  0.93084421634E+03  0.10307761703E+03 0.  0.
         13    1    3    3    0    0 -0.13969763763E+02 -0.77252614344E+01  0.73944941633E+02  0.75648452442E+02  0.00000000000E+00 0.  1.
        -13    1    3    3    0    0  0.76321333647E+02  0.16809085863E+03  0.83503312022E+03  0.85519576390E+03  0.00000000000E+00 0. -1.
         22    1    1    2    0    0 -0.62351569884E+02 -0.16036559719E+03 -0.46862768434E+03  0.49921613512E+03  0.00000000000E+00 0.  1.
<mgrwt>
<rscale>  0 0.13605749E+04</rscale>
<asrwt>0</asrwt>
<pdfrwt beam="1">  1        2 0.76131537E-01 0.13605749E+04</pdfrwt>
<pdfrwt beam="2">  1       -2 0.14387775E+00 0.13605749E+04</pdfrwt>
<totfact> 0.20327749E+01</totfact>
</mgrwt>
</event>
<event>
 6    1  0.1878398E-004  0.1562185E+04  0.7818608E-02  0.8844122E-01
          1   -1    0    0  501    0  0.00000000000E+00  0.00000000000E+00  0.16444075420E+04  0.16444075420E+04  0.00000000000E+00 0.  1.
         -1   -1    0    0    0  501 -0.00000000000E+00 -0.00000000000E+00 -0.37101860219E+03  0.37101860219E+03  0.00000000000E+00 0. -1.
         23    2    1    2    0    0 -0.11937573158E+03 -0.66477155676E+03  0.11381748965E+04  0.13266194765E+04  0.91133706478E+02 0.  0.
         11    1    3    3    0    0 -0.88126097917E+02 -0.25009501537E+03  0.46827641896E+03  0.53814173821E+03  0.00000000000E+00 0. -1.
        -11    1    3    3    0    0 -0.31249633666E+02 -0.41467654139E+03  0.66989847755E+03  0.78847773830E+03  0.00000000000E+00 0.  1.
         22    1    1    2    0    0  0.11937573158E+03  0.66477155676E+03  0.13521404333E+03  0.68880666771E+03  0.00000000000E+00 0. -1.
<mgrwt>
<rscale>  0 0.15621854E+04</rscale>
<asrwt>0</asrwt>
<pdfrwt beam="1">  1        1 0.25298577E+00 0.15621854E+04</pdfrwt>
<pdfrwt beam="2">  1       -1 0.57079786E-01 0.15621854E+04</pdfrwt>
<totfact> 0.15559767E+01</totfact>
</mgrwt>
</event>
<event>
 6    1  0.1878398E-004  0.1392141E+04  0.7818608E-02  0.8959527E-01
          2   -1    0    0  501    0  0.00000000000E+00  0.00000000000E+00  0.42804500682E+04  0.42804500682E+04  0.00000000000E+00 0.  1.
         -2   -1    0    0    0  501 -0.00000000000E+00 -0.00000000000E+00 -0.11319240660E+03  0.11319240660E+03  0.00000000000E+00 0. -1.
         23    2    1    2    0    0  0.67489235593E+03  0.91430883094E+02  0.16796209774E+04  0.18144612925E+04  0.85462599186E+02 0.  0.
         11    1    3    3    0    0  0.29544971399E+03  0.30269835028E+02  0.84281852027E+03  0.89361616733E+03  0.00000000000E+00 0. -1.
        -11    1    3    3    0    0  0.37944264194E+03  0.61161048066E+02  0.83680245711E+03  0.92084512517E+03  0.00000000000E+00 0.  1.
         22    1    1    2    0    0 -0.67489235593E+03 -0.91430883094E+02  0.24876366842E+04  0.25791811823E+04  0.00000000000E+00 0.  1.
<mgrwt>
<rscale>  0 0.13921414E+04</rscale>
<asrwt>0</asrwt>
<pdfrwt beam="1">  1        2 0.65853066E+00 0.13921414E+04</pdfrwt>
<pdfrwt beam="2">  1       -2 0.17414220E-01 0.13921414E+04</pdfrwt>
<totfact> 0.54243861E+00</totfact>
</mgrwt>
</event>
<event>
 6    1  0.1878398E-004  0.8977298E+03  0.7818608E-02  0.9428424E-01
          2   -1    0    0  501    0  0.00000000000E+00  0.00000000000E+00  0.23055427739E+04  0.23055427739E+04  0.00000000000E+00 0.  1.
         -2   -1    0    0    0  501 -0.00000000000E+00 -0.00000000000E+00 -0.87389271449E+02  0.87389271449E+02  0.00000000000E+00 0. -1.
         23    2    1    2    0    0  0.14722545873E+03 -0.11971869838E+03  0.21911917950E+04  0.22012687048E+04  0.90854422355E+02 0.  0.
         11    1    3    3    0    0  0.14410454795E+03 -0.13336791453E+03  0.20349478098E+04  0.20443986182E+04  0.00000000000E+00 0. -1.
        -11    1    3    3    0    0  0.31209107764E+01  0.13649216148E+02  0.15624398514E+03  0.15687008662E+03  0.00000000000E+00 0.  1.
         22    1    1    2    0    0 -0.14722545873E+03  0.11971869838E+03  0.26961707513E+02  0.19166334056E+03  0.00000000000E+00 0. -1.
<mgrwt>
<rscale>  0 0.89772981E+03</rscale>
<asrwt>0</asrwt>
<pdfrwt beam="1">  1        2 0.35469884E+00 0.89772981E+03</pdfrwt>
<pdfrwt beam="2">  1       -2 0.13444505E-01 0.89772981E+03</pdfrwt>
<totfact> 0.19310266E+02</totfact>
</mgrwt>
</event>
<event>
 6    1  0.1878398E-004  0.3232907E+04  0.7818608E-02  0.8180180E-01
         -2   -1    0    0    0  501 -0.00000000000E+00  0.00000000000E+00  0.99497340765E+03  0.99497340765E+03  0.00000000000E+00 0. -1.
          2   -1    0    0  501    0  0.00000000000E+00 -0.00000000000E+00 -0.26261215708E+04  0.26261215708E+04  0.00000000000E+00 0.  1.
         23    2    1    2    0    0  0.13693568008E+04 -0.58379956135E+03 -0.11422624459E+03  0.14957686311E+04  0.91193129712E+02 0.  0.
         13    1    3    3    0    0  0.83645894760E+03 -0.33489056082E+03 -0.10904665981E+03  0.90758274155E+03  0.00000000000E+00 0. -1.
        -13    1    3    3    0    0  0.53289785323E+03 -0.24890900053E+03 -0.51795847807E+01  0.58818588951E+03  0.00000000000E+00 0.  1.
         22    1    1    2    0    0 -0.13693568008E+04  0.58379956135E+03 -0.15169219185E+04  0.21253263473E+04  0.00000000000E+00 0. -1.
<mgrwt>
<rscale>  0 0.32329065E+04</rscale>
<asrwt>0</asrwt>
<pdfrwt beam="1">  1        2 0.40401870E+00 0.32329065E+04</pdfrwt>
<pdfrwt beam="2">  1       -2 0.15307283E+00 0.32329065E+04</pdfrwt>
<totfact> 0.70002574E-01</totfact>
</mgrwt>
</event>
<event>
 6    1  0.1878398E-004  0.2109276E+04  0.7818608E-02  0.8557168E-01
         -4   -1    0    0    0  501 -0.00000000000E+00  0.00000000000E+00  0.12081267486E+04  0.12081267486E+04  0.00000000000E+00 0. -1.
          4   -1    0    0  501    0  0.00000000000E+00 -0.00000000000E+00 -0.92064982158E+03  0.92064982158E+03  0.00000000000E+00 0.  1.
         23    2    1    2    0    0  0.60217361142E+03  0.27308216069E+03  0.97061453988E+03  0.11780589871E+04  0.92430877967E+02 0.  0.
         11    1    3    3    0    0  0.43525143917E+03  0.15948427397E+03  0.63121805998E+03  0.78314448743E+03  0.00000000000E+00 0.  1.
        -11    1    3    3    0    0  0.16692217225E+03  0.11359788672E+03  0.33939647990E+03  0.39491449964E+03  0.00000000000E+00 0. -1.
         22    1    1    2    0    0 -0.60217361142E+03 -0.27308216069E+03 -0.68313761285E+03  0.95071758313E+03  0.00000000000E+00 0.  1.
<mgrwt>
<rscale>  0 0.21092763E+04</rscale>
<asrwt>0</asrwt>
<pdfrwt beam="1">  1        4 0.14163843E+00 0.21092763E+04</pdfrwt>
<pdfrwt beam="2">  1       -4 0.18586565E+00 0.21092763E+04</pdfrwt>
<totfact> 0.10453527E-01</totfact>
</mgrwt>
</event>
<event>
 6    1  0.1878398E-004  0.1546254E+04  0.7818608E-02  0.8854264E-01
          1   -1    0    0  501    0  0.00000000000E+00  0.00000000000E+00  0.83729493820E+03  0.83729493820E+03  0.00000000000E+00 0.  1.
         -1   -1    0    0    0  501 -0.00000000000E+00 -0.00000000000E+00 -0.71387657958E+03  0.71387657958E+03  0.00000000000E+00 0. -1.
         23    2    1    2    0    0 -0.71556011049E+03  0.23509812910E+03 -0.10319676036E+03  0.76462729514E+03  0.81901935823E+02 0.  0.
         13    1    3    3    0    0 -0.36011684377E+03  0.75560336881E+02 -0.45018764193E+02  0.37070229943E+03  0.00000000000E+00 0. -1.
        -13    1    3    3    0    0 -0.35544326672E+03  0.15953779222E+03 -0.58177996166E+02  0.39392499571E+03  0.00000000000E+00 0.  1.
         22    1    1    2    0    0  0.71556011049E+03 -0.23509812910E+03  0.22661511898E+03  0.78654422264E+03  0.00000000000E+00 0. -1.
<mgrwt>
<rscale>  0 0.15462539E+04</rscale>
<asrwt>0</asrwt>
<pdfrwt beam="1">  1        1 0.12881461E+00 0.15462539E+04</pdfrwt>
<pdfrwt beam="2">  1       -1 0.10982717E+00 0.15462539E+04</pdfrwt>
<totfact> 0.15161937E+01</totfact>
</mgrwt>
</event>
<event>
 6    1  0.1878398E-004  0.2785405E+04  0.7818608E-02  0.8307814E-01
         -2   -1    0    0    0  501 -0.00000000000E+00  0.00000000000E+00  0.14164542816E+04  0.14164542816E+04  0.00000000000E+00 0. -1.
          2   -1    0    0  501    0  0.00000000000E+00 -0.00000000000E+00 -0.13693488196E+04  0.13693488196E+04  0.00000000000E+00 0.  1.
         23    2    1    2    0    0 -0.58718617955E+03  0.11036239118E+04 -0.58715330053E+03  0.13839980056E+04  0.89040064501E+02 0.  0.
         13    1    3    3    0    0 -0.19457807024E+03  0.38560882497E+03 -0.24889021127E+03  0.49849887520E+03  0.00000000000E+00 0. -1.
        -13    1    3    3    0    0 -0.39260810932E+03  0.71801508683E+03 -0.33826308925E+03  0.88549913042E+03  0.00000000000E+00 0.  1.
         22    1    1    2    0    0  0.58718617955E+03 -0.11036239118E+04  0.63425876250E+03  0.14018050956E+04  0.00000000000E+00 0. -1.
<mgrwt>
<rscale>  0 0.27854048E+04</rscale>
<asrwt>0</asrwt>
<pdfrwt beam="1">  1        2 0.21066905E+00 0.27854048E+04</pdfrwt>
<pdfrwt beam="2">  1       -2 0.21791604E+00 0.27854048E+04</pdfrwt>
<totfact> 0.13377652E+00</totfact>
</mgrwt>
</event>
<event>
 6    1  0.1878398E-004  0.2182100E+04  0.7818608E-02  0.8525915E-01
         -2   -1    0    0    0  501 -0.00000000000E+00  0.00000000000E+00  0.55276272274E+03  0.55276272274E+03  0.00000000000E+00 0. -1.
          2   -1    0    0  501    0  0.00000000000E+00 -0.00000000000E+00 -0.21535286757E+04  0.21535286757E+04  0.00000000000E+00 0.  1.
         23    2    1    2    0    0 -0.98560742434E+03  0.55953339476E+02 -0.23138947110E+03  0.10181727059E+04  0.92638008013E+02 0.  0.
         13    1    3    3    0    0 -0.47838596855E+03  0.30816261549E+02 -0.15978341167E+03  0.50530536859E+03  0.00000000000E+00 0.  1.
        -13    1    3    3    0    0 -0.50722145579E+03  0.25137077927E+02 -0.71606059431E+02  0.51286733728E+03  0.00000000000E+00 0. -1.
         22    1    1    2    0    0  0.98560742434E+03 -0.55953339476E+02 -0.13693764818E+04  0.16881186925E+04  0.00000000000E+00 0.  1.
<mgrwt>
<rscale>  0 0.21821002E+04</rscale>
<asrwt>0</asrwt>
<pdfrwt beam="1">  1        2 0.33131211E+00 0.21821002E+04</pdfrwt>
<pdfrwt beam="2">  1       -2 0.85040418E-01 0.21821002E+04</pdfrwt>
<totfact> 0.60412482E+00</totfact>
</mgrwt>
</event>
<event>
 6    1  0.1878398E-004  0.3404420E+04  0.7818608E-02  0.8136822E-01
          2   -1    0    0  501    0  0.00000000000E+00  0.00000000000E+00  0.30511173208E+04  0.30511173208E+04  0.00000000000E+00 0.  1.
         -2   -1    0    0    0  501 -0.00000000000E+00 -0.00000000000E+00 -0.94965831355E+03  0.94965831355E+03  0.00000000000E+00 0. -1.
         23    2    1    2    0    0  0.13089917343E+04 -0.56644570166E+03  0.21404369663E+04  0.25739472022E+04  0.97024222586E+02 0.  0.
         11    1    3    3    0    0  0.12024447543E+04 -0.49033876030E+03  0.19519862845E+04  0.23444734893E+04  0.00000000000E+00 0. -1.
        -11    1    3    3    0    0  0.10654698000E+03 -0.76106941359E+02  0.18845068177E+03  0.22947371294E+03  0.00000000000E+00 0.  1.
         22    1    1    2    0    0 -0.13089917343E+04  0.56644570166E+03 -0.38977959023E+02  0.14268284321E+04  0.00000000000E+00 0. -1.
<mgrwt>
<rscale>  0 0.34044200E+04</rscale>
<asrwt>0</asrwt>
<pdfrwt beam="1">  1        2 0.46940266E+00 0.34044200E+04</pdfrwt>
<pdfrwt beam="2">  1       -2 0.14610128E+00 0.34044200E+04</pdfrwt>
<totfact> 0.42970435E-01</totfact>
</mgrwt>
</event>
<event>
 6    1  0.1878398E-004  0.2267153E+04  0.7818608E-02  0.8490986E-01
         -1   -1    0    0    0  501 -0.00000000000E+00  0.00000000000E+00  0.87006929549E+03  0.87006929549E+03  0.00000000000E+00 0. -1.
          1   -1    0    0  501    0  0.00000000000E+00 -0.00000000000E+00 -0.14768890271E+04  0.14768890271E+04  0.00000000000E+00 0.  1.
         23    2    1    2    0    0 -0.10053068861E+04  0.51971312122E+03 -0.29473197561E+03  0.11730152103E+04  0.91400670313E+02 0.  0.
         11    1    3    3    0    0 -0.58695282182E+03  0.25321955758E+03 -0.17429151745E+03  0.66257927257E+03  0.00000000000E+00 0. -1.
        -11    1    3    3    0    0 -0.41835406424E+03  0.26649356364E+03 -0.12044045816E+03  0.51043593770E+03  0.00000000000E+00 0.  1.
         22    1    1    2    0    0  0.10053068861E+04 -0.51971312122E+03 -0.31208775600E+03  0.11739431123E+04  0.00000000000E+00 0.  1.
<mgrwt>
<rscale>  0 0.22671531E+04</rscale>
<asrwt>0</asrwt>
<pdfrwt beam="1">  1        1 0.22721370E+00 0.22671531E+04</pdfrwt>
<pdfrwt beam="2">  1       -1 0.13385681E+00 0.22671531E+04</pdfrwt>
<totfact> 0.28968802E+00</totfact>
</mgrwt>
</event>
<event>
 6    1  0.1878398E-004  0.1315465E+04  0.7818608E-02  0.9017391E-01
          1   -1    0    0  501    0  0.00000000000E+00  0.00000000000E+00  0.48472162542E+03  0.48472162542E+03  0.00000000000E+00 0.  1.
         -1   -1    0    0    0  501 -0.00000000000E+00 -0.00000000000E+00 -0.89249547926E+03  0.89249547926E+03  0.00000000000E+00 0. -1.
         23    2    1    2    0    0 -0.45204895489E+03  0.36212399467E+03 -0.52405940754E+03  0.78645118223E+03  0.91570487929E+02 0.  0.
         11    1    3    3    0    0 -0.21123108546E+03  0.21578477407E+03 -0.30827777220E+03  0.43152847533E+03  0.00000000000E+00 0.  1.
        -11    1    3    3    0    0 -0.24081786943E+03  0.14633922061E+03 -0.21578163534E+03  0.35492270690E+03  0.00000000000E+00 0. -1.
         22    1    1    2    0    0  0.45204895489E+03 -0.36212399467E+03  0.11628555370E+03  0.59076592245E+03  0.00000000000E+00 0.  1.
<mgrwt>
<rscale>  0 0.13154647E+04</rscale>
<asrwt>0</asrwt>
<pdfrwt beam="1">  1        1 0.74572558E-01 0.13154647E+04</pdfrwt>
<pdfrwt beam="2">  1       -1 0.13730700E+00 0.13154647E+04</pdfrwt>
<totfact> 0.20022711E+01</totfact>
</mgrwt>
</event>
<event>
 6    1  0.1878398E-004  0.3552594E+04  0.7818608E-02  0.8101438E-01
          1   -1    0    0  501    0  0.00000000000E+00  0.00000000000E+00  0.35312105327E+04  0.35312105327E+04  0.00000000000E+00 0. -1.
         -1   -1    0    0    0  501 -0.00000000000E+00 -0.00000000000E+00 -0.89352683505E+03  0.89352683505E+03  0.00000000000E+00 0.  1.
         23    2    1    2    0    0 -0.14773624937E+04 -0.38961232548E+03  0.24442556255E+04  0.28846684988E+04  0.11193338737E+03 0.  0.
         13    1    3    3    0    0 -0.74098889441E+03 -0.16825265410E+03  0.13079611741E+04  0.15126585636E+04  0.00000000000E+00 0. -1.
        -13    1    3    3    0    0 -0.73637359931E+03 -0.22135967138E+03  0.11362944514E+04  0.13720099352E+04  0.00000000000E+00 0.  1.
         22    1    1    2    0    0  0.14773624937E+04  0.38961232548E+03  0.19342807216E+03  0.15400688690E+04  0.00000000000E+00 0.  1.
<mgrwt>
<rscale>  0 0.35525942E+04</rscale>
<asrwt>0</asrwt>
<pdfrwt beam="1">  1        1 0.54326315E+00 0.35525942E+04</pdfrwt>
<pdfrwt beam="2">  1       -1 0.13746567E+00 0.35525942E+04</pdfrwt>
<totfact> 0.84166700E-02</totfact>
</mgrwt>
</event>
<event>
 6    1  0.1878398E-004  0.2380126E+04  0.7818608E-02  0.8446982E-01
          1   -1    0    0  501    0  0.00000000000E+00  0.00000000000E+00  0.30849034595E+04  0.30849034595E+04  0.00000000000E+00 0.  1.
         -1   -1    0    0    0  501 -0.00000000000E+00 -0.00000000000E+00 -0.45909035500E+03  0.45909035500E+03  0.00000000000E+00 0. -1.
         23    2    1    2    0    0  0.12539826003E+03 -0.57088596524E+03 -0.22464840084E+03  0.63422298119E+03  0.10067957561E+03 0.  0.
         11    1    3    3    0    0  0.77789419028E+02 -0.50827852539E+03 -0.20107142496E+03  0.55211228118E+03  0.00000000000E+00 0. -1.
        -11    1    3    3    0    0  0.47608840999E+02 -0.62607439846E+02 -0.23576975880E+02  0.82110700015E+02  0.00000000000E+00 0.  1.
         22    1    1    2    0    0 -0.12539826003E+03  0.57088596524E+03  0.28504615054E+04  0.29097708333E+04  0.00000000000E+00 0.  1.
<mgrwt>
<rscale>  0 0.23801256E+04</rscale>
<asrwt>0</asrwt>
<pdfrwt beam="1">  1        1 0.47460052E+00 0.23801256E+04</pdfrwt>
<pdfrwt beam="2">  1       -1 0.70629287E-01 0.23801256E+04</pdfrwt>
<totfact> 0.94192771E-01</totfact>
</mgrwt>
</event>
<event>
 6    1  0.1878398E-004  0.3639932E+04  0.7818608E-02  0.8081406E-01
          2   -1    0    0  501    0  0.00000000000E+00  0.00000000000E+00  0.15710381890E+04  0.15710381890E+04  0.00000000000E+00 0.  1.
         -2   -1    0    0    0  501 -0.00000000000E+00 -0.00000000000E+00 -0.21083353653E+04  0.21083353653E+04  0.00000000000E+00 0. -1.
         23    2    1    2    0    0 -0.10319512116E+04  0.13593583252E+04 -0.90441122103E+03  0.19336498989E+04  0.90906079867E+02 0.  0.
         11    1    3    3    0    0 -0.79812024039E+03  0.10045375651E+04 -0.64822948648E+03  0.14374606447E+04  0.00000000000E+00 0. -1.
        -11    1    3    3    0    0 -0.23383097118E+03  0.35482076009E+03 -0.25618173454E+03  0.49618925420E+03  0.00000000000E+00 0.  1.
         22    1    1    2    0    0  0.10319512116E+04 -0.13593583252E+04  0.36711404464E+03  0.17457236554E+04  0.00000000000E+00 0. -1.
<mgrwt>
<rscale>  0 0.36399315E+04</rscale>
<asrwt>0</asrwt>
<pdfrwt beam="1">  1        2 0.24169818E+00 0.36399315E+04</pdfrwt>
<pdfrwt beam="2">  1       -2 0.32435929E+00 0.36399315E+04</pdfrwt>
<totfact> 0.21157762E-01</totfact>
</mgrwt>
</event>
<event>
 6    1  0.1878398E-004  0.2814737E+04  0.7818608E-02  0.8298708E-01
          2   -1    0    0  501    0  0.00000000000E+00  0.00000000000E+00  0.11761284924E+04  0.11761284924E+04  0.00000000000E+00 0.  1.
         -2   -1    0    0    0  501 -0.00000000000E+00 -0.00000000000E+00 -0.16840731322E+04  0.16840731322E+04  0.00000000000E+00 0. -1.
         23    2    1    2    0    0  0.77777870379E+03  0.96451691117E+03 -0.92933554111E+03  0.15514606740E+04  0.90183652015E+02 0.  0.
         13    1    3    3    0    0  0.33033691215E+03  0.38940640573E+03 -0.43643719902E+03  0.67174195421E+03  0.00000000000E+00 0.  1.
        -13    1    3    3    0    0  0.44744179164E+03  0.57511050544E+03 -0.49289834209E+03  0.87971871982E+03  0.00000000000E+00 0. -1.
         22    1    1    2    0    0 -0.77777870379E+03 -0.96451691117E+03  0.42139090134E+03  0.13087409506E+04  0.00000000000E+00 0.  1.
<mgrwt>
<rscale>  0 0.28147372E+04</rscale>
<asrwt>0</asrwt>
<pdfrwt beam="1">  1        2 0.18094285E+00 0.28147372E+04</pdfrwt>
<pdfrwt beam="2">  1       -2 0.25908817E+00 0.28147372E+04</pdfrwt>
<totfact> 0.96152619E-01</totfact>
</mgrwt>
</event>
<event>
 6    1  0.1878398E-004  0.3855881E+04  0.7818608E-02  0.8034268E-01
         -2   -1    0    0    0  501 -0.00000000000E+00  0.00000000000E+00  0.25430079489E+04  0.25430079489E+04  0.00000000000E+00 0. -1.
          2   -1    0    0  501    0  0.00000000000E+00 -0.00000000000E+00 -0.14616370139E+04  0.14616370139E+04  0.00000000000E+00 0.  1.
         23    2    1    2    0    0  0.16495251045E+04 -0.13693716266E+03 -0.48353463300E+03  0.17267919619E+04  0.91213384233E+02 0.  0.
         11    1    3    3    0    0  0.11429781611E+04 -0.10605168436E+03 -0.29277701076E+03  0.11846368281E+04  0.00000000000E+00 0. -1.
        -11    1    3    3    0    0  0.50654694342E+03 -0.30885478299E+02 -0.19075762224E+03  0.54215513379E+03  0.00000000000E+00 0.  1.
         22    1    1    2    0    0 -0.16495251045E+04  0.13693716266E+03  0.15649055680E+04  0.22778530009E+04  0.00000000000E+00 0. -1.
<mgrwt>
<rscale>  0 0.38558810E+04</rscale>
<asrwt>0</asrwt>
<pdfrwt beam="1">  1        2 0.22486723E+00 0.38558810E+04</pdfrwt>
<pdfrwt beam="2">  1       -2 0.39123199E+00 0.38558810E+04</pdfrwt>
<totfact> 0.90137451E-02</totfact>
</mgrwt>
</event>
<event>
 6    1  0.1878398E-004  0.3430476E+04  0.7818608E-02  0.8130467E-01
         -2   -1    0    0    0  501 -0.00000000000E+00  0.00000000000E+00  0.14314971209E+04  0.14314971209E+04  0.00000000000E+00 0. -1.
          2   -1    0    0  501    0  0.00000000000E+00 -0.00000000000E+00 -0.20552193776E+04  0.20552193776E+04  0.00000000000E+00 0.  1.
         23    2    1    2    0    0 -0.13687505214E+04  0.52646527208E+03 -0.12138437627E+04  0.19059296487E+04  0.92235963377E+02 0.  0.
         13    1    3    3    0    0 -0.41781930940E+03  0.12581986452E+03 -0.39585730883E+03  0.58915755327E+03  0.00000000000E+00 0.  1.
        -13    1    3    3    0    0 -0.95093121204E+03  0.40064540755E+03 -0.81798645388E+03  0.13167720955E+04  0.00000000000E+00 0. -1.
         22    1    1    2    0    0  0.13687505214E+04 -0.52646527208E+03  0.59012150605E+03  0.15807868498E+04  0.00000000000E+00 0. -1.
<mgrwt>
<rscale>  0 0.34304755E+04</rscale>
<asrwt>0</asrwt>
<pdfrwt beam="1">  1        2 0.31618760E+00 0.34304755E+04</pdfrwt>
<pdfrwt beam="2">  1       -2 0.22023033E+00 0.34304755E+04</pdfrwt>
<totfact> 0.50669240E-01</totfact>
</mgrwt>
</event>
<event>
 6    1  0.1878398E-004  0.3452202E+04  0.7818608E-02  0.8125212E-01
          2   -1    0    0  501    0  0.00000000000E+00  0.00000000000E+00  0.33535998409E+04  0.33535998409E+04  0.00000000000E+00 0.  1.
         -2   -1    0    0    0  501 -0.00000000000E+00 -0.00000000000E+00 -0.88842584275E+03  0.88842584275E+03  0.00000000000E+00 0. -1.
         23    2    1    2    0    0 -0.75238454879E+03  0.14971890941E+04  0.73076157291E+03  0.18304195480E+04  0.93624530149E+02 0.  0.
         13    1    3    3    0    0 -0.49245947028E+03  0.87793664688E+03  0.43582304367E+03  0.10969187806E+04  0.00000000000E+00 0.  1.
        -13    1    3    3    0    0 -0.25992507851E+03  0.61925244719E+03  0.29493852924E+03  0.73350076743E+03  0.00000000000E+00 0. -1.
         22    1    1    2    0    0  0.75238454879E+03 -0.14971890941E+04  0.17344124253E+04  0.24116061357E+04  0.00000000000E+00 0. -1.
<mgrwt>
<rscale>  0 0.34522021E+04</rscale>
<asrwt>0</asrwt>
<pdfrwt beam="1">  1        2 0.51593843E+00 0.34522021E+04</pdfrwt>
<pdfrwt beam="2">  1       -2 0.13668090E+00 0.34522021E+04</pdfrwt>
<totfact> 0.32281998E-01</totfact>
</mgrwt>
</event>
<event>
 6    1  0.1878398E-004  0.1822618E+04  0.7818608E-02  0.8694363E-01
         -2   -1    0    0    0  501 -0.00000000000E+00  0.00000000000E+00  0.32402170016E+03  0.32402170016E+03  0.00000000000E+00 0. -1.
          2   -1    0    0  501    0  0.00000000000E+00 -0.00000000000E+00 -0.25630499423E+04  0.25630499423E+04  0.00000000000E+00 0.  1.
         23    2    1    2    0    0  0.33931051113E+03 -0.22961557346E+03  0.16302967870E+03  0.45032438646E+03  0.91424517317E+02 0.  0.
         13    1    3    3    0    0  0.79930088356E+02 -0.50884079228E+02  0.81415958488E+02  0.12492624560E+03  0.00000000000E+00 0. -1.
        -13    1    3    3    0    0  0.25938042278E+03 -0.17873149423E+03  0.81613720213E+02  0.32539814086E+03  0.00000000000E+00 0.  1.
         22    1    1    2    0    0 -0.33931051113E+03  0.22961557346E+03 -0.24020579209E+04  0.24367472560E+04  0.00000000000E+00 0.  1.
<mgrwt>
<rscale>  0 0.18226177E+04</rscale>
<asrwt>0</asrwt>
<pdfrwt beam="1">  1        2 0.39431537E+00 0.18226177E+04</pdfrwt>
<pdfrwt beam="2">  1       -2 0.49849493E-01 0.18226177E+04</pdfrwt>
<totfact> 0.11493345E+01</totfact>
</mgrwt>
</event>
<event>
 6    1  0.1878398E-004  0.2128023E+04  0.7818608E-02  0.8548999E-01
          1   -1    0    0  501    0  0.00000000000E+00  0.00000000000E+00  0.24454433085E+04  0.24454433085E+04  0.00000000000E+00 0.  1.
         -1   -1    0    0    0  501 -0.00000000000E+00 -0.00000000000E+00 -0.46295081192E+03  0.46295081192E+03  0.00000000000E+00 0. -1.
         23    2    1    2    0    0  0.31853933907E+03  0.71793569967E+03  0.19700795034E+04  0.21228668696E+04  0.91932131634E+02 0.  0.
         13    1    3    3    0    0  0.13546151193E+03  0.35696485667E+03  0.10663929494E+04  0.11326816201E+04  0.00000000000E+00 0. -1.
        -13    1    3    3    0    0  0.18307782715E+03  0.36097084299E+03  0.90368655404E+03  0.99018524945E+03  0.00000000000E+00 0.  1.
         22    1    1    2    0    0 -0.31853933907E+03 -0.71793569967E+03  0.12412993162E+02  0.78552725083E+03  0.00000000000E+00 0. -1.
<mgrwt>
<rscale>  0 0.21280225E+04</rscale>
<asrwt>0</asrwt>
<pdfrwt beam="1">  1        1 0.37622204E+00 0.21280225E+04</pdfrwt>
<pdfrwt beam="2">  1       -1 0.71223203E-01 0.21280225E+04</pdfrwt>
<totfact> 0.26997652E+00</totfact>
</mgrwt>
</event>
<event>
 6    1  0.1878398E-004  0.8938550E+03  0.7818608E-02  0.9433296E-01
         -1   -1    0    0    0  501 -0.00000000000E+00  0.00000000000E+00  0.85158532074E+03  0.85158532074E+03  0.00000000000E+00 0. -1.
          1   -1    0    0  501    0  0.00000000000E+00 -0.00000000000E+00 -0.23455571223E+03  0.23455571223E+03  0.00000000000E+00 0.  1.
         23    2    1    2    0    0 -0.22077365805E+03 -0.31520611337E+03  0.57658827577E+03  0.69918961044E+03  0.91193034850E+02 0.  0.
         11    1    3    3    0    0 -0.16007736903E+03 -0.15334635423E+03  0.29977457570E+03  0.37283329340E+03  0.00000000000E+00 0. -1.
        -11    1    3    3    0    0 -0.60696289020E+02 -0.16185975914E+03  0.27681370007E+03  0.32635631705E+03  0.00000000000E+00 0.  1.
         22    1    1    2    0    0  0.22077365805E+03  0.31520611337E+03  0.40441332743E+02  0.38695142252E+03  0.00000000000E+00 0.  1.
<mgrwt>
<rscale>  0 0.89385502E+03</rscale>
<asrwt>0</asrwt>
<pdfrwt beam="1">  1        1 0.36085495E-01 0.89385502E+03</pdfrwt>
<pdfrwt beam="2">  1       -1 0.13101312E+00 0.89385502E+03</pdfrwt>
<totfact> 0.60623674E+01</totfact>
</mgrwt>
</event>
<event>
 6    1  0.1878398E-004  0.1187383E+04  0.7818608E-02  0.9123972E-01
          2   -1    0    0  501    0  0.00000000000E+00  0.00000000000E+00  0.38136596827E+03  0.38136596827E+03  0.00000000000E+00 0.  1.
         -2   -1    0    0    0  501 -0.00000000000E+00 -0.00000000000E+00 -0.92422922572E+03  0.92422922572E+03  0.00000000000E+00 0. -1.
         23    2    1    2    0    0 -0.10045983803E+03 -0.38823429420E+03 -0.74905035869E+03  0.85467262085E+03  0.92578630021E+02 0.  0.
         11    1    3    3    0    0 -0.60509913125E+02 -0.22602529851E+03 -0.52863041025E+03  0.57809946877E+03  0.00000000000E+00 0. -1.
        -11    1    3    3    0    0 -0.39949924905E+02 -0.16220899569E+03 -0.22041994843E+03  0.27657315208E+03  0.00000000000E+00 0.  1.
         22    1    1    2    0    0  0.10045983803E+03  0.38823429420E+03  0.20618710123E+03  0.45092257314E+03  0.00000000000E+00 0.  1.
<mgrwt>
<rscale>  0 0.11873830E+04</rscale>
<asrwt>0</asrwt>
<pdfrwt beam="1">  1        2 0.58671688E-01 0.11873830E+04</pdfrwt>
<pdfrwt beam="2">  1       -2 0.14218911E+00 0.11873830E+04</pdfrwt>
<totfact> 0.28556765E+01</totfact>
</mgrwt>
</event>
<event>
 6    1  0.1878398E-004  0.3027842E+04  0.7818608E-02  0.8235825E-01
          1   -1    0    0  501    0  0.00000000000E+00  0.00000000000E+00  0.31452353429E+04  0.31452353429E+04  0.00000000000E+00 0.  1.
         -1   -1    0    0    0  501 -0.00000000000E+00 -0.00000000000E+00 -0.72870773083E+03  0.72870773083E+03  0.00000000000E+00 0. -1.
         23    2    1    2    0    0 -0.13678932491E+04  0.49995845210E+03  0.68699863358E+03  0.16128900266E+04  0.91415100052E+02 0.  0.
         13    1    3    3    0    0 -0.28528384946E+03  0.68854454264E+02  0.12142172659E+03  0.31760202506E+03  0.00000000000E+00 0. -1.
        -13    1    3    3    0    0 -0.10826093996E+04  0.43110399784E+03  0.56557690699E+03  0.12952880015E+04  0.00000000000E+00 0.  1.
         22    1    1    2    0    0  0.13678932491E+04 -0.49995845210E+03  0.17295289785E+04  0.22610530471E+04  0.00000000000E+00 0.  1.
<mgrwt>
<rscale>  0 0.30278423E+04</rscale>
<asrwt>0</asrwt>
<pdfrwt beam="1">  1        1 0.48388235E+00 0.30278423E+04</pdfrwt>
<pdfrwt beam="2">  1       -1 0.11210888E+00 0.30278423E+04</pdfrwt>
<totfact> 0.28907506E-01</totfact>
</mgrwt>
</event>
<event>
 6    1  0.1878398E-004  0.3632302E+04  0.7818608E-02  0.8083132E-01
         -2   -1    0    0    0  501 -0.00000000000E+00  0.00000000000E+00  0.12278228078E+04  0.12278228078E+04  0.00000000000E+00 0. -1.
          2   -1    0    0  501    0  0.00000000000E+00 -0.00000000000E+00 -0.26863845076E+04  0.26863845076E+04  0.00000000000E+00 0.  1.
         23    2    1    2    0    0  0.19744785184E+03 -0.66362907656E+03 -0.25373310427E+04  0.26323600154E+04  0.10900103172E+03 0.  0.
         13    1    3    3    0    0  0.92439939812E+02 -0.48151555009E+03 -0.18150601875E+04  0.18801185739E+04  0.00000000000E+00 0.  1.
        -13    1    3    3    0    0  0.10500791203E+03 -0.18211352647E+03 -0.72227085518E+03  0.75224144153E+03  0.00000000000E+00 0. -1.
         22    1    1    2    0    0 -0.19744785184E+03  0.66362907656E+03  0.10787693429E+04  0.12818473001E+04  0.00000000000E+00 0. -1.
<mgrwt>
<rscale>  0 0.36323018E+04</rscale>
<asrwt>0</asrwt>
<pdfrwt beam="1">  1        2 0.41328992E+00 0.36323018E+04</pdfrwt>
<pdfrwt beam="2">  1       -2 0.18889582E+00 0.36323018E+04</pdfrwt>
<totfact> 0.34668836E-01</totfact>
</mgrwt>
</event>
<event>
 6    1  0.1878398E-004  0.2762119E+04  0.7818608E-02  0.8315126E-01
         -2   -1    0    0    0  501 -0.00000000000E+00  0.00000000000E+00  0.79494766992E+03  0.79494766992E+03  0.00000000000E+00 0. -1.
          2   -1    0    0  501    0  0.00000000000E+00 -0.00000000000E+00 -0.23993085806E+04  0.23993085806E+04  0.00000000000E+00 0.  1.
         23    2    1    2    0    0  0.10267328582E+04  0.88002922816E+03 -0.11185554398E+04  0.17573711611E+04  0.92494981887E+02 0.  0.
         13    1    3    3    0    0  0.92492146722E+03  0.78421278218E+03 -0.10366275264E+04  0.15953263104E+04  0.00000000000E+00 0. -1.
        -13    1    3    3    0    0  0.10181139100E+03  0.95816445981E+02 -0.81927913335E+02  0.16204485071E+03  0.00000000000E+00 0.  1.
         22    1    1    2    0    0 -0.10267328582E+04 -0.88002922816E+03 -0.48580547096E+03  0.14368850894E+04  0.00000000000E+00 0.  1.
<mgrwt>
<rscale>  0 0.27621186E+04</rscale>
<asrwt>0</asrwt>
<pdfrwt beam="1">  1        2 0.36912439E+00 0.27621186E+04</pdfrwt>
<pdfrwt beam="2">  1       -2 0.12229964E+00 0.27621186E+04</pdfrwt>
<totfact> 0.17586989E+00</totfact>
</mgrwt>
</event>
<event>
 6    1  0.1878398E-004  0.4207841E+04  0.7818608E-02  0.7963882E-01
         -1   -1    0    0    0  501 -0.00000000000E+00  0.00000000000E+00  0.16698465398E+04  0.16698465398E+04  0.00000000000E+00 0.  1.
          1   -1    0    0  501    0  0.00000000000E+00 -0.00000000000E+00 -0.26508319098E+04  0.26508319098E+04  0.00000000000E+00 0. -1.
         23    2    1    2    0    0 -0.63338339391E+03 -0.39502777652E+03 -0.25094813910E+04  0.26196430136E+04  0.88380986265E+02 0.  0.
         13    1    3    3    0    0 -0.37291441832E+03 -0.18942231128E+03 -0.14830527941E+04  0.15409060859E+04  0.00000000000E+00 0. -1.
        -13    1    3    3    0    0 -0.26046897558E+03 -0.20560546524E+03 -0.10264285969E+04  0.10787369277E+04  0.00000000000E+00 0.  1.
         22    1    1    2    0    0  0.63338339391E+03  0.39502777652E+03  0.15284960210E+04  0.17010354359E+04  0.00000000000E+00 0.  1.
<mgrwt>
<rscale>  0 0.42078415E+04</rscale>
<asrwt>0</asrwt>
<pdfrwt beam="1">  1        1 0.40782029E+00 0.42078415E+04</pdfrwt>
<pdfrwt beam="2">  1       -1 0.25689947E+00 0.42078415E+04</pdfrwt>
<totfact> 0.51406765E-02</totfact>
</mgrwt>
</event>
<event>
 6    1  0.1878398E-004  0.8094792E+03  0.7818608E-02  0.9546397E-01
          1   -1    0    0  501    0  0.00000000000E+00  0.00000000000E+00  0.20297496939E+04  0.20297496939E+04  0.00000000000E+00 0. -1.
         -1   -1    0    0    0  501 -0.00000000000E+00 -0.00000000000E+00 -0.80706566072E+02  0.80706566072E+02  0.00000000000E+00 0.  1.
         23    2    1    2    0    0  0.65206337569E+02  0.39254395671E+03  0.89160864947E+03  0.98062870656E+03  0.91236242356E+02 0.  0.
         13    1    3    3    0    0  0.29767319065E+02  0.10821818315E+03  0.35492429218E+03  0.37224793033E+03  0.00000000000E+00 0. -1.
        -13    1    3    3    0    0  0.35439018505E+02  0.28432577356E+03  0.53668435728E+03  0.60838077624E+03  0.00000000000E+00 0.  1.
         22    1    1    2    0    0 -0.65206337569E+02 -0.39254395671E+03  0.10574344783E+04  0.11298275534E+04  0.00000000000E+00 0. -1.
<mgrwt>
<rscale>  0 0.80947916E+03</rscale>
<asrwt>0</asrwt>
<pdfrwt beam="1">  1        1 0.31226914E+00 0.80947916E+03</pdfrwt>
<pdfrwt beam="2">  1       -1 0.12416396E-01 0.80947916E+03</pdfrwt>
<totfact> 0.13022916E+02</totfact>
</mgrwt>
</event>
<event>
 6    1  0.2832871E-004  0.3677022E+04  0.7818608E-02  0.8073073E-01
         -2   -1    0    0    0  501 -0.00000000000E+00  0.00000000000E+00  0.12439926726E+04  0.12439926726E+04  0.00000000000E+00 0. -1.
          2   -1    0    0  501    0  0.00000000000E+00 -0.00000000000E+00 -0.27171570725E+04  0.27171570725E+04  0.00000000000E+00 0.  1.
         23    2    1    2    0    0 -0.16668000039E+04 -0.72674734053E+03 -0.45348661882E+03  0.18764131366E+04  0.94298441228E+02 0.  0.
         13    1    3    3    0    0 -0.44925487994E+03 -0.24169525024E+03 -0.12155038316E+03  0.52442448148E+03  0.00000000000E+00 0. -1.
        -13    1    3    3    0    0 -0.12175451239E+04 -0.48505209030E+03 -0.33193623565E+03  0.13519886551E+04  0.00000000000E+00 0.  1.
         22    1    1    2    0    0  0.16668000039E+04  0.72674734053E+03 -0.10196777811E+04  0.20847366086E+04  0.00000000000E+00 0. -1.
<mgrwt>
<rscale>  0 0.36770224E+04</rscale>
<asrwt>0</asrwt>
<pdfrwt beam="1">  1        2 0.41802417E+00 0.36770224E+04</pdfrwt>
<pdfrwt beam="2">  1       -2 0.19138349E+00 0.36770224E+04</pdfrwt>
<totfact> 0.31863274E-01</totfact>
</mgrwt>
</event>
<event>
 6    1  0.1878398E-004  0.1998988E+04  0.7818608E-02  0.8607094E-01
         -2   -1    0    0    0  501 -0.00000000000E+00  0.00000000000E+00  0.66141303940E+03  0.66141303940E+03  0.00000000000E+00 0. -1.
          2   -1    0    0  501    0  0.00000000000E+00 -0.00000000000E+00 -0.15103855992E+04  0.15103855992E+04  0.00000000000E+00 0.  1.
         23    2    1    2    0    0 -0.95253485396E+03 -0.29011303205E+03 -0.48510528977E+03  0.11116629824E+04  0.94758771984E+02 0.  0.
         11    1    3    3    0    0 -0.71061897560E+03 -0.23092043140E+03 -0.40584761063E+03  0.85030339125E+03  0.00000000000E+00 0. -1.
        -11    1    3    3    0    0 -0.24191587837E+03 -0.59192600651E+02 -0.79257679144E+02  0.26135959114E+03  0.00000000000E+00 0.  1.
         22    1    1    2    0    0  0.95253485396E+03  0.29011303205E+03 -0.36386727004E+03  0.10601356562E+04  0.00000000000E+00 0.  1.
<mgrwt>
<rscale>  0 0.19989885E+04</rscale>
<asrwt>0</asrwt>
<pdfrwt beam="1">  1        2 0.23236702E+00 0.19989885E+04</pdfrwt>
<pdfrwt beam="2">  1       -2 0.10175585E+00 0.19989885E+04</pdfrwt>
<totfact> 0.92221792E+00</totfact>
</mgrwt>
</event>
<event>
 6    1  0.1878398E-004  0.1668612E+04  0.7818608E-02  0.8779471E-01
         -2   -1    0    0    0  501 -0.00000000000E+00  0.00000000000E+00  0.36064457272E+03  0.36064457272E+03  0.00000000000E+00 0. -1.
          2   -1    0    0  501    0  0.00000000000E+00 -0.00000000000E+00 -0.19300617669E+04  0.19300617669E+04  0.00000000000E+00 0.  1.
         23    2    1    2    0    0 -0.88160436234E+02 -0.73976532899E+03 -0.12948542306E+04  0.14967228225E+04  0.92231905394E+02 0.  0.
         11    1    3    3    0    0 -0.77332421596E+02 -0.37240046712E+03 -0.59366973044E+03  0.70505755806E+03  0.00000000000E+00 0.  1.
        -11    1    3    3    0    0 -0.10828014638E+02 -0.36736486187E+03 -0.70118450018E+03  0.79166526445E+03  0.00000000000E+00 0. -1.
         22    1    1    2    0    0  0.88160436234E+02  0.73976532899E+03 -0.27456296357E+03  0.79398351712E+03  0.00000000000E+00 0. -1.
<mgrwt>
<rscale>  0 0.16686118E+04</rscale>
<asrwt>0</asrwt>
<pdfrwt beam="1">  1        2 0.29693258E+00 0.16686118E+04</pdfrwt>
<pdfrwt beam="2">  1       -2 0.55483780E-01 0.16686118E+04</pdfrwt>
<totfact> 0.21278811E+01</totfact>
</mgrwt>
</event>
<event>
 6    1  0.1878398E-004  0.8788413E+03  0.7818608E-02  0.9452424E-01
         -2   -1    0    0    0  501 -0.00000000000E+00  0.00000000000E+00  0.32566796919E+03  0.32566796919E+03  0.00000000000E+00 0. -1.
          2   -1    0    0  501    0  0.00000000000E+00 -0.00000000000E+00 -0.59290605992E+03  0.59290605992E+03  0.00000000000E+00 0.  1.
         23    2    1    2    0    0 -0.43280682141E+03  0.34519216401E+02 -0.11824935607E+03  0.45954138973E+03  0.93177560086E+02 0.  0.
         13    1    3    3    0    0 -0.26242129116E+03  0.52194287484E+02 -0.37546803737E+02  0.27018316042E+03  0.00000000000E+00 0. -1.
        -13    1    3    3    0    0 -0.17038553025E+03 -0.17675071083E+02 -0.80702552337E+02  0.18935822931E+03  0.00000000000E+00 0.  1.
         22    1    1    2    0    0  0.43280682141E+03 -0.34519216401E+02 -0.14898873466E+03  0.45903263938E+03  0.00000000000E+00 0. -1.
<mgrwt>
<rscale>  0 0.87884131E+03</rscale>
<asrwt>0</asrwt>
<pdfrwt beam="1">  1        2 0.91216315E-01 0.87884131E+03</pdfrwt>
<pdfrwt beam="2">  1       -2 0.50102765E-01 0.87884131E+03</pdfrwt>
<totfact> 0.19041250E+02</totfact>
</mgrwt>
</event>
<event>
 6    1  0.1878398E-004  0.2003719E+04  0.7818608E-02  0.8604884E-01
         -1   -1    0    0    0  501 -0.00000000000E+00  0.00000000000E+00  0.28892480545E+03  0.28892480545E+03  0.00000000000E+00 0.  1.
          1   -1    0    0  501    0  0.00000000000E+00 -0.00000000000E+00 -0.34739934146E+04  0.34739934146E+04  0.00000000000E+00 0. -1.
         23    2    1    2    0    0  0.31513559286E+03  0.32123919920E+03 -0.32724211797E+04  0.33045127918E+04  0.92516751458E+02 0.  0.
         13    1    3    3    0    0  0.15716285525E+03  0.10812256849E+03 -0.15699652438E+04  0.15815124153E+04  0.00000000000E+00 0. -1.
        -13    1    3    3    0    0  0.15797273761E+03  0.21311663072E+03 -0.17024559359E+04  0.17230003766E+04  0.00000000000E+00 0.  1.
         22    1    1    2    0    0 -0.31513559286E+03 -0.32123919920E+03  0.87352570568E+02  0.45840542817E+03  0.00000000000E+00 0.  1.
<mgrwt>
<rscale>  0 0.20037194E+04</rscale>
<asrwt>0</asrwt>
<pdfrwt beam="1">  1        1 0.53446053E+00 0.20037194E+04</pdfrwt>
<pdfrwt beam="2">  1       -1 0.44449970E-01 0.20037194E+04</pdfrwt>
<totfact> 0.12225249E+00</totfact>
</mgrwt>
</event>
<event>
 6    1  0.1878398E-004  0.2371896E+04  0.7818608E-02  0.8450101E-01
         -1   -1    0    0    0  501 -0.00000000000E+00  0.00000000000E+00  0.80730760185E+03  0.80730760185E+03  0.00000000000E+00 0.  1.
          1   -1    0    0  501    0  0.00000000000E+00 -0.00000000000E+00 -0.17421766713E+04  0.17421766713E+04  0.00000000000E+00 0. -1.
         23    2    1    2    0    0 -0.10817812475E+04  0.48106941218E+03 -0.50197675346E+03  0.12888994072E+04  0.87192741073E+02 0.  0.
         11    1    3    3    0    0 -0.91364754876E+03  0.42819097653E+03 -0.45254153822E+03  0.11058450161E+04  0.00000000000E+00 0. -1.
        -11    1    3    3    0    0 -0.16813369878E+03  0.52878435650E+02 -0.49435215243E+02  0.18305439117E+03  0.00000000000E+00 0.  1.
         22    1    1    2    0    0  0.10817812475E+04 -0.48106941218E+03 -0.43289231595E+03  0.12605848659E+04  0.00000000000E+00 0. -1.
<mgrwt>
<rscale>  0 0.23718958E+04</rscale>
<asrwt>0</asrwt>
<pdfrwt beam="1">  1        1 0.26802717E+00 0.23718958E+04</pdfrwt>
<pdfrwt beam="2">  1       -1 0.12420117E+00 0.23718958E+04</pdfrwt>
<totfact> 0.22782624E+00</totfact>
</mgrwt>
</event>
<event>
 6    1  0.1878398E-004  0.3113151E+04  0.7818608E-02  0.8212138E-01
          2   -1    0    0  501    0  0.00000000000E+00  0.00000000000E+00  0.15329779572E+04  0.15329779572E+04  0.00000000000E+00 0.  1.
         -2   -1    0    0    0  501 -0.00000000000E+00 -0.00000000000E+00 -0.15805359238E+04  0.15805359238E+04  0.00000000000E+00 0. -1.
         23    2    1    2    0    0 -0.53250021868E+02  0.12578839989E+04 -0.93695719712E+03  0.15720409780E+04  0.91193901440E+02 0.  0.
         11    1    3    3    0    0 -0.13875659070E+02  0.83634954922E+03 -0.57500119936E+03  0.10150366898E+04  0.00000000000E+00 0. -1.
        -11    1    3    3    0    0 -0.39374362798E+02  0.42153444969E+03 -0.36195599776E+03  0.55700428817E+03  0.00000000000E+00 0.  1.
         22    1    1    2    0    0  0.53250021868E+02 -0.12578839989E+04  0.88939923050E+03  0.15414729030E+04  0.00000000000E+00 0.  1.
<mgrwt>
<rscale>  0 0.31131506E+04</rscale>
<asrwt>0</asrwt>
<pdfrwt beam="1">  1        2 0.23584276E+00 0.31131506E+04</pdfrwt>
<pdfrwt beam="2">  1       -2 0.24315937E+00 0.31131506E+04</pdfrwt>
<totfact> 0.73042719E-01</totfact>
</mgrwt>
</event>
<event>
 6    1  0.1878398E-004  0.9496607E+03  0.7818608E-02  0.9365547E-01
          1   -1    0    0  501    0  0.00000000000E+00  0.00000000000E+00  0.43830656826E+03  0.43830656826E+03  0.00000000000E+00 0.  1.
         -1   -1    0    0    0  501 -0.00000000000E+00 -0.00000000000E+00 -0.51439762165E+03  0.51439762165E+03  0.00000000000E+00 0. -1.
         23    2    1    2    0    0  0.24584806702E+03  0.19360646131E+03  0.31406290174E+03  0.45255936827E+03  0.90828088390E+02 0.  0.
         13    1    3    3    0    0  0.19644903471E+03  0.12298375986E+03  0.26977095980E+03  0.35565938646E+03  0.00000000000E+00 0.  1.
        -13    1    3    3    0    0  0.49399032315E+02  0.70622701452E+02  0.44291941942E+02  0.96899981811E+02  0.00000000000E+00 0. -1.
         22    1    1    2    0    0 -0.24584806702E+03 -0.19360646131E+03 -0.39015395512E+03  0.50014482164E+03  0.00000000000E+00 0. -1.
<mgrwt>
<rscale>  0 0.94966069E+03</rscale>
<asrwt>0</asrwt>
<pdfrwt beam="1">  1        1 0.67431780E-01 0.94966069E+03</pdfrwt>
<pdfrwt beam="2">  1       -1 0.79138096E-01 0.94966069E+03</pdfrwt>
<totfact> 0.85213837E+01</totfact>
</mgrwt>
</event>
<event>
 6    1  0.1878398E-004  0.3113985E+04  0.7818608E-02  0.8211910E-01
          2   -1    0    0  501    0  0.00000000000E+00  0.00000000000E+00  0.16564211990E+04  0.16564211990E+04  0.00000000000E+00 0.  1.
         -2   -1    0    0    0  501 -0.00000000000E+00 -0.00000000000E+00 -0.14635325961E+04  0.14635325961E+04  0.00000000000E+00 0. -1.
         23    2    1    2    0    0 -0.12624231216E+03 -0.40013657274E+03 -0.14041963831E+04  0.14686734279E+04  0.95852789898E+02 0.  0.
         13    1    3    3    0    0 -0.50483194643E+02 -0.66163443719E+02 -0.19737491813E+03  0.21420320384E+03  0.00000000000E+00 0. -1.
        -13    1    3    3    0    0 -0.75759117521E+02 -0.33397312902E+03 -0.12068214650E+04  0.12544702241E+04  0.00000000000E+00 0.  1.
         22    1    1    2    0    0  0.12624231216E+03  0.40013657274E+03  0.15970849861E+04  0.16512803672E+04  0.00000000000E+00 0.  1.
<mgrwt>
<rscale>  0 0.31139855E+04</rscale>
<asrwt>0</asrwt>
<pdfrwt beam="1">  1        2 0.25483403E+00 0.31139855E+04</pdfrwt>
<pdfrwt beam="2">  1       -2 0.22515886E+00 0.31139855E+04</pdfrwt>
<totfact> 0.80649604E-01</totfact>
</mgrwt>
</event>
<event>
 6    1  0.1878398E-004  0.1511589E+04  0.7818608E-02  0.8876783E-01
         -2   -1    0    0    0  501 -0.00000000000E+00  0.00000000000E+00  0.29135904514E+03  0.29135904514E+03  0.00000000000E+00 0. -1.
          2   -1    0    0  501    0  0.00000000000E+00 -0.00000000000E+00 -0.19605544923E+04  0.19605544923E+04  0.00000000000E+00 0.  1.
         23    2    1    2    0    0 -0.60371329985E+03  0.25410616653E+03 -0.28342500511E+03  0.71913846903E+03  0.88265009096E+02 0.  0.
         13    1    3    3    0    0 -0.13121834595E+03  0.27425547240E+02 -0.31655669359E+02  0.13774068519E+03  0.00000000000E+00 0. -1.
        -13    1    3    3    0    0 -0.47249495390E+03  0.22668061929E+03 -0.25176933575E+03  0.58139778384E+03  0.00000000000E+00 0.  1.
         22    1    1    2    0    0  0.60371329985E+03 -0.25410616653E+03 -0.13857704421E+04  0.15327750684E+04  0.00000000000E+00 0. -1.
<mgrwt>
<rscale>  0 0.15115889E+04</rscale>
<asrwt>0</asrwt>
<pdfrwt beam="1">  1        2 0.30162377E+00 0.15115889E+04</pdfrwt>
<pdfrwt beam="2">  1       -2 0.44824468E-01 0.15115889E+04</pdfrwt>
<totfact> 0.32028341E+01</totfact>
</mgrwt>
</event>
<event>
 6    1  0.1878398E-004  0.2932336E+04  0.7818608E-02  0.8263321E-01
         -2   -1    0    0    0  501 -0.00000000000E+00  0.00000000000E+00  0.10938858872E+04  0.10938858872E+04  0.00000000000E+00 0. -1.
          2   -1    0    0  501    0  0.00000000000E+00 -0.00000000000E+00 -0.19651494859E+04  0.19651494859E+04  0.00000000000E+00 0.  1.
         23    2    1    2    0    0 -0.44806515778E+03  0.37329401153E+03 -0.18377612746E+04  0.19302180440E+04  0.90908691667E+02 0.  0.
         11    1    3    3    0    0 -0.13641338287E+03  0.16800344120E+03 -0.71810227418E+03  0.75000309564E+03  0.00000000000E+00 0. -1.
        -11    1    3    3    0    0 -0.31165177491E+03  0.20529057033E+03 -0.11196590005E+04  0.11802149484E+04  0.00000000000E+00 0.  1.
         22    1    1    2    0    0  0.44806515778E+03 -0.37329401153E+03  0.96649767599E+03  0.11288173290E+04  0.00000000000E+00 0. -1.
<mgrwt>
<rscale>  0 0.29323365E+04</rscale>
<asrwt>0</asrwt>
<pdfrwt beam="1">  1        2 0.30233068E+00 0.29323365E+04</pdfrwt>
<pdfrwt beam="2">  1       -2 0.16829014E+00 0.29323365E+04</pdfrwt>
<totfact> 0.13183793E+00</totfact>
</mgrwt>
</event>
<event>
 6    1  0.1878398E-004  0.2782751E+04  0.7818608E-02  0.8308644E-01
         -2   -1    0    0    0  501 -0.00000000000E+00  0.00000000000E+00  0.68208676559E+03  0.68208676559E+03  0.00000000000E+00 0. -1.
          2   -1    0    0  501    0  0.00000000000E+00 -0.00000000000E+00 -0.28382396341E+04  0.28382396341E+04  0.00000000000E+00 0.  1.
         23    2    1    2    0    0  0.73509659250E+02  0.11613318802E+04 -0.20406999953E+04  0.23509570090E+04  0.91907460304E+02 0.  0.
         11    1    3    3    0    0  0.77988988848E+02  0.86502030973E+03 -0.15852238713E+04  0.18075611029E+04  0.00000000000E+00 0. -1.
        -11    1    3    3    0    0 -0.44793295979E+01  0.29631157052E+03 -0.45547612401E+03  0.54339590609E+03  0.00000000000E+00 0.  1.
         22    1    1    2    0    0 -0.73509659250E+02 -0.11613318802E+04 -0.11545287326E+03  0.11693693907E+04  0.00000000000E+00 0. -1.
<mgrwt>
<rscale>  0 0.27827509E+04</rscale>
<asrwt>0</asrwt>
<pdfrwt beam="1">  1        2 0.43665225E+00 0.27827509E+04</pdfrwt>
<pdfrwt beam="2">  1       -2 0.10493643E+00 0.27827509E+04</pdfrwt>
<totfact> 0.14055551E+00</totfact>
</mgrwt>
</event>
<event>
 6    1  0.1878398E-004  0.9111379E+03  0.7818608E-02  0.9411765E-01
          2   -1    0    0  501    0  0.00000000000E+00  0.00000000000E+00  0.39895037577E+03  0.39895037577E+03  0.00000000000E+00 0.  1.
         -2   -1    0    0    0  501 -0.00000000000E+00 -0.00000000000E+00 -0.52022276644E+03  0.52022276644E+03  0.00000000000E+00 0. -1.
         23    2    1    2    0    0 -0.22181288057E+03  0.30887085284E+03 -0.30541095101E+03  0.49666969001E+03  0.93823100882E+02 0.  0.
         13    1    3    3    0    0 -0.13812028930E+03  0.25225892369E+03 -0.25199201811E+03  0.38237645860E+03  0.00000000000E+00 0.  1.
        -13    1    3    3    0    0 -0.83692591263E+02  0.56611929147E+02 -0.53418932896E+02  0.11429323141E+03  0.00000000000E+00 0. -1.
         22    1    1    2    0    0  0.22181288057E+03 -0.30887085284E+03  0.18413856033E+03  0.42250345220E+03  0.00000000000E+00 0.  1.
<mgrwt>
<rscale>  0 0.91113790E+03</rscale>
<asrwt>0</asrwt>
<pdfrwt beam="1">  1        2 0.61376981E-01 0.91113790E+03</pdfrwt>
<pdfrwt beam="2">  1       -2 0.80034271E-01 0.91113790E+03</pdfrwt>
<totfact> 0.11051985E+02</totfact>
</mgrwt>
</event>
<event>
 6    1  0.1878398E-004  0.1568517E+04  0.7818608E-02  0.8840126E-01
         -2   -1    0    0    0  501 -0.00000000000E+00  0.00000000000E+00  0.84912513595E+03  0.84912513595E+03  0.00000000000E+00 0. -1.
          2   -1    0    0  501    0  0.00000000000E+00 -0.00000000000E+00 -0.72434735207E+03  0.72434735207E+03  0.00000000000E+00 0.  1.
         23    2    1    2    0    0 -0.29811726661E+03 -0.62783697974E+03 -0.29727409182E+03  0.76034213957E+03  0.81823625895E+02 0.  0.
         11    1    3    3    0    0 -0.46560028307E+02 -0.17664113255E+03 -0.91162116280E+02  0.20415792267E+03  0.00000000000E+00 0.  1.
        -11    1    3    3    0    0 -0.25155723830E+03 -0.45119584719E+03 -0.20611197554E+03  0.55618421690E+03  0.00000000000E+00 0. -1.
         22    1    1    2    0    0  0.29811726661E+03  0.62783697974E+03  0.42205187570E+03  0.81313034845E+03  0.00000000000E+00 0. -1.
<mgrwt>
<rscale>  0 0.15685172E+04</rscale>
<asrwt>0</asrwt>
<pdfrwt beam="1">  1        2 0.11143805E+00 0.15685172E+04</pdfrwt>
<pdfrwt beam="2">  1       -2 0.13063464E+00 0.15685172E+04</pdfrwt>
<totfact> 0.16169109E+01</totfact>
</mgrwt>
</event>
<event>
 6    1  0.1878398E-004  0.3965923E+04  0.7818608E-02  0.8011456E-01
          2   -1    0    0  501    0  0.00000000000E+00  0.00000000000E+00  0.39970825353E+04  0.39970825353E+04  0.00000000000E+00 0.  1.
         -2   -1    0    0    0  501 -0.00000000000E+00 -0.00000000000E+00 -0.98375151223E+03  0.98375151223E+03  0.00000000000E+00 0. -1.
         23    2    1    2    0    0 -0.60323975099E+03  0.15962106143E+04  0.24128273802E+03  0.17256784112E+04  0.89230582013E+02 0.  0.
         11    1    3    3    0    0 -0.18878211086E+03  0.39251896480E+03  0.52482852612E+02  0.43870750270E+03  0.00000000000E+00 0.  1.
        -11    1    3    3    0    0 -0.41445764012E+03  0.12036916495E+04  0.18879988540E+03  0.12869709085E+04  0.00000000000E+00 0. -1.
         22    1    1    2    0    0  0.60323975099E+03 -0.15962106143E+04  0.27720482850E+04  0.32551556363E+04  0.00000000000E+00 0.  1.
<mgrwt>
<rscale>  0 0.39659228E+04</rscale>
<asrwt>0</asrwt>
<pdfrwt beam="1">  1        2 0.61493577E+00 0.39659228E+04</pdfrwt>
<pdfrwt beam="2">  1       -2 0.15134639E+00 0.39659228E+04</pdfrwt>
<totfact> 0.79328620E-02</totfact>
</mgrwt>
</event>
<event>
 6    1  0.1878398E-004  0.1934674E+04  0.7818608E-02  0.8637787E-01
          1   -1    0    0  501    0  0.00000000000E+00  0.00000000000E+00  0.10882148239E+04  0.10882148239E+04  0.00000000000E+00 0.  1.
         -1   -1    0    0    0  501 -0.00000000000E+00 -0.00000000000E+00 -0.85988592599E+03  0.85988592599E+03  0.00000000000E+00 0. -1.
         23    2    1    2    0    0  0.82888610757E+02 -0.94181909679E+03 -0.81353648109E+02  0.95321532323E+03  0.90040565965E+02 0.  0.
         13    1    3    3    0    0  0.92234010832E+02 -0.64172624039E+03 -0.33483714230E+02  0.64918474989E+03  0.00000000000E+00 0.  1.
        -13    1    3    3    0    0 -0.93454000753E+01 -0.30009285639E+03 -0.47869933880E+02  0.30403057335E+03  0.00000000000E+00 0. -1.
         22    1    1    2    0    0 -0.82888610757E+02  0.94181909679E+03  0.30968254603E+03  0.99488542666E+03  0.00000000000E+00 0. -1.
<mgrwt>
<rscale>  0 0.19346737E+04</rscale>
<asrwt>0</asrwt>
<pdfrwt beam="1">  1        1 0.16741767E+00 0.19346737E+04</pdfrwt>
<pdfrwt beam="2">  1       -1 0.13229014E+00 0.19346737E+04</pdfrwt>
<totfact> 0.58577056E+00</totfact>
</mgrwt>
</event>
<event>
 6    1  0.1878398E-004  0.3114712E+04  0.7818608E-02  0.8211712E-01
          2   -1    0    0  501    0  0.00000000000E+00  0.00000000000E+00  0.13819432237E+04  0.13819432237E+04  0.00000000000E+00 0.  1.
         -2   -1    0    0    0  501 -0.00000000000E+00 -0.00000000000E+00 -0.17550341295E+04  0.17550341295E+04  0.00000000000E+00 0. -1.
         23    2    1    2    0    0  0.10625535965E+04  0.11011859185E+04 -0.47060375773E+03  0.16036348184E+04  0.92445451414E+02 0.  0.
         11    1    3    3    0    0  0.49571601815E+03  0.57746824933E+03 -0.21969645311E+03  0.79213034353E+03  0.00000000000E+00 0. -1.
        -11    1    3    3    0    0  0.56683757836E+03  0.52371766913E+03 -0.25090730462E+03  0.81150447486E+03  0.00000000000E+00 0.  1.
         22    1    1    2    0    0 -0.10625535965E+04 -0.11011859185E+04  0.97512851933E+02  0.15333425347E+04  0.00000000000E+00 0.  1.
<mgrwt>
<rscale>  0 0.31147119E+04</rscale>
<asrwt>0</asrwt>
<pdfrwt beam="1">  1        2 0.21260665E+00 0.31147119E+04</pdfrwt>
<pdfrwt beam="2">  1       -2 0.27000525E+00 0.31147119E+04</pdfrwt>
<totfact> 0.60904143E-01</totfact>
</mgrwt>
</event>
<event>
 6    1  0.1878398E-004  0.2877672E+04  0.7818608E-02  0.8279552E-01
         -3   -1    0    0    0  501 -0.00000000000E+00  0.00000000000E+00  0.20170358077E+04  0.20170358077E+04  0.00000000000E+00 0. -1.
          3   -1    0    0  501    0  0.00000000000E+00 -0.00000000000E+00 -0.10263819907E+04  0.10263819907E+04  0.00000000000E+00 0.  1.
         23    2    1    2    0    0  0.26979252036E+03  0.11531906382E+04  0.13571614235E+04  0.18036740838E+04  0.93361765480E+02 0.  0.
         11    1    3    3    0    0  0.13911716531E+03  0.54402785328E+03  0.71214054822E+03  0.90689803796E+03  0.00000000000E+00 0. -1.
        -11    1    3    3    0    0  0.13067535505E+03  0.60916278492E+03  0.64502087527E+03  0.89677604589E+03  0.00000000000E+00 0.  1.
         22    1    1    2    0    0 -0.26979252036E+03 -0.11531906382E+04 -0.36650760658E+03  0.12397437145E+04  0.00000000000E+00 0.  1.
<mgrwt>
<rscale>  0 0.28776721E+04</rscale>
<asrwt>0</asrwt>
<pdfrwt beam="1">  1        3 0.15790492E+00 0.28776721E+04</pdfrwt>
<pdfrwt beam="2">  1       -3 0.31031320E+00 0.28776721E+04</pdfrwt>
<totfact> 0.21132958E-02</totfact>
</mgrwt>
</event>
<event>
 6    1  0.1878398E-004  0.3420880E+04  0.7818608E-02  0.8132801E-01
          1   -1    0    0  501    0  0.00000000000E+00  0.00000000000E+00  0.10092061740E+04  0.10092061740E+04  0.00000000000E+00 0.  1.
         -1   -1    0    0    0  501 -0.00000000000E+00 -0.00000000000E+00 -0.28989177219E+04  0.28989177219E+04  0.00000000000E+00 0. -1.
         23    2    1    2    0    0  0.16336870036E+04  0.41171730602E+03 -0.12743652280E+04  0.21144975526E+04  0.92998924157E+02 0.  0.
         13    1    3    3    0    0  0.73070546693E+03  0.14012994687E+03 -0.54001795176E+03  0.91934012728E+03  0.00000000000E+00 0.  1.
        -13    1    3    3    0    0  0.90298153667E+03  0.27158735914E+03 -0.73434727625E+03  0.11951574253E+04  0.00000000000E+00 0. -1.
         22    1    1    2    0    0 -0.16336870036E+04 -0.41171730602E+03 -0.61534631984E+03  0.17936263432E+04  0.00000000000E+00 0.  1.
<mgrwt>
<rscale>  0 0.34208804E+04</rscale>
<asrwt>0</asrwt>
<pdfrwt beam="1">  1        1 0.15526249E+00 0.34208804E+04</pdfrwt>
<pdfrwt beam="2">  1       -1 0.44598733E+00 0.34208804E+04</pdfrwt>
<totfact> 0.42113134E-02</totfact>
</mgrwt>
</event>
<event>
 6    1  0.1878398E-004  0.5389804E+03  0.7818608E-02  0.1004077E+00
         -1   -1    0    0    0  501 -0.00000000000E+00  0.00000000000E+00  0.45063912765E+02  0.45063912765E+02  0.00000000000E+00 0. -1.
          1   -1    0    0  501    0  0.00000000000E+00 -0.00000000000E+00 -0.16115994863E+04  0.16115994863E+04  0.00000000000E+00 0.  1.
         23    2    1    2    0    0 -0.26099963625E+03  0.83543275109E+01 -0.75462528136E+03  0.80379240797E+03  0.91827637068E+02 0.  0.
         11    1    3    3    0    0 -0.82784504385E+02  0.31791647205E+02 -0.34960936565E+03  0.36068087217E+03  0.00000000000E+00 0. -1.
        -11    1    3    3    0    0 -0.17821513187E+03 -0.23437319694E+02 -0.40501591571E+03  0.44311153580E+03  0.00000000000E+00 0.  1.
         22    1    1    2    0    0  0.26099963625E+03 -0.83543275109E+01 -0.81191029218E+03  0.85287099110E+03  0.00000000000E+00 0.  1.
<mgrwt>
<rscale>  0 0.53898044E+03</rscale>
<asrwt>0</asrwt>
<pdfrwt beam="1">  1        1 0.24793840E+00 0.53898044E+03</pdfrwt>
<pdfrwt beam="2">  1       -1 0.69329093E-02 0.53898044E+03</pdfrwt>
<totfact> 0.63400303E+02</totfact>
</mgrwt>
</event>
<event>
 6    1  0.1878398E-004  0.3828228E+04  0.7818608E-02  0.8040124E-01
          1   -1    0    0  501    0  0.00000000000E+00  0.00000000000E+00  0.12271037499E+04  0.12271037499E+04  0.00000000000E+00 0.  1.
         -1   -1    0    0    0  501 -0.00000000000E+00 -0.00000000000E+00 -0.29857552650E+04  0.29857552650E+04  0.00000000000E+00 0. -1.
         23    2    1    2    0    0  0.15081360514E+04 -0.78323615970E+03 -0.18458069958E+04  0.25112335246E+04  0.10656977833E+03 0.  0.
         13    1    3    3    0    0  0.10256966203E+03 -0.24868699469E+02 -0.10841607548E+03  0.15130443881E+03  0.00000000000E+00 0. -1.
        -13    1    3    3    0    0  0.14055663894E+04 -0.75836746023E+03 -0.17373909203E+04  0.23599290857E+04  0.00000000000E+00 0.  1.
         22    1    1    2    0    0 -0.15081360514E+04  0.78323615970E+03  0.87155480681E+02  0.17016254903E+04  0.00000000000E+00 0.  1.
<mgrwt>
<rscale>  0 0.38282275E+04</rscale>
<asrwt>0</asrwt>
<pdfrwt beam="1">  1        1 0.18878519E+00 0.38282275E+04</pdfrwt>
<pdfrwt beam="2">  1       -1 0.45934696E+00 0.38282275E+04</pdfrwt>
<totfact> 0.22609432E-02</totfact>
</mgrwt>
</event>
<event>
 6    1  0.1878398E-004  0.3895980E+04  0.7818608E-02  0.8025866E-01
         -2   -1    0    0    0  501 -0.00000000000E+00  0.00000000000E+00  0.15160104988E+04  0.15160104988E+04  0.00000000000E+00 0. -1.
          2   -1    0    0  501    0  0.00000000000E+00 -0.00000000000E+00 -0.25030596942E+04  0.25030596942E+04  0.00000000000E+00 0.  1.
         23    2    1    2    0    0 -0.84093281081E+03 -0.12634147982E+04 -0.17517789178E+04  0.23196007191E+04  0.91832318071E+02 0.  0.
         11    1    3    3    0    0 -0.52121014945E+03 -0.75006018479E+03 -0.99073033115E+03  0.13475150796E+04  0.00000000000E+00 0.  1.
        -11    1    3    3    0    0 -0.31972266136E+03 -0.51335461342E+03 -0.76104858662E+03  0.97208563949E+03  0.00000000000E+00 0. -1.
         22    1    1    2    0    0  0.84093281081E+03  0.12634147982E+04  0.76472972239E+03  0.16994694740E+04  0.00000000000E+00 0. -1.
<mgrwt>
<rscale>  0 0.38959799E+04</rscale>
<asrwt>0</asrwt>
<pdfrwt beam="1">  1        2 0.38508610E+00 0.38959799E+04</pdfrwt>
<pdfrwt beam="2">  1       -2 0.23323239E+00 0.38959799E+04</pdfrwt>
<totfact> 0.22508656E-01</totfact>
</mgrwt>
</event>
<event>
 6    1  0.1878398E-004  0.9052053E+03  0.7818608E-02  0.9419098E-01
         -2   -1    0    0    0  501 -0.00000000000E+00  0.00000000000E+00  0.62097107090E+02  0.62097107090E+02  0.00000000000E+00 0. -1.
          2   -1    0    0  501    0  0.00000000000E+00 -0.00000000000E+00 -0.32988519986E+04  0.32988519986E+04  0.00000000000E+00 0.  1.
         23    2    1    2    0    0 -0.28298460338E+03  0.31161034047E+03 -0.10569729467E+04  0.11408971655E+04  0.85283305816E+02 0.  0.
         11    1    3    3    0    0 -0.18906482782E+03  0.18637679124E+03 -0.55782745767E+03  0.61778094011E+03  0.00000000000E+00 0. -1.
        -11    1    3    3    0    0 -0.93919775564E+02  0.12523354922E+03 -0.49914548902E+03  0.52311622542E+03  0.00000000000E+00 0.  1.
         22    1    1    2    0    0  0.28298460338E+03 -0.31161034047E+03 -0.21797819449E+04  0.22200519402E+04  0.00000000000E+00 0. -1.
<mgrwt>
<rscale>  0 0.90520532E+03</rscale>
<asrwt>0</asrwt>
<pdfrwt beam="1">  1        2 0.50751579E+00 0.90520532E+03</pdfrwt>
<pdfrwt beam="2">  1       -2 0.95533993E-02 0.90520532E+03</pdfrwt>
<totfact> 0.86338030E+01</totfact>
</mgrwt>
</event>
<event>
 6    1  0.1878398E-004  0.2312159E+04  0.7818608E-02  0.8473142E-01
         -1   -1    0    0    0  501 -0.00000000000E+00  0.00000000000E+00  0.78175791368E+03  0.78175791368E+03  0.00000000000E+00 0. -1.
          1   -1    0    0  501    0  0.00000000000E+00 -0.00000000000E+00 -0.17096345261E+04  0.17096345261E+04  0.00000000000E+00 0.  1.
         23    2    1    2    0    0  0.23501099768E+02  0.69113207575E+03 -0.14605216070E+04  0.16185084051E+04  0.90720697080E+02 0.  0.
         11    1    3    3    0    0  0.37484837050E+02  0.65899430425E+03 -0.13530133383E+04  0.15054313999E+04  0.00000000000E+00 0. -1.
        -11    1    3    3    0    0 -0.13983737282E+02  0.32137771501E+02 -0.10750826871E+03  0.11307700521E+03  0.00000000000E+00 0.  1.
         22    1    1    2    0    0 -0.23501099768E+02 -0.69113207575E+03  0.53264499459E+03  0.87288403472E+03  0.00000000000E+00 0. -1.
<mgrwt>
<rscale>  0 0.23121594E+04</rscale>
<asrwt>0</asrwt>
<pdfrwt beam="1">  1        1 0.26302070E+00 0.23121594E+04</pdfrwt>
<pdfrwt beam="2">  1       -1 0.12027045E+00 0.23121594E+04</pdfrwt>
<totfact> 0.26094689E+00</totfact>
</mgrwt>
</event>
<event>
 6    1  0.1878398E-004  0.2518517E+03  0.7818608E-02  0.1112140E+00
          2   -1    0    0  501    0  0.00000000000E+00  0.00000000000E+00  0.17767919277E+03  0.17767919277E+03  0.00000000000E+00 0.  1.
         -2   -1    0    0    0  501 -0.00000000000E+00 -0.00000000000E+00 -0.89246934519E+02  0.89246934519E+02  0.00000000000E+00 0. -1.
         23    2    1    2    0    0  0.80652298093E+02 -0.68849823604E+02  0.30361949890E+02  0.14602429889E+03  0.95687807301E+02 0.  0.
         11    1    3    3    0    0  0.59566935205E+02 -0.21645303708E+02 -0.26923175156E+02  0.68859249944E+02  0.00000000000E+00 0. -1.
        -11    1    3    3    0    0  0.21085362888E+02 -0.47204519896E+02  0.57285125046E+02  0.77165048942E+02  0.00000000000E+00 0.  1.
         22    1    1    2    0    0 -0.80652298093E+02  0.68849823604E+02  0.58070308362E+02  0.12090182840E+03  0.00000000000E+00 0. -1.
<mgrwt>
<rscale>  0 0.25185173E+03</rscale>
<asrwt>0</asrwt>
<pdfrwt beam="1">  1        2 0.27335260E-01 0.25185173E+03</pdfrwt>
<pdfrwt beam="2">  1       -2 0.13730298E-01 0.25185173E+03</pdfrwt>
<totfact> 0.76073335E+03</totfact>
</mgrwt>
</event>
<event>
 6    1  0.1878398E-004  0.2473001E+04  0.7818608E-02  0.8412668E-01
          2   -1    0    0  501    0  0.00000000000E+00  0.00000000000E+00  0.36929080105E+04  0.36929080105E+04  0.00000000000E+00 0.  1.
         -2   -1    0    0    0  501 -0.00000000000E+00 -0.00000000000E+00 -0.41401893075E+03  0.41401893075E+03  0.00000000000E+00 0. -1.
         23    2    1    2    0    0  0.57909776600E+03  0.59296398718E+03  0.12153634513E+03  0.84259901602E+03  0.90782740245E+02 0.  0.
         13    1    3    3    0    0  0.38762447803E+03  0.43478704921E+03  0.11742574554E+03  0.59420646230E+03  0.00000000000E+00 0.  1.
        -13    1    3    3    0    0  0.19147328796E+03  0.15817693798E+03  0.41105995938E+01  0.24839255371E+03  0.00000000000E+00 0. -1.
         22    1    1    2    0    0 -0.57909776600E+03 -0.59296398718E+03  0.31573527346E+04  0.32643279252E+04  0.00000000000E+00 0.  1.
<mgrwt>
<rscale>  0 0.24730013E+04</rscale>
<asrwt>0</asrwt>
<pdfrwt beam="1">  1        2 0.56813967E+00 0.24730013E+04</pdfrwt>
<pdfrwt beam="2">  1       -2 0.63695223E-01 0.24730013E+04</pdfrwt>
<totfact> 0.12068784E+00</totfact>
</mgrwt>
</event>
<event>
 6    1  0.1878398E-004  0.2200212E+04  0.7818608E-02  0.8518340E-01
          2   -1    0    0  501    0  0.00000000000E+00  0.00000000000E+00  0.27561873171E+04  0.27561873171E+04  0.00000000000E+00 0.  1.
         -2   -1    0    0    0  501 -0.00000000000E+00 -0.00000000000E+00 -0.43909671072E+03  0.43909671072E+03  0.00000000000E+00 0. -1.
         23    2    1    2    0    0 -0.66941366273E+03 -0.75028749600E+03  0.51899538732E+03  0.11351402476E+04  0.90228549120E+02 0.  0.
         11    1    3    3    0    0 -0.40423132797E+03 -0.38569676526E+03  0.28768689571E+03  0.62843353762E+03  0.00000000000E+00 0.  1.
        -11    1    3    3    0    0 -0.26518233476E+03 -0.36459073073E+03  0.23130849161E+03  0.50670670994E+03  0.00000000000E+00 0. -1.
         22    1    1    2    0    0  0.66941366273E+03  0.75028749600E+03  0.17980952190E+04  0.20601437802E+04  0.00000000000E+00 0.  1.
<mgrwt>
<rscale>  0 0.22002116E+04</rscale>
<asrwt>0</asrwt>
<pdfrwt beam="1">  1        2 0.42402881E+00 0.22002116E+04</pdfrwt>
<pdfrwt beam="2">  1       -2 0.67553342E-01 0.22002116E+04</pdfrwt>
<totfact> 0.45146175E+00</totfact>
</mgrwt>
</event>
<event>
 6    1  0.1878398E-004  0.1472580E+04  0.7818608E-02  0.8902894E-01
          1   -1    0    0  501    0  0.00000000000E+00  0.00000000000E+00  0.13635469451E+04  0.13635469451E+04  0.00000000000E+00 0.  1.
         -1   -1    0    0    0  501 -0.00000000000E+00 -0.00000000000E+00 -0.39758308925E+03  0.39758308925E+03  0.00000000000E+00 0. -1.
         23    2    1    2    0    0 -0.55423468369E+03  0.18690697094E+03 -0.44235021143E+02  0.59382027621E+03  0.92495853669E+02 0.  0.
         11    1    3    3    0    0 -0.20257542861E+03  0.76863892393E+02  0.27568736918E+02  0.21841450841E+03  0.00000000000E+00 0. -1.
        -11    1    3    3    0    0 -0.35165925509E+03  0.11004307855E+03 -0.71803758061E+02  0.37540576780E+03  0.00000000000E+00 0.  1.
         22    1    1    2    0    0  0.55423468369E+03 -0.18690697094E+03  0.10101988770E+04  0.11673097582E+04  0.00000000000E+00 0.  1.
<mgrwt>
<rscale>  0 0.14725803E+04</rscale>
<asrwt>0</asrwt>
<pdfrwt beam="1">  1        1 0.20977645E+00 0.14725803E+04</pdfrwt>
<pdfrwt beam="2">  1       -1 0.61166630E-01 0.14725803E+04</pdfrwt>
<totfact> 0.21421287E+01</totfact>
</mgrwt>
</event>
<event>
 6    1  0.1878398E-004  0.1900543E+04  0.7818608E-02  0.8654586E-01
          2   -1    0    0  501    0  0.00000000000E+00  0.00000000000E+00  0.70127491306E+03  0.70127491306E+03  0.00000000000E+00 0.  1.
         -2   -1    0    0    0  501 -0.00000000000E+00 -0.00000000000E+00 -0.12876773174E+04  0.12876773174E+04  0.00000000000E+00 0. -1.
         23    2    1    2    0    0  0.24044771103E+03  0.13293603150E+03  0.65581503768E+03  0.71671354867E+03  0.89988093592E+02 0.  0.
         13    1    3    3    0    0  0.23189697018E+03  0.14163282075E+03  0.58721143163E+03  0.64703425421E+03  0.00000000000E+00 0. -1.
        -13    1    3    3    0    0  0.85507408498E+01 -0.86967892510E+01  0.68603606050E+02  0.69679294453E+02  0.00000000000E+00 0.  1.
         22    1    1    2    0    0 -0.24044771103E+03 -0.13293603150E+03 -0.12422174420E+04  0.12722386818E+04  0.00000000000E+00 0. -1.
<mgrwt>
<rscale>  0 0.19005429E+04</rscale>
<asrwt>0</asrwt>
<pdfrwt beam="1">  1        2 0.10788845E+00 0.19005429E+04</pdfrwt>
<pdfrwt beam="2">  1       -2 0.19810420E+00 0.19005429E+04</pdfrwt>
<totfact> 0.52366627E+00</totfact>
</mgrwt>
</event>
<event>
 6    1  0.1878398E-004  0.3161652E+04  0.7818608E-02  0.8199019E-01
          2   -1    0    0  501    0  0.00000000000E+00  0.00000000000E+00  0.30756951588E+04  0.30756951588E+04  0.00000000000E+00 0. -1.
         -2   -1    0    0    0  501 -0.00000000000E+00 -0.00000000000E+00 -0.81250269850E+03  0.81250269850E+03  0.00000000000E+00 0.  1.
         23    2    1    2    0    0 -0.12142720386E+04 -0.58529735226E+03  0.21452564634E+04  0.25350761061E+04  0.86348107643E+02 0.  0.
         13    1    3    3    0    0 -0.10470094911E+04 -0.53517155112E+03  0.18844855274E+04  0.22212436081E+04  0.00000000000E+00 0.  1.
        -13    1    3    3    0    0 -0.16726254750E+03 -0.50125801137E+02  0.26077093604E+03  0.31383249803E+03  0.00000000000E+00 0. -1.
         22    1    1    2    0    0  0.12142720386E+04  0.58529735226E+03  0.11793599688E+03  0.13531217512E+04  0.00000000000E+00 0.  1.
<mgrwt>
<rscale>  0 0.31616519E+04</rscale>
<asrwt>0</asrwt>
<pdfrwt beam="1">  1        2 0.47318386E+00 0.31616519E+04</pdfrwt>
<pdfrwt beam="2">  1       -2 0.12500042E+00 0.31616519E+04</pdfrwt>
<totfact> 0.63117259E-01</totfact>
</mgrwt>
</event>
<event>
 6    1  0.1878398E-004  0.3984213E+04  0.7818608E-02  0.8007739E-01
         -1   -1    0    0    0  501 -0.00000000000E+00  0.00000000000E+00  0.14833760672E+04  0.14833760672E+04  0.00000000000E+00 0. -1.
          1   -1    0    0  501    0  0.00000000000E+00 -0.00000000000E+00 -0.26753087653E+04  0.26753087653E+04  0.00000000000E+00 0.  1.
         23    2    1    2    0    0  0.87387234360E+03  0.92283308877E+03 -0.21960523984E+04  0.25389533253E+04  0.91455284009E+02 0.  0.
         11    1    3    3    0    0  0.56105408451E+03  0.54667607388E+03 -0.14137491909E+04  0.16162682916E+04  0.00000000000E+00 0.  1.
        -11    1    3    3    0    0  0.31281825910E+03  0.37615701489E+03 -0.78230320752E+03  0.92268503379E+03  0.00000000000E+00 0. -1.
         22    1    1    2    0    0 -0.87387234360E+03 -0.92283308877E+03  0.10041197003E+04  0.16197315071E+04  0.00000000000E+00 0. -1.
<mgrwt>
<rscale>  0 0.39842133E+04</rscale>
<asrwt>0</asrwt>
<pdfrwt beam="1">  1        1 0.41158596E+00 0.39842133E+04</pdfrwt>
<pdfrwt beam="2">  1       -1 0.22821170E+00 0.39842133E+04</pdfrwt>
<totfact> 0.77651267E-02</totfact>
</mgrwt>
</event>
<event>
 6    1  0.1878398E-004  0.9750195E+03  0.7818608E-02  0.9336375E-01
         -2   -1    0    0    0  501 -0.00000000000E+00  0.00000000000E+00  0.42491454891E+03  0.42491454891E+03  0.00000000000E+00 0. -1.
          2   -1    0    0  501    0  0.00000000000E+00 -0.00000000000E+00 -0.55932595230E+03  0.55932595230E+03  0.00000000000E+00 0.  1.
         23    2    1    2    0    0 -0.34861419569E+03  0.15443793806E+02 -0.40526848885E+03  0.54250083926E+03  0.91072742001E+02 0.  0.
         11    1    3    3    0    0 -0.19871430504E+03  0.48444775142E+02 -0.26341974026E+03  0.33350296974E+03  0.00000000000E+00 0.  1.
        -11    1    3    3    0    0 -0.14989989065E+03 -0.33000981336E+02 -0.14184874859E+03  0.20899786952E+03  0.00000000000E+00 0. -1.
         22    1    1    2    0    0  0.34861419569E+03 -0.15443793806E+02  0.27085708546E+03  0.44173966196E+03  0.00000000000E+00 0. -1.
<mgrwt>
<rscale>  0 0.97501946E+03</rscale>
<asrwt>0</asrwt>
<pdfrwt beam="1">  1        2 0.86050147E-01 0.97501946E+03</pdfrwt>
<pdfrwt beam="2">  1       -2 0.65371469E-01 0.97501946E+03</pdfrwt>
<totfact> 0.11641791E+02</totfact>
</mgrwt>
</event>
<event>
 6    1  0.1878398E-004  0.5674398E+03  0.7818608E-02  0.9975360E-01
          1   -1    0    0  501    0  0.00000000000E+00  0.00000000000E+00  0.37891142117E+03  0.37891142117E+03  0.00000000000E+00 0.  1.
         -1   -1    0    0    0  501 -0.00000000000E+00 -0.00000000000E+00 -0.21244277173E+03  0.21244277173E+03  0.00000000000E+00 0. -1.
         23    2    1    2    0    0  0.14385146621E+03  0.23580969876E+03  0.88950518246E+02  0.30445957980E+03  0.92108537488E+02 0.  0.
         13    1    3    3    0    0  0.67932786296E+02  0.19157377453E+03  0.59561678451E+02  0.21180880076E+03  0.00000000000E+00 0. -1.
        -13    1    3    3    0    0  0.75918679911E+02  0.44235924231E+02  0.29388839795E+02  0.92650779039E+02  0.00000000000E+00 0.  1.
         22    1    1    2    0    0 -0.14385146621E+03 -0.23580969876E+03  0.77518131195E+02  0.28689461310E+03  0.00000000000E+00 0.  1.
<mgrwt>
<rscale>  0 0.56743984E+03</rscale>
<asrwt>0</asrwt>
<pdfrwt beam="1">  1        1 0.58294064E-01 0.56743984E+03</pdfrwt>
<pdfrwt beam="2">  1       -1 0.32683504E-01 0.56743984E+03</pdfrwt>
<totfact> 0.57095936E+02</totfact>
</mgrwt>
</event>
<event>
 6    1  0.1878398E-004  0.3201360E+04  0.7818608E-02  0.8188458E-01
         -1   -1    0    0    0  501 -0.00000000000E+00  0.00000000000E+00  0.10932803028E+04  0.10932803028E+04  0.00000000000E+00 0. -1.
          1   -1    0    0  501    0  0.00000000000E+00 -0.00000000000E+00 -0.23435684705E+04  0.23435684705E+04  0.00000000000E+00 0.  1.
         23    2    1    2    0    0  0.11359510907E+04 -0.41839533622E+03 -0.17477835308E+04  0.21280549874E+04  0.91821678395E+02 0.  0.
         13    1    3    3    0    0  0.34747451164E+03 -0.12571269290E+03 -0.46137763152E+03  0.59111042645E+03  0.00000000000E+00 0.  1.
        -13    1    3    3    0    0  0.78847657909E+03 -0.29268264332E+03 -0.12864058993E+04  0.15369445609E+04  0.00000000000E+00 0. -1.
         22    1    1    2    0    0 -0.11359510907E+04  0.41839533622E+03  0.49749536314E+03  0.13087937860E+04  0.00000000000E+00 0. -1.
<mgrwt>
<rscale>  0 0.32013605E+04</rscale>
<asrwt>0</asrwt>
<pdfrwt beam="1">  1        1 0.36054899E+00 0.32013605E+04</pdfrwt>
<pdfrwt beam="2">  1       -1 0.16819697E+00 0.32013605E+04</pdfrwt>
<totfact> 0.36868013E-01</totfact>
</mgrwt>
</event>
<event>
 6    1  0.1878398E-004  0.3222051E+04  0.7818608E-02  0.8183018E-01
          2   -1    0    0  501    0  0.00000000000E+00  0.00000000000E+00  0.13035072243E+04  0.13035072243E+04  0.00000000000E+00 0.  1.
         -2   -1    0    0    0  501 -0.00000000000E+00 -0.00000000000E+00 -0.19910923930E+04  0.19910923930E+04  0.00000000000E+00 0. -1.
         23    2    1    2    0    0  0.81170153194E+03 -0.12613788630E+04 -0.94155083231E+03  0.17732730346E+04  0.89684292150E+02 0.  0.
         13    1    3    3    0    0  0.53942817791E+02 -0.11958756955E+03 -0.63588752722E+02  0.14578938183E+03  0.00000000000E+00 0. -1.
        -13    1    3    3    0    0  0.75775871415E+03 -0.11417912935E+04 -0.87796207959E+03  0.16274836527E+04  0.00000000000E+00 0.  1.
         22    1    1    2    0    0 -0.81170153194E+03  0.12613788630E+04  0.25396566359E+03  0.15213265827E+04  0.00000000000E+00 0. -1.
<mgrwt>
<rscale>  0 0.32220511E+04</rscale>
<asrwt>0</asrwt>
<pdfrwt beam="1">  1        2 0.20053957E+00 0.32220511E+04</pdfrwt>
<pdfrwt beam="2">  1       -2 0.30632191E+00 0.32220511E+04</pdfrwt>
<totfact> 0.40196985E-01</totfact>
</mgrwt>
</event>
<event>
 6    1  0.2180561E-004  0.2501962E+04  0.7818608E-02  0.8402287E-01
         -2   -1    0    0    0  501 -0.00000000000E+00  0.00000000000E+00  0.72274422469E+03  0.72274422469E+03  0.00000000000E+00 0. -1.
          2   -1    0    0  501    0  0.00000000000E+00 -0.00000000000E+00 -0.21652938967E+04  0.21652938967E+04  0.00000000000E+00 0.  1.
         23    2    1    2    0    0 -0.99960223427E+03 -0.63732360459E+03 -0.11773978917E+04  0.16732577008E+04  0.90219366463E+02 0.  0.
         11    1    3    3    0    0 -0.70566070984E+03 -0.48313385022E+03 -0.80626203876E+03  0.11753441325E+04  0.00000000000E+00 0. -1.
        -11    1    3    3    0    0 -0.29394152443E+03 -0.15418975437E+03 -0.37113585297E+03  0.49791356830E+03  0.00000000000E+00 0.  1.
         22    1    1    2    0    0  0.99960223427E+03  0.63732360459E+03 -0.26515178030E+03  0.12147804206E+04  0.00000000000E+00 0. -1.
<mgrwt>
<rscale>  0 0.25019622E+04</rscale>
<asrwt>0</asrwt>
<pdfrwt beam="1">  1        2 0.33312214E+00 0.25019622E+04</pdfrwt>
<pdfrwt beam="2">  1       -2 0.11119142E+00 0.25019622E+04</pdfrwt>
<totfact> 0.30824976E+00</totfact>
</mgrwt>
</event>
<event>
 6    1  0.1878398E-004  0.9121445E+03  0.7818608E-02  0.9410526E-01
          2   -1    0    0  501    0  0.00000000000E+00  0.00000000000E+00  0.92072875735E+03  0.92072875735E+03  0.00000000000E+00 0. -1.
         -2   -1    0    0    0  501 -0.00000000000E+00 -0.00000000000E+00 -0.22591007884E+03  0.22591007884E+03  0.00000000000E+00 0.  1.
         23    2    1    2    0    0 -0.17163615439E+03 -0.41728043035E+03  0.32925601555E+03  0.56593410261E+03  0.91049204686E+02 0.  0.
         13    1    3    3    0    0 -0.68057597236E+02 -0.13534780753E+03  0.16341149628E+03  0.22283218498E+03  0.00000000000E+00 0. -1.
        -13    1    3    3    0    0 -0.10357855716E+03 -0.28193262282E+03  0.16584451927E+03  0.34310191763E+03  0.00000000000E+00 0.  1.
         22    1    1    2    0    0  0.17163615439E+03  0.41728043035E+03  0.36556266296E+03  0.58070473358E+03  0.00000000000E+00 0.  1.
<mgrwt>
<rscale>  0 0.91214452E+03</rscale>
<asrwt>0</asrwt>
<pdfrwt beam="1">  1        2 0.14165058E+00 0.91214452E+03</pdfrwt>
<pdfrwt beam="2">  1       -2 0.34755397E-01 0.91214452E+03</pdfrwt>
<totfact> 0.22070075E+02</totfact>
</mgrwt>
</event>
<event>
 6    1  0.1878398E-004  0.1682006E+04  0.7818608E-02  0.8771694E-01
         -2   -1    0    0    0  501 -0.00000000000E+00  0.00000000000E+00  0.93337341840E+03  0.93337341840E+03  0.00000000000E+00 0. -1.
          2   -1    0    0  501    0  0.00000000000E+00 -0.00000000000E+00 -0.75777399665E+03  0.75777399665E+03  0.00000000000E+00 0.  1.
         23    2    1    2    0    0 -0.51996531712E+02  0.17435690857E+03 -0.73500729898E+03  0.76254170179E+03  0.90167325246E+02 0.  0.
         11    1    3    3    0    0 -0.55661812586E+02  0.40470609079E+02 -0.23001286517E+03  0.24008753762E+03  0.00000000000E+00 0. -1.
        -11    1    3    3    0    0  0.36652808743E+01  0.13388629950E+03 -0.50499443381E+03  0.52245416417E+03  0.00000000000E+00 0.  1.
         22    1    1    2    0    0  0.51996531712E+02 -0.17435690857E+03  0.91060672072E+03  0.92860571326E+03  0.00000000000E+00 0. -1.
<mgrwt>
<rscale>  0 0.16820061E+04</rscale>
<asrwt>0</asrwt>
<pdfrwt beam="1">  1        2 0.11658061E+00 0.16820061E+04</pdfrwt>
<pdfrwt beam="2">  1       -2 0.14359591E+00 0.16820061E+04</pdfrwt>
<totfact> 0.11846822E+01</totfact>
</mgrwt>
</event>
<event>
 6    1  0.1878398E-004  0.1243433E+04  0.7818608E-02  0.9075666E-01
         -2   -1    0    0    0  501 -0.00000000000E+00  0.00000000000E+00  0.13774241964E+04  0.13774241964E+04  0.00000000000E+00 0. -1.
          2   -1    0    0  501    0  0.00000000000E+00 -0.00000000000E+00 -0.28061922307E+03  0.28061922307E+03  0.00000000000E+00 0.  1.
         23    2    1    2    0    0 -0.73990677213E+02 -0.24609480018E+03 -0.19836866503E+03  0.33762226527E+03  0.92743710007E+02 0.  0.
         11    1    3    3    0    0 -0.68489586437E+02 -0.11550276224E+03 -0.59371467363E+02  0.14682194207E+03  0.00000000000E+00 0. -1.
        -11    1    3    3    0    0 -0.55010907762E+01 -0.13059203794E+03 -0.13899719766E+03  0.19080032320E+03  0.00000000000E+00 0.  1.
         22    1    1    2    0    0  0.73990677213E+02  0.24609480018E+03  0.12951736384E+04  0.13204211542E+04  0.00000000000E+00 0. -1.
<mgrwt>
<rscale>  0 0.12434335E+04</rscale>
<asrwt>0</asrwt>
<pdfrwt beam="1">  1        2 0.43172189E-01 0.12434335E+04</pdfrwt>
<pdfrwt beam="2">  1       -2 0.21191141E+00 0.12434335E+04</pdfrwt>
<totfact> 0.12952157E+01</totfact>
</mgrwt>
</event>
<event>
 6    1  0.1878398E-004  0.3020803E+04  0.7818608E-02  0.8237815E-01
          1   -1    0    0  501    0  0.00000000000E+00  0.00000000000E+00  0.31621323170E+04  0.31621323170E+04  0.00000000000E+00 0.  1.
         -1   -1    0    0    0  501 -0.00000000000E+00 -0.00000000000E+00 -0.72144759122E+03  0.72144759122E+03  0.00000000000E+00 0. -1.
         23    2    1    2    0    0 -0.14033736973E+04 -0.33668501470E+03  0.17880273505E+04  0.22996682368E+04  0.92831351501E+02 0.  0.
         13    1    3    3    0    0 -0.53167764188E+03 -0.94409092693E+02  0.71849223510E+03  0.89879101217E+03  0.00000000000E+00 0. -1.
        -13    1    3    3    0    0 -0.87169605540E+03 -0.24227592201E+03  0.10695351154E+04  0.14008772246E+04  0.00000000000E+00 0.  1.
         22    1    1    2    0    0  0.14033736973E+04  0.33668501470E+03  0.65265737526E+03  0.15839116714E+04  0.00000000000E+00 0.  1.
<mgrwt>
<rscale>  0 0.30208030E+04</rscale>
<asrwt>0</asrwt>
<pdfrwt beam="1">  1        1 0.48648189E+00 0.30208030E+04</pdfrwt>
<pdfrwt beam="2">  1       -1 0.11099194E+00 0.30208030E+04</pdfrwt>
<totfact> 0.28775055E-01</totfact>
</mgrwt>
</event>
<event>
 6    1  0.2060619E-004  0.4526594E+04  0.7818608E-02  0.7905998E-01
         -2   -1    0    0    0  501 -0.00000000000E+00  0.00000000000E+00  0.17552754733E+04  0.17552754733E+04  0.00000000000E+00 0. -1.
          2   -1    0    0  501    0  0.00000000000E+00 -0.00000000000E+00 -0.29183523833E+04  0.29183523833E+04  0.00000000000E+00 0.  1.
         23    2    1    2    0    0 -0.11679198380E+04  0.31714059450E+03  0.13917706988E+04  0.18466398466E+04  0.91859350702E+02 0.  0.
         13    1    3    3    0    0 -0.63067433780E+03  0.16880663681E+03  0.68092822131E+03  0.94334990516E+03  0.00000000000E+00 0.  1.
        -13    1    3    3    0    0 -0.53724550021E+03  0.14833395769E+03  0.71084247749E+03  0.90328994144E+03  0.00000000000E+00 0. -1.
         22    1    1    2    0    0  0.11679198380E+04 -0.31714059450E+03 -0.25548476088E+04  0.28269880101E+04  0.00000000000E+00 0.  1.
<mgrwt>
<rscale>  0 0.45265936E+04</rscale>
<asrwt>0</asrwt>
<pdfrwt beam="1">  1        2 0.44897729E+00 0.45265936E+04</pdfrwt>
<pdfrwt beam="2">  1       -2 0.27004238E+00 0.45265936E+04</pdfrwt>
<totfact> 0.71657003E-02</totfact>
</mgrwt>
</event>
<event>
 6    1  0.1878398E-004  0.2843498E+04  0.7818608E-02  0.8289890E-01
         -2   -1    0    0    0  501 -0.00000000000E+00  0.00000000000E+00  0.18758803085E+04  0.18758803085E+04  0.00000000000E+00 0. -1.
          2   -1    0    0  501    0  0.00000000000E+00 -0.00000000000E+00 -0.10775579056E+04  0.10775579056E+04  0.00000000000E+00 0.  1.
         23    2    1    2    0    0  0.79418294495E+03  0.16876631029E+03  0.16099532412E+04  0.18054167703E+04  0.91496765448E+02 0.  0.
         13    1    3    3    0    0  0.60206702887E+03  0.13092863341E+03  0.13029481063E+04  0.14412844210E+04  0.00000000000E+00 0.  1.
        -13    1    3    3    0    0  0.19211591608E+03  0.37837676878E+02  0.30700513490E+03  0.36413234937E+03  0.00000000000E+00 0. -1.
         22    1    1    2    0    0 -0.79418294495E+03 -0.16876631029E+03 -0.81163083833E+03  0.11480214437E+04  0.00000000000E+00 0.  1.
<mgrwt>
<rscale>  0 0.28434976E+04</rscale>
<asrwt>0</asrwt>
<pdfrwt beam="1">  1        2 0.16577814E+00 0.28434976E+04</pdfrwt>
<pdfrwt beam="2">  1       -2 0.28859697E+00 0.28434976E+04</pdfrwt>
<totfact> 0.72791020E-01</totfact>
</mgrwt>
</event>
<event>
 6    1  0.1878398E-004  0.1962648E+04  0.7818608E-02  0.8624286E-01
         -2   -1    0    0    0  501 -0.00000000000E+00  0.00000000000E+00  0.10466887461E+04  0.10466887461E+04  0.00000000000E+00 0. -1.
          2   -1    0    0  501    0  0.00000000000E+00 -0.00000000000E+00 -0.92004156500E+03  0.92004156500E+03  0.00000000000E+00 0.  1.
         23    2    1    2    0    0 -0.60623728954E+03  0.50961497313E+03  0.64047138218E+03  0.10226718481E+04  0.91777150512E+02 0.  0.
         13    1    3    3    0    0 -0.24261848632E+03  0.23277613356E+03  0.22113665315E+03  0.40242996611E+03  0.00000000000E+00 0. -1.
        -13    1    3    3    0    0 -0.36361880322E+03  0.27683883957E+03  0.41933472904E+03  0.62024188195E+03  0.00000000000E+00 0.  1.
         22    1    1    2    0    0  0.60623728954E+03 -0.50961497313E+03 -0.51382420107E+03  0.94405846305E+03  0.00000000000E+00 0.  1.
<mgrwt>
<rscale>  0 0.19626484E+04</rscale>
<asrwt>0</asrwt>
<pdfrwt beam="1">  1        2 0.14154486E+00 0.19626484E+04</pdfrwt>
<pdfrwt beam="2">  1       -2 0.16102904E+00 0.19626484E+04</pdfrwt>
<totfact> 0.65544425E+00</totfact>
</mgrwt>
</event>
<event>
 6    1  0.1878398E-004  0.1254981E+04  0.7818608E-02  0.9066048E-01
         -1   -1    0    0    0  501 -0.00000000000E+00  0.00000000000E+00  0.12391264986E+03  0.12391264986E+03  0.00000000000E+00 0. -1.
          1   -1    0    0  501    0  0.00000000000E+00 -0.00000000000E+00 -0.31775943847E+04  0.31775943847E+04  0.00000000000E+00 0.  1.
         23    2    1    2    0    0 -0.29060080569E+03 -0.50998293616E+03 -0.20931999420E+04  0.21758709042E+04  0.91633898699E+02 0.  0.
         13    1    3    3    0    0 -0.21959638262E+03 -0.44764383449E+03 -0.17114632867E+04  0.17826144158E+04  0.00000000000E+00 0.  1.
        -13    1    3    3    0    0 -0.71004423075E+02 -0.62339101672E+02 -0.38173665529E+03  0.39325648842E+03  0.00000000000E+00 0. -1.
         22    1    1    2    0    0  0.29060080569E+03  0.50998293616E+03 -0.96048179285E+03  0.11256361303E+04  0.00000000000E+00 0. -1.
<mgrwt>
<rscale>  0 0.12549807E+04</rscale>
<asrwt>0</asrwt>
<pdfrwt beam="1">  1        1 0.48886075E+00 0.12549807E+04</pdfrwt>
<pdfrwt beam="2">  1       -1 0.19063482E-01 0.12549807E+04</pdfrwt>
<totfact> 0.97896072E+00</totfact>
</mgrwt>
</event>
<event>
 6    1  0.1878398E-004  0.2101463E+04  0.7818608E-02  0.8560599E-01
          2   -1    0    0  501    0  0.00000000000E+00  0.00000000000E+00  0.25693522865E+04  0.25693522865E+04  0.00000000000E+00 0.  1.
         -2   -1    0    0    0  501 -0.00000000000E+00 -0.00000000000E+00 -0.42969456403E+03  0.42969456403E+03  0.00000000000E+00 0. -1.
         23    2    1    2    0    0  0.87306361637E+03  0.19567396765E+03  0.29130351347E+03  0.94552751490E+03  0.92930966981E+02 0.  0.
         11    1    3    3    0    0  0.72431383306E+03  0.12575460126E+03  0.24069492573E+03  0.77354947856E+03  0.00000000000E+00 0. -1.
        -11    1    3    3    0    0  0.14874978331E+03  0.69919366392E+02  0.50608587731E+02  0.17197803634E+03  0.00000000000E+00 0.  1.
         22    1    1    2    0    0 -0.87306361637E+03 -0.19567396765E+03  0.18483542090E+04  0.20535193357E+04  0.00000000000E+00 0.  1.
<mgrwt>
<rscale>  0 0.21014630E+04</rscale>
<asrwt>0</asrwt>
<pdfrwt beam="1">  1        2 0.39528496E+00 0.21014630E+04</pdfrwt>
<pdfrwt beam="2">  1       -2 0.66106858E-01 0.21014630E+04</pdfrwt>
<totfact> 0.61551386E+00</totfact>
</mgrwt>
</event>
<event>
 6    1  0.1878398E-004  0.2899017E+04  0.7818608E-02  0.8273170E-01
         -2   -1    0    0    0  501 -0.00000000000E+00  0.00000000000E+00  0.81982123832E+03  0.81982123832E+03  0.00000000000E+00 0. -1.
          2   -1    0    0  501    0  0.00000000000E+00 -0.00000000000E+00 -0.25628445886E+04  0.25628445886E+04  0.00000000000E+00 0.  1.
         23    2    1    2    0    0  0.47630823911E+02  0.14441088276E+04 -0.99053662653E+03  0.17535693685E+04  0.78254203723E+02 0.  0.
         13    1    3    3    0    0  0.62747456634E+02  0.73778550205E+03 -0.51597049083E+03  0.90249112891E+03  0.00000000000E+00 0. -1.
        -13    1    3    3    0    0 -0.15116632723E+02  0.70632332555E+03 -0.47456613570E+03  0.85107823962E+03  0.00000000000E+00 0.  1.
         22    1    1    2    0    0 -0.47630823911E+02 -0.14441088276E+04 -0.75248672373E+03  0.16290964584E+04  0.00000000000E+00 0.  1.
<mgrwt>
<rscale>  0 0.28990167E+04</rscale>
<asrwt>0</asrwt>
<pdfrwt beam="1">  1        2 0.39428378E+00 0.28990167E+04</pdfrwt>
<pdfrwt beam="2">  1       -2 0.12612635E+00 0.28990167E+04</pdfrwt>
<totfact> 0.12943550E+00</totfact>
</mgrwt>
</event>
<event>
 6    1  0.1878398E-004  0.2154478E+04  0.7818608E-02  0.8537618E-01
          2   -1    0    0  501    0  0.00000000000E+00  0.00000000000E+00  0.72870503902E+03  0.72870503902E+03  0.00000000000E+00 0.  1.
         -2   -1    0    0    0  501 -0.00000000000E+00 -0.00000000000E+00 -0.15924739299E+04  0.15924739299E+04  0.00000000000E+00 0. -1.
         23    2    1    2    0    0 -0.76330159529E+02 -0.10556515889E+04 -0.22830000792E+03  0.10866558741E+04  0.92051749655E+02 0.  0.
         13    1    3    3    0    0 -0.25659930432E+02 -0.27801032785E+03 -0.10176023273E+03  0.29715874442E+03  0.00000000000E+00 0. -1.
        -13    1    3    3    0    0 -0.50670229097E+02 -0.77764126106E+03 -0.12653977519E+03  0.78949712965E+03  0.00000000000E+00 0.  1.
         22    1    1    2    0    0  0.76330159529E+02  0.10556515889E+04 -0.63546888292E+03  0.12345230948E+04  0.00000000000E+00 0.  1.
<mgrwt>
<rscale>  0 0.21544779E+04</rscale>
<asrwt>0</asrwt>
<pdfrwt beam="1">  1        2 0.11210847E+00 0.21544779E+04</pdfrwt>
<pdfrwt beam="2">  1       -2 0.24499599E+00 0.21544779E+04</pdfrwt>
<totfact> 0.24630289E+00</totfact>
</mgrwt>
</event>
<event>
 6    1  0.1878398E-004  0.2790008E+04  0.7818608E-02  0.8306377E-01
         -2   -1    0    0    0  501 -0.00000000000E+00  0.00000000000E+00  0.15381097496E+04  0.15381097496E+04  0.00000000000E+00 0. -1.
          2   -1    0    0  501    0  0.00000000000E+00 -0.00000000000E+00 -0.12652124182E+04  0.12652124182E+04  0.00000000000E+00 0.  1.
         23    2    1    2    0    0 -0.54445390985E+03  0.49075296601E+03 -0.10542145392E+04  0.12872435253E+04  0.91427923106E+02 0.  0.
         13    1    3    3    0    0 -0.14674975588E+03  0.12279393044E+03 -0.34791935256E+03  0.39706638751E+03  0.00000000000E+00 0. -1.
        -13    1    3    3    0    0 -0.39770415397E+03  0.36795903557E+03 -0.70629518661E+03  0.89017713775E+03  0.00000000000E+00 0.  1.
         22    1    1    2    0    0  0.54445390985E+03 -0.49075296601E+03  0.13271118705E+04  0.15160786426E+04  0.00000000000E+00 0. -1.
<mgrwt>
<rscale>  0 0.27900076E+04</rscale>
<asrwt>0</asrwt>
<pdfrwt beam="1">  1        2 0.19464807E+00 0.27900076E+04</pdfrwt>
<pdfrwt beam="2">  1       -2 0.23663227E+00 0.27900076E+04</pdfrwt>
<totfact> 0.11728173E+00</totfact>
</mgrwt>
</event>
<event>
 6    1  0.1878398E-004  0.2776719E+04  0.7818608E-02  0.8310533E-01
          2   -1    0    0  501    0  0.00000000000E+00  0.00000000000E+00  0.31124259515E+04  0.31124259515E+04  0.00000000000E+00 0.  1.
         -2   -1    0    0    0  501 -0.00000000000E+00 -0.00000000000E+00 -0.61930539806E+03  0.61930539806E+03  0.00000000000E+00 0. -1.
         23    2    1    2    0    0  0.12581648513E+04 -0.23360052349E+03  0.52961389115E+03  0.13880363160E+04  0.92768223357E+02 0.  0.
         13    1    3    3    0    0  0.57417232723E+03 -0.10361569783E+03  0.29147412719E+03  0.65220184070E+03  0.00000000000E+00 0. -1.
        -13    1    3    3    0    0  0.68399252404E+03 -0.12998482566E+03  0.23813976395E+03  0.73583447528E+03  0.00000000000E+00 0.  1.
         22    1    1    2    0    0 -0.12581648513E+04  0.23360052349E+03  0.19635066623E+04  0.23436950336E+04  0.00000000000E+00 0. -1.
<mgrwt>
<rscale>  0 0.27767191E+04</rscale>
<asrwt>0</asrwt>
<pdfrwt beam="1">  1        2 0.47883475E+00 0.27767191E+04</pdfrwt>
<pdfrwt beam="2">  1       -2 0.95277756E-01 0.27767191E+04</pdfrwt>
<totfact> 0.11919378E+00</totfact>
</mgrwt>
</event>
<event>
 6    1  0.1878398E-004  0.9165954E+03  0.7818608E-02  0.9405071E-01
         -1   -1    0    0    0  501 -0.00000000000E+00  0.00000000000E+00  0.10670953907E+04  0.10670953907E+04  0.00000000000E+00 0. -1.
          1   -1    0    0  501    0  0.00000000000E+00 -0.00000000000E+00 -0.19683036944E+03  0.19683036944E+03  0.00000000000E+00 0.  1.
         23    2    1    2    0    0  0.18989924098E+03 -0.17534144010E+03 -0.80486934039E+02  0.27866659481E+03  0.66110378706E+02 0.  0.
         11    1    3    3    0    0  0.97244878862E+02 -0.12799984214E+03 -0.32126854591E+02  0.16392882858E+03  0.00000000000E+00 0. -1.
        -11    1    3    3    0    0  0.92654362115E+02 -0.47341597963E+02 -0.48360079447E+02  0.11473776624E+03  0.00000000000E+00 0.  1.
         22    1    1    2    0    0 -0.18989924098E+03  0.17534144010E+03  0.95075195529E+03  0.98525916532E+03  0.00000000000E+00 0. -1.
<mgrwt>
<rscale>  0 0.91659540E+03</rscale>
<asrwt>0</asrwt>
<pdfrwt beam="1">  1        1 0.30281596E-01 0.91659540E+03</pdfrwt>
<pdfrwt beam="2">  1       -1 0.16416852E+00 0.91659540E+03</pdfrwt>
<totfact> 0.41644920E+01</totfact>
</mgrwt>
</event>
<event>
 6    1  0.1878398E-004  0.4100923E+04  0.7818608E-02  0.7984491E-01
         -2   -1    0    0    0  501 -0.00000000000E+00  0.00000000000E+00  0.17764654528E+04  0.17764654528E+04  0.00000000000E+00 0. -1.
          2   -1    0    0  501    0  0.00000000000E+00 -0.00000000000E+00 -0.23667177894E+04  0.23667177894E+04  0.00000000000E+00 0.  1.
         23    2    1    2    0    0  0.74252180899E+03 -0.12919635847E+04 -0.17168236260E+04  0.22751170199E+04  0.90363436015E+02 0.  0.
         13    1    3    3    0    0  0.57021150521E+03 -0.96397459724E+03 -0.12331218042E+04  0.16658263921E+04  0.00000000000E+00 0.  1.
        -13    1    3    3    0    0  0.17231030379E+03 -0.32798898743E+03 -0.48370182182E+03  0.60929062777E+03  0.00000000000E+00 0. -1.
         22    1    1    2    0    0 -0.74252180899E+03  0.12919635847E+04  0.11265712894E+04  0.18680662223E+04  0.00000000000E+00 0. -1.
<mgrwt>
<rscale>  0 0.41009230E+04</rscale>
<asrwt>0</asrwt>
<pdfrwt beam="1">  1        2 0.36411043E+00 0.41009230E+04</pdfrwt>
<pdfrwt beam="2">  1       -2 0.27330238E+00 0.41009230E+04</pdfrwt>
<totfact> 0.15039199E-01</totfact>
</mgrwt>
</event>
<event>
 6    1  0.2089164E-004  0.3125126E+04  0.7818608E-02  0.8208876E-01
          2   -1    0    0  501    0  0.00000000000E+00  0.00000000000E+00  0.29468954411E+04  0.29468954411E+04  0.00000000000E+00 0.  1.
         -2   -1    0    0    0  501 -0.00000000000E+00 -0.00000000000E+00 -0.82853412851E+03  0.82853412851E+03  0.00000000000E+00 0. -1.
         23    2    1    2    0    0 -0.11251271898E+04 -0.10603335909E+04  0.79661574319E+03  0.17414114115E+04  0.87741351164E+02 0.  0.
         11    1    3    3    0    0 -0.78601975936E+03 -0.69274018220E+03  0.56328100774E+03  0.11895383625E+04  0.00000000000E+00 0.  1.
        -11    1    3    3    0    0 -0.33910743041E+03 -0.36759340871E+03  0.23333473546E+03  0.55187304904E+03  0.00000000000E+00 0. -1.
         22    1    1    2    0    0  0.11251271898E+04  0.10603335909E+04  0.13217455694E+04  0.20340181581E+04  0.00000000000E+00 0.  1.
<mgrwt>
<rscale>  0 0.31251262E+04</rscale>
<asrwt>0</asrwt>
<pdfrwt beam="1">  1        2 0.45336853E+00 0.31251262E+04</pdfrwt>
<pdfrwt beam="2">  1       -2 0.12746679E+00 0.31251262E+04</pdfrwt>
<totfact> 0.72633601E-01</totfact>
</mgrwt>
</event>
<event>
 6    1  0.1878398E-004  0.1711237E+04  0.7818608E-02  0.8754982E-01
          2   -1    0    0  501    0  0.00000000000E+00  0.00000000000E+00  0.19172955848E+04  0.19172955848E+04  0.00000000000E+00 0.  1.
         -2   -1    0    0    0  501 -0.00000000000E+00 -0.00000000000E+00 -0.38183085751E+03  0.38183085751E+03  0.00000000000E+00 0. -1.
         23    2    1    2    0    0 -0.30457996890E+03 -0.15582193360E+03 -0.28013999685E+03  0.45156860918E+03  0.91577063254E+02 0.  0.
         11    1    3    3    0    0 -0.11403044988E+03 -0.76901082361E+02 -0.16693609683E+03  0.21629697269E+03  0.00000000000E+00 0. -1.
        -11    1    3    3    0    0 -0.19054951901E+03 -0.78920851244E+02 -0.11320390002E+03  0.23527163649E+03  0.00000000000E+00 0.  1.
         22    1    1    2    0    0  0.30457996890E+03  0.15582193360E+03  0.18156047241E+04  0.18475578331E+04  0.00000000000E+00 0.  1.
<mgrwt>
<rscale>  0 0.17112365E+04</rscale>
<asrwt>0</asrwt>
<pdfrwt beam="1">  1        2 0.29496855E+00 0.17112365E+04</pdfrwt>
<pdfrwt beam="2">  1       -2 0.58743210E-01 0.17112365E+04</pdfrwt>
<totfact> 0.19124654E+01</totfact>
</mgrwt>
</event>
<event>
 6    1  0.1878398E-004  0.2862896E+04  0.7818608E-02  0.8284003E-01
          2   -1    0    0  501    0  0.00000000000E+00  0.00000000000E+00  0.18348258039E+04  0.18348258039E+04  0.00000000000E+00 0.  1.
         -2   -1    0    0    0  501 -0.00000000000E+00 -0.00000000000E+00 -0.11167511723E+04  0.11167511723E+04  0.00000000000E+00 0. -1.
         23    2    1    2    0    0  0.64475888602E+03  0.24314995361E+03 -0.93235931211E+03  0.11630669473E+04  0.92708769310E+02 0.  0.
         11    1    3    3    0    0  0.24793245601E+03  0.45903097725E+02 -0.33723344861E+03  0.42107481044E+03  0.00000000000E+00 0.  1.
        -11    1    3    3    0    0  0.39682643000E+03  0.19724685588E+03 -0.59512586350E+03  0.74199213683E+03  0.00000000000E+00 0. -1.
         22    1    1    2    0    0 -0.64475888602E+03 -0.24314995361E+03  0.16504339437E+04  0.17885100289E+04  0.00000000000E+00 0.  1.
<mgrwt>
<rscale>  0 0.28628963E+04</rscale>
<asrwt>0</asrwt>
<pdfrwt beam="1">  1        2 0.28228089E+00 0.28628963E+04</pdfrwt>
<pdfrwt beam="2">  1       -2 0.17180787E+00 0.28628963E+04</pdfrwt>
<totfact> 0.14786189E+00</totfact>
</mgrwt>
</event>
<event>
 6    1  0.1878398E-004  0.2037343E+04  0.7818608E-02  0.8589358E-01
         -2   -1    0    0    0  501 -0.00000000000E+00  0.00000000000E+00  0.85818888625E+03  0.85818888625E+03  0.00000000000E+00 0. -1.
          2   -1    0    0  501    0  0.00000000000E+00 -0.00000000000E+00 -0.12091646501E+04  0.12091646501E+04  0.00000000000E+00 0.  1.
         23    2    1    2    0    0 -0.21996482042E+03 -0.91884639359E+03 -0.55727254798E+03  0.11002849863E+04  0.86087985177E+02 0.  0.
         13    1    3    3    0    0 -0.13694898635E+03 -0.72062657394E+03 -0.41938662486E+03  0.84495137436E+03  0.00000000000E+00 0.  1.
        -13    1    3    3    0    0 -0.83015834065E+02 -0.19821981965E+03 -0.13788592312E+03  0.25533361197E+03  0.00000000000E+00 0. -1.
         22    1    1    2    0    0  0.21996482042E+03  0.91884639359E+03  0.20629678414E+03  0.96706854999E+03  0.00000000000E+00 0.  1.
<mgrwt>
<rscale>  0 0.20373430E+04</rscale>
<asrwt>0</asrwt>
<pdfrwt beam="1">  1        2 0.18602533E+00 0.20373430E+04</pdfrwt>
<pdfrwt beam="2">  1       -2 0.13202906E+00 0.20373430E+04</pdfrwt>
<totfact> 0.72347501E+00</totfact>
</mgrwt>
</event>
<event>
 6    1  0.1878398E-004  0.1591663E+04  0.7818608E-02  0.8825686E-01
          2   -1    0    0  501    0  0.00000000000E+00  0.00000000000E+00  0.13474518503E+04  0.13474518503E+04  0.00000000000E+00 0.  1.
         -2   -1    0    0    0  501 -0.00000000000E+00 -0.00000000000E+00 -0.47003393006E+03  0.47003393006E+03  0.00000000000E+00 0. -1.
         23    2    1    2    0    0  0.42101329692E+03  0.64007828338E+03  0.67493424850E+03  0.10250515293E+04  0.90785421661E+02 0.  0.
         11    1    3    3    0    0  0.69225594415E+02  0.16423592205E+03  0.12997328724E+03  0.22058711750E+03  0.00000000000E+00 0. -1.
        -11    1    3    3    0    0  0.35178770251E+03  0.47584236134E+03  0.54496096126E+03  0.80446441175E+03  0.00000000000E+00 0.  1.
         22    1    1    2    0    0 -0.42101329692E+03 -0.64007828338E+03  0.20248367177E+03  0.79243425114E+03  0.00000000000E+00 0.  1.
<mgrwt>
<rscale>  0 0.15916634E+04</rscale>
<asrwt>0</asrwt>
<pdfrwt beam="1">  1        2 0.20730028E+00 0.15916634E+04</pdfrwt>
<pdfrwt beam="2">  1       -2 0.72312912E-01 0.15916634E+04</pdfrwt>
<totfact> 0.25768429E+01</totfact>
</mgrwt>
</event>
<event>
 6    1  0.1878398E-004  0.2615021E+04  0.7818608E-02  0.8363117E-01
         -2   -1    0    0    0  501 -0.00000000000E+00  0.00000000000E+00  0.56892404561E+03  0.56892404561E+03  0.00000000000E+00 0. -1.
          2   -1    0    0  501    0  0.00000000000E+00 -0.00000000000E+00 -0.30049410617E+04  0.30049410617E+04  0.00000000000E+00 0.  1.
         23    2    1    2    0    0 -0.11403195663E+03 -0.12593604704E+04 -0.16656203098E+04  0.20931547485E+04  0.89519291739E+02 0.  0.
         13    1    3    3    0    0 -0.49268415845E+02 -0.93279094842E+03 -0.12571993498E+04  0.15662300391E+04  0.00000000000E+00 0. -1.
        -13    1    3    3    0    0 -0.64763540783E+02 -0.32656952193E+03 -0.40842095996E+03  0.52692470943E+03  0.00000000000E+00 0.  1.
         22    1    1    2    0    0  0.11403195663E+03  0.12593604704E+04 -0.77039670628E+03  0.14807103587E+04  0.00000000000E+00 0. -1.
<mgrwt>
<rscale>  0 0.26150206E+04</rscale>
<asrwt>0</asrwt>
<pdfrwt beam="1">  1        2 0.46229862E+00 0.26150206E+04</pdfrwt>
<pdfrwt beam="2">  1       -2 0.87526777E-01 0.26150206E+04</pdfrwt>
<totfact> 0.17208083E+00</totfact>
</mgrwt>
</event>
<event>
 6    1  0.1878398E-004  0.1906901E+04  0.7818608E-02  0.8651429E-01
         -2   -1    0    0    0  501 -0.00000000000E+00  0.00000000000E+00  0.73979371010E+03  0.73979371010E+03  0.00000000000E+00 0. -1.
          2   -1    0    0  501    0  0.00000000000E+00 -0.00000000000E+00 -0.12288119926E+04  0.12288119926E+04  0.00000000000E+00 0.  1.
         23    2    1    2    0    0  0.50046522546E+03 -0.71920752053E+03  0.13740327033E+03  0.89151292056E+03  0.90502648281E+02 0.  0.
         11    1    3    3    0    0  0.18980014971E+03 -0.32572841999E+03  0.92465263707E+02  0.38816610543E+03  0.00000000000E+00 0.  1.
        -11    1    3    3    0    0  0.31066507576E+03 -0.39347910054E+03  0.44938006623E+02  0.50334681513E+03  0.00000000000E+00 0. -1.
         22    1    1    2    0    0 -0.50046522546E+03  0.71920752053E+03 -0.62642155284E+03  0.10770927821E+04  0.00000000000E+00 0.  1.
<mgrwt>
<rscale>  0 0.19069005E+04</rscale>
<asrwt>0</asrwt>
<pdfrwt beam="1">  1        2 0.18904800E+00 0.19069005E+04</pdfrwt>
<pdfrwt beam="2">  1       -2 0.11381442E+00 0.19069005E+04</pdfrwt>
<totfact> 0.10308039E+01</totfact>
</mgrwt>
</event>
<event>
 6    1  0.1878398E-004  0.5945595E+03  0.7818608E-02  0.9916758E-01
         -1   -1    0    0    0  501 -0.00000000000E+00  0.00000000000E+00  0.16067235381E+03  0.16067235381E+03  0.00000000000E+00 0. -1.
          1   -1    0    0  501    0  0.00000000000E+00 -0.00000000000E+00 -0.55003389071E+03  0.55003389071E+03  0.00000000000E+00 0.  1.
         23    2    1    2    0    0 -0.62987005965E+02  0.15939304713E+03  0.81364390806E+02  0.20975075208E+03  0.89452263882E+02 0.  0.
         13    1    3    3    0    0 -0.45114467571E+02  0.13848954369E+03  0.99868917978E+02  0.17660257550E+03  0.00000000000E+00 0. -1.
        -13    1    3    3    0    0 -0.17872538394E+02  0.20903503446E+02 -0.18504527173E+02  0.33148176584E+02  0.00000000000E+00 0.  1.
         22    1    1    2    0    0  0.62987005965E+02 -0.15939304713E+03 -0.47072592770E+03  0.50095549244E+03  0.00000000000E+00 0.  1.
<mgrwt>
<rscale>  0 0.59455947E+03</rscale>
<asrwt>0</asrwt>
<pdfrwt beam="1">  1        1 0.84620597E-01 0.59455947E+03</pdfrwt>
<pdfrwt beam="2">  1       -1 0.24718824E-01 0.59455947E+03</pdfrwt>
<totfact> 0.55925083E+02</totfact>
</mgrwt>
</event>
<event>
 6    1  0.1878398E-004  0.3417210E+04  0.7818608E-02  0.8133695E-01
          2   -1    0    0  501    0  0.00000000000E+00  0.00000000000E+00  0.23062263248E+04  0.23062263248E+04  0.00000000000E+00 0.  1.
         -2   -1    0    0    0  501 -0.00000000000E+00 -0.00000000000E+00 -0.12658479084E+04  0.12658479084E+04  0.00000000000E+00 0. -1.
         23    2    1    2    0    0  0.95169678008E+03 -0.10758132103E+04 -0.44427929067E+03  0.15063275566E+04  0.92400188661E+02 0.  0.
         13    1    3    3    0    0  0.42637617504E+03 -0.53645647771E+03 -0.18161164463E+03  0.70891817905E+03  0.00000000000E+00 0.  1.
        -13    1    3    3    0    0  0.52532060504E+03 -0.53935673259E+03 -0.26266764604E+03  0.79740937752E+03  0.00000000000E+00 0. -1.
         22    1    1    2    0    0 -0.95169678008E+03  0.10758132103E+04  0.14846577070E+04  0.20657466766E+04  0.00000000000E+00 0.  1.
<mgrwt>
<rscale>  0 0.34172104E+04</rscale>
<asrwt>0</asrwt>
<pdfrwt beam="1">  1        2 0.35480405E+00 0.34172104E+04</pdfrwt>
<pdfrwt beam="2">  1       -2 0.19474583E+00 0.34172104E+04</pdfrwt>
<totfact> 0.53597916E-01</totfact>
</mgrwt>
</event>
<event>
 6    1  0.1878398E-004  0.2083272E+04  0.7818608E-02  0.8568648E-01
          1   -1    0    0  501    0  0.00000000000E+00  0.00000000000E+00  0.77919977257E+03  0.77919977257E+03  0.00000000000E+00 0. -1.
         -1   -1    0    0    0  501 -0.00000000000E+00 -0.00000000000E+00 -0.13924614354E+04  0.13924614354E+04  0.00000000000E+00 0.  1.
         23    2    1    2    0    0 -0.99126889892E+03 -0.59629095294E+02  0.13551613107E+02  0.99732542044E+03  0.91130066776E+02 0.  0.
         11    1    3    3    0    0 -0.21994630082E+03 -0.35471551107E+02 -0.27808266737E+02  0.22451705031E+03  0.00000000000E+00 0. -1.
        -11    1    3    3    0    0 -0.77132259810E+03 -0.24157544186E+02  0.41359879844E+02  0.77280837013E+03  0.00000000000E+00 0.  1.
         22    1    1    2    0    0  0.99126889892E+03  0.59629095294E+02 -0.62681327594E+03  0.11743357875E+04  0.00000000000E+00 0.  1.
<mgrwt>
<rscale>  0 0.20832721E+04</rscale>
<asrwt>0</asrwt>
<pdfrwt beam="1">  1        1 0.11987689E+00 0.20832721E+04</pdfrwt>
<pdfrwt beam="2">  1       -1 0.21422484E+00 0.20832721E+04</pdfrwt>
<totfact> 0.25560037E+00</totfact>
</mgrwt>
</event>
<event>
 6    1  0.1878398E-004  0.3054544E+04  0.7818608E-02  0.8228325E-01
          2   -1    0    0  501    0  0.00000000000E+00  0.00000000000E+00  0.22690558590E+04  0.22690558590E+04  0.00000000000E+00 0.  1.
         -2   -1    0    0    0  501 -0.00000000000E+00 -0.00000000000E+00 -0.10279866321E+04  0.10279866321E+04  0.00000000000E+00 0. -1.
         23    2    1    2    0    0 -0.11251075952E+04  0.48804486852E+03 -0.35925048718E+03  0.12808386121E+04  0.86207559963E+02 0.  0.
         11    1    3    3    0    0 -0.40250123333E+03  0.21089436128E+03 -0.10697621965E+03  0.46682714791E+03  0.00000000000E+00 0. -1.
        -11    1    3    3    0    0 -0.72260636182E+03  0.27715050723E+03 -0.25227426752E+03  0.81401146421E+03  0.00000000000E+00 0.  1.
         22    1    1    2    0    0  0.11251075952E+04 -0.48804486852E+03  0.16003197141E+04  0.20162038790E+04  0.00000000000E+00 0.  1.
<mgrwt>
<rscale>  0 0.30545436E+04</rscale>
<asrwt>0</asrwt>
<pdfrwt beam="1">  1        2 0.34908552E+00 0.30545436E+04</pdfrwt>
<pdfrwt beam="2">  1       -2 0.15815179E+00 0.30545436E+04</pdfrwt>
<totfact> 0.10457859E+00</totfact>
</mgrwt>
</event>
<event>
 6    1  0.1878398E-004  0.4963920E+04  0.7818608E-02  0.7834097E-01
         -1   -1    0    0    0  501 -0.00000000000E+00  0.00000000000E+00  0.28318528715E+04  0.28318528715E+04  0.00000000000E+00 0. -1.
          1   -1    0    0  501    0  0.00000000000E+00 -0.00000000000E+00 -0.21752987637E+04  0.21752987637E+04  0.00000000000E+00 0.  1.
         23    2    1    2    0    0 -0.22274569407E+04 -0.97687425898E+03  0.82265702910E+03  0.25692349177E+04  0.91409705123E+02 0.  0.
         11    1    3    3    0    0 -0.20968305584E+04 -0.92766230278E+03  0.79608283199E+03  0.24271389771E+04  0.00000000000E+00 0.  1.
        -11    1    3    3    0    0 -0.13062638233E+03 -0.49211956193E+02  0.26574197118E+02  0.14209594064E+03  0.00000000000E+00 0. -1.
         22    1    1    2    0    0  0.22274569407E+04  0.97687425898E+03 -0.16610292130E+03  0.24379167174E+04  0.00000000000E+00 0. -1.
<mgrwt>
<rscale>  0 0.49639202E+04</rscale>
<asrwt>0</asrwt>
<pdfrwt beam="1">  1        1 0.33466135E+00 0.49639202E+04</pdfrwt>
<pdfrwt beam="2">  1       -1 0.43566967E+00 0.49639202E+04</pdfrwt>
<totfact> 0.66732061E-03</totfact>
</mgrwt>
</event>
<event>
 6    1  0.1878398E-004  0.2377558E+04  0.7818608E-02  0.8447953E-01
         -2   -1    0    0    0  501 -0.00000000000E+00  0.00000000000E+00  0.58254840117E+03  0.58254840117E+03  0.00000000000E+00 0. -1.
          2   -1    0    0  501    0  0.00000000000E+00 -0.00000000000E+00 -0.24258859363E+04  0.24258859363E+04  0.00000000000E+00 0.  1.
         23    2    1    2    0    0 -0.49116903282E+03 -0.19289473363E+03  0.42238757146E+03  0.68207115522E+03  0.91402424437E+02 0.  0.
         11    1    3    3    0    0 -0.45309742324E+02 -0.41651841662E+02  0.26795441368E+02  0.67125586340E+02  0.00000000000E+00 0.  1.
        -11    1    3    3    0    0 -0.44585929050E+03 -0.15124289196E+03  0.39559213009E+03  0.61494556888E+03  0.00000000000E+00 0. -1.
         22    1    1    2    0    0  0.49116903282E+03  0.19289473363E+03 -0.22657251066E+04  0.23263631823E+04  0.00000000000E+00 0.  1.
<mgrwt>
<rscale>  0 0.23775584E+04</rscale>
<asrwt>0</asrwt>
<pdfrwt beam="1">  1        2 0.37321322E+00 0.23775584E+04</pdfrwt>
<pdfrwt beam="2">  1       -2 0.89622831E-01 0.23775584E+04</pdfrwt>
<totfact> 0.36927298E+00</totfact>
</mgrwt>
</event>
<event>
 6    1  0.1878398E-004  0.6481348E+04  0.7818608E-02  0.7633426E-01
         -2   -1    0    0    0  501 -0.00000000000E+00  0.00000000000E+00  0.37519906147E+04  0.37519906147E+04  0.00000000000E+00 0. -1.
          2   -1    0    0  501    0  0.00000000000E+00 -0.00000000000E+00 -0.27990387306E+04  0.27990387306E+04  0.00000000000E+00 0.  1.
         23    2    1    2    0    0 -0.84210931115E+03 -0.27320495636E+04 -0.10644755756E+04  0.30519928401E+04  0.91154455706E+02 0.  0.
         11    1    3    3    0    0 -0.24190176451E+03 -0.67511325803E+03 -0.24275634633E+03  0.75711625166E+03  0.00000000000E+00 0. -1.
        -11    1    3    3    0    0 -0.60020754665E+03 -0.20569363056E+04 -0.82171922924E+03  0.22948765884E+04  0.00000000000E+00 0.  1.
         22    1    1    2    0    0  0.84210931115E+03  0.27320495636E+04  0.20174274597E+04  0.34990365052E+04  0.00000000000E+00 0.  1.
<mgrwt>
<rscale>  0 0.64813477E+04</rscale>
<asrwt>0</asrwt>
<pdfrwt beam="1">  1        2 0.43062134E+00 0.64813477E+04</pdfrwt>
<pdfrwt beam="2">  1       -2 0.57722933E+00 0.64813477E+04</pdfrwt>
<totfact> 0.97249158E-04</totfact>
</mgrwt>
</event>
<event>
 6    1  0.1878398E-004  0.3095647E+04  0.7818608E-02  0.8216934E-01
         -2   -1    0    0    0  501 -0.00000000000E+00  0.00000000000E+00  0.11613387938E+04  0.11613387938E+04  0.00000000000E+00 0. -1.
          2   -1    0    0  501    0  0.00000000000E+00 -0.00000000000E+00 -0.20629267964E+04  0.20629267964E+04  0.00000000000E+00 0.  1.
         23    2    1    2    0    0 -0.12665177833E+04  0.70045399183E+03 -0.10188239375E+04  0.17722162265E+04  0.89694190128E+02 0.  0.
         13    1    3    3    0    0 -0.11317933173E+04  0.59693237678E+03 -0.88242432830E+03  0.15543349288E+04  0.00000000000E+00 0. -1.
        -13    1    3    3    0    0 -0.13472446603E+03  0.10352161505E+03 -0.13639960919E+03  0.21788129777E+03  0.00000000000E+00 0.  1.
         22    1    1    2    0    0  0.12665177833E+04 -0.70045399183E+03  0.11723593493E+03  0.14520493637E+04  0.00000000000E+00 0. -1.
<mgrwt>
<rscale>  0 0.30956466E+04</rscale>
<asrwt>0</asrwt>
<pdfrwt beam="1">  1        2 0.31737335E+00 0.30956466E+04</pdfrwt>
<pdfrwt beam="2">  1       -2 0.17866751E+00 0.30956466E+04</pdfrwt>
<totfact> 0.96957055E-01</totfact>
</mgrwt>
</event>
<event>
 6    1  0.1878398E-004  0.1075736E+04  0.7818608E-02  0.9229169E-01
          2   -1    0    0  501    0  0.00000000000E+00  0.00000000000E+00  0.11736374368E+04  0.11736374368E+04  0.00000000000E+00 0.  1.
         -2   -1    0    0    0  501 -0.00000000000E+00 -0.00000000000E+00 -0.24650042136E+03  0.24650042136E+03  0.00000000000E+00 0. -1.
         23    2    1    2    0    0  0.41808196703E+03 -0.40419735234E+02  0.90173274958E+03  0.99933901919E+03  0.95552276082E+02 0.  0.
         13    1    3    3    0    0  0.33486717846E+03 -0.54253256784E+02  0.63999514925E+03  0.72434331235E+03  0.00000000000E+00 0.  1.
        -13    1    3    3    0    0  0.83214788561E+02  0.13833521550E+02  0.26173760033E+03  0.27499570684E+03  0.00000000000E+00 0. -1.
         22    1    1    2    0    0 -0.41808196703E+03  0.40419735234E+02  0.25404265846E+02  0.42079883896E+03  0.00000000000E+00 0. -1.
<mgrwt>
<rscale>  0 0.10757363E+04</rscale>
<asrwt>0</asrwt>
<pdfrwt beam="1">  1        2 0.18055960E+00 0.10757363E+04</pdfrwt>
<pdfrwt beam="2">  1       -2 0.37923143E-01 0.10757363E+04</pdfrwt>
<totfact> 0.12806049E+02</totfact>
</mgrwt>
</event>
<event>
 6    1  0.1878398E-004  0.1317567E+04  0.7818608E-02  0.9015749E-01
          2   -1    0    0  501    0  0.00000000000E+00  0.00000000000E+00  0.10788739893E+04  0.10788739893E+04  0.00000000000E+00 0.  1.
         -2   -1    0    0    0  501 -0.00000000000E+00 -0.00000000000E+00 -0.40226747721E+03  0.40226747721E+03  0.00000000000E+00 0. -1.
         23    2    1    2    0    0 -0.39717519709E+03  0.31189362761E+03  0.81250740963E+03  0.95817413863E+03  0.53885221717E+02 0.  0.
         13    1    3    3    0    0 -0.32126738077E+03  0.22936435703E+03  0.60695456973E+03  0.72402664864E+03  0.00000000000E+00 0.  1.
        -13    1    3    3    0    0 -0.75907816317E+02  0.82529270578E+02  0.20555283990E+03  0.23414748999E+03  0.00000000000E+00 0. -1.
         22    1    1    2    0    0  0.39717519709E+03 -0.31189362761E+03 -0.13590089749E+03  0.52296732792E+03  0.00000000000E+00 0. -1.
<mgrwt>
<rscale>  0 0.13175673E+04</rscale>
<asrwt>0</asrwt>
<pdfrwt beam="1">  1        2 0.16598061E+00 0.13175673E+04</pdfrwt>
<pdfrwt beam="2">  1       -2 0.61887305E-01 0.13175673E+04</pdfrwt>
<totfact> 0.53312378E+01</totfact>
</mgrwt>
</event>
<event>
 6    1  0.1878398E-004  0.3080385E+04  0.7818608E-02  0.8221142E-01
          2   -1    0    0  501    0  0.00000000000E+00  0.00000000000E+00  0.90061088581E+03  0.90061088581E+03  0.00000000000E+00 0.  1.
         -2   -1    0    0    0  501 -0.00000000000E+00 -0.00000000000E+00 -0.26339825506E+04  0.26339825506E+04  0.00000000000E+00 0. -1.
         23    2    1    2    0    0 -0.93014512379E+03 -0.41911853431E+03  0.45421190063E+03  0.11208096530E+04  0.95265579181E+02 0.  0.
         11    1    3    3    0    0 -0.48036856579E+03 -0.25049248796E+03  0.28008414524E+03  0.60987504781E+03  0.00000000000E+00 0.  1.
        -11    1    3    3    0    0 -0.44977655799E+03 -0.16862604635E+03  0.17412775539E+03  0.51093460523E+03  0.00000000000E+00 0. -1.
         22    1    1    2    0    0  0.93014512379E+03  0.41911853431E+03 -0.21875835655E+04  0.24137837834E+04  0.00000000000E+00 0. -1.
<mgrwt>
<rscale>  0 0.30803853E+04</rscale>
<asrwt>0</asrwt>
<pdfrwt beam="1">  1        2 0.13855552E+00 0.30803853E+04</pdfrwt>
<pdfrwt beam="2">  1       -2 0.40522808E+00 0.30803853E+04</pdfrwt>
<totfact> 0.17072871E-01</totfact>
</mgrwt>
</event>
<event>
 6    1  0.1878398E-004  0.1980258E+04  0.7818608E-02  0.8615907E-01
         -2   -1    0    0    0  501 -0.00000000000E+00  0.00000000000E+00  0.40978263836E+03  0.40978263836E+03  0.00000000000E+00 0.  1.
          2   -1    0    0  501    0  0.00000000000E+00 -0.00000000000E+00 -0.23923793396E+04  0.23923793396E+04  0.00000000000E+00 0. -1.
         23    2    1    2    0    0 -0.61033015083E+03  0.75429332011E+03 -0.12555252294E+04  0.15896875531E+04  0.96444850140E+02 0.  0.
         11    1    3    3    0    0 -0.37303020161E+03  0.42839652425E+03 -0.66361947505E+03  0.87353644513E+03  0.00000000000E+00 0. -1.
        -11    1    3    3    0    0 -0.23729994923E+03  0.32589679585E+03 -0.59190575430E+03  0.71615110795E+03  0.00000000000E+00 0.  1.
         22    1    1    2    0    0  0.61033015083E+03 -0.75429332011E+03 -0.72707147193E+03  0.12124744249E+04  0.00000000000E+00 0.  1.
<mgrwt>
<rscale>  0 0.19802581E+04</rscale>
<asrwt>0</asrwt>
<pdfrwt beam="1">  1        2 0.36805836E+00 0.19802581E+04</pdfrwt>
<pdfrwt beam="2">  1       -2 0.63043483E-01 0.19802581E+04</pdfrwt>
<totfact> 0.87138957E+00</totfact>
</mgrwt>
</event>
<event>
 6    1  0.1878398E-004  0.2509905E+04  0.7818608E-02  0.8399465E-01
          2   -1    0    0  501    0  0.00000000000E+00  0.00000000000E+00  0.16433627765E+04  0.16433627765E+04  0.00000000000E+00 0.  1.
         -2   -1    0    0    0  501 -0.00000000000E+00 -0.00000000000E+00 -0.95834335007E+03  0.95834335007E+03  0.00000000000E+00 0. -1.
         23    2    1    2    0    0  0.42179660086E+03 -0.64893792484E+03  0.13647686147E+04  0.15716130426E+04  0.91331162957E+02 0.  0.
         13    1    3    3    0    0  0.33603388127E+03 -0.55346457745E+03  0.10792876947E+04  0.12586118289E+04  0.00000000000E+00 0.  1.
        -13    1    3    3    0    0  0.85762719594E+02 -0.95473347392E+02  0.28548091999E+03  0.31300121376E+03  0.00000000000E+00 0. -1.
         22    1    1    2    0    0 -0.42179660086E+03  0.64893792484E+03 -0.67974918822E+03  0.10300930840E+04  0.00000000000E+00 0. -1.
<mgrwt>
<rscale>  0 0.25099050E+04</rscale>
<asrwt>0</asrwt>
<pdfrwt beam="1">  1        2 0.25282504E+00 0.25099050E+04</pdfrwt>
<pdfrwt beam="2">  1       -2 0.14743744E+00 0.25099050E+04</pdfrwt>
<totfact> 0.29478539E+00</totfact>
</mgrwt>
</event>
<event>
 6    1  0.1878398E-004  0.1352699E+04  0.7818608E-02  0.8988788E-01
          4   -1    0    0  501    0  0.00000000000E+00  0.00000000000E+00  0.17697204386E+04  0.17697204386E+04  0.00000000000E+00 0.  1.
         -4   -1    0    0    0  501 -0.00000000000E+00 -0.00000000000E+00 -0.25848624431E+03  0.25848624431E+03  0.00000000000E+00 0. -1.
         23    2    1    2    0    0  0.54373873496E+03 -0.22420099855E+03  0.26784578571E+03  0.65273126173E+03  0.91645160682E+02 0.  0.
         11    1    3    3    0    0  0.30219277778E+03 -0.76850817095E+02  0.15364779486E+03  0.34761209400E+03  0.00000000000E+00 0.  1.
        -11    1    3    3    0    0  0.24154595719E+03 -0.14735018145E+03  0.11419799085E+03  0.30511916774E+03  0.00000000000E+00 0. -1.
         22    1    1    2    0    0 -0.54373873496E+03  0.22420099855E+03  0.12433884086E+04  0.13754754212E+04  0.00000000000E+00 0.  1.
<mgrwt>
<rscale>  0 0.13526986E+04</rscale>
<asrwt>0</asrwt>
<pdfrwt beam="1">  1        4 0.27226468E+00 0.13526986E+04</pdfrwt>
<pdfrwt beam="2">  1       -4 0.39767116E-01 0.13526986E+04</pdfrwt>
<totfact> 0.55662522E-01</totfact>
</mgrwt>
</event>
<event>
 6    1  0.1878398E-004  0.1627283E+04  0.7818608E-02  0.8803960E-01
         -1   -1    0    0    0  501 -0.00000000000E+00  0.00000000000E+00  0.33517088045E+03  0.33517088045E+03  0.00000000000E+00 0. -1.
          1   -1    0    0  501    0  0.00000000000E+00 -0.00000000000E+00 -0.19751487139E+04  0.19751487139E+04  0.00000000000E+00 0.  1.
         23    2    1    2    0    0 -0.36052114158E+03  0.53083258435E+03 -0.11786925997E+03  0.65848024514E+03  0.89131053275E+02 0.  0.
         11    1    3    3    0    0 -0.17207615304E+03  0.32795001050E+03 -0.81367515734E+02  0.37918608156E+03  0.00000000000E+00 0.  1.
        -11    1    3    3    0    0 -0.18844498853E+03  0.20288257385E+03 -0.36501744236E+02  0.27929416358E+03  0.00000000000E+00 0. -1.
         22    1    1    2    0    0  0.36052114158E+03 -0.53083258435E+03 -0.15221085735E+04  0.16518393492E+04  0.00000000000E+00 0.  1.
<mgrwt>
<rscale>  0 0.16272828E+04</rscale>
<asrwt>0</asrwt>
<pdfrwt beam="1">  1        1 0.30386903E+00 0.16272828E+04</pdfrwt>
<pdfrwt beam="2">  1       -1 0.51564752E-01 0.16272828E+04</pdfrwt>
<totfact> 0.11227565E+01</totfact>
</mgrwt>
</event>
<event>
 6    1  0.1878398E-004  0.2803809E+04  0.7818608E-02  0.8302087E-01
          2   -1    0    0  501    0  0.00000000000E+00  0.00000000000E+00  0.12251061714E+04  0.12251061714E+04  0.00000000000E+00 0.  1.
         -2   -1    0    0    0  501 -0.00000000000E+00 -0.00000000000E+00 -0.16042175411E+04  0.16042175411E+04  0.00000000000E+00 0. -1.
         23    2    1    2    0    0  0.48742780147E+03  0.12787553163E+04 -0.48960817169E+03  0.14563668436E+04  0.92126004848E+02 0.  0.
         13    1    3    3    0    0  0.44887749714E+03  0.11155070652E+04 -0.45109608264E+03  0.12842642624E+04  0.00000000000E+00 0. -1.
        -13    1    3    3    0    0  0.38550304332E+02  0.16324825106E+03 -0.38512089051E+02  0.17210258116E+03  0.00000000000E+00 0.  1.
         22    1    1    2    0    0 -0.48742780147E+03 -0.12787553163E+04  0.11049680194E+03  0.13729568689E+04  0.00000000000E+00 0.  1.
<mgrwt>
<rscale>  0 0.28038094E+04</rscale>
<asrwt>0</asrwt>
<pdfrwt beam="1">  1        2 0.18847787E+00 0.28038094E+04</pdfrwt>
<pdfrwt beam="2">  1       -2 0.24680270E+00 0.28038094E+04</pdfrwt>
<totfact> 0.10703692E+00</totfact>
</mgrwt>
</event>
<event>
 6    1  0.1878398E-004  0.9331312E+03  0.7818608E-02  0.9385088E-01
          2   -1    0    0  501    0  0.00000000000E+00  0.00000000000E+00  0.13610147374E+04  0.13610147374E+04  0.00000000000E+00 0.  1.
         -2   -1    0    0    0  501 -0.00000000000E+00 -0.00000000000E+00 -0.15994202690E+03  0.15994202690E+03  0.00000000000E+00 0. -1.
         23    2    1    2    0    0  0.35546100332E+03 -0.29306889757E+03  0.64360615484E+03  0.79776186368E+03  0.99765750559E+02 0.  0.
         11    1    3    3    0    0  0.11023247899E+03 -0.13807260697E+03  0.19121051881E+03  0.26033959883E+03  0.00000000000E+00 0. -1.
        -11    1    3    3    0    0  0.24522852433E+03 -0.15499629060E+03  0.45239563603E+03  0.53742226484E+03  0.00000000000E+00 0.  1.
         22    1    1    2    0    0 -0.35546100332E+03  0.29306889757E+03  0.55746655567E+03  0.72319490063E+03  0.00000000000E+00 0. -1.
<mgrwt>
<rscale>  0 0.93313119E+03</rscale>
<asrwt>0</asrwt>
<pdfrwt beam="1">  1        2 0.20938688E+00 0.93313119E+03</pdfrwt>
<pdfrwt beam="2">  1       -2 0.24606467E-01 0.93313119E+03</pdfrwt>
<totfact> 0.22501894E+02</totfact>
</mgrwt>
</event>
<event>
 6    1  0.1974107E-004  0.2095455E+04  0.7818608E-02  0.8563248E-01
          1   -1    0    0  501    0  0.00000000000E+00  0.00000000000E+00  0.13394643564E+04  0.13394643564E+04  0.00000000000E+00 0.  1.
         -1   -1    0    0    0  501 -0.00000000000E+00 -0.00000000000E+00 -0.81953091446E+03  0.81953091446E+03  0.00000000000E+00 0. -1.
         23    2    1    2    0    0 -0.11259869781E+03  0.19413047481E+03 -0.79185083748E+03  0.82815226595E+03  0.91887533378E+02 0.  0.
         13    1    3    3    0    0 -0.54112723714E+02  0.41991954891E+02 -0.36228598843E+03  0.36870401212E+03  0.00000000000E+00 0.  1.
        -13    1    3    3    0    0 -0.58485974100E+02  0.15213851992E+03 -0.42956484905E+03  0.45944825383E+03  0.00000000000E+00 0. -1.
         22    1    1    2    0    0  0.11259869781E+03 -0.19413047481E+03  0.13117842794E+04  0.13308430049E+04  0.00000000000E+00 0.  1.
<mgrwt>
<rscale>  0 0.20954546E+04</rscale>
<asrwt>0</asrwt>
<pdfrwt beam="1">  1        1 0.20607144E+00 0.20954546E+04</pdfrwt>
<pdfrwt beam="2">  1       -1 0.12608168E+00 0.20954546E+04</pdfrwt>
<totfact> 0.42725831E+00</totfact>
</mgrwt>
</event>
<event>
 6    1  0.1878398E-004  0.3903381E+04  0.7818608E-02  0.8024326E-01
         -2   -1    0    0    0  501 -0.00000000000E+00  0.00000000000E+00  0.12753756330E+04  0.12753756330E+04  0.00000000000E+00 0. -1.
          2   -1    0    0  501    0  0.00000000000E+00 -0.00000000000E+00 -0.29866467389E+04  0.29866467389E+04  0.00000000000E+00 0.  1.
         23    2    1    2    0    0 -0.12977537322E+04  0.85839735164E+03 -0.21406612418E+04  0.26479013568E+04  0.89108249299E+02 0.  0.
         13    1    3    3    0    0 -0.42762269340E+03  0.26048568953E+03 -0.62640961850E+03  0.80193701280E+03  0.00000000000E+00 0.  1.
        -13    1    3    3    0    0 -0.87013103880E+03  0.59791166211E+03 -0.15142516234E+04  0.18459643440E+04  0.00000000000E+00 0. -1.
         22    1    1    2    0    0  0.12977537322E+04 -0.85839735164E+03  0.42939013597E+03  0.16141210152E+04  0.00000000000E+00 0. -1.
<mgrwt>
<rscale>  0 0.39033813E+04</rscale>
<asrwt>0</asrwt>
<pdfrwt beam="1">  1        2 0.45948412E+00 0.39033813E+04</pdfrwt>
<pdfrwt beam="2">  1       -2 0.19621163E+00 0.39033813E+04</pdfrwt>
<totfact> 0.19870141E-01</totfact>
</mgrwt>
</event>
<event>
 6    1  0.1878398E-004  0.2317525E+04  0.7818608E-02  0.8471043E-01
          1   -1    0    0  501    0  0.00000000000E+00  0.00000000000E+00  0.16526034679E+04  0.16526034679E+04  0.00000000000E+00 0.  1.
         -1   -1    0    0    0  501 -0.00000000000E+00 -0.00000000000E+00 -0.81249400488E+03  0.81249400488E+03  0.00000000000E+00 0. -1.
         23    2    1    2    0    0 -0.49676365767E+03 -0.74595376382E+03 -0.35725742708E+03  0.96946763261E+03  0.94939307611E+02 0.  0.
         13    1    3    3    0    0 -0.27348014419E+03 -0.32534457448E+03 -0.16516866767E+03  0.45598373896E+03  0.00000000000E+00 0. -1.
        -13    1    3    3    0    0 -0.22328351347E+03 -0.42060918934E+03 -0.19208875941E+03  0.51348389365E+03  0.00000000000E+00 0.  1.
         22    1    1    2    0    0  0.49676365767E+03  0.74595376382E+03  0.11973668901E+04  0.14956298402E+04  0.00000000000E+00 0.  1.
<mgrwt>
<rscale>  0 0.23175249E+04</rscale>
<asrwt>0</asrwt>
<pdfrwt beam="1">  1        1 0.25424669E+00 0.23175249E+04</pdfrwt>
<pdfrwt beam="2">  1       -1 0.12499908E+00 0.23175249E+04</pdfrwt>
<totfact> 0.25936175E+00</totfact>
</mgrwt>
</event>
<event>
 6    1  0.1878398E-004  0.3218639E+04  0.7818608E-02  0.8183912E-01
          2   -1    0    0  501    0  0.00000000000E+00  0.00000000000E+00  0.37980022164E+04  0.37980022164E+04  0.00000000000E+00 0.  1.
         -2   -1    0    0    0  501 -0.00000000000E+00 -0.00000000000E+00 -0.68191363081E+03  0.68191363081E+03  0.00000000000E+00 0. -1.
         23    2    1    2    0    0 -0.11613552895E+04 -0.88033407774E+03  0.61300515000E+03  0.15835110270E+04  0.89429646888E+02 0.  0.
         11    1    3    3    0    0 -0.34767941652E+03 -0.30444887823E+03  0.22236963798E+03  0.51285314859E+03  0.00000000000E+00 0. -1.
        -11    1    3    3    0    0 -0.81367587302E+03 -0.57588519951E+03  0.39063551201E+03  0.10706578784E+04  0.00000000000E+00 0.  1.
         22    1    1    2    0    0  0.11613552895E+04  0.88033407774E+03  0.25030834356E+04  0.28964048202E+04  0.00000000000E+00 0. -1.
<mgrwt>
<rscale>  0 0.32186391E+04</rscale>
<asrwt>0</asrwt>
<pdfrwt beam="1">  1        2 0.58430802E+00 0.32186391E+04</pdfrwt>
<pdfrwt beam="2">  1       -2 0.10490979E+00 0.32186391E+04</pdfrwt>
<totfact> 0.30473666E-01</totfact>
</mgrwt>
</event>
<event>
 6    1  0.1878398E-004  0.1276987E+04  0.7818608E-02  0.9048016E-01
         -2   -1    0    0    0  501 -0.00000000000E+00  0.00000000000E+00  0.32148520369E+03  0.32148520369E+03  0.00000000000E+00 0. -1.
          2   -1    0    0  501    0  0.00000000000E+00 -0.00000000000E+00 -0.12680962895E+04  0.12680962895E+04  0.00000000000E+00 0.  1.
         23    2    1    2    0    0 -0.26438445862E+03 -0.42957317390E+03  0.47352171955E+01  0.51278437120E+03  0.92158208379E+02 0.  0.
         11    1    3    3    0    0 -0.11176672079E+03 -0.12589484875E+03  0.33671906022E+02  0.17168316771E+03  0.00000000000E+00 0. -1.
        -11    1    3    3    0    0 -0.15261773783E+03 -0.30367832515E+03 -0.28936688827E+02  0.34110120350E+03  0.00000000000E+00 0.  1.
         22    1    1    2    0    0  0.26438445862E+03  0.42957317390E+03 -0.95134630304E+03  0.10767971220E+04  0.00000000000E+00 0.  1.
<mgrwt>
<rscale>  0 0.12769874E+04</rscale>
<asrwt>0</asrwt>
<pdfrwt beam="1">  1        2 0.19509174E+00 0.12769874E+04</pdfrwt>
<pdfrwt beam="2">  1       -2 0.49459263E-01 0.12769874E+04</pdfrwt>
<totfact> 0.65536588E+01</totfact>
</mgrwt>
</event>
<event>
 6    1  0.1878398E-004  0.1141221E+04  0.7818608E-02  0.9165921E-01
         -2   -1    0    0    0  501 -0.00000000000E+00  0.00000000000E+00  0.17906868770E+03  0.17906868770E+03  0.00000000000E+00 0. -1.
          2   -1    0    0  501    0  0.00000000000E+00 -0.00000000000E+00 -0.18182753288E+04  0.18182753288E+04  0.00000000000E+00 0.  1.
         23    2    1    2    0    0 -0.14629404707E+03  0.36740077660E+03 -0.15358542691E+04  0.15886057241E+04  0.91839706917E+02 0.  0.
         13    1    3    3    0    0 -0.16005457971E+02  0.13103473638E+03 -0.40413817290E+03  0.42515166661E+03  0.00000000000E+00 0. -1.
        -13    1    3    3    0    0 -0.13028858910E+03  0.23636604021E+03 -0.11317160962E+04  0.11634540575E+04  0.00000000000E+00 0.  1.
         22    1    1    2    0    0  0.14629404707E+03 -0.36740077660E+03 -0.10335237192E+03  0.40873829235E+03  0.00000000000E+00 0. -1.
<mgrwt>
<rscale>  0 0.11412207E+04</rscale>
<asrwt>0</asrwt>
<pdfrwt beam="1">  1        2 0.27973467E+00 0.11412207E+04</pdfrwt>
<pdfrwt beam="2">  1       -2 0.27549028E-01 0.11412207E+04</pdfrwt>
<totfact> 0.10033169E+02</totfact>
</mgrwt>
</event>
<event>
 6    1  0.1878398E-004  0.2980690E+04  0.7818608E-02  0.8249267E-01
         -2   -1    0    0    0  501 -0.00000000000E+00  0.00000000000E+00  0.16545035225E+04  0.16545035225E+04  0.00000000000E+00 0. -1.
          2   -1    0    0  501    0  0.00000000000E+00 -0.00000000000E+00 -0.13424739082E+04  0.13424739082E+04  0.00000000000E+00 0.  1.
         23    2    1    2    0    0  0.39525014269E+03  0.10162437452E+04 -0.86325222707E+03  0.13937739403E+04  0.91800675759E+02 0.  0.
         11    1    3    3    0    0  0.20029106300E+03  0.63747067498E+03 -0.53428884842E+03  0.85554073247E+03  0.00000000000E+00 0.  1.
        -11    1    3    3    0    0  0.19495907969E+03  0.37877307022E+03 -0.32896337866E+03  0.53823320779E+03  0.00000000000E+00 0. -1.
         22    1    1    2    0    0 -0.39525014269E+03 -0.10162437452E+04  0.11752818414E+04  0.16032034904E+04  0.00000000000E+00 0. -1.
<mgrwt>
<rscale>  0 0.29806897E+04</rscale>
<asrwt>0</asrwt>
<pdfrwt beam="1">  1        2 0.20653445E+00 0.29806897E+04</pdfrwt>
<pdfrwt beam="2">  1       -2 0.25453900E+00 0.29806897E+04</pdfrwt>
<totfact> 0.80693864E-01</totfact>
</mgrwt>
</event>
<event>
 6    1  0.1878398E-004  0.2631945E+04  0.7818608E-02  0.8357431E-01
         -2   -1    0    0    0  501 -0.00000000000E+00  0.00000000000E+00  0.15457292311E+04  0.15457292311E+04  0.00000000000E+00 0. -1.
          2   -1    0    0  501    0  0.00000000000E+00 -0.00000000000E+00 -0.11203664207E+04  0.11203664207E+04  0.00000000000E+00 0.  1.
         23    2    1    2    0    0 -0.63967054514E+03  0.91562254815E+03  0.91488082733E+03  0.14465994665E+04  0.90000172873E+02 0.  0.
         13    1    3    3    0    0 -0.58558386174E+03  0.83190356418E+03  0.86387708763E+03  0.13346368876E+04  0.00000000000E+00 0. -1.
        -13    1    3    3    0    0 -0.54086683407E+02  0.83718983969E+02  0.51003739703E+02  0.11196257885E+03  0.00000000000E+00 0.  1.
         22    1    1    2    0    0  0.63967054514E+03 -0.91562254815E+03 -0.48951801696E+03  0.12194961853E+04  0.00000000000E+00 0.  1.
<mgrwt>
<rscale>  0 0.26319446E+04</rscale>
<asrwt>0</asrwt>
<pdfrwt beam="1">  1        2 0.17236406E+00 0.26319446E+04</pdfrwt>
<pdfrwt beam="2">  1       -2 0.23780450E+00 0.26319446E+04</pdfrwt>
<totfact> 0.14272022E+00</totfact>
</mgrwt>
</event>
<event>
 6    1  0.1878398E-004  0.2320258E+04  0.7818608E-02  0.8469976E-01
         -2   -1    0    0    0  501 -0.00000000000E+00  0.00000000000E+00  0.82159891327E+03  0.82159891327E+03  0.00000000000E+00 0. -1.
          2   -1    0    0  501    0  0.00000000000E+00 -0.00000000000E+00 -0.16381462984E+04  0.16381462984E+04  0.00000000000E+00 0.  1.
         23    2    1    2    0    0  0.10081619181E+04  0.90208195909E+01  0.19576159863E+03  0.10310250477E+04  0.90654383925E+02 0.  0.
         13    1    3    3    0    0  0.79029405575E+03 -0.12066714483E+02  0.12025722554E+03  0.79948239533E+03  0.00000000000E+00 0. -1.
        -13    1    3    3    0    0  0.21786786232E+03  0.21087534074E+02  0.75504373093E+02  0.23154265240E+03  0.00000000000E+00 0.  1.
         22    1    1    2    0    0 -0.10081619181E+04 -0.90208195909E+01 -0.10123089837E+04  0.14287201639E+04  0.00000000000E+00 0.  1.
<mgrwt>
<rscale>  0 0.23202579E+04</rscale>
<asrwt>0</asrwt>
<pdfrwt beam="1">  1        2 0.25202251E+00 0.23202579E+04</pdfrwt>
<pdfrwt beam="2">  1       -2 0.12639983E+00 0.23202579E+04</pdfrwt>
<totfact> 0.44811752E+00</totfact>
</mgrwt>
</event>
<event>
 6    1  0.1878398E-004  0.3046324E+04  0.7818608E-02  0.8230625E-01
         -2   -1    0    0    0  501 -0.00000000000E+00  0.00000000000E+00  0.79334651529E+03  0.79334651529E+03  0.00000000000E+00 0. -1.
          2   -1    0    0  501    0  0.00000000000E+00 -0.00000000000E+00 -0.29243487631E+04  0.29243487631E+04  0.00000000000E+00 0.  1.
         23    2    1    2    0    0 -0.13670953935E+04 -0.43447220079E+03 -0.16864799975E+04  0.22159243441E+04  0.91596990210E+02 0.  0.
         11    1    3    3    0    0 -0.11434470848E+04 -0.38595125252E+03 -0.13765887554E+04  0.18306900902E+04  0.00000000000E+00 0.  1.
        -11    1    3    3    0    0 -0.22364830871E+03 -0.48520948268E+02 -0.30989124211E+03  0.38523425386E+03  0.00000000000E+00 0. -1.
         22    1    1    2    0    0  0.13670953935E+04  0.43447220079E+03 -0.44452225032E+03  0.15017709343E+04  0.00000000000E+00 0. -1.
<mgrwt>
<rscale>  0 0.30463236E+04</rscale>
<asrwt>0</asrwt>
<pdfrwt beam="1">  1        2 0.44989981E+00 0.30463236E+04</pdfrwt>
<pdfrwt beam="2">  1       -2 0.12205331E+00 0.30463236E+04</pdfrwt>
<totfact> 0.84192678E-01</totfact>
</mgrwt>
</event>
<event>
 6    1  0.1878398E-004  0.4397371E+04  0.7818608E-02  0.7928854E-01
          2   -1    0    0  501    0  0.00000000000E+00  0.00000000000E+00  0.19531677598E+04  0.19531677598E+04  0.00000000000E+00 0.  1.
         -2   -1    0    0    0  501 -0.00000000000E+00 -0.00000000000E+00 -0.24750659450E+04  0.24750659450E+04  0.00000000000E+00 0. -1.
         23    2    1    2    0    0  0.11807918475E+04 -0.14759155601E+04  0.86817441291E+03  0.20819818096E+04  0.91243172915E+02 0.  0.
         11    1    3    3    0    0  0.31034810311E+03 -0.42076488747E+03  0.27923551786E+03  0.59273224146E+03  0.00000000000E+00 0. -1.
        -11    1    3    3    0    0  0.87044374440E+03 -0.10551506726E+04  0.58893889504E+03  0.14892495681E+04  0.00000000000E+00 0.  1.
         22    1    1    2    0    0 -0.11807918475E+04  0.14759155601E+04 -0.13900725981E+04  0.23462518952E+04  0.00000000000E+00 0. -1.
<mgrwt>
<rscale>  0 0.43973715E+04</rscale>
<asrwt>0</asrwt>
<pdfrwt beam="1">  1        2 0.30048735E+00 0.43973715E+04</pdfrwt>
<pdfrwt beam="2">  1       -2 0.38077938E+00 0.43973715E+04</pdfrwt>
<totfact> 0.53636593E-02</totfact>
</mgrwt>
</event>
<event>
 6    1  0.1878398E-004  0.3417302E+04  0.7818608E-02  0.8133673E-01
         -1   -1    0    0    0  501 -0.00000000000E+00  0.00000000000E+00  0.10471428964E+04  0.10471428964E+04  0.00000000000E+00 0. -1.
          1   -1    0    0  501    0  0.00000000000E+00 -0.00000000000E+00 -0.27880515437E+04  0.27880515437E+04  0.00000000000E+00 0.  1.
         23    2    1    2    0    0 -0.82081284955E+03 -0.63500625691E+03  0.65048064590E+03  0.12283362866E+04  0.93371741382E+02 0.  0.
         11    1    3    3    0    0 -0.71919832865E+03 -0.53122887475E+03  0.58856258291E+03  0.10704467606E+04  0.00000000000E+00 0.  1.
        -11    1    3    3    0    0 -0.10161452090E+03 -0.10377738216E+03  0.61918062991E+02  0.15788952603E+03  0.00000000000E+00 0. -1.
         22    1    1    2    0    0  0.82081284955E+03  0.63500625691E+03 -0.23913892933E+04  0.26068581534E+04  0.00000000000E+00 0.  1.
<mgrwt>
<rscale>  0 0.34173021E+04</rscale>
<asrwt>0</asrwt>
<pdfrwt beam="1">  1        1 0.42893100E+00 0.34173021E+04</pdfrwt>
<pdfrwt beam="2">  1       -1 0.16109891E+00 0.34173021E+04</pdfrwt>
<totfact> 0.20006631E-01</totfact>
</mgrwt>
</event>
<event>
 6    1  0.1878398E-004  0.2694245E+04  0.7818608E-02  0.8336875E-01
         -1   -1    0    0    0  501 -0.00000000000E+00  0.00000000000E+00  0.13916490968E+04  0.13916490968E+04  0.00000000000E+00 0. -1.
          1   -1    0    0  501    0  0.00000000000E+00 -0.00000000000E+00 -0.13040206195E+04  0.13040206195E+04  0.00000000000E+00 0.  1.
         23    2    1    2    0    0 -0.87298299705E+03  0.16063187135E+03  0.10554994480E+04  0.13824004648E+04  0.95131746363E+02 0.  0.
         11    1    3    3    0    0 -0.39351230263E+03  0.25203577239E+02  0.45280899487E+03  0.60043579046E+03  0.00000000000E+00 0. -1.
        -11    1    3    3    0    0 -0.47947069442E+03  0.13542829411E+03  0.60269045309E+03  0.78196467433E+03  0.00000000000E+00 0.  1.
         22    1    1    2    0    0  0.87298299705E+03 -0.16063187135E+03 -0.96787097065E+03  0.13132692515E+04  0.00000000000E+00 0.  1.
<mgrwt>
<rscale>  0 0.26942451E+04</rscale>
<asrwt>0</asrwt>
<pdfrwt beam="1">  1        1 0.20061856E+00 0.26942451E+04</pdfrwt>
<pdfrwt beam="2">  1       -1 0.21409986E+00 0.26942451E+04</pdfrwt>
<totfact> 0.94664843E-01</totfact>
</mgrwt>
</event>
<event>
 6    1  0.1878398E-004  0.1461909E+04  0.7818608E-02  0.8910186E-01
          2   -1    0    0  501    0  0.00000000000E+00  0.00000000000E+00  0.39696797196E+04  0.39696797196E+04  0.00000000000E+00 0.  1.
         -2   -1    0    0    0  501 -0.00000000000E+00 -0.00000000000E+00 -0.13459380718E+03  0.13459380718E+03  0.00000000000E+00 0. -1.
         23    2    1    2    0    0  0.49816411358E+03 -0.22436519503E+03  0.57235646418E+03  0.79611532664E+03  0.87752301491E+02 0.  0.
         13    1    3    3    0    0  0.45352149605E+03 -0.22335150581E+03  0.54671002300E+03  0.74462036756E+03  0.00000000000E+00 0.  1.
        -13    1    3    3    0    0  0.44642617525E+02 -0.10136892177E+01  0.25646441179E+02  0.51494959078E+02  0.00000000000E+00 0. -1.
         22    1    1    2    0    0 -0.49816411358E+03  0.22436519503E+03  0.32627294482E+04  0.33081582001E+04  0.00000000000E+00 0.  1.
<mgrwt>
<rscale>  0 0.14619088E+04</rscale>
<asrwt>0</asrwt>
<pdfrwt beam="1">  1        2 0.61071987E+00 0.14619088E+04</pdfrwt>
<pdfrwt beam="2">  1       -2 0.20706743E-01 0.14619088E+04</pdfrwt>
<totfact> 0.72269234E+00</totfact>
</mgrwt>
</event>
<event>
 6    1  0.1878398E-004  0.1192889E+04  0.7818608E-02  0.9119104E-01
         -2   -1    0    0    0  501 -0.00000000000E+00  0.00000000000E+00  0.13830968468E+04  0.13830968468E+04  0.00000000000E+00 0. -1.
          2   -1    0    0  501    0  0.00000000000E+00 -0.00000000000E+00 -0.25720983587E+03  0.25720983587E+03  0.00000000000E+00 0.  1.
         23    2    1    2    0    0  0.46655057342E+03 -0.36548794876E+03  0.55055827476E+03  0.81431998003E+03  0.93550722737E+02 0.  0.
         13    1    3    3    0    0  0.12450947907E+03 -0.12534385856E+03  0.21550868347E+03  0.27867128648E+03  0.00000000000E+00 0. -1.
        -13    1    3    3    0    0  0.34204109434E+03 -0.24014409020E+03  0.33504959129E+03  0.53564869355E+03  0.00000000000E+00 0.  1.
         22    1    1    2    0    0 -0.46655057342E+03  0.36548794876E+03  0.57532873614E+03  0.82598670260E+03  0.00000000000E+00 0.  1.
<mgrwt>
<rscale>  0 0.11928891E+04</rscale>
<asrwt>0</asrwt>
<pdfrwt beam="1">  1        2 0.39570745E-01 0.11928891E+04</pdfrwt>
<pdfrwt beam="2">  1       -2 0.21278413E+00 0.11928891E+04</pdfrwt>
<totfact> 0.14143672E+01</totfact>
</mgrwt>
</event>
<event>
 6    1  0.1878398E-004  0.3160009E+04  0.7818608E-02  0.8199459E-01
          2   -1    0    0  501    0  0.00000000000E+00  0.00000000000E+00  0.98837312279E+03  0.98837312279E+03  0.00000000000E+00 0.  1.
         -2   -1    0    0    0  501 -0.00000000000E+00 -0.00000000000E+00 -0.25257810512E+04  0.25257810512E+04  0.00000000000E+00 0. -1.
         23    2    1    2    0    0  0.88534865398E+03  0.10065919574E+04  0.15810962406E+03  0.13527080427E+04  0.88038558315E+02 0.  0.
         13    1    3    3    0    0  0.42842483105E+03  0.55134466728E+03  0.93846568540E+02  0.70451114712E+03  0.00000000000E+00 0. -1.
        -13    1    3    3    0    0  0.45692382293E+03  0.45524729012E+03  0.64263055519E+02  0.64819689557E+03  0.00000000000E+00 0.  1.
         22    1    1    2    0    0 -0.88534865398E+03 -0.10065919574E+04 -0.16955175525E+04  0.21614461313E+04  0.00000000000E+00 0. -1.
<mgrwt>
<rscale>  0 0.31600089E+04</rscale>
<asrwt>0</asrwt>
<pdfrwt beam="1">  1        2 0.15205740E+00 0.31600089E+04</pdfrwt>
<pdfrwt beam="2">  1       -2 0.38858170E+00 0.31600089E+04</pdfrwt>
<totfact> 0.19060320E-01</totfact>
</mgrwt>
</event>
<event>
 6    1  0.1878398E-004  0.2853726E+04  0.7818608E-02  0.8286780E-01
         -2   -1    0    0    0  501 -0.00000000000E+00  0.00000000000E+00  0.69004998797E+03  0.69004998797E+03  0.00000000000E+00 0. -1.
          2   -1    0    0  501    0  0.00000000000E+00 -0.00000000000E+00 -0.29504212672E+04  0.29504212672E+04  0.00000000000E+00 0.  1.
         23    2    1    2    0    0  0.13318345975E+03  0.67680433769E+03 -0.27226502223E+04  0.28101076200E+04  0.89881352946E+02 0.  0.
         13    1    3    3    0    0  0.80916304949E+01  0.21788781607E+03 -0.95538336431E+03  0.97994793110E+03  0.00000000000E+00 0.  1.
        -13    1    3    3    0    0  0.12509182925E+03  0.45891652162E+03 -0.17672668580E+04  0.18301596889E+04  0.00000000000E+00 0. -1.
         22    1    1    2    0    0 -0.13318345975E+03 -0.67680433769E+03  0.46227894303E+03  0.83036363519E+03  0.00000000000E+00 0. -1.
<mgrwt>
<rscale>  0 0.28537261E+04</rscale>
<asrwt>0</asrwt>
<pdfrwt beam="1">  1        2 0.45391098E+00 0.28537261E+04</pdfrwt>
<pdfrwt beam="2">  1       -2 0.10616153E+00 0.28537261E+04</pdfrwt>
<totfact> 0.11591147E+00</totfact>
</mgrwt>
</event>
<event>
 6    1  0.1878398E-004  0.2922415E+04  0.7818608E-02  0.8266239E-01
         -2   -1    0    0    0  501 -0.00000000000E+00  0.00000000000E+00  0.47726785928E+03  0.47726785928E+03  0.00000000000E+00 0. -1.
          2   -1    0    0  501    0  0.00000000000E+00 -0.00000000000E+00 -0.44736454039E+04  0.44736454039E+04  0.00000000000E+00 0.  1.
         23    2    1    2    0    0 -0.51271540404E+03  0.26764159268E+03 -0.42707633140E+04  0.43107596425E+04  0.93382563259E+02 0.  0.
         11    1    3    3    0    0 -0.19212076053E+03  0.12054596505E+03 -0.13729868706E+04  0.13915942883E+04  0.00000000000E+00 0. -1.
        -11    1    3    3    0    0 -0.32059464351E+03  0.14709562763E+03 -0.28977764434E+04  0.29191653542E+04  0.00000000000E+00 0.  1.
         22    1    1    2    0    0  0.51271540404E+03 -0.26764159268E+03  0.27438576940E+03  0.64015362072E+03  0.00000000000E+00 0. -1.
<mgrwt>
<rscale>  0 0.29224149E+04</rscale>
<asrwt>0</asrwt>
<pdfrwt beam="1">  1        2 0.68825317E+00 0.29224149E+04</pdfrwt>
<pdfrwt beam="2">  1       -2 0.73425821E-01 0.29224149E+04</pdfrwt>
<totfact> 0.18826128E-01</totfact>
</mgrwt>
</event>
<event>
 6    1  0.1878398E-004  0.2848699E+04  0.7818608E-02  0.8288307E-01
         -2   -1    0    0    0  501 -0.00000000000E+00  0.00000000000E+00  0.13134677102E+04  0.13134677102E+04  0.00000000000E+00 0. -1.
          2   -1    0    0  501    0  0.00000000000E+00 -0.00000000000E+00 -0.15445919452E+04  0.15445919452E+04  0.00000000000E+00 0.  1.
         23    2    1    2    0    0 -0.13461152992E+04  0.30521690018E+03  0.23000923435E+03  0.14027837945E+04  0.98561511472E+02 0.  0.
         13    1    3    3    0    0 -0.93989418705E+03  0.24655702809E+03  0.19306865432E+03  0.99069014138E+03  0.00000000000E+00 0.  1.
        -13    1    3    3    0    0 -0.40622111212E+03  0.58659872091E+02  0.36940580024E+02  0.41209365317E+03  0.00000000000E+00 0. -1.
         22    1    1    2    0    0  0.13461152992E+04 -0.30521690018E+03 -0.46113346931E+03  0.14552758609E+04  0.00000000000E+00 0.  1.
<mgrwt>
<rscale>  0 0.28486991E+04</rscale>
<asrwt>0</asrwt>
<pdfrwt beam="1">  1        2 0.23762953E+00 0.28486991E+04</pdfrwt>
<pdfrwt beam="2">  1       -2 0.20207196E+00 0.28486991E+04</pdfrwt>
<totfact> 0.13385242E+00</totfact>
</mgrwt>
</event>
<event>
 6    1  0.1878398E-004  0.2110799E+04  0.7818608E-02  0.8556501E-01
         -2   -1    0    0    0  501 -0.00000000000E+00  0.00000000000E+00  0.29150682230E+03  0.29150682230E+03  0.00000000000E+00 0. -1.
          2   -1    0    0  501    0  0.00000000000E+00 -0.00000000000E+00 -0.38210688521E+04  0.38210688521E+04  0.00000000000E+00 0.  1.
         23    2    1    2    0    0 -0.81100848099E+03 -0.19383506244E+03 -0.51313405718E+03  0.98301588080E+03  0.87788801161E+02 0.  0.
         13    1    3    3    0    0 -0.61228962008E+03 -0.18454336932E+03 -0.39475156585E+03  0.75152087979E+03  0.00000000000E+00 0. -1.
        -13    1    3    3    0    0 -0.19871886091E+03 -0.92916931215E+01 -0.11838249132E+03  0.23149500101E+03  0.00000000000E+00 0.  1.
         22    1    1    2    0    0  0.81100848099E+03  0.19383506244E+03 -0.30164279726E+04  0.31295597936E+04  0.00000000000E+00 0.  1.
<mgrwt>
<rscale>  0 0.21107986E+04</rscale>
<asrwt>0</asrwt>
<pdfrwt beam="1">  1        2 0.58785672E+00 0.21107986E+04</pdfrwt>
<pdfrwt beam="2">  1       -2 0.44847205E-01 0.21107986E+04</pdfrwt>
<totfact> 0.20689687E+00</totfact>
</mgrwt>
</event>
<event>
 6    1  0.1878398E-004  0.2632937E+04  0.7818608E-02  0.8357099E-01
         -2   -1    0    0    0  501 -0.00000000000E+00  0.00000000000E+00  0.62229195351E+03  0.62229195351E+03  0.00000000000E+00 0. -1.
          2   -1    0    0  501    0  0.00000000000E+00 -0.00000000000E+00 -0.27850104222E+04  0.27850104222E+04  0.00000000000E+00 0.  1.
         23    2    1    2    0    0 -0.63198523037E+03 -0.86253799868E+03 -0.20734765751E+04  0.23342966692E+04  0.79111956221E+02 0.  0.
         13    1    3    3    0    0 -0.41939345581E+03 -0.53323580801E+03 -0.12472912216E+04  0.14198474176E+04  0.00000000000E+00 0. -1.
        -13    1    3    3    0    0 -0.21259177456E+03 -0.32930219067E+03 -0.82618535357E+03  0.91444925165E+03  0.00000000000E+00 0.  1.
         22    1    1    2    0    0  0.63198523037E+03  0.86253799868E+03 -0.89241893512E+02  0.10730057065E+04  0.00000000000E+00 0. -1.
<mgrwt>
<rscale>  0 0.26329372E+04</rscale>
<asrwt>0</asrwt>
<pdfrwt beam="1">  1        2 0.42846313E+00 0.26329372E+04</pdfrwt>
<pdfrwt beam="2">  1       -2 0.95737227E-01 0.26329372E+04</pdfrwt>
<totfact> 0.19060387E+00</totfact>
</mgrwt>
</event>
<event>
 6    1  0.1878398E-004  0.1234888E+04  0.7818608E-02  0.9082856E-01
         -2   -1    0    0    0  501 -0.00000000000E+00  0.00000000000E+00  0.43133318864E+03  0.43133318864E+03  0.00000000000E+00 0. -1.
          2   -1    0    0  501    0  0.00000000000E+00 -0.00000000000E+00 -0.88385730571E+03  0.88385730571E+03  0.00000000000E+00 0.  1.
         23    2    1    2    0    0 -0.65265456245E+02 -0.74190799120E+02 -0.87310388757E+03  0.88315901655E+03  0.88857163793E+02 0.  0.
         11    1    3    3    0    0 -0.22086888211E+01 -0.59048423379E+02 -0.25974357069E+03  0.26638002388E+03  0.00000000000E+00 0.  1.
        -11    1    3    3    0    0 -0.63056767424E+02 -0.15142375741E+02 -0.61336031689E+03  0.61677899266E+03  0.00000000000E+00 0. -1.
         22    1    1    2    0    0  0.65265456245E+02  0.74190799120E+02  0.42057977050E+03  0.43203147780E+03  0.00000000000E+00 0. -1.
<mgrwt>
<rscale>  0 0.12348878E+04</rscale>
<asrwt>0</asrwt>
<pdfrwt beam="1">  1        2 0.13597805E+00 0.12348878E+04</pdfrwt>
<pdfrwt beam="2">  1       -2 0.66358952E-01 0.12348878E+04</pdfrwt>
<totfact> 0.61834590E+01</totfact>
</mgrwt>
</event>
<event>
 6    1  0.1878398E-004  0.1724325E+04  0.7818608E-02  0.8747611E-01
          1   -1    0    0  501    0  0.00000000000E+00  0.00000000000E+00  0.20402451122E+04  0.20402451122E+04  0.00000000000E+00 0.  1.
         -1   -1    0    0    0  501 -0.00000000000E+00 -0.00000000000E+00 -0.36433086693E+03  0.36433086693E+03  0.00000000000E+00 0. -1.
         23    2    1    2    0    0 -0.68398743035E+03  0.46046988625E+03  0.11797575218E+04  0.14422647949E+04  0.91807447611E+02 0.  0.
         11    1    3    3    0    0 -0.43236880526E+02  0.50908862638E+01  0.63978147974E+02  0.77385711722E+02  0.00000000000E+00 0.  1.
        -11    1    3    3    0    0 -0.64075054982E+03  0.45537899999E+03  0.11157793738E+04  0.13648790832E+04  0.00000000000E+00 0. -1.
         22    1    1    2    0    0  0.68398743035E+03 -0.46046988625E+03  0.49615672352E+03  0.96231118424E+03  0.00000000000E+00 0. -1.
<mgrwt>
<rscale>  0 0.17243251E+04</rscale>
<asrwt>0</asrwt>
<pdfrwt beam="1">  1        1 0.31388385E+00 0.17243251E+04</pdfrwt>
<pdfrwt beam="2">  1       -1 0.56050904E-01 0.17243251E+04</pdfrwt>
<totfact> 0.85598405E+00</totfact>
</mgrwt>
</event>
<event>
 6    1  0.1878398E-004  0.5366974E+04  0.7818608E-02  0.7774264E-01
         -2   -1    0    0    0  501 -0.00000000000E+00  0.00000000000E+00  0.18490048863E+04  0.18490048863E+04  0.00000000000E+00 0. -1.
          2   -1    0    0  501    0  0.00000000000E+00 -0.00000000000E+00 -0.38945825299E+04  0.38945825299E+04  0.00000000000E+00 0.  1.
         23    2    1    2    0    0  0.20387600596E+04  0.62180403342E+03 -0.27665489422E+04  0.34934802076E+04  0.86186281233E+02 0.  0.
         13    1    3    3    0    0  0.88269040255E+03  0.26482308309E+03 -0.11268480676E+04  0.14556992064E+04  0.00000000000E+00 0.  1.
        -13    1    3    3    0    0  0.11560696570E+04  0.35698095033E+03 -0.16397008746E+04  0.20377810012E+04  0.00000000000E+00 0. -1.
         22    1    1    2    0    0 -0.20387600596E+04 -0.62180403342E+03  0.72097129856E+03  0.22501072085E+04  0.00000000000E+00 0.  1.
<mgrwt>
<rscale>  0 0.53669739E+04</rscale>
<asrwt>0</asrwt>
<pdfrwt beam="1">  1        2 0.59916654E+00 0.53669739E+04</pdfrwt>
<pdfrwt beam="2">  1       -2 0.28446229E+00 0.53669739E+04</pdfrwt>
<totfact> 0.11562646E-02</totfact>
</mgrwt>
</event>
<event>
 6    1  0.3224106E-004  0.4300435E+04  0.7818608E-02  0.7946538E-01
         -2   -1    0    0    0  501 -0.00000000000E+00  0.00000000000E+00  0.15664916750E+04  0.15664916750E+04  0.00000000000E+00 0. -1.
          2   -1    0    0  501    0  0.00000000000E+00 -0.00000000000E+00 -0.29514584931E+04  0.29514584931E+04  0.00000000000E+00 0.  1.
         23    2    1    2    0    0  0.81192516618E+03  0.34340114376E+03  0.13664219038E+04  0.16287830354E+04  0.93158662091E+02 0.  0.
         13    1    3    3    0    0  0.42936948879E+03  0.13433907114E+03  0.66351209208E+03  0.80165668479E+03  0.00000000000E+00 0.  1.
        -13    1    3    3    0    0  0.38255567739E+03  0.20906207262E+03  0.70290981172E+03  0.82712635064E+03  0.00000000000E+00 0. -1.
         22    1    1    2    0    0 -0.81192516618E+03 -0.34340114376E+03 -0.27513887219E+04  0.28891671326E+04  0.00000000000E+00 0.  1.
<mgrwt>
<rscale>  0 0.43004349E+04</rscale>
<asrwt>0</asrwt>
<pdfrwt beam="1">  1        2 0.45407054E+00 0.43004349E+04</pdfrwt>
<pdfrwt beam="2">  1       -2 0.24099872E+00 0.43004349E+04</pdfrwt>
<totfact> 0.10493728E-01</totfact>
</mgrwt>
</event>
<event>
 6    1  0.1878398E-004  0.3169487E+04  0.7818608E-02  0.8196922E-01
          4   -1    0    0  501    0  0.00000000000E+00  0.00000000000E+00  0.22756423338E+04  0.22756423338E+04  0.00000000000E+00 0.  1.
         -4   -1    0    0    0  501 -0.00000000000E+00 -0.00000000000E+00 -0.11036055072E+04  0.11036055072E+04  0.00000000000E+00 0. -1.
         23    2    1    2    0    0  0.77485456847E+03 -0.14591800961E+03 -0.87758554087E+03  0.11831960390E+04  0.90026759486E+02 0.  0.
         11    1    3    3    0    0  0.17011997148E+03 -0.16763227642E+01 -0.22214230671E+03  0.27980496633E+03  0.00000000000E+00 0. -1.
        -11    1    3    3    0    0  0.60473459699E+03 -0.14424168685E+03 -0.65544323416E+03  0.90339107270E+03  0.00000000000E+00 0.  1.
         22    1    1    2    0    0 -0.77485456847E+03  0.14591800961E+03  0.20496223674E+04  0.21960518020E+04  0.00000000000E+00 0.  1.
<mgrwt>
<rscale>  0 0.31694867E+04</rscale>
<asrwt>0</asrwt>
<pdfrwt beam="1">  1        4 0.35009882E+00 0.31694867E+04</pdfrwt>
<pdfrwt beam="2">  1       -4 0.16978546E+00 0.31694867E+04</pdfrwt>
<totfact> 0.52524611E-03</totfact>
</mgrwt>
</event>
<event>
 6    1  0.1878398E-004  0.1249163E+04  0.7818608E-02  0.9070880E-01
          2   -1    0    0  501    0  0.00000000000E+00  0.00000000000E+00  0.57223438049E+03  0.57223438049E+03  0.00000000000E+00 0.  1.
         -2   -1    0    0    0  501 -0.00000000000E+00 -0.00000000000E+00 -0.68171693794E+03  0.68171693794E+03  0.00000000000E+00 0. -1.
         23    2    1    2    0    0  0.31902043657E+03 -0.37964065205E+03 -0.43062137767E+03  0.66316268830E+03  0.91917988479E+02 0.  0.
         11    1    3    3    0    0  0.11474094037E+03 -0.18783522648E+03 -0.14842142427E+03  0.26547405690E+03  0.00000000000E+00 0. -1.
        -11    1    3    3    0    0  0.20427949620E+03 -0.19180542557E+03 -0.28219995340E+03  0.39768863140E+03  0.00000000000E+00 0.  1.
         22    1    1    2    0    0 -0.31902043657E+03  0.37964065205E+03  0.32113882022E+03  0.59078863013E+03  0.00000000000E+00 0.  1.
<mgrwt>
<rscale>  0 0.12491627E+04</rscale>
<asrwt>0</asrwt>
<pdfrwt beam="1">  1        2 0.88036058E-01 0.12491627E+04</pdfrwt>
<pdfrwt beam="2">  1       -2 0.10487953E+00 0.12491627E+04</pdfrwt>
<totfact> 0.38074843E+01</totfact>
</mgrwt>
</event>
<event>
 6    1  0.1878398E-004  0.3464052E+04  0.7818608E-02  0.8122362E-01
          2   -1    0    0  501    0  0.00000000000E+00  0.00000000000E+00  0.17684338977E+04  0.17684338977E+04  0.00000000000E+00 0.  1.
         -2   -1    0    0    0  501 -0.00000000000E+00 -0.00000000000E+00 -0.16963681067E+04  0.16963681067E+04  0.00000000000E+00 0. -1.
         23    2    1    2    0    0  0.11399156504E+04 -0.31506847804E+02  0.13383717940E+04  0.17607094998E+04  0.91970169593E+02 0.  0.
         13    1    3    3    0    0  0.68563617973E+03  0.26073952069E+02  0.80585175451E+03  0.10583826681E+04  0.00000000000E+00 0. -1.
        -13    1    3    3    0    0  0.45427947065E+03 -0.57580799873E+02  0.53252003950E+03  0.70232683164E+03  0.00000000000E+00 0.  1.
         22    1    1    2    0    0 -0.11399156504E+04  0.31506847804E+02 -0.12663060030E+04  0.17040925047E+04  0.00000000000E+00 0. -1.
<mgrwt>
<rscale>  0 0.34640525E+04</rscale>
<asrwt>0</asrwt>
<pdfrwt beam="1">  1        2 0.27206675E+00 0.34640525E+04</pdfrwt>
<pdfrwt beam="2">  1       -2 0.26097971E+00 0.34640525E+04</pdfrwt>
<totfact> 0.40744666E-01</totfact>
</mgrwt>
</event>
<event>
 6    1  0.1878398E-004  0.2261797E+04  0.7818608E-02  0.8493138E-01
          1   -1    0    0  501    0  0.00000000000E+00  0.00000000000E+00  0.20839345478E+04  0.20839345478E+04  0.00000000000E+00 0.  1.
         -1   -1    0    0    0  501 -0.00000000000E+00 -0.00000000000E+00 -0.61370996024E+03  0.61370996024E+03  0.00000000000E+00 0. -1.
         23    2    1    2    0    0  0.42158903157E+03  0.19540225099E+03  0.19635533712E+04  0.20199331830E+04  0.93106772831E+02 0.  0.
         13    1    3    3    0    0  0.29295096299E+03  0.13069821725E+03  0.11579279948E+04  0.12015404828E+04  0.00000000000E+00 0.  1.
        -13    1    3    3    0    0  0.12863806859E+03  0.64704033739E+02  0.80562537642E+03  0.81839270023E+03  0.00000000000E+00 0. -1.
         22    1    1    2    0    0 -0.42158903157E+03 -0.19540225099E+03 -0.49332878365E+03  0.67771132499E+03  0.00000000000E+00 0. -1.
<mgrwt>
<rscale>  0 0.22617970E+04</rscale>
<asrwt>0</asrwt>
<pdfrwt beam="1">  1        1 0.32060531E+00 0.22617970E+04</pdfrwt>
<pdfrwt beam="2">  1       -1 0.94416918E-01 0.22617970E+04</pdfrwt>
<totfact> 0.25725167E+00</totfact>
</mgrwt>
</event>
<event>
 6    1  0.1878398E-004  0.2496220E+04  0.7818608E-02  0.8404333E-01
          1   -1    0    0  501    0  0.00000000000E+00  0.00000000000E+00  0.20400560646E+04  0.20400560646E+04  0.00000000000E+00 0.  1.
         -1   -1    0    0    0  501 -0.00000000000E+00 -0.00000000000E+00 -0.76359588390E+03  0.76359588390E+03  0.00000000000E+00 0. -1.
         23    2    1    2    0    0  0.96101171856E+03 -0.77380366514E+03  0.44027646231E+03  0.13131759016E+04  0.90950261058E+02 0.  0.
         11    1    3    3    0    0  0.47293617680E+03 -0.32756470908E+03  0.18531784301E+03  0.60440877632E+03  0.00000000000E+00 0. -1.
        -11    1    3    3    0    0  0.48807554176E+03 -0.44623895607E+03  0.25495861930E+03  0.70876712532E+03  0.00000000000E+00 0.  1.
         22    1    1    2    0    0 -0.96101171856E+03  0.77380366514E+03  0.83618371844E+03  0.14904760469E+04  0.00000000000E+00 0. -1.
<mgrwt>
<rscale>  0 0.24962199E+04</rscale>
<asrwt>0</asrwt>
<pdfrwt beam="1">  1        1 0.31385478E+00 0.24962199E+04</pdfrwt>
<pdfrwt beam="2">  1       -1 0.11747629E+00 0.24962199E+04</pdfrwt>
<totfact> 0.16216275E+00</totfact>
</mgrwt>
</event>
<event>
 6    1  0.1878398E-004  0.1920972E+04  0.7818608E-02  0.8644487E-01
          2   -1    0    0  501    0  0.00000000000E+00  0.00000000000E+00  0.83005746214E+03  0.83005746214E+03  0.00000000000E+00 0.  1.
         -2   -1    0    0    0  501 -0.00000000000E+00 -0.00000000000E+00 -0.11114084760E+04  0.11114084760E+04  0.00000000000E+00 0. -1.
         23    2    1    2    0    0 -0.94283282122E+02  0.94559215381E+03 -0.14964706227E+02  0.95455382271E+03  0.88967406225E+02 0.  0.
         13    1    3    3    0    0 -0.10961735174E+03  0.74112570059E+03 -0.35720495741E+01  0.74919692165E+03  0.00000000000E+00 0.  1.
        -13    1    3    3    0    0  0.15334069614E+02  0.20446645322E+03 -0.11392656652E+02  0.20535690105E+03  0.00000000000E+00 0. -1.
         22    1    1    2    0    0  0.94283282122E+02 -0.94559215381E+03 -0.26638630759E+03  0.98691211540E+03  0.00000000000E+00 0. -1.
<mgrwt>
<rscale>  0 0.19209715E+04</rscale>
<asrwt>0</asrwt>
<pdfrwt beam="1">  1        2 0.12770115E+00 0.19209715E+04</pdfrwt>
<pdfrwt beam="2">  1       -2 0.17098592E+00 0.19209715E+04</pdfrwt>
<totfact> 0.64250636E+00</totfact>
</mgrwt>
</event>
<event>
 6    1  0.1878398E-004  0.2581375E+04  0.7818608E-02  0.8374555E-01
          2   -1    0    0  501    0  0.00000000000E+00  0.00000000000E+00  0.13177133233E+04  0.13177133233E+04  0.00000000000E+00 0.  1.
         -2   -1    0    0    0  501 -0.00000000000E+00 -0.00000000000E+00 -0.12642156234E+04  0.12642156234E+04  0.00000000000E+00 0. -1.
         23    2    1    2    0    0  0.26279528767E+03 -0.12590626943E+04  0.10677154638E+03  0.12946300948E+04  0.10181693270E+03 0.  0.
         13    1    3    3    0    0  0.14109655836E+03 -0.59719266842E+03  0.25346343832E+01  0.61363975293E+03  0.00000000000E+00 0.  1.
        -13    1    3    3    0    0  0.12169872931E+03 -0.66187002588E+03  0.10423691200E+03  0.68099034185E+03  0.00000000000E+00 0. -1.
         22    1    1    2    0    0 -0.26279528767E+03  0.12590626943E+04 -0.53273846472E+02  0.12872988519E+04  0.00000000000E+00 0.  1.
<mgrwt>
<rscale>  0 0.25813746E+04</rscale>
<asrwt>0</asrwt>
<pdfrwt beam="1">  1        2 0.20272513E+00 0.25813746E+04</pdfrwt>
<pdfrwt beam="2">  1       -2 0.19449471E+00 0.25813746E+04</pdfrwt>
<totfact> 0.20685904E+00</totfact>
</mgrwt>
</event>
<event>
 6    1  0.1878398E-004  0.1396262E+04  0.7818608E-02  0.8956529E-01
          1   -1    0    0  501    0  0.00000000000E+00  0.00000000000E+00  0.12101041118E+04  0.12101041118E+04  0.00000000000E+00 0.  1.
         -1   -1    0    0    0  501 -0.00000000000E+00 -0.00000000000E+00 -0.40276432011E+03  0.40276432011E+03  0.00000000000E+00 0. -1.
         23    2    1    2    0    0 -0.51173851517E+03 -0.46939063331E+03  0.36939472181E+03  0.79189354876E+03  0.91864343026E+02 0.  0.
         11    1    3    3    0    0 -0.69617939755E+02 -0.42549368863E+02  0.16530161352E+02  0.83248739094E+02  0.00000000000E+00 0. -1.
        -11    1    3    3    0    0 -0.44212057542E+03 -0.42684126445E+03  0.35286456046E+03  0.70864480967E+03  0.00000000000E+00 0.  1.
         22    1    1    2    0    0  0.51173851517E+03  0.46939063331E+03  0.43794506991E+03  0.82097488318E+03  0.00000000000E+00 0. -1.
<mgrwt>
<rscale>  0 0.13962618E+04</rscale>
<asrwt>0</asrwt>
<pdfrwt beam="1">  1        1 0.18616986E+00 0.13962618E+04</pdfrwt>
<pdfrwt beam="2">  1       -1 0.61963742E-01 0.13962618E+04</pdfrwt>
<totfact> 0.27067231E+01</totfact>
</mgrwt>
</event>
<event>
 6    1  0.1878398E-004  0.1204457E+04  0.7818608E-02  0.9108964E-01
          2   -1    0    0  501    0  0.00000000000E+00  0.00000000000E+00  0.10963585463E+04  0.10963585463E+04  0.00000000000E+00 0.  1.
         -2   -1    0    0    0  501 -0.00000000000E+00 -0.00000000000E+00 -0.33080353937E+03  0.33080353937E+03  0.00000000000E+00 0. -1.
         23    2    1    2    0    0 -0.41243155898E+03 -0.21895057166E+03  0.82844870103E+03  0.95599888633E+03  0.97813479472E+02 0.  0.
         11    1    3    3    0    0 -0.20471810725E+03 -0.15624044397E+03  0.49871133539E+03  0.56127851893E+03  0.00000000000E+00 0. -1.
        -11    1    3    3    0    0 -0.20771345173E+03 -0.62710127686E+02  0.32973736564E+03  0.39472036740E+03  0.00000000000E+00 0.  1.
         22    1    1    2    0    0  0.41243155898E+03  0.21895057166E+03 -0.62893694078E+02  0.47116319935E+03  0.00000000000E+00 0. -1.
<mgrwt>
<rscale>  0 0.12044572E+04</rscale>
<asrwt>0</asrwt>
<pdfrwt beam="1">  1        2 0.16867054E+00 0.12044572E+04</pdfrwt>
<pdfrwt beam="2">  1       -2 0.50892853E-01 0.12044572E+04</pdfrwt>
<totfact> 0.78826317E+01</totfact>
</mgrwt>
</event>
<event>
 6    1  0.1878398E-004  0.2947489E+04  0.7818608E-02  0.8258887E-01
          3   -1    0    0  501    0  0.00000000000E+00  0.00000000000E+00  0.97616134908E+03  0.97616134908E+03  0.00000000000E+00 0.  1.
         -3   -1    0    0    0  501 -0.00000000000E+00 -0.00000000000E+00 -0.22249624190E+04  0.22249624190E+04  0.00000000000E+00 0. -1.
         23    2    1    2    0    0 -0.39188547854E+03 -0.10126236376E+04  0.45508340417E+03  0.11806774904E+04  0.88980738894E+02 0.  0.
         11    1    3    3    0    0 -0.11156667852E+03 -0.38832608695E+03  0.14377518124E+03  0.42885379362E+03  0.00000000000E+00 0. -1.
        -11    1    3    3    0    0 -0.28031880003E+03 -0.62429755069E+03  0.31130822293E+03  0.75182369682E+03  0.00000000000E+00 0.  1.
         22    1    1    2    0    0  0.39188547854E+03  0.10126236376E+04 -0.17038844741E+04  0.20204462777E+04  0.00000000000E+00 0. -1.
<mgrwt>
<rscale>  0 0.29474886E+04</rscale>
<asrwt>0</asrwt>
<pdfrwt beam="1">  1        3 0.15017867E+00 0.29474886E+04</pdfrwt>
<pdfrwt beam="2">  1       -3 0.34230191E+00 0.29474886E+04</pdfrwt>
<totfact> 0.15889504E-02</totfact>
</mgrwt>
</event>
<event>
 6    1  0.1878398E-004  0.7083684E+04  0.7818608E-02  0.7568866E-01
          1   -1    0    0  501    0  0.00000000000E+00  0.00000000000E+00  0.44438705943E+04  0.44438705943E+04  0.00000000000E+00 0.  1.
         -1   -1    0    0    0  501 -0.00000000000E+00 -0.00000000000E+00 -0.28229097592E+04  0.28229097592E+04  0.00000000000E+00 0. -1.
         23    2    1    2    0    0  0.52453010657E+03  0.12874628539E+04  0.41517145226E+04  0.43793235729E+04  0.95126476071E+02 0.  0.
         13    1    3    3    0    0  0.36104557006E+03  0.88521463592E+03  0.27127917419E+04  0.28763167228E+04  0.00000000000E+00 0.  1.
        -13    1    3    3    0    0  0.16348453651E+03  0.40224821793E+03  0.14389227807E+04  0.15030068501E+04  0.00000000000E+00 0. -1.
         22    1    1    2    0    0 -0.52453010657E+03 -0.12874628539E+04 -0.25307536875E+04  0.28874567806E+04  0.00000000000E+00 0. -1.
<mgrwt>
<rscale>  0 0.70836843E+04</rscale>
<asrwt>0</asrwt>
<pdfrwt beam="1">  1        1 0.68367240E+00 0.70836843E+04</pdfrwt>
<pdfrwt beam="2">  1       -1 0.43429381E+00 0.70836843E+04</pdfrwt>
<totfact> 0.93517642E-05</totfact>
</mgrwt>
</event>
<event>
 6    1  0.1878398E-004  0.3838491E+04  0.7818608E-02  0.8037945E-01
         -2   -1    0    0    0  501 -0.00000000000E+00  0.00000000000E+00  0.21817931072E+04  0.21817931072E+04  0.00000000000E+00 0. -1.
          2   -1    0    0  501    0  0.00000000000E+00 -0.00000000000E+00 -0.16882916744E+04  0.16882916744E+04  0.00000000000E+00 0.  1.
         23    2    1    2    0    0  0.10892825749E+04 -0.85641102804E+03  0.15849191423E+04  0.21062341663E+04  0.65401060661E+02 0.  0.
         13    1    3    3    0    0  0.96203398067E+02 -0.62901842850E+02  0.15525483604E+03  0.19317297882E+03  0.00000000000E+00 0. -1.
        -13    1    3    3    0    0  0.99307917680E+03 -0.79350918519E+03  0.14296643062E+04  0.19130611874E+04  0.00000000000E+00 0.  1.
         22    1    1    2    0    0 -0.10892825749E+04  0.85641102804E+03 -0.10914177094E+04  0.17638506153E+04  0.00000000000E+00 0.  1.
<mgrwt>
<rscale>  0 0.38384909E+04</rscale>
<asrwt>0</asrwt>
<pdfrwt beam="1">  1        2 0.25973718E+00 0.38384909E+04</pdfrwt>
<pdfrwt beam="2">  1       -2 0.33566048E+00 0.38384909E+04</pdfrwt>
<totfact> 0.15226366E-01</totfact>
</mgrwt>
</event>
<event>
 6    1  0.1878398E-004  0.2010629E+04  0.7818608E-02  0.8601667E-01
          2   -1    0    0  501    0  0.00000000000E+00  0.00000000000E+00  0.24770360411E+04  0.24770360411E+04  0.00000000000E+00 0.  1.
         -2   -1    0    0    0  501 -0.00000000000E+00 -0.00000000000E+00 -0.40801063947E+03  0.40801063947E+03  0.00000000000E+00 0. -1.
         23    2    1    2    0    0 -0.17146696304E+01  0.98316623905E+03  0.13229235050E+04  0.16508316127E+04  0.92193381360E+02 0.  0.
         11    1    3    3    0    0 -0.45722019999E+02  0.58033617523E+03  0.79258725176E+03  0.98339978190E+03  0.00000000000E+00 0.  1.
        -11    1    3    3    0    0  0.44007350368E+02  0.40283006382E+03  0.53033625323E+03  0.66743183075E+03  0.00000000000E+00 0. -1.
         22    1    1    2    0    0  0.17146696304E+01 -0.98316623905E+03  0.74610189661E+03  0.12342150679E+04  0.00000000000E+00 0. -1.
<mgrwt>
<rscale>  0 0.20106288E+04</rscale>
<asrwt>0</asrwt>
<pdfrwt beam="1">  1        2 0.38108246E+00 0.20106288E+04</pdfrwt>
<pdfrwt beam="2">  1       -2 0.62770869E-01 0.20106288E+04</pdfrwt>
<totfact> 0.78430224E+00</totfact>
</mgrwt>
</event>
<event>
 6    1  0.1878398E-004  0.1250604E+04  0.7818608E-02  0.9069681E-01
          2   -1    0    0  501    0  0.00000000000E+00  0.00000000000E+00  0.24037187970E+04  0.24037187970E+04  0.00000000000E+00 0.  1.
         -2   -1    0    0    0  501 -0.00000000000E+00 -0.00000000000E+00 -0.16266567428E+03  0.16266567428E+03  0.00000000000E+00 0. -1.
         23    2    1    2    0    0 -0.26497998127E+03 -0.31166440745E+03  0.20876874799E+04  0.21294976281E+04  0.94720858537E+02 0.  0.
         13    1    3    3    0    0 -0.78354303500E+02 -0.10205690234E+03  0.89706037064E+03  0.90624076093E+03  0.00000000000E+00 0. -1.
        -13    1    3    3    0    0 -0.18662567777E+03 -0.20960750510E+03  0.11906271092E+04  0.12232568671E+04  0.00000000000E+00 0.  1.
         22    1    1    2    0    0  0.26497998127E+03  0.31166440745E+03  0.15336564283E+03  0.43688684318E+03  0.00000000000E+00 0. -1.
<mgrwt>
<rscale>  0 0.12506039E+04</rscale>
<asrwt>0</asrwt>
<pdfrwt beam="1">  1        2 0.36980287E+00 0.12506039E+04</pdfrwt>
<pdfrwt beam="2">  1       -2 0.25025490E-01 0.12506039E+04</pdfrwt>
<totfact> 0.55957661E+01</totfact>
</mgrwt>
</event>
<event>
 6    1  0.1878398E-004  0.6756243E+03  0.7818608E-02  0.9759850E-01
         -2   -1    0    0    0  501 -0.00000000000E+00  0.00000000000E+00  0.62189804931E+02  0.62189804931E+02  0.00000000000E+00 0. -1.
          2   -1    0    0  501    0  0.00000000000E+00 -0.00000000000E+00 -0.18349800965E+04  0.18349800965E+04  0.00000000000E+00 0.  1.
         23    2    1    2    0    0  0.30214124027E+03  0.19467711496E+02 -0.48617323994E+03  0.57540904620E+03  0.55342843783E+02 0.  0.
         13    1    3    3    0    0  0.25163526799E+02  0.76947848251E+01 -0.20077129991E+02  0.33098397894E+02  0.00000000000E+00 0. -1.
        -13    1    3    3    0    0  0.27697771347E+03  0.11772926671E+02 -0.46609610995E+03  0.54231064831E+03  0.00000000000E+00 0.  1.
         22    1    1    2    0    0 -0.30214124027E+03 -0.19467711496E+02 -0.12866170516E+04  0.13217608552E+04  0.00000000000E+00 0.  1.
<mgrwt>
<rscale>  0 0.67562432E+03</rscale>
<asrwt>0</asrwt>
<pdfrwt beam="1">  1        2 0.28230467E+00 0.67562432E+03</pdfrwt>
<pdfrwt beam="2">  1       -2 0.95676611E-02 0.67562432E+03</pdfrwt>
<totfact> 0.62330956E+02</totfact>
</mgrwt>
</event>
<event>
 6    1  0.1878398E-004  0.4136884E+04  0.7818608E-02  0.7977488E-01
         -2   -1    0    0    0  501 -0.00000000000E+00  0.00000000000E+00  0.20759806034E+04  0.20759806034E+04  0.00000000000E+00 0. -1.
          2   -1    0    0  501    0  0.00000000000E+00 -0.00000000000E+00 -0.20609308932E+04  0.20609308932E+04  0.00000000000E+00 0.  1.
         23    2    1    2    0    0 -0.18587640855E+04 -0.64851036687E+03 -0.62390037724E+03  0.20671707313E+04  0.91506993113E+02 0.  0.
         11    1    3    3    0    0 -0.16915494330E+04 -0.56530691560E+03 -0.57813928212E+03  0.18748750418E+04  0.00000000000E+00 0.  1.
        -11    1    3    3    0    0 -0.16721465258E+03 -0.83203451272E+02 -0.45761095126E+02  0.19229568942E+03  0.00000000000E+00 0. -1.
         22    1    1    2    0    0  0.18587640855E+04  0.64851036687E+03  0.63895008737E+03  0.20697407654E+04  0.00000000000E+00 0. -1.
<mgrwt>
<rscale>  0 0.41368841E+04</rscale>
<asrwt>0</asrwt>
<pdfrwt beam="1">  1        2 0.31706629E+00 0.41368841E+04</pdfrwt>
<pdfrwt beam="2">  1       -2 0.31938163E+00 0.41368841E+04</pdfrwt>
<totfact> 0.11644642E-01</totfact>
</mgrwt>
</event>
<event>
 6    1  0.1878398E-004  0.2490408E+04  0.7818608E-02  0.8406411E-01
          2   -1    0    0  501    0  0.00000000000E+00  0.00000000000E+00  0.33011024119E+03  0.33011024119E+03  0.00000000000E+00 0.  1.
         -2   -1    0    0    0  501 -0.00000000000E+00 -0.00000000000E+00 -0.46970146391E+04  0.46970146391E+04  0.00000000000E+00 0. -1.
         23    2    1    2    0    0  0.54657300126E+03 -0.11155381630E+04 -0.22571075489E+04  0.25787764200E+04  0.11129195173E+03 0.  0.
         11    1    3    3    0    0  0.38775242678E+03 -0.66866774194E+03 -0.14016176214E+04  0.16006250186E+04  0.00000000000E+00 0.  1.
        -11    1    3    3    0    0  0.15882057448E+03 -0.44687042102E+03 -0.85548992754E+03  0.97815140147E+03  0.00000000000E+00 0. -1.
         22    1    1    2    0    0 -0.54657300126E+03  0.11155381630E+04 -0.21097968490E+04  0.24483484602E+04  0.00000000000E+00 0. -1.
<mgrwt>
<rscale>  0 0.24904077E+04</rscale>
<asrwt>0</asrwt>
<pdfrwt beam="1">  1        2 0.50786188E-01 0.24904077E+04</pdfrwt>
<pdfrwt beam="2">  1       -2 0.72261768E+00 0.24904077E+04</pdfrwt>
<totfact> 0.16401098E-02</totfact>
</mgrwt>
</event>
<event>
 6    1  0.2330897E-004  0.2641928E+04  0.7818608E-02  0.8354097E-01
          1   -1    0    0  501    0  0.00000000000E+00  0.00000000000E+00  0.15026468504E+04  0.15026468504E+04  0.00000000000E+00 0.  1.
         -1   -1    0    0    0  501 -0.00000000000E+00 -0.00000000000E+00 -0.11612479025E+04  0.11612479025E+04  0.00000000000E+00 0. -1.
         23    2    1    2    0    0 -0.10861868686E+04 -0.70374610826E+03 -0.87031423650E+02  0.13005851470E+04  0.94269599086E+02 0.  0.
         13    1    3    3    0    0 -0.62623775340E+03 -0.36433975970E+03 -0.80066112155E+02  0.72892233235E+03  0.00000000000E+00 0. -1.
        -13    1    3    3    0    0 -0.45994911524E+03 -0.33940634856E+03 -0.69653114951E+01  0.57166281461E+03  0.00000000000E+00 0.  1.
         22    1    1    2    0    0  0.10861868686E+04  0.70374610826E+03  0.42843037148E+03  0.13633096060E+04  0.00000000000E+00 0.  1.
<mgrwt>
<rscale>  0 0.26419277E+04</rscale>
<asrwt>0</asrwt>
<pdfrwt beam="1">  1        1 0.23117644E+00 0.26419277E+04</pdfrwt>
<pdfrwt beam="2">  1       -1 0.17865352E+00 0.26419277E+04</pdfrwt>
<totfact> 0.12165694E+00</totfact>
</mgrwt>
</event>
<event>
 6    1  0.1878398E-004  0.1801004E+04  0.7818608E-02  0.8705766E-01
          2   -1    0    0  501    0  0.00000000000E+00  0.00000000000E+00  0.23022341228E+04  0.23022341228E+04  0.00000000000E+00 0.  1.
         -2   -1    0    0    0  501 -0.00000000000E+00 -0.00000000000E+00 -0.35222463712E+03  0.35222463712E+03  0.00000000000E+00 0. -1.
         23    2    1    2    0    0 -0.59074956826E+03  0.46408288398E+03  0.25097659645E+03  0.79675298820E+03  0.86418149896E+02 0.  0.
         11    1    3    3    0    0 -0.33429306761E+03  0.20771959132E+03  0.13127237628E+03  0.41488759977E+03  0.00000000000E+00 0. -1.
        -11    1    3    3    0    0 -0.25645650065E+03  0.25636329267E+03  0.11970422017E+03  0.38186538843E+03  0.00000000000E+00 0.  1.
         22    1    1    2    0    0  0.59074956826E+03 -0.46408288398E+03  0.16990328892E+04  0.18577057717E+04  0.00000000000E+00 0. -1.
<mgrwt>
<rscale>  0 0.18010037E+04</rscale>
<asrwt>0</asrwt>
<pdfrwt beam="1">  1        2 0.35418985E+00 0.18010037E+04</pdfrwt>
<pdfrwt beam="2">  1       -2 0.54188407E-01 0.18010037E+04</pdfrwt>
<totfact> 0.13690295E+01</totfact>
</mgrwt>
</event>
<event>
 6    1  0.1878398E-004  0.3302796E+04  0.7818608E-02  0.8162184E-01
         -1   -1    0    0    0  501 -0.00000000000E+00  0.00000000000E+00  0.24229334595E+04  0.24229334595E+04  0.00000000000E+00 0. -1.
          1   -1    0    0  501    0  0.00000000000E+00 -0.00000000000E+00 -0.11255431363E+04  0.11255431363E+04  0.00000000000E+00 0.  1.
         23    2    1    2    0    0  0.13603341691E+04  0.85265336354E+03  0.10586964695E+04  0.19253618230E+04  0.93022175335E+02 0.  0.
         13    1    3    3    0    0  0.97452148048E+03  0.65359213978E+03  0.74889080281E+03  0.13920173259E+04  0.00000000000E+00 0. -1.
        -13    1    3    3    0    0  0.38581268863E+03  0.19906122376E+03  0.30980566666E+03  0.53334449712E+03  0.00000000000E+00 0.  1.
         22    1    1    2    0    0 -0.13603341691E+04 -0.85265336354E+03  0.23869385374E+03  0.16231147728E+04  0.00000000000E+00 0.  1.
<mgrwt>
<rscale>  0 0.33027965E+04</rscale>
<asrwt>0</asrwt>
<pdfrwt beam="1">  1        1 0.17316048E+00 0.33027965E+04</pdfrwt>
<pdfrwt beam="2">  1       -1 0.37275899E+00 0.33027965E+04</pdfrwt>
<totfact> 0.11009181E-01</totfact>
</mgrwt>
</event>
<event>
 6    1  0.1878398E-004  0.2310539E+04  0.7818608E-02  0.8473777E-01
         -3   -1    0    0    0  501 -0.00000000000E+00  0.00000000000E+00  0.36485791048E+03  0.36485791048E+03  0.00000000000E+00 0. -1.
          3   -1    0    0  501    0  0.00000000000E+00 -0.00000000000E+00 -0.36579913904E+04  0.36579913904E+04  0.00000000000E+00 0.  1.
         23    2    1    2    0    0 -0.85084829251E+03 -0.73435355198E+03 -0.21023352025E+04  0.23854066320E+04  0.84460289368E+02 0.  0.
         11    1    3    3    0    0 -0.57358380467E+03 -0.45255064192E+03 -0.13121441400E+04  0.15018397746E+04  0.00000000000E+00 0. -1.
        -11    1    3    3    0    0 -0.27726448783E+03 -0.28180291006E+03 -0.79019106250E+03  0.88356685745E+03  0.00000000000E+00 0.  1.
         22    1    1    2    0    0  0.85084829251E+03  0.73435355198E+03 -0.11907982774E+04  0.16374426688E+04  0.00000000000E+00 0. -1.
<mgrwt>
<rscale>  0 0.23105385E+04</rscale>
<asrwt>0</asrwt>
<pdfrwt beam="1">  1        3 0.56276791E+00 0.23105385E+04</pdfrwt>
<pdfrwt beam="2">  1       -3 0.56131986E-01 0.23105385E+04</pdfrwt>
<totfact> 0.12626836E-02</totfact>
</mgrwt>
</event>
<event>
 6    1  0.1878398E-004  0.1145168E+04  0.7818608E-02  0.9162253E-01
         -2   -1    0    0    0  501 -0.00000000000E+00  0.00000000000E+00  0.20816516239E+03  0.20816516239E+03  0.00000000000E+00 0. -1.
          2   -1    0    0  501    0  0.00000000000E+00 -0.00000000000E+00 -0.15749637570E+04  0.15749637570E+04  0.00000000000E+00 0.  1.
         23    2    1    2    0    0  0.53534364916E+03  0.11575299430E+03 -0.92714365449E+03  0.10807842428E+04  0.92236896000E+02 0.  0.
         11    1    3    3    0    0  0.27292625168E+03  0.68691613385E+02 -0.56358692197E+03  0.62995039108E+03  0.00000000000E+00 0. -1.
        -11    1    3    3    0    0  0.26241739748E+03  0.47061380919E+02 -0.36355673252E+03  0.45083385170E+03  0.00000000000E+00 0.  1.
         22    1    1    2    0    0 -0.53534364916E+03 -0.11575299430E+03 -0.43965494010E+03  0.70234467660E+03  0.00000000000E+00 0. -1.
<mgrwt>
<rscale>  0 0.11451683E+04</rscale>
<asrwt>0</asrwt>
<pdfrwt beam="1">  1        2 0.24230213E+00 0.11451683E+04</pdfrwt>
<pdfrwt beam="2">  1       -2 0.32025408E-01 0.11451683E+04</pdfrwt>
<totfact> 0.10339300E+02</totfact>
</mgrwt>
</event>
<event>
 6    1  0.1878398E-004  0.1424653E+04  0.7818608E-02  0.8936164E-01
          2   -1    0    0  501    0  0.00000000000E+00  0.00000000000E+00  0.82555040920E+03  0.82555040920E+03  0.00000000000E+00 0.  1.
         -2   -1    0    0    0  501 -0.00000000000E+00 -0.00000000000E+00 -0.61463095675E+03  0.61463095675E+03  0.00000000000E+00 0. -1.
         23    2    1    2    0    0  0.25562381439E+03 -0.63395760005E+03  0.29749012157E+03  0.75116739375E+03  0.92229647387E+02 0.  0.
         13    1    3    3    0    0  0.95992222250E+02 -0.13510681761E+03  0.80076450969E+02  0.18406682726E+03  0.00000000000E+00 0.  1.
        -13    1    3    3    0    0  0.15963159214E+03 -0.49885078244E+03  0.21741367060E+03  0.56710056649E+03  0.00000000000E+00 0. -1.
         22    1    1    2    0    0 -0.25562381439E+03  0.63395760005E+03 -0.86570669112E+02  0.68901397220E+03  0.00000000000E+00 0. -1.
<mgrwt>
<rscale>  0 0.14246527E+04</rscale>
<asrwt>0</asrwt>
<pdfrwt beam="1">  1        2 0.12700776E+00 0.14246527E+04</pdfrwt>
<pdfrwt beam="2">  1       -2 0.94558608E-01 0.14246527E+04</pdfrwt>
<totfact> 0.30238755E+01</totfact>
</mgrwt>
</event>
<event>
 6    1  0.1878398E-004  0.2422509E+04  0.7818608E-02  0.8431124E-01
          2   -1    0    0  501    0  0.00000000000E+00  0.00000000000E+00  0.19522762927E+04  0.19522762927E+04  0.00000000000E+00 0.  1.
         -2   -1    0    0    0  501 -0.00000000000E+00 -0.00000000000E+00 -0.75150117830E+03  0.75150117830E+03  0.00000000000E+00 0. -1.
         23    2    1    2    0    0 -0.49892436672E+03 -0.10771101840E+04  0.34157574559E+03  0.12384053587E+04  0.88780461116E+02 0.  0.
         11    1    3    3    0    0 -0.15199856895E+03 -0.24176068714E+03  0.70761959735E+02  0.29420919386E+03  0.00000000000E+00 0. -1.
        -11    1    3    3    0    0 -0.34692579778E+03 -0.83534949687E+03  0.27081378586E+03  0.94419616484E+03  0.00000000000E+00 0.  1.
         22    1    1    2    0    0  0.49892436672E+03  0.10771101840E+04  0.85919936885E+03  0.14653721123E+04  0.00000000000E+00 0.  1.
<mgrwt>
<rscale>  0 0.24225094E+04</rscale>
<asrwt>0</asrwt>
<pdfrwt beam="1">  1        2 0.30035020E+00 0.24225094E+04</pdfrwt>
<pdfrwt beam="2">  1       -2 0.11561557E+00 0.24225094E+04</pdfrwt>
<totfact> 0.37101926E+00</totfact>
</mgrwt>
</event>
<event>
 6    1  0.1878398E-004  0.3676357E+04  0.7818608E-02  0.8073222E-01
         -1   -1    0    0    0  501 -0.00000000000E+00  0.00000000000E+00  0.19444450436E+04  0.19444450436E+04  0.00000000000E+00 0. -1.
          1   -1    0    0  501    0  0.00000000000E+00 -0.00000000000E+00 -0.17377190963E+04  0.17377190963E+04  0.00000000000E+00 0.  1.
         23    2    1    2    0    0  0.79495131740E+02  0.18346328276E+04  0.67523803505E+02  0.18405413975E+04  0.10409651201E+03 0.  0.
         11    1    3    3    0    0  0.71189066558E+02  0.96892804783E+03  0.78727278992E+02  0.97472428385E+03  0.00000000000E+00 0.  1.
        -11    1    3    3    0    0  0.83060651819E+01  0.86570477982E+03 -0.11203475487E+02  0.86581711370E+03  0.00000000000E+00 0. -1.
         22    1    1    2    0    0 -0.79495131740E+02 -0.18346328276E+04  0.13920214382E+03  0.18416227423E+04  0.00000000000E+00 0. -1.
<mgrwt>
<rscale>  0 0.36763565E+04</rscale>
<asrwt>0</asrwt>
<pdfrwt beam="1">  1        1 0.26734140E+00 0.36763565E+04</pdfrwt>
<pdfrwt beam="2">  1       -1 0.29914539E+00 0.36763565E+04</pdfrwt>
<totfact> 0.12077506E-01</totfact>
</mgrwt>
</event>
<event>
 6    1  0.1878398E-004  0.2809945E+04  0.7818608E-02  0.8300187E-01
          2   -1    0    0  501    0  0.00000000000E+00  0.00000000000E+00  0.11826972313E+04  0.11826972313E+04  0.00000000000E+00 0.  1.
         -2   -1    0    0    0  501 -0.00000000000E+00 -0.00000000000E+00 -0.16690221101E+04  0.16690221101E+04  0.00000000000E+00 0. -1.
         23    2    1    2    0    0 -0.12915383148E+04  0.36366163458E+03 -0.66094043183E+03  0.14986444748E+04  0.93658979687E+02 0.  0.
         13    1    3    3    0    0 -0.64835345779E+03  0.18473647027E+03 -0.27995059301E+03  0.72997404351E+03  0.00000000000E+00 0.  1.
        -13    1    3    3    0    0 -0.64318485701E+03  0.17892516431E+03 -0.38098983882E+03  0.76867043132E+03  0.00000000000E+00 0. -1.
         22    1    1    2    0    0  0.12915383148E+04 -0.36366163458E+03  0.17461555306E+03  0.13530748665E+04  0.00000000000E+00 0. -1.
<mgrwt>
<rscale>  0 0.28099451E+04</rscale>
<asrwt>0</asrwt>
<pdfrwt beam="1">  1        2 0.18195342E+00 0.28099451E+04</pdfrwt>
<pdfrwt beam="2">  1       -2 0.25677263E+00 0.28099451E+04</pdfrwt>
<totfact> 0.98483703E-01</totfact>
</mgrwt>
</event>
<event>
 6    1  0.1878398E-004  0.2107340E+04  0.7818608E-02  0.8558017E-01
          2   -1    0    0  501    0  0.00000000000E+00  0.00000000000E+00  0.22496959302E+04  0.22496959302E+04  0.00000000000E+00 0.  1.
         -2   -1    0    0    0  501 -0.00000000000E+00 -0.00000000000E+00 -0.49349789121E+03  0.49349789121E+03  0.00000000000E+00 0. -1.
         23    2    1    2    0    0  0.27300480254E+03 -0.43216924254E+03  0.20761673845E+04  0.21401330794E+04  0.91633579593E+02 0.  0.
         13    1    3    3    0    0  0.22062564334E+03 -0.37531453152E+03  0.16208661780E+04  0.16783157745E+04  0.00000000000E+00 0.  1.
        -13    1    3    3    0    0  0.52379159206E+02 -0.56854711025E+02  0.45530120650E+03  0.46181730492E+03  0.00000000000E+00 0. -1.
         22    1    1    2    0    0 -0.27300480254E+03  0.43216924254E+03 -0.31996934551E+03  0.60306074195E+03  0.00000000000E+00 0. -1.
<mgrwt>
<rscale>  0 0.21073397E+04</rscale>
<asrwt>0</asrwt>
<pdfrwt beam="1">  1        2 0.34610706E+00 0.21073397E+04</pdfrwt>
<pdfrwt beam="2">  1       -2 0.75922753E-01 0.21073397E+04</pdfrwt>
<totfact> 0.69284253E+00</totfact>
</mgrwt>
</event>
<event>
 6    1  0.2307171E-004  0.3290877E+04  0.7818608E-02  0.8165221E-01
         -1   -1    0    0    0  501 -0.00000000000E+00  0.00000000000E+00  0.15163669733E+04  0.15163669733E+04  0.00000000000E+00 0. -1.
          1   -1    0    0  501    0  0.00000000000E+00 -0.00000000000E+00 -0.17854967426E+04  0.17854967426E+04  0.00000000000E+00 0.  1.
         23    2    1    2    0    0 -0.68403966617E+03 -0.11871071644E+03  0.13605786759E+04  0.15304371396E+04  0.95189314891E+02 0.  0.
         11    1    3    3    0    0 -0.17391171696E+03  0.11279005291E+02  0.33032756809E+03  0.37348199890E+03  0.00000000000E+00 0.  1.
        -11    1    3    3    0    0 -0.51012794921E+03 -0.12998972173E+03  0.10302511078E+04  0.11569551407E+04  0.00000000000E+00 0. -1.
         22    1    1    2    0    0  0.68403966617E+03  0.11871071644E+03 -0.16297084452E+04  0.17714265764E+04  0.00000000000E+00 0.  1.
<mgrwt>
<rscale>  0 0.32908773E+04</rscale>
<asrwt>0</asrwt>
<pdfrwt beam="1">  1        1 0.27469181E+00 0.32908773E+04</pdfrwt>
<pdfrwt beam="2">  1       -1 0.23328723E+00 0.32908773E+04</pdfrwt>
<totfact> 0.31065609E-01</totfact>
</mgrwt>
</event>
<event>
 6    1  0.1878398E-004  0.2666164E+04  0.7818608E-02  0.8346068E-01
         -2   -1    0    0    0  501 -0.00000000000E+00  0.00000000000E+00  0.60354394238E+03  0.60354394238E+03  0.00000000000E+00 0. -1.
          2   -1    0    0  501    0  0.00000000000E+00 -0.00000000000E+00 -0.29444549962E+04  0.29444549962E+04  0.00000000000E+00 0.  1.
         23    2    1    2    0    0  0.93795936950E+03  0.94439655427E+03 -0.11224822097E+04  0.17434985981E+04  0.90379312232E+02 0.  0.
         13    1    3    3    0    0  0.72445692120E+03  0.72152487834E+03 -0.81150981886E+03  0.13053674451E+04  0.00000000000E+00 0.  1.
        -13    1    3    3    0    0  0.21350244830E+03  0.22287167593E+03 -0.31097239083E+03  0.43813115299E+03  0.00000000000E+00 0. -1.
         22    1    1    2    0    0 -0.93795936950E+03 -0.94439655427E+03 -0.12184288442E+04  0.18045003405E+04  0.00000000000E+00 0. -1.
<mgrwt>
<rscale>  0 0.26661643E+04</rscale>
<asrwt>0</asrwt>
<pdfrwt beam="1">  1        2 0.45299308E+00 0.26661643E+04</pdfrwt>
<pdfrwt beam="2">  1       -2 0.92852913E-01 0.26661643E+04</pdfrwt>
<totfact> 0.16305221E+00</totfact>
</mgrwt>
</event>
<event>
 6    1  0.1878398E-004  0.1638794E+04  0.7818608E-02  0.8797064E-01
          2   -1    0    0  501    0  0.00000000000E+00  0.00000000000E+00  0.17799616302E+04  0.17799616302E+04  0.00000000000E+00 0.  1.
         -2   -1    0    0    0  501 -0.00000000000E+00 -0.00000000000E+00 -0.37720542460E+03  0.37720542460E+03  0.00000000000E+00 0. -1.
         23    2    1    2    0    0  0.36046375818E+02 -0.71954374276E+03  0.19678324313E+03  0.75238474954E+03  0.91195545978E+02 0.  0.
         13    1    3    3    0    0  0.95170816004E+01 -0.22481548139E+03  0.10584910580E+03  0.24866967791E+03  0.00000000000E+00 0. -1.
        -13    1    3    3    0    0  0.26529294218E+02 -0.49472826137E+03  0.90934137330E+02  0.50371507163E+03  0.00000000000E+00 0.  1.
         22    1    1    2    0    0 -0.36046375818E+02  0.71954374276E+03  0.12059729624E+04  0.14047823052E+04  0.00000000000E+00 0.  1.
<mgrwt>
<rscale>  0 0.16387937E+04</rscale>
<asrwt>0</asrwt>
<pdfrwt beam="1">  1        2 0.27384024E+00 0.16387937E+04</pdfrwt>
<pdfrwt beam="2">  1       -2 0.58031605E-01 0.16387937E+04</pdfrwt>
<totfact> 0.23517659E+01</totfact>
</mgrwt>
</event>
<event>
 6    1  0.1878398E-004  0.1751036E+04  0.7818608E-02  0.8732780E-01
         -2   -1    0    0    0  501 -0.00000000000E+00  0.00000000000E+00  0.11924738732E+04  0.11924738732E+04  0.00000000000E+00 0. -1.
          2   -1    0    0  501    0  0.00000000000E+00 -0.00000000000E+00 -0.64280792367E+03  0.64280792367E+03  0.00000000000E+00 0.  1.
         23    2    1    2    0    0 -0.32073738557E+03  0.49963983654E+03 -0.39543170656E+03  0.71916262030E+03  0.91193218608E+02 0.  0.
         11    1    3    3    0    0 -0.11556943515E+03  0.23990796046E+03 -0.13852308918E+03  0.30016790313E+03  0.00000000000E+00 0.  1.
        -11    1    3    3    0    0 -0.20516795042E+03  0.25973187608E+03 -0.25690861738E+03  0.41899471717E+03  0.00000000000E+00 0. -1.
         22    1    1    2    0    0  0.32073738557E+03 -0.49963983654E+03  0.94509765609E+03  0.11161191766E+04  0.00000000000E+00 0. -1.
<mgrwt>
<rscale>  0 0.17510359E+04</rscale>
<asrwt>0</asrwt>
<pdfrwt beam="1">  1        2 0.98893527E-01 0.17510359E+04</pdfrwt>
<pdfrwt beam="2">  1       -2 0.18345752E+00 0.17510359E+04</pdfrwt>
<totfact> 0.74103387E+00</totfact>
</mgrwt>
</event>
<event>
 6    1  0.1878398E-004  0.2009414E+04  0.7818608E-02  0.8602232E-01
         -2   -1    0    0    0  501 -0.00000000000E+00  0.00000000000E+00  0.69257315423E+03  0.69257315423E+03  0.00000000000E+00 0. -1.
          2   -1    0    0  501    0  0.00000000000E+00 -0.00000000000E+00 -0.14575155726E+04  0.14575155726E+04  0.00000000000E+00 0.  1.
         23    2    1    2    0    0  0.59389142354E+03 -0.29151526611E+03 -0.11894090558E+04  0.13640479521E+04  0.90800552265E+02 0.  0.
         11    1    3    3    0    0  0.11212929104E+03 -0.59105128277E+02 -0.30758665015E+03  0.33267993845E+03  0.00000000000E+00 0. -1.
        -11    1    3    3    0    0  0.48176213250E+03 -0.23241013783E+03 -0.88182240562E+03  0.10313680136E+04  0.00000000000E+00 0.  1.
         22    1    1    2    0    0 -0.59389142354E+03  0.29151526611E+03  0.42446663739E+03  0.78604077476E+03  0.00000000000E+00 0. -1.
<mgrwt>
<rscale>  0 0.20094140E+04</rscale>
<asrwt>0</asrwt>
<pdfrwt beam="1">  1        2 0.22423316E+00 0.20094140E+04</pdfrwt>
<pdfrwt beam="2">  1       -2 0.10654972E+00 0.20094140E+04</pdfrwt>
<totfact> 0.88404021E+00</totfact>
</mgrwt>
</event>
<event>
 6    1  0.1878398E-004  0.2405282E+04  0.7818608E-02  0.8437529E-01
          2   -1    0    0  501    0  0.00000000000E+00  0.00000000000E+00  0.23492324025E+04  0.23492324025E+04  0.00000000000E+00 0.  1.
         -2   -1    0    0    0  501 -0.00000000000E+00 -0.00000000000E+00 -0.61566732029E+03  0.61566732029E+03  0.00000000000E+00 0. -1.
         23    2    1    2    0    0  0.87271597224E+03 -0.66012180595E+03  0.25807969845E+03  0.11279318176E+04  0.90725341475E+02 0.  0.
         13    1    3    3    0    0  0.19580582078E+03 -0.10311432961E+03  0.46201380945E+02  0.22606868873E+03  0.00000000000E+00 0.  1.
        -13    1    3    3    0    0  0.67691015145E+03 -0.55700747634E+03  0.21187831751E+03  0.90186312890E+03  0.00000000000E+00 0. -1.
         22    1    1    2    0    0 -0.87271597224E+03  0.66012180595E+03  0.14754853838E+04  0.18369679052E+04  0.00000000000E+00 0.  1.
<mgrwt>
<rscale>  0 0.24052822E+04</rscale>
<asrwt>0</asrwt>
<pdfrwt beam="1">  1        2 0.36142036E+00 0.24052822E+04</pdfrwt>
<pdfrwt beam="2">  1       -2 0.94718051E-01 0.24052822E+04</pdfrwt>
<totfact> 0.35849590E+00</totfact>
</mgrwt>
</event>
<event>
 6    1  0.1878398E-004  0.5769650E+04  0.7818608E-02  0.7719637E-01
         -2   -1    0    0    0  501 -0.00000000000E+00  0.00000000000E+00  0.17825528144E+04  0.17825528144E+04  0.00000000000E+00 0. -1.
          2   -1    0    0  501    0  0.00000000000E+00 -0.00000000000E+00 -0.46687060366E+04  0.46687060366E+04  0.00000000000E+00 0.  1.
         23    2    1    2    0    0  0.16239252403E+04 -0.15288211530E+04 -0.34877278475E+04  0.41412113766E+04  0.10468439734E+03 0.  0.
         11    1    3    3    0    0  0.12270897486E+04 -0.11652741008E+04 -0.25622340791E+04  0.30706117399E+04  0.00000000000E+00 0. -1.
        -11    1    3    3    0    0  0.39683549175E+03 -0.36354705217E+03 -0.92549376836E+03  0.10705996366E+04  0.00000000000E+00 0.  1.
         22    1    1    2    0    0 -0.16239252403E+04  0.15288211530E+04  0.60157462527E+03  0.23100474744E+04  0.00000000000E+00 0. -1.
<mgrwt>
<rscale>  0 0.57696499E+04</rscale>
<asrwt>0</asrwt>
<pdfrwt beam="1">  1        2 0.71826246E+00 0.57696499E+04</pdfrwt>
<pdfrwt beam="2">  1       -2 0.27423890E+00 0.57696499E+04</pdfrwt>
<totfact> 0.25565116E-03</totfact>
</mgrwt>
</event>
<event>
 6    1  0.1878398E-004  0.1330478E+04  0.7818608E-02  0.9005739E-01
          2   -1    0    0  501    0  0.00000000000E+00  0.00000000000E+00  0.17148532080E+04  0.17148532080E+04  0.00000000000E+00 0.  1.
         -2   -1    0    0    0  501 -0.00000000000E+00 -0.00000000000E+00 -0.25806468437E+03  0.25806468437E+03  0.00000000000E+00 0. -1.
         23    2    1    2    0    0 -0.14295678685E+03 -0.61719973461E+03  0.10172700148E+04  0.12018480674E+04  0.90710191804E+02 0.  0.
         11    1    3    3    0    0 -0.18861204412E+02 -0.17451388660E+03  0.21915099520E+03  0.28078105410E+03  0.00000000000E+00 0.  1.
        -11    1    3    3    0    0 -0.12409558243E+03 -0.44268584801E+03  0.79811901960E+03  0.92106701334E+03  0.00000000000E+00 0. -1.
         22    1    1    2    0    0  0.14295678685E+03  0.61719973461E+03  0.43951850884E+03  0.77106982494E+03  0.00000000000E+00 0. -1.
<mgrwt>
<rscale>  0 0.13304782E+04</rscale>
<asrwt>0</asrwt>
<pdfrwt beam="1">  1        2 0.26382356E+00 0.13304782E+04</pdfrwt>
<pdfrwt beam="2">  1       -2 0.39702260E-01 0.13304782E+04</pdfrwt>
<totfact> 0.56475567E+01</totfact>
</mgrwt>
</event>
<event>
 6    1  0.1878398E-004  0.2342817E+04  0.7818608E-02  0.8461228E-01
          1   -1    0    0  501    0  0.00000000000E+00  0.00000000000E+00  0.32781669723E+04  0.32781669723E+04  0.00000000000E+00 0.  1.
         -1   -1    0    0    0  501 -0.00000000000E+00 -0.00000000000E+00 -0.41858693510E+03  0.41858693510E+03  0.00000000000E+00 0. -1.
         23    2    1    2    0    0 -0.17230692288E+02  0.11454356140E+04  0.18052713774E+04  0.21398703560E+04  0.87867807616E+02 0.  0.
         11    1    3    3    0    0 -0.20736231169E+02  0.88825075257E+03  0.14641694979E+04  0.17126621702E+04  0.00000000000E+00 0. -1.
        -11    1    3    3    0    0  0.35055388811E+01  0.25718486146E+03  0.34110187954E+03  0.42720818578E+03  0.00000000000E+00 0.  1.
         22    1    1    2    0    0  0.17230692288E+02 -0.11454356140E+04  0.10543086598E+04  0.15568835515E+04  0.00000000000E+00 0. -1.
<mgrwt>
<rscale>  0 0.23428170E+04</rscale>
<asrwt>0</asrwt>
<pdfrwt beam="1">  1        1 0.50433336E+00 0.23428170E+04</pdfrwt>
<pdfrwt beam="2">  1       -1 0.64397992E-01 0.23428170E+04</pdfrwt>
<totfact> 0.81794908E-01</totfact>
</mgrwt>
</event>
<event>
 6    1  0.1878398E-004  0.2277059E+04  0.7818608E-02  0.8487022E-01
         -2   -1    0    0    0  501 -0.00000000000E+00  0.00000000000E+00  0.45903279512E+04  0.45903279512E+04  0.00000000000E+00 0. -1.
          2   -1    0    0  501    0  0.00000000000E+00 -0.00000000000E+00 -0.28238712240E+03  0.28238712240E+03  0.00000000000E+00 0.  1.
         23    2    1    2    0    0 -0.10986985468E+04 -0.20427711050E+03  0.17095441692E+04  0.20441937575E+04  0.85552424994E+02 0.  0.
         13    1    3    3    0    0 -0.39724992974E+03 -0.34512852396E+02  0.63306593876E+03  0.74817853917E+03  0.00000000000E+00 0.  1.
        -13    1    3    3    0    0 -0.70144861705E+03 -0.16976425811E+03  0.10764782304E+04  0.12960152184E+04  0.00000000000E+00 0. -1.
         22    1    1    2    0    0  0.10986985468E+04  0.20427711050E+03  0.25983966597E+04  0.28285213161E+04  0.00000000000E+00 0. -1.
<mgrwt>
<rscale>  0 0.22770591E+04</rscale>
<asrwt>0</asrwt>
<pdfrwt beam="1">  1        2 0.43444176E-01 0.22770591E+04</pdfrwt>
<pdfrwt beam="2">  1       -2 0.70620424E+00 0.22770591E+04</pdfrwt>
<totfact> 0.22874802E-02</totfact>
</mgrwt>
</event>
<event>
 6    1  0.1878398E-004  0.2777335E+04  0.7818608E-02  0.8310339E-01
          2   -1    0    0  501    0  0.00000000000E+00  0.00000000000E+00  0.19948890090E+04  0.19948890090E+04  0.00000000000E+00 0.  1.
         -2   -1    0    0    0  501 -0.00000000000E+00 -0.00000000000E+00 -0.96666937349E+03  0.96666937349E+03  0.00000000000E+00 0. -1.
         23    2    1    2    0    0  0.64593666934E+03  0.70486677586E+03  0.15862915361E+04  0.18545283021E+04  0.94249844113E+02 0.  0.
         13    1    3    3    0    0  0.55495287999E+03  0.64763523513E+03  0.14238335653E+04  0.16597307368E+04  0.00000000000E+00 0. -1.
        -13    1    3    3    0    0  0.90983789346E+02  0.57231540736E+02  0.16245797082E+03  0.19479756534E+03  0.00000000000E+00 0.  1.
         22    1    1    2    0    0 -0.64593666934E+03 -0.70486677586E+03 -0.55807190067E+03  0.11070300804E+04  0.00000000000E+00 0. -1.
<mgrwt>
<rscale>  0 0.27773355E+04</rscale>
<asrwt>0</asrwt>
<pdfrwt beam="1">  1        2 0.30690600E+00 0.27773355E+04</pdfrwt>
<pdfrwt beam="2">  1       -2 0.14871837E+00 0.27773355E+04</pdfrwt>
<totfact> 0.17971259E+00</totfact>
</mgrwt>
</event>
<event>
 6    1  0.2433756E-004  0.3280449E+04  0.7818608E-02  0.8167888E-01
          2   -1    0    0  501    0  0.00000000000E+00  0.00000000000E+00  0.11867157323E+04  0.11867157323E+04  0.00000000000E+00 0.  1.
         -2   -1    0    0    0  501 -0.00000000000E+00 -0.00000000000E+00 -0.22670433893E+04  0.22670433893E+04  0.00000000000E+00 0. -1.
         23    2    1    2    0    0 -0.15931908373E+03  0.45741144824E+03 -0.21890270575E+04  0.22438739353E+04  0.92319961723E+02 0.  0.
         13    1    3    3    0    0 -0.11576940278E+03  0.34455582973E+03 -0.14414410620E+04  0.14865643645E+04  0.00000000000E+00 0.  1.
        -13    1    3    3    0    0 -0.43549680951E+02  0.11285561852E+03 -0.74758599548E+03  0.75730957077E+03  0.00000000000E+00 0. -1.
         22    1    1    2    0    0  0.15931908373E+03 -0.45741144824E+03  0.11086994005E+04  0.12098851863E+04  0.00000000000E+00 0.  1.
<mgrwt>
<rscale>  0 0.32804488E+04</rscale>
<asrwt>0</asrwt>
<pdfrwt beam="1">  1        2 0.18257165E+00 0.32804488E+04</pdfrwt>
<pdfrwt beam="2">  1       -2 0.34877590E+00 0.32804488E+04</pdfrwt>
<totfact> 0.25547469E-01</totfact>
</mgrwt>
</event>
<event>
 6    1  0.1878398E-004  0.2223543E+04  0.7818608E-02  0.8508693E-01
          2   -1    0    0  501    0  0.00000000000E+00  0.00000000000E+00  0.23404408178E+04  0.23404408178E+04  0.00000000000E+00 0.  1.
         -2   -1    0    0    0  501 -0.00000000000E+00 -0.00000000000E+00 -0.52812073467E+03  0.52812073467E+03  0.00000000000E+00 0. -1.
         23    2    1    2    0    0 -0.70437400154E+03 -0.14620901572E+03 -0.18289808202E+03  0.74761475048E+03  0.89198074029E+02 0.  0.
         11    1    3    3    0    0 -0.56140510027E+03 -0.14991191658E+03 -0.13262295568E+03  0.59601855484E+03  0.00000000000E+00 0.  1.
        -11    1    3    3    0    0 -0.14296890126E+03  0.37029008562E+01 -0.50275126333E+02  0.15159619564E+03  0.00000000000E+00 0. -1.
         22    1    1    2    0    0  0.70437400154E+03  0.14620901572E+03  0.19952181651E+04  0.21209468020E+04  0.00000000000E+00 0.  1.
<mgrwt>
<rscale>  0 0.22235425E+04</rscale>
<asrwt>0</asrwt>
<pdfrwt beam="1">  1        2 0.36006781E+00 0.22235425E+04</pdfrwt>
<pdfrwt beam="2">  1       -2 0.81249345E-01 0.22235425E+04</pdfrwt>
<totfact> 0.52354862E+00</totfact>
</mgrwt>
</event>
<event>
 6    1  0.1878398E-004  0.1075149E+04  0.7818608E-02  0.9229758E-01
          2   -1    0    0  501    0  0.00000000000E+00  0.00000000000E+00  0.48168643025E+03  0.48168643025E+03  0.00000000000E+00 0.  1.
         -2   -1    0    0    0  501 -0.00000000000E+00 -0.00000000000E+00 -0.59994686896E+03  0.59994686896E+03  0.00000000000E+00 0. -1.
         23    2    1    2    0    0  0.19636509785E+03 -0.40930093120E+03 -0.34172812546E+03  0.57564484978E+03  0.92208336998E+02 0.  0.
         11    1    3    3    0    0  0.60709905839E+02 -0.10036717341E+03 -0.42790824551E+02  0.12486119025E+03  0.00000000000E+00 0. -1.
        -11    1    3    3    0    0  0.13565519201E+03 -0.30893375779E+03 -0.29893730091E+03  0.45078365953E+03  0.00000000000E+00 0.  1.
         22    1    1    2    0    0 -0.19636509785E+03  0.40930093120E+03  0.22346768676E+03  0.50598844943E+03  0.00000000000E+00 0.  1.
<mgrwt>
<rscale>  0 0.10751489E+04</rscale>
<asrwt>0</asrwt>
<pdfrwt beam="1">  1        2 0.74105605E-01 0.10751489E+04</pdfrwt>
<pdfrwt beam="2">  1       -2 0.92299518E-01 0.10751489E+04</pdfrwt>
<totfact> 0.63765776E+01</totfact>
</mgrwt>
</event>
<event>
 6    1  0.1878398E-004  0.9494256E+03  0.7818608E-02  0.9365822E-01
         -2   -1    0    0    0  501 -0.00000000000E+00  0.00000000000E+00  0.70528926228E+02  0.70528926228E+02  0.00000000000E+00 0. -1.
          2   -1    0    0  501    0  0.00000000000E+00 -0.00000000000E+00 -0.31951748793E+04  0.31951748793E+04  0.00000000000E+00 0.  1.
         23    2    1    2    0    0 -0.17417310868E+03  0.15815760028E+03 -0.29776154454E+04  0.29882726095E+04  0.90715765407E+02 0.  0.
         13    1    3    3    0    0 -0.55646750813E+02  0.49440054418E+02 -0.15177295406E+04  0.15195538287E+04  0.00000000000E+00 0.  1.
        -13    1    3    3    0    0 -0.11852635787E+03  0.10871754586E+03 -0.14598859048E+04  0.14687187808E+04  0.00000000000E+00 0. -1.
         22    1    1    2    0    0  0.17417310868E+03 -0.15815760028E+03 -0.14703050770E+03  0.27743119599E+03  0.00000000000E+00 0. -1.
<mgrwt>
<rscale>  0 0.94942562E+03</rscale>
<asrwt>0</asrwt>
<pdfrwt beam="1">  1        2 0.49156548E+00 0.94942562E+03</pdfrwt>
<pdfrwt beam="2">  1       -2 0.10850601E-01 0.94942562E+03</pdfrwt>
<totfact> 0.81401328E+01</totfact>
</mgrwt>
</event>
<event>
 6    1  0.1878398E-004  0.2658352E+04  0.7818608E-02  0.8348646E-01
          2   -1    0    0  501    0  0.00000000000E+00  0.00000000000E+00  0.68145165372E+03  0.68145165372E+03  0.00000000000E+00 0.  1.
         -2   -1    0    0    0  501 -0.00000000000E+00 -0.00000000000E+00 -0.25925671882E+04  0.25925671882E+04  0.00000000000E+00 0. -1.
         23    2    1    2    0    0  0.71952302820E+01  0.91644780459E+03 -0.21396659336E+04  0.23294747007E+04  0.91398706633E+02 0.  0.
         13    1    3    3    0    0 -0.23134355911E+02  0.80761411792E+03 -0.18880424878E+04  0.20536504565E+04  0.00000000000E+00 0.  1.
        -13    1    3    3    0    0  0.30329586193E+02  0.10883368667E+03 -0.25162344587E+03  0.27582424416E+03  0.00000000000E+00 0. -1.
         22    1    1    2    0    0 -0.71952302820E+01 -0.91644780459E+03  0.22855039913E+03  0.94454414127E+03  0.00000000000E+00 0.  1.
<mgrwt>
<rscale>  0 0.26583523E+04</rscale>
<asrwt>0</asrwt>
<pdfrwt beam="1">  1        2 0.10483872E+00 0.26583523E+04</pdfrwt>
<pdfrwt beam="2">  1       -2 0.39885649E+00 0.26583523E+04</pdfrwt>
<totfact> 0.28172457E-01</totfact>
</mgrwt>
</event>
<event>
 6    1  0.1878398E-004  0.2724183E+04  0.7818608E-02  0.8327201E-01
          2   -1    0    0  501    0  0.00000000000E+00  0.00000000000E+00  0.79051393119E+03  0.79051393119E+03  0.00000000000E+00 0. -1.
         -2   -1    0    0    0  501 -0.00000000000E+00 -0.00000000000E+00 -0.23469453449E+04  0.23469453449E+04  0.00000000000E+00 0.  1.
         23    2    1    2    0    0  0.11508212418E+04 -0.71863192291E+03 -0.89535304501E+03  0.16282058246E+04  0.92605404053E+02 0.  0.
         11    1    3    3    0    0  0.70258347749E+03 -0.39361578867E+03 -0.50099013002E+03  0.94844506552E+03  0.00000000000E+00 0. -1.
        -11    1    3    3    0    0  0.44823776433E+03 -0.32501613425E+03 -0.39436291500E+03  0.67976075910E+03  0.00000000000E+00 0.  1.
         22    1    1    2    0    0 -0.11508212418E+04  0.71863192291E+03 -0.66107836872E+03  0.15092534515E+04  0.00000000000E+00 0.  1.
<mgrwt>
<rscale>  0 0.27241828E+04</rscale>
<asrwt>0</asrwt>
<pdfrwt beam="1">  1        2 0.12161753E+00 0.27241828E+04</pdfrwt>
<pdfrwt beam="2">  1       -2 0.36106851E+00 0.27241828E+04</pdfrwt>
<totfact> 0.40567268E-01</totfact>
</mgrwt>
</event>
<event>
 6    1  0.1878398E-004  0.1484903E+04  0.7818608E-02  0.8894555E-01
         -1   -1    0    0    0  501 -0.00000000000E+00  0.00000000000E+00  0.76546998513E+03  0.76546998513E+03  0.00000000000E+00 0. -1.
          1   -1    0    0  501    0  0.00000000000E+00 -0.00000000000E+00 -0.72012539019E+03  0.72012539019E+03  0.00000000000E+00 0.  1.
         23    2    1    2    0    0  0.15809201141E+03 -0.91885083835E+01 -0.70012674256E+03  0.72348972136E+03  0.90456666479E+02 0.  0.
         11    1    3    3    0    0  0.30446180752E+02 -0.19973408394E+02 -0.32626298144E+03  0.32828865351E+03  0.00000000000E+00 0. -1.
        -11    1    3    3    0    0  0.12764583066E+03  0.10784900011E+02 -0.37386376113E+03  0.39520106786E+03  0.00000000000E+00 0.  1.
         22    1    1    2    0    0 -0.15809201141E+03  0.91885083835E+01  0.74547133750E+03  0.76210565396E+03  0.00000000000E+00 0. -1.
<mgrwt>
<rscale>  0 0.14849032E+04</rscale>
<asrwt>0</asrwt>
<pdfrwt beam="1">  1        1 0.11078852E+00 0.14849032E+04</pdfrwt>
<pdfrwt beam="2">  1       -1 0.11776461E+00 0.14849032E+04</pdfrwt>
<totfact> 0.16381930E+01</totfact>
</mgrwt>
</event>
<event>
 6    1  0.1878398E-004  0.1963639E+04  0.7818608E-02  0.8623812E-01
          2   -1    0    0  501    0  0.00000000000E+00  0.00000000000E+00  0.16552136887E+04  0.16552136887E+04  0.00000000000E+00 0.  1.
         -2   -1    0    0    0  501 -0.00000000000E+00 -0.00000000000E+00 -0.58238387945E+03  0.58238387945E+03  0.00000000000E+00 0. -1.
         23    2    1    2    0    0  0.32484030471E+03  0.25822313517E+03 -0.47365916929E+03  0.63640158644E+03  0.91943240442E+02 0.  0.
         11    1    3    3    0    0  0.12518549297E+03  0.15784667622E+03 -0.21750764923E+03  0.29647353730E+03  0.00000000000E+00 0. -1.
        -11    1    3    3    0    0  0.19965481174E+03  0.10037645896E+03 -0.25615152006E+03  0.33992804914E+03  0.00000000000E+00 0.  1.
         22    1    1    2    0    0 -0.32484030471E+03 -0.25822313517E+03  0.15464889785E+04  0.16011959817E+04  0.00000000000E+00 0.  1.
<mgrwt>
<rscale>  0 0.19636392E+04</rscale>
<asrwt>0</asrwt>
<pdfrwt beam="1">  1        2 0.25464826E+00 0.19636392E+04</pdfrwt>
<pdfrwt beam="2">  1       -2 0.89597520E-01 0.19636392E+04</pdfrwt>
<totfact> 0.10334775E+01</totfact>
</mgrwt>
</event>
<event>
 6    1  0.1878398E-004  0.2598436E+04  0.7818608E-02  0.8368733E-01
          2   -1    0    0  501    0  0.00000000000E+00  0.00000000000E+00  0.29475640763E+04  0.29475640763E+04  0.00000000000E+00 0.  1.
         -2   -1    0    0    0  501 -0.00000000000E+00 -0.00000000000E+00 -0.57266532825E+03  0.57266532825E+03  0.00000000000E+00 0. -1.
         23    2    1    2    0    0 -0.10239887023E+04 -0.11765799310E+03  0.12098123983E+03  0.10418145079E+04  0.91349563296E+02 0.  0.
         11    1    3    3    0    0 -0.44815220604E+03 -0.52013279066E+02  0.73860548639E+01  0.45122093788E+03  0.00000000000E+00 0. -1.
        -11    1    3    3    0    0 -0.57583649630E+03 -0.65644714037E+02  0.11359518496E+03  0.59059357006E+03  0.00000000000E+00 0.  1.
         22    1    1    2    0    0  0.10239887023E+04  0.11765799310E+03  0.22539175083E+04  0.24784148966E+04  0.00000000000E+00 0.  1.
<mgrwt>
<rscale>  0 0.25984363E+04</rscale>
<asrwt>0</asrwt>
<pdfrwt beam="1">  1        2 0.45347139E+00 0.25984363E+04</pdfrwt>
<pdfrwt beam="2">  1       -2 0.88102360E-01 0.25984363E+04</pdfrwt>
<totfact> 0.18434098E+00</totfact>
</mgrwt>
</event>
<event>
 6    1  0.1878398E-004  0.1861809E+04  0.7818608E-02  0.8674104E-01
         -2   -1    0    0    0  501 -0.00000000000E+00  0.00000000000E+00  0.35431465491E+03  0.35431465491E+03  0.00000000000E+00 0. -1.
          2   -1    0    0  501    0  0.00000000000E+00 -0.00000000000E+00 -0.24457998864E+04  0.24457998864E+04  0.00000000000E+00 0.  1.
         23    2    1    2    0    0 -0.13035719279E+03  0.82483922988E+03 -0.16594896582E+04  0.18599161962E+04  0.89607914530E+02 0.  0.
         13    1    3    3    0    0 -0.21494815858E+02  0.37931453339E+03 -0.70030848375E+03  0.79672675037E+03  0.00000000000E+00 0.  1.
        -13    1    3    3    0    0 -0.10886237693E+03  0.44552469649E+03 -0.95918117440E+03  0.10631894458E+04  0.00000000000E+00 0. -1.
         22    1    1    2    0    0  0.13035719279E+03 -0.82483922988E+03 -0.43199557336E+03  0.94019834517E+03  0.00000000000E+00 0. -1.
<mgrwt>
<rscale>  0 0.18618085E+04</rscale>
<asrwt>0</asrwt>
<pdfrwt beam="1">  1        2 0.37627691E+00 0.18618085E+04</pdfrwt>
<pdfrwt beam="2">  1       -2 0.54509946E-01 0.18618085E+04</pdfrwt>
<totfact> 0.11141837E+01</totfact>
</mgrwt>
</event>
<event>
 6    1  0.1878398E-004  0.2342311E+04  0.7818608E-02  0.8461423E-01
          1   -1    0    0  501    0  0.00000000000E+00  0.00000000000E+00  0.95909289281E+03  0.95909289281E+03  0.00000000000E+00 0.  1.
         -1   -1    0    0    0  501 -0.00000000000E+00 -0.00000000000E+00 -0.14301065396E+04  0.14301065396E+04  0.00000000000E+00 0. -1.
         23    2    1    2    0    0  0.11252309415E+04  0.24060449876E+03 -0.44704401239E+03  0.12382825198E+04  0.97262805544E+02 0.  0.
         13    1    3    3    0    0  0.47891668487E+03  0.15166056916E+03 -0.19213303789E+03  0.53784498095E+03  0.00000000000E+00 0. -1.
        -13    1    3    3    0    0  0.64631425659E+03  0.88943929597E+02 -0.25491097451E+03  0.70043753884E+03  0.00000000000E+00 0.  1.
         22    1    1    2    0    0 -0.11252309415E+04 -0.24060449876E+03 -0.23969634434E+02  0.11509169127E+04  0.00000000000E+00 0.  1.
<mgrwt>
<rscale>  0 0.23423108E+04</rscale>
<asrwt>0</asrwt>
<pdfrwt beam="1">  1        1 0.14755275E+00 0.23423108E+04</pdfrwt>
<pdfrwt beam="2">  1       -1 0.22001639E+00 0.23423108E+04</pdfrwt>
<totfact> 0.16149884E+00</totfact>
</mgrwt>
</event>
<event>
 6    1  0.1878398E-004  0.1508544E+04  0.7818608E-02  0.8878791E-01
         -2   -1    0    0    0  501 -0.00000000000E+00  0.00000000000E+00  0.39295120047E+03  0.39295120047E+03  0.00000000000E+00 0. -1.
          2   -1    0    0  501    0  0.00000000000E+00 -0.00000000000E+00 -0.14478294418E+04  0.14478294418E+04  0.00000000000E+00 0.  1.
         23    2    1    2    0    0 -0.99323990673E+02 -0.68471144703E+03 -0.17138895501E+03  0.71861829223E+03  0.91340326284E+02 0.  0.
         13    1    3    3    0    0  0.13812257356E+02 -0.17511621513E+03 -0.50976931862E+02  0.18290739416E+03  0.00000000000E+00 0. -1.
        -13    1    3    3    0    0 -0.11313624803E+03 -0.50959523190E+03 -0.12041202315E+03  0.53571089808E+03  0.00000000000E+00 0.  1.
         22    1    1    2    0    0  0.99323990673E+02  0.68471144703E+03 -0.88348928636E+03  0.11221623501E+04  0.00000000000E+00 0.  1.
<mgrwt>
<rscale>  0 0.15085441E+04</rscale>
<asrwt>0</asrwt>
<pdfrwt beam="1">  1        2 0.22274300E+00 0.15085441E+04</pdfrwt>
<pdfrwt beam="2">  1       -2 0.60454029E-01 0.15085441E+04</pdfrwt>
<totfact> 0.33439970E+01</totfact>
</mgrwt>
</event>
<event>
 6    1  0.1878398E-004  0.2859098E+04  0.7818608E-02  0.8285152E-01
          2   -1    0    0  501    0  0.00000000000E+00  0.00000000000E+00  0.16475868471E+04  0.16475868471E+04  0.00000000000E+00 0. -1.
         -2   -1    0    0    0  501 -0.00000000000E+00 -0.00000000000E+00 -0.12403659112E+04  0.12403659112E+04  0.00000000000E+00 0.  1.
         23    2    1    2    0    0  0.17369531845E+03 -0.12817552992E+04 -0.40742491124E+03  0.13593211588E+04  0.93232203330E+02 0.  0.
         11    1    3    3    0    0  0.15501718585E+02 -0.44194853368E+03 -0.13456344012E+03  0.46224033696E+03  0.00000000000E+00 0. -1.
        -11    1    3    3    0    0  0.15819359987E+03 -0.83980676554E+03 -0.27286147112E+03  0.89708082183E+03  0.00000000000E+00 0.  1.
         22    1    1    2    0    0 -0.17369531845E+03  0.12817552992E+04  0.81464584710E+03  0.15286315995E+04  0.00000000000E+00 0. -1.
<mgrwt>
<rscale>  0 0.28590982E+04</rscale>
<asrwt>0</asrwt>
<pdfrwt beam="1">  1        2 0.25347490E+00 0.28590982E+04</pdfrwt>
<pdfrwt beam="2">  1       -2 0.19082552E+00 0.28590982E+04</pdfrwt>
<totfact> 0.13902654E+00</totfact>
</mgrwt>
</event>
<event>
 6    1  0.1878398E-004  0.1333286E+04  0.7818608E-02  0.9003578E-01
         -1   -1    0    0    0  501 -0.00000000000E+00  0.00000000000E+00  0.36715919444E+03  0.36715919444E+03  0.00000000000E+00 0.  1.
          1   -1    0    0  501    0  0.00000000000E+00 -0.00000000000E+00 -0.12104084897E+04  0.12104084897E+04  0.00000000000E+00 0. -1.
         23    2    1    2    0    0  0.34457881010E+03 -0.24889649879E+03  0.17949670175E+03  0.47000576808E+03  0.89455757839E+02 0.  0.
         13    1    3    3    0    0  0.16030316203E+03 -0.17029927026E+03  0.10313416658E+03  0.25560829705E+03  0.00000000000E+00 0. -1.
        -13    1    3    3    0    0  0.18427564808E+03 -0.78597228531E+02  0.76362535176E+02  0.21439747103E+03  0.00000000000E+00 0.  1.
         22    1    1    2    0    0 -0.34457881010E+03  0.24889649879E+03 -0.10227459970E+04  0.11075619161E+04  0.00000000000E+00 0. -1.
<mgrwt>
<rscale>  0 0.13332856E+04</rscale>
<asrwt>0</asrwt>
<pdfrwt beam="1">  1        1 0.18621669E+00 0.13332856E+04</pdfrwt>
<pdfrwt beam="2">  1       -1 0.56486029E-01 0.13332856E+04</pdfrwt>
<totfact> 0.32638096E+01</totfact>
</mgrwt>
</event>
<event>
 6    1  0.1878398E-004  0.2533422E+04  0.7818608E-02  0.8391175E-01
         -3   -1    0    0    0  501 -0.00000000000E+00  0.00000000000E+00  0.13895454699E+04  0.13895454699E+04  0.00000000000E+00 0. -1.
          3   -1    0    0  501    0  0.00000000000E+00 -0.00000000000E+00 -0.11547347041E+04  0.11547347041E+04  0.00000000000E+00 0.  1.
         23    2    1    2    0    0  0.50369313334E+03  0.75676663966E+03 -0.76604261715E+03  0.11922039876E+04  0.90147308989E+02 0.  0.
         13    1    3    3    0    0  0.30978618624E+03  0.52718364396E+03 -0.54577962584E+03  0.81961300357E+03  0.00000000000E+00 0. -1.
        -13    1    3    3    0    0  0.19390694710E+03  0.22958299571E+03 -0.22026299132E+03  0.37259098405E+03  0.00000000000E+00 0.  1.
         22    1    1    2    0    0 -0.50369313334E+03 -0.75676663966E+03  0.10008533830E+04  0.13520761864E+04  0.00000000000E+00 0. -1.
<mgrwt>
<rscale>  0 0.25334217E+04</rscale>
<asrwt>0</asrwt>
<pdfrwt beam="1">  1        3 0.17765149E+00 0.25334217E+04</pdfrwt>
<pdfrwt beam="2">  1       -3 0.21377623E+00 0.25334217E+04</pdfrwt>
<totfact> 0.57291981E-02</totfact>
</mgrwt>
</event>
<event>
 6    1  0.1878398E-004  0.1713302E+04  0.7818608E-02  0.8753814E-01
          2   -1    0    0  501    0  0.00000000000E+00  0.00000000000E+00  0.19898610028E+04  0.19898610028E+04  0.00000000000E+00 0.  1.
         -2   -1    0    0    0  501 -0.00000000000E+00 -0.00000000000E+00 -0.36879500812E+03  0.36879500812E+03  0.00000000000E+00 0. -1.
         23    2    1    2    0    0  0.78453478142E+03  0.81066395585E+02  0.12648588964E+04  0.14932369907E+04  0.88442629850E+02 0.  0.
         11    1    3    3    0    0  0.47293732671E+03  0.92229495291E+02  0.76401112996E+03  0.90326574246E+03  0.00000000000E+00 0.  1.
        -11    1    3    3    0    0  0.31159745471E+03 -0.11163099705E+02  0.50084776642E+03  0.58997124820E+03  0.00000000000E+00 0. -1.
         22    1    1    2    0    0 -0.78453478142E+03 -0.81066395585E+02  0.35620709830E+03  0.86541902026E+03  0.00000000000E+00 0. -1.
<mgrwt>
<rscale>  0 0.17133018E+04</rscale>
<asrwt>0</asrwt>
<pdfrwt beam="1">  1        2 0.30613246E+00 0.17133018E+04</pdfrwt>
<pdfrwt beam="2">  1       -2 0.56737694E-01 0.17133018E+04</pdfrwt>
<totfact> 0.18746456E+01</totfact>
</mgrwt>
</event>
<event>
 6    1  0.1878398E-004  0.1020560E+04  0.7818608E-02  0.9286278E-01
         -1   -1    0    0    0  501 -0.00000000000E+00  0.00000000000E+00  0.67676132497E+03  0.67676132497E+03  0.00000000000E+00 0. -1.
          1   -1    0    0  501    0  0.00000000000E+00 -0.00000000000E+00 -0.38475254423E+03  0.38475254423E+03  0.00000000000E+00 0.  1.
         23    2    1    2    0    0 -0.27654421433E+03 -0.11673496796E+02 -0.29612282248E+03  0.41150482641E+03  0.70954373765E+02 0.  0.
         13    1    3    3    0    0 -0.85563258247E+02  0.22743634025E+02 -0.12229173036E+03  0.15097553234E+03  0.00000000000E+00 0. -1.
        -13    1    3    3    0    0 -0.19098095608E+03 -0.34417130821E+02 -0.17383109212E+03  0.26052929407E+03  0.00000000000E+00 0.  1.
         22    1    1    2    0    0  0.27654421433E+03  0.11673496796E+02  0.58813160322E+03  0.65000904280E+03  0.00000000000E+00 0. -1.
<mgrwt>
<rscale>  0 0.10205599E+04</rscale>
<asrwt>0</asrwt>
<pdfrwt beam="1">  1        1 0.59192699E-01 0.10205599E+04</pdfrwt>
<pdfrwt beam="2">  1       -1 0.10411713E+00 0.10205599E+04</pdfrwt>
<totfact> 0.54969551E+01</totfact>
</mgrwt>
</event>
<event>
 6    1  0.1878398E-004  0.1111677E+04  0.7818608E-02  0.9193885E-01
          2   -1    0    0  501    0  0.00000000000E+00  0.00000000000E+00  0.21502387352E+04  0.21502387352E+04  0.00000000000E+00 0. -1.
         -2   -1    0    0    0  501 -0.00000000000E+00 -0.00000000000E+00 -0.14368469761E+03  0.14368469761E+03  0.00000000000E+00 0.  1.
         23    2    1    2    0    0  0.53242912180E+03  0.70035246327E+02  0.74502564529E+03  0.92285100946E+03  0.90581830763E+02 0.  0.
         11    1    3    3    0    0  0.47177548757E+03  0.59338139882E+02  0.70137842477E+03  0.84736345227E+03  0.00000000000E+00 0. -1.
        -11    1    3    3    0    0  0.60653634234E+02  0.10697106445E+02  0.43647220519E+02  0.75487557194E+02  0.00000000000E+00 0.  1.
         22    1    1    2    0    0 -0.53242912180E+03 -0.70035246327E+02  0.12615283923E+04  0.13710724233E+04  0.00000000000E+00 0. -1.
<mgrwt>
<rscale>  0 0.11116769E+04</rscale>
<asrwt>0</asrwt>
<pdfrwt beam="1">  1        2 0.33080594E+00 0.11116769E+04</pdfrwt>
<pdfrwt beam="2">  1       -2 0.22105340E-01 0.11116769E+04</pdfrwt>
<totfact> 0.98175389E+01</totfact>
</mgrwt>
</event>
<event>
 6    1  0.1878398E-004  0.3796648E+04  0.7818608E-02  0.8046875E-01
          2   -1    0    0  501    0  0.00000000000E+00  0.00000000000E+00  0.19038129947E+04  0.19038129947E+04  0.00000000000E+00 0.  1.
         -2   -1    0    0    0  501 -0.00000000000E+00 -0.00000000000E+00 -0.18928509061E+04  0.18928509061E+04  0.00000000000E+00 0. -1.
         23    2    1    2    0    0 -0.62198933163E+03  0.15559829667E+04  0.89512301867E+03  0.19020150490E+04  0.91990796434E+02 0.  0.
         13    1    3    3    0    0 -0.27280029806E+03  0.80434710381E+03  0.46237895479E+03  0.96705147942E+03  0.00000000000E+00 0. -1.
        -13    1    3    3    0    0 -0.34918903357E+03  0.75163586294E+03  0.43274406388E+03  0.93496356958E+03  0.00000000000E+00 0.  1.
         22    1    1    2    0    0  0.62198933163E+03 -0.15559829667E+04 -0.88416093002E+03  0.18946488518E+04  0.00000000000E+00 0. -1.
<mgrwt>
<rscale>  0 0.37966481E+04</rscale>
<asrwt>0</asrwt>
<pdfrwt beam="1">  1        2 0.29289431E+00 0.37966481E+04</pdfrwt>
<pdfrwt beam="2">  1       -2 0.29120783E+00 0.37966481E+04</pdfrwt>
<totfact> 0.21802193E-01</totfact>
</mgrwt>
</event>
<event>
 6    1  0.1878398E-004  0.1819147E+04  0.7818608E-02  0.8696183E-01
          2   -1    0    0  501    0  0.00000000000E+00  0.00000000000E+00  0.25026011402E+04  0.25026011402E+04  0.00000000000E+00 0.  1.
         -2   -1    0    0    0  501 -0.00000000000E+00 -0.00000000000E+00 -0.33058570111E+03  0.33058570111E+03  0.00000000000E+00 0. -1.
         23    2    1    2    0    0 -0.21104323976E+03 -0.57450102553E+03  0.45912531245E+02  0.62074379071E+03  0.92866656024E+02 0.  0.
         13    1    3    3    0    0 -0.15419217110E+03 -0.28558965814E+03  0.20744503266E+02  0.32521840796E+03  0.00000000000E+00 0. -1.
        -13    1    3    3    0    0 -0.56851068660E+02 -0.28891136739E+03  0.25168027979E+02  0.29552538275E+03  0.00000000000E+00 0.  1.
         22    1    1    2    0    0  0.21104323976E+03  0.57450102553E+03  0.21261029078E+04  0.22124430506E+04  0.00000000000E+00 0.  1.
<mgrwt>
<rscale>  0 0.18191472E+04</rscale>
<asrwt>0</asrwt>
<pdfrwt beam="1">  1        2 0.38501555E+00 0.18191472E+04</pdfrwt>
<pdfrwt beam="2">  1       -2 0.50859340E-01 0.18191472E+04</pdfrwt>
<totfact> 0.11963711E+01</totfact>
</mgrwt>
</event>
<event>
 6    1  0.1878398E-004  0.2219178E+04  0.7818608E-02  0.8510488E-01
         -1   -1    0    0    0  501 -0.00000000000E+00  0.00000000000E+00  0.73932321621E+03  0.73932321621E+03  0.00000000000E+00 0.  1.
          1   -1    0    0  501    0  0.00000000000E+00 -0.00000000000E+00 -0.16652900944E+04  0.16652900944E+04  0.00000000000E+00 0. -1.
         23    2    1    2    0    0  0.92605084591E+03 -0.11507863239E+03 -0.11105486446E+04  0.14533595646E+04  0.90124753471E+02 0.  0.
         11    1    3    3    0    0  0.24066988537E+03 -0.64669284223E+02 -0.26535694520E+03  0.36403079322E+03  0.00000000000E+00 0. -1.
        -11    1    3    3    0    0  0.68538096054E+03 -0.50409348165E+02 -0.84519169939E+03  0.10893287714E+04  0.00000000000E+00 0.  1.
         22    1    1    2    0    0 -0.92605084591E+03  0.11507863239E+03  0.18458176639E+03  0.95125374602E+03  0.00000000000E+00 0.  1.
<mgrwt>
<rscale>  0 0.22191779E+04</rscale>
<asrwt>0</asrwt>
<pdfrwt beam="1">  1        1 0.25619847E+00 0.22191779E+04</pdfrwt>
<pdfrwt beam="2">  1       -1 0.11374203E+00 0.22191779E+04</pdfrwt>
<totfact> 0.32286173E+00</totfact>
</mgrwt>
</event>
<event>
 6    1  0.1878398E-004  0.4213768E+04  0.7818608E-02  0.7962758E-01
         -1   -1    0    0    0  501 -0.00000000000E+00  0.00000000000E+00  0.13355606289E+04  0.13355606289E+04  0.00000000000E+00 0. -1.
          1   -1    0    0  501    0  0.00000000000E+00 -0.00000000000E+00 -0.33236684874E+04  0.33236684874E+04  0.00000000000E+00 0.  1.
         23    2    1    2    0    0 -0.20169438039E+04  0.57462991911E+03 -0.78148662616E+03  0.22396843967E+04  0.84870477116E+02 0.  0.
         11    1    3    3    0    0 -0.92482934686E+03  0.30712031276E+03 -0.36872530210E+03  0.10419167701E+04  0.00000000000E+00 0. -1.
        -11    1    3    3    0    0 -0.10921144570E+04  0.26750960635E+03 -0.41276132406E+03  0.11977676266E+04  0.00000000000E+00 0.  1.
         22    1    1    2    0    0  0.20169438039E+04 -0.57462991911E+03 -0.12066212323E+04  0.24195447196E+04  0.00000000000E+00 0.  1.
<mgrwt>
<rscale>  0 0.42137683E+04</rscale>
<asrwt>0</asrwt>
<pdfrwt beam="1">  1        1 0.51133361E+00 0.42137683E+04</pdfrwt>
<pdfrwt beam="2">  1       -1 0.20547087E+00 0.42137683E+04</pdfrwt>
<totfact> 0.36328775E-02</totfact>
</mgrwt>
</event>
<event>
 6    1  0.1878398E-004  0.1933718E+04  0.7818608E-02  0.8638253E-01
          2   -1    0    0  501    0  0.00000000000E+00  0.00000000000E+00  0.20760585996E+04  0.20760585996E+04  0.00000000000E+00 0.  1.
         -2   -1    0    0    0  501 -0.00000000000E+00 -0.00000000000E+00 -0.45028398582E+03  0.45028398582E+03  0.00000000000E+00 0. -1.
         23    2    1    2    0    0 -0.71661474582E+03 -0.64444862610E+03  0.87722472229E+03  0.13060239116E+04  0.85583401740E+02 0.  0.
         13    1    3    3    0    0 -0.19560699149E+03 -0.12704610346E+03  0.20604998459E+03  0.31122243440E+03  0.00000000000E+00 0.  1.
        -13    1    3    3    0    0 -0.52100775434E+03 -0.51740252264E+03  0.67117473770E+03  0.99480147720E+03  0.00000000000E+00 0. -1.
         22    1    1    2    0    0  0.71661474582E+03  0.64444862610E+03  0.74854989150E+03  0.12203186738E+04  0.00000000000E+00 0. -1.
<mgrwt>
<rscale>  0 0.19337176E+04</rscale>
<asrwt>0</asrwt>
<pdfrwt beam="1">  1        2 0.31939362E+00 0.19337176E+04</pdfrwt>
<pdfrwt beam="2">  1       -2 0.69274461E-01 0.19337176E+04</pdfrwt>
<totfact> 0.10763333E+01</totfact>
</mgrwt>
</event>
<event>
 6    1  0.1878398E-004  0.1379373E+04  0.7818608E-02  0.8968886E-01
          2   -1    0    0  501    0  0.00000000000E+00  0.00000000000E+00  0.25270074568E+04  0.25270074568E+04  0.00000000000E+00 0.  1.
         -2   -1    0    0    0  501 -0.00000000000E+00 -0.00000000000E+00 -0.18823359599E+03  0.18823359599E+03  0.00000000000E+00 0. -1.
         23    2    1    2    0    0 -0.18975825512E+03 -0.65555986331E+03  0.10332541872E+04  0.12420986469E+04  0.97097392170E+02 0.  0.
         13    1    3    3    0    0 -0.12056630325E+03 -0.27824561369E+03  0.50903765698E+03  0.59251682781E+03  0.00000000000E+00 0. -1.
        -13    1    3    3    0    0 -0.69191951867E+02 -0.37731424963E+03  0.52421653023E+03  0.64958181913E+03  0.00000000000E+00 0.  1.
         22    1    1    2    0    0  0.18975825512E+03  0.65555986331E+03  0.13055196736E+04  0.14731424059E+04  0.00000000000E+00 0.  1.
<mgrwt>
<rscale>  0 0.13793733E+04</rscale>
<asrwt>0</asrwt>
<pdfrwt beam="1">  1        2 0.38877035E+00 0.13793733E+04</pdfrwt>
<pdfrwt beam="2">  1       -2 0.28959017E-01 0.13793733E+04</pdfrwt>
<totfact> 0.35991131E+01</totfact>
</mgrwt>
</event>
<event>
 6    1  0.1878398E-004  0.2472033E+04  0.7818608E-02  0.8413017E-01
          2   -1    0    0  501    0  0.00000000000E+00  0.00000000000E+00  0.24730454692E+04  0.24730454692E+04  0.00000000000E+00 0.  1.
         -2   -1    0    0    0  501 -0.00000000000E+00 -0.00000000000E+00 -0.61775535851E+03  0.61775535851E+03  0.00000000000E+00 0. -1.
         23    2    1    2    0    0 -0.54364013406E+03 -0.80474135515E+03 -0.23685313715E+02  0.97568809087E+03  0.90846092593E+02 0.  0.
         13    1    3    3    0    0 -0.11409651941E+03 -0.23504753419E+03 -0.22019209191E+02  0.26220260228E+03  0.00000000000E+00 0. -1.
        -13    1    3    3    0    0 -0.42954361465E+03 -0.56969382095E+03 -0.16661045246E+01  0.71348548858E+03  0.00000000000E+00 0.  1.
         22    1    1    2    0    0  0.54364013406E+03  0.80474135515E+03  0.18789754244E+04  0.21151127369E+04  0.00000000000E+00 0.  1.
<mgrwt>
<rscale>  0 0.24720332E+04</rscale>
<asrwt>0</asrwt>
<pdfrwt beam="1">  1        2 0.38046853E+00 0.24720332E+04</pdfrwt>
<pdfrwt beam="2">  1       -2 0.95039287E-01 0.24720332E+04</pdfrwt>
<totfact> 0.30030611E+00</totfact>
</mgrwt>
</event>
<event>
 6    1  0.1878398E-004  0.6219943E+04  0.7818608E-02  0.7663714E-01
          2   -1    0    0  501    0  0.00000000000E+00  0.00000000000E+00  0.48852333128E+04  0.48852333128E+04  0.00000000000E+00 0.  1.
         -2   -1    0    0    0  501 -0.00000000000E+00 -0.00000000000E+00 -0.19798284823E+04  0.19798284823E+04  0.00000000000E+00 0. -1.
         23    2    1    2    0    0 -0.23836886631E+03 -0.49553123200E+03  0.48307117743E+04  0.48627686732E+04  0.91498655143E+02 0.  0.
         13    1    3    3    0    0 -0.16063891582E+03 -0.40712877085E+03  0.39673424473E+04  0.39914113784E+04  0.00000000000E+00 0.  1.
        -13    1    3    3    0    0 -0.77729950487E+02 -0.88402461151E+02  0.86336932698E+03  0.87135729475E+03  0.00000000000E+00 0. -1.
         22    1    1    2    0    0  0.23836886631E+03  0.49553123200E+03 -0.19253069438E+04  0.20022931220E+04  0.00000000000E+00 0. -1.
<mgrwt>
<rscale>  0 0.62199434E+04</rscale>
<asrwt>0</asrwt>
<pdfrwt beam="1">  1        2 0.75157435E+00 0.62199434E+04</pdfrwt>
<pdfrwt beam="2">  1       -2 0.30458900E+00 0.62199434E+04</pdfrwt>
<totfact> 0.91704906E-04</totfact>
</mgrwt>
</event>
<event>
 6    1  0.1878398E-004  0.1723859E+04  0.7818608E-02  0.8747873E-01
         -2   -1    0    0    0  501 -0.00000000000E+00  0.00000000000E+00  0.49179426360E+03  0.49179426360E+03  0.00000000000E+00 0. -1.
          2   -1    0    0  501    0  0.00000000000E+00 -0.00000000000E+00 -0.15106360500E+04  0.15106360500E+04  0.00000000000E+00 0.  1.
         23    2    1    2    0    0  0.50529416765E+03  0.44950241270E+03 -0.11270243031E+04  0.13175375689E+04  0.91361100764E+02 0.  0.
         13    1    3    3    0    0  0.43459170463E+03  0.38642625538E+03 -0.90004986038E+03  0.10715805857E+04  0.00000000000E+00 0. -1.
        -13    1    3    3    0    0  0.70702463018E+02  0.63076157316E+02 -0.22697444276E+03  0.24595698316E+03  0.00000000000E+00 0.  1.
         22    1    1    2    0    0 -0.50529416765E+03 -0.44950241270E+03  0.10818251669E+03  0.68489274474E+03  0.00000000000E+00 0. -1.
<mgrwt>
<rscale>  0 0.17238586E+04</rscale>
<asrwt>0</asrwt>
<pdfrwt beam="1">  1        2 0.23240554E+00 0.17238586E+04</pdfrwt>
<pdfrwt beam="2">  1       -2 0.75660658E-01 0.17238586E+04</pdfrwt>
<totfact> 0.18619915E+01</totfact>
</mgrwt>
</event>
<event>
 6    1  0.1878398E-004  0.1448845E+04  0.7818608E-02  0.8919202E-01
          2   -1    0    0  501    0  0.00000000000E+00  0.00000000000E+00  0.18291242802E+04  0.18291242802E+04  0.00000000000E+00 0.  1.
         -2   -1    0    0    0  501 -0.00000000000E+00 -0.00000000000E+00 -0.28690658579E+03  0.28690658579E+03  0.00000000000E+00 0. -1.
         23    2    1    2    0    0  0.59142625260E+03  0.33756400097E+03  0.42647558007E+03  0.80889088393E+03  0.93212524351E+02 0.  0.
         13    1    3    3    0    0  0.24893611506E+03  0.92660510655E+02  0.14773850350E+03  0.30394378597E+03  0.00000000000E+00 0.  1.
        -13    1    3    3    0    0  0.34249013754E+03  0.24490349031E+03  0.27873707657E+03  0.50494709796E+03  0.00000000000E+00 0. -1.
         22    1    1    2    0    0 -0.59142625260E+03 -0.33756400097E+03  0.11157421144E+04  0.13071399821E+04  0.00000000000E+00 0.  1.
<mgrwt>
<rscale>  0 0.14488448E+04</rscale>
<asrwt>0</asrwt>
<pdfrwt beam="1">  1        2 0.28140373E+00 0.14488448E+04</pdfrwt>
<pdfrwt beam="2">  1       -2 0.44139476E-01 0.14488448E+04</pdfrwt>
<totfact> 0.39248414E+01</totfact>
</mgrwt>
</event>
<event>
 6    1  0.1878398E-004  0.2289794E+04  0.7818608E-02  0.8481956E-01
          2   -1    0    0  501    0  0.00000000000E+00  0.00000000000E+00  0.13799011104E+04  0.13799011104E+04  0.00000000000E+00 0. -1.
         -2   -1    0    0    0  501 -0.00000000000E+00 -0.00000000000E+00 -0.94991525332E+03  0.94991525332E+03  0.00000000000E+00 0.  1.
         23    2    1    2    0    0 -0.23607599795E+03 -0.68418481345E+03  0.11156906026E+04  0.13328049627E+04  0.88106823063E+02 0.  0.
         11    1    3    3    0    0 -0.17559907580E+03 -0.37521515129E+03  0.63114648718E+03  0.75496180927E+03  0.00000000000E+00 0. -1.
        -11    1    3    3    0    0 -0.60476922154E+02 -0.30896966216E+03  0.48454411540E+03  0.57784315348E+03  0.00000000000E+00 0.  1.
         22    1    1    2    0    0  0.23607599795E+03  0.68418481345E+03 -0.68570474547E+03  0.99701140100E+03  0.00000000000E+00 0.  1.
<mgrwt>
<rscale>  0 0.22897940E+04</rscale>
<asrwt>0</asrwt>
<pdfrwt beam="1">  1        2 0.21229248E+00 0.22897940E+04</pdfrwt>
<pdfrwt beam="2">  1       -2 0.14614081E+00 0.22897940E+04</pdfrwt>
<totfact> 0.43288428E+00</totfact>
</mgrwt>
</event>
<event>
 6    1  0.1878398E-004  0.1222634E+04  0.7818608E-02  0.9093273E-01
          1   -1    0    0  501    0  0.00000000000E+00  0.00000000000E+00  0.83819307118E+03  0.83819307118E+03  0.00000000000E+00 0. -1.
         -1   -1    0    0    0  501 -0.00000000000E+00 -0.00000000000E+00 -0.44585004769E+03  0.44585004769E+03  0.00000000000E+00 0.  1.
         23    2    1    2    0    0 -0.21250644623E+03 -0.34010685663E+03 -0.28240451541E+03  0.49911260929E+03  0.92354874352E+02 0.  0.
         11    1    3    3    0    0 -0.96047377041E+02 -0.22653519654E+03 -0.14110595791E+03  0.28364446983E+03  0.00000000000E+00 0.  1.
        -11    1    3    3    0    0 -0.11645906919E+03 -0.11357166009E+03 -0.14129855750E+03  0.21546813946E+03  0.00000000000E+00 0. -1.
         22    1    1    2    0    0  0.21250644623E+03  0.34010685663E+03  0.67474753890E+03  0.78493050958E+03  0.00000000000E+00 0. -1.
<mgrwt>
<rscale>  0 0.12226339E+04</rscale>
<asrwt>0</asrwt>
<pdfrwt beam="1">  1        1 0.12895278E+00 0.12226339E+04</pdfrwt>
<pdfrwt beam="2">  1       -1 0.68592315E-01 0.12226339E+04</pdfrwt>
<totfact> 0.43573666E+01</totfact>
</mgrwt>
</event>
<event>
 6    1  0.1878398E-004  0.4210803E+04  0.7818608E-02  0.7963321E-01
         -2   -1    0    0    0  501 -0.00000000000E+00  0.00000000000E+00  0.12109560634E+04  0.12109560634E+04  0.00000000000E+00 0. -1.
          2   -1    0    0  501    0  0.00000000000E+00 -0.00000000000E+00 -0.36605083581E+04  0.36605083581E+04  0.00000000000E+00 0.  1.
         23    2    1    2    0    0 -0.87941920251E+03  0.11621432017E+04 -0.29817939269E+04  0.33199373962E+04  0.83272667677E+02 0.  0.
         11    1    3    3    0    0 -0.35356881074E+03  0.41884643217E+03 -0.10578115228E+04  0.11913892964E+04  0.00000000000E+00 0. -1.
        -11    1    3    3    0    0 -0.52585039177E+03  0.74329676952E+03 -0.19239824041E+04  0.21285480999E+04  0.00000000000E+00 0.  1.
         22    1    1    2    0    0  0.87941920251E+03 -0.11621432017E+04  0.53224163225E+03  0.15515270252E+04  0.00000000000E+00 0. -1.
<mgrwt>
<rscale>  0 0.42108027E+04</rscale>
<asrwt>0</asrwt>
<pdfrwt beam="1">  1        2 0.56315514E+00 0.42108027E+04</pdfrwt>
<pdfrwt beam="2">  1       -2 0.18630093E+00 0.42108027E+04</pdfrwt>
<totfact> 0.79269784E-02</totfact>
</mgrwt>
</event>
<event>
 6    1  0.1878398E-004  0.5429799E+04  0.7818608E-02  0.7765423E-01
          1   -1    0    0  501    0  0.00000000000E+00  0.00000000000E+00  0.30278720548E+04  0.30278720548E+04  0.00000000000E+00 0. -1.
         -1   -1    0    0    0  501 -0.00000000000E+00 -0.00000000000E+00 -0.24342773813E+04  0.24342773813E+04  0.00000000000E+00 0.  1.
         23    2    1    2    0    0  0.66632615145E+03 -0.17093266172E+04 -0.17152317661E+04  0.25131720621E+04  0.90696072840E+02 0.  0.
         13    1    3    3    0    0  0.61794587323E+02 -0.19321780610E+03 -0.22585408998E+03  0.30358155671E+03  0.00000000000E+00 0. -1.
        -13    1    3    3    0    0  0.60453156413E+03 -0.15161088111E+04 -0.14893776762E+04  0.22095905054E+04  0.00000000000E+00 0.  1.
         22    1    1    2    0    0 -0.66632615145E+03  0.17093266172E+04  0.23088264396E+04  0.29489773740E+04  0.00000000000E+00 0. -1.
<mgrwt>
<rscale>  0 0.54297994E+04</rscale>
<asrwt>0</asrwt>
<pdfrwt beam="1">  1        1 0.46582647E+00 0.54297994E+04</pdfrwt>
<pdfrwt beam="2">  1       -1 0.37450421E+00 0.54297994E+04</pdfrwt>
<totfact> 0.42426701E-03</totfact>
</mgrwt>
</event>
<event>
 6    1  0.1878398E-004  0.2839432E+04  0.7818608E-02  0.8291130E-01
          2   -1    0    0  501    0  0.00000000000E+00  0.00000000000E+00  0.22739369395E+04  0.22739369395E+04  0.00000000000E+00 0.  1.
         -2   -1    0    0    0  501 -0.00000000000E+00 -0.00000000000E+00 -0.88638913978E+03  0.88638913978E+03  0.00000000000E+00 0. -1.
         23    2    1    2    0    0 -0.10275168403E+04  0.46481351329E+03  0.16512506857E+04  0.20021457516E+04  0.10057994105E+03 0.  0.
         13    1    3    3    0    0 -0.80338553246E+03  0.40596178750E+03  0.13337237086E+04  0.16090532053E+04  0.00000000000E+00 0. -1.
        -13    1    3    3    0    0 -0.22413130785E+03  0.58851725787E+02  0.31752697710E+03  0.39309254632E+03  0.00000000000E+00 0.  1.
         22    1    1    2    0    0  0.10275168403E+04 -0.46481351329E+03 -0.26370288598E+03  0.11581803276E+04  0.00000000000E+00 0. -1.
<mgrwt>
<rscale>  0 0.28394316E+04</rscale>
<asrwt>0</asrwt>
<pdfrwt beam="1">  1        2 0.34983645E+00 0.28394316E+04</pdfrwt>
<pdfrwt beam="2">  1       -2 0.13636756E+00 0.28394316E+04</pdfrwt>
<totfact> 0.15639921E+00</totfact>
</mgrwt>
</event>
<event>
 6    1  0.1878398E-004  0.2027923E+04  0.7818608E-02  0.8593676E-01
         -2   -1    0    0    0  501 -0.00000000000E+00  0.00000000000E+00  0.25411704855E+03  0.25411704855E+03  0.00000000000E+00 0. -1.
          2   -1    0    0  501    0  0.00000000000E+00 -0.00000000000E+00 -0.40458420484E+04  0.40458420484E+04  0.00000000000E+00 0.  1.
         23    2    1    2    0    0  0.82190160476E+03 -0.30933508863E+03 -0.29654474172E+04  0.30941626429E+04  0.93560845130E+02 0.  0.
         13    1    3    3    0    0  0.48089589580E+03 -0.14131946887E+03 -0.17827088313E+04  0.18518322905E+04  0.00000000000E+00 0. -1.
        -13    1    3    3    0    0  0.34100570896E+03 -0.16801561976E+03 -0.11827385859E+04  0.12423303524E+04  0.00000000000E+00 0.  1.
         22    1    1    2    0    0 -0.82190160476E+03  0.30933508863E+03 -0.82627758267E+03  0.12057964540E+04  0.00000000000E+00 0. -1.
<mgrwt>
<rscale>  0 0.20279225E+04</rscale>
<asrwt>0</asrwt>
<pdfrwt beam="1">  1        2 0.62243720E+00 0.20279225E+04</pdfrwt>
<pdfrwt beam="2">  1       -2 0.39094933E-01 0.20279225E+04</pdfrwt>
<totfact> 0.18186314E+00</totfact>
</mgrwt>
</event>
<event>
 6    1  0.1878398E-004  0.1411564E+04  0.7818608E-02  0.8945490E-01
          2   -1    0    0  501    0  0.00000000000E+00  0.00000000000E+00  0.23241677009E+04  0.23241677009E+04  0.00000000000E+00 0.  1.
         -2   -1    0    0    0  501 -0.00000000000E+00 -0.00000000000E+00 -0.21432548327E+03  0.21432548327E+03  0.00000000000E+00 0. -1.
         23    2    1    2    0    0  0.22171829155E+03 -0.43833193055E+03  0.19633414374E+04  0.20258955245E+04  0.90825074137E+02 0.  0.
         11    1    3    3    0    0  0.78100858087E+02 -0.17399747016E+03  0.59273696614E+03  0.62266521879E+03  0.00000000000E+00 0. -1.
        -11    1    3    3    0    0  0.14361743347E+03 -0.26433446039E+03  0.13706044713E+04  0.14032303057E+04  0.00000000000E+00 0.  1.
         22    1    1    2    0    0 -0.22171829155E+03  0.43833193055E+03  0.14650078026E+03  0.51259765973E+03  0.00000000000E+00 0. -1.
<mgrwt>
<rscale>  0 0.14115642E+04</rscale>
<asrwt>0</asrwt>
<pdfrwt beam="1">  1        2 0.35756424E+00 0.14115642E+04</pdfrwt>
<pdfrwt beam="2">  1       -2 0.32973153E-01 0.14115642E+04</pdfrwt>
<totfact> 0.36747571E+01</totfact>
</mgrwt>
</event>
<event>
 6    1  0.1878398E-004  0.1679223E+04  0.7818608E-02  0.8773304E-01
         -2   -1    0    0    0  501 -0.00000000000E+00  0.00000000000E+00  0.11845213747E+04  0.11845213747E+04  0.00000000000E+00 0. -1.
          2   -1    0    0  501    0  0.00000000000E+00 -0.00000000000E+00 -0.59513250777E+03  0.59513250777E+03  0.00000000000E+00 0.  1.
         23    2    1    2    0    0 -0.47604662505E+03 -0.64465196910E+03  0.38226814314E+02  0.80704082542E+03  0.87504594629E+02 0.  0.
         11    1    3    3    0    0 -0.36122909059E+03 -0.52893777617E+03  0.42754409152E+01  0.64053095658E+03  0.00000000000E+00 0.  1.
        -11    1    3    3    0    0 -0.11481753446E+03 -0.11571419293E+03  0.33951373399E+02  0.16650986884E+03  0.00000000000E+00 0. -1.
         22    1    1    2    0    0  0.47604662505E+03  0.64465196910E+03  0.55116205263E+03  0.97261305705E+03  0.00000000000E+00 0. -1.
<mgrwt>
<rscale>  0 0.16792226E+04</rscale>
<asrwt>0</asrwt>
<pdfrwt beam="1">  1        2 0.91558847E-01 0.16792226E+04</pdfrwt>
<pdfrwt beam="2">  1       -2 0.18223406E+00 0.16792226E+04</pdfrwt>
<totfact> 0.83470734E+00</totfact>
</mgrwt>
</event>
<event>
 6    1  0.1952566E-004  0.2401097E+04  0.7818608E-02  0.8439093E-01
          1   -1    0    0  501    0  0.00000000000E+00  0.00000000000E+00  0.21851724142E+04  0.21851724142E+04  0.00000000000E+00 0.  1.
         -1   -1    0    0    0  501 -0.00000000000E+00 -0.00000000000E+00 -0.65958963092E+03  0.65958963092E+03  0.00000000000E+00 0. -1.
         23    2    1    2    0    0  0.57617387165E+03 -0.74549303104E+01 -0.48164697961E+03  0.75646052778E+03  0.90646625772E+02 0.  0.
         13    1    3    3    0    0  0.42346482964E+03 -0.21534631926E+02 -0.30373564949E+03  0.52157602234E+03  0.00000000000E+00 0. -1.
        -13    1    3    3    0    0  0.15270904201E+03  0.14079701616E+02 -0.17791133011E+03  0.23488450543E+03  0.00000000000E+00 0.  1.
         22    1    1    2    0    0 -0.57617387165E+03  0.74549303104E+01  0.20072297629E+04  0.20883015173E+04  0.00000000000E+00 0.  1.
<mgrwt>
<rscale>  0 0.24010973E+04</rscale>
<asrwt>0</asrwt>
<pdfrwt beam="1">  1        1 0.33618037E+00 0.24010973E+04</pdfrwt>
<pdfrwt beam="2">  1       -1 0.10147533E+00 0.24010973E+04</pdfrwt>
<totfact> 0.18408314E+00</totfact>
</mgrwt>
</event>
<event>
 6    1  0.1878398E-004  0.2299515E+04  0.7818608E-02  0.8478113E-01
         -1   -1    0    0    0  501 -0.00000000000E+00  0.00000000000E+00  0.86184020165E+03  0.86184020165E+03  0.00000000000E+00 0. -1.
          1   -1    0    0  501    0  0.00000000000E+00 -0.00000000000E+00 -0.15338595678E+04  0.15338595678E+04  0.00000000000E+00 0.  1.
         23    2    1    2    0    0  0.27360251800E+03  0.42304279309E+02  0.82402412379E+03  0.87425502392E+03  0.93048913788E+02 0.  0.
         11    1    3    3    0    0  0.69402048245E+02  0.53379090558E+02  0.25123955493E+03  0.26605880097E+03  0.00000000000E+00 0. -1.
        -11    1    3    3    0    0  0.20420046975E+03 -0.11074811249E+02  0.57278456886E+03  0.60819622295E+03  0.00000000000E+00 0.  1.
         22    1    1    2    0    0 -0.27360251800E+03 -0.42304279309E+02 -0.14960434899E+04  0.15214447455E+04  0.00000000000E+00 0.  1.
<mgrwt>
<rscale>  0 0.22995146E+04</rscale>
<asrwt>0</asrwt>
<pdfrwt beam="1">  1        1 0.23597839E+00 0.22995146E+04</pdfrwt>
<pdfrwt beam="2">  1       -1 0.13259080E+00 0.22995146E+04</pdfrwt>
<totfact> 0.27023321E+00</totfact>
</mgrwt>
</event>
<event>
 6    1  0.1878398E-004  0.3269257E+04  0.7818608E-02  0.8170762E-01
         -1   -1    0    0    0  501 -0.00000000000E+00  0.00000000000E+00  0.87281380057E+03  0.87281380057E+03  0.00000000000E+00 0. -1.
          1   -1    0    0  501    0  0.00000000000E+00 -0.00000000000E+00 -0.30613743205E+04  0.30613743205E+04  0.00000000000E+00 0.  1.
         23    2    1    2    0    0  0.49970244860E+03 -0.91091462085E+03  0.42152761722E+03  0.11249127577E+04  0.90968108261E+02 0.  0.
         13    1    3    3    0    0  0.10922240591E+03 -0.13240012382E+03  0.58545823531E+02  0.18134756738E+03  0.00000000000E+00 0. -1.
        -13    1    3    3    0    0  0.39048004269E+03 -0.77851449702E+03  0.36298179369E+03  0.94356519031E+03  0.00000000000E+00 0.  1.
         22    1    1    2    0    0 -0.49970244860E+03  0.91091462085E+03 -0.26100881372E+04  0.28092753634E+04  0.00000000000E+00 0.  1.
<mgrwt>
<rscale>  0 0.32692566E+04</rscale>
<asrwt>0</asrwt>
<pdfrwt beam="1">  1        1 0.47098067E+00 0.32692566E+04</pdfrwt>
<pdfrwt beam="2">  1       -1 0.13427904E+00 0.32692566E+04</pdfrwt>
<totfact> 0.20914411E-01</totfact>
</mgrwt>
</event>
<event>
 6    1  0.1878398E-004  0.1013337E+04  0.7818608E-02  0.9294037E-01
          2   -1    0    0  501    0  0.00000000000E+00  0.00000000000E+00  0.74000720499E+03  0.74000720499E+03  0.00000000000E+00 0.  1.
         -2   -1    0    0    0  501 -0.00000000000E+00 -0.00000000000E+00 -0.34690593967E+03  0.34690593967E+03  0.00000000000E+00 0. -1.
         23    2    1    2    0    0 -0.61675070095E+02 -0.49230612817E+03  0.28169138982E+03  0.57840424753E+03  0.95038394138E+02 0.  0.
         11    1    3    3    0    0 -0.28380973397E+02 -0.33500323521E+03  0.14034170888E+03  0.36431914924E+03  0.00000000000E+00 0. -1.
        -11    1    3    3    0    0 -0.33294096698E+02 -0.15730289296E+03  0.14134968094E+03  0.21408509829E+03  0.00000000000E+00 0.  1.
         22    1    1    2    0    0  0.61675070095E+02  0.49230612817E+03  0.11140987550E+03  0.50850889713E+03  0.00000000000E+00 0. -1.
<mgrwt>
<rscale>  0 0.10133369E+04</rscale>
<asrwt>0</asrwt>
<pdfrwt beam="1">  1        2 0.11384726E+00 0.10133369E+04</pdfrwt>
<pdfrwt beam="2">  1       -2 0.53370145E-01 0.10133369E+04</pdfrwt>
<totfact> 0.12601166E+02</totfact>
</mgrwt>
</event>
<event>
 6    1  0.1878398E-004  0.7403396E+03  0.7818608E-02  0.9650629E-01
          2   -1    0    0  501    0  0.00000000000E+00  0.00000000000E+00  0.19973324486E+03  0.19973324486E+03  0.00000000000E+00 0.  1.
         -2   -1    0    0    0  501 -0.00000000000E+00 -0.00000000000E+00 -0.68604351185E+03  0.68604351185E+03  0.00000000000E+00 0. -1.
         23    2    1    2    0    0  0.26802000727E+03  0.49487914874E+02  0.42615000070E+02  0.29075934844E+03  0.91875907913E+02 0.  0.
         13    1    3    3    0    0  0.25473568945E+03  0.41476796326E+02  0.62489206192E+02  0.26554754189E+03  0.00000000000E+00 0. -1.
        -13    1    3    3    0    0  0.13284317824E+02  0.80111185479E+01 -0.19874206122E+02  0.25211806548E+02  0.00000000000E+00 0.  1.
         22    1    1    2    0    0 -0.26802000727E+03 -0.49487914874E+02 -0.52892526706E+03  0.59501740827E+03  0.00000000000E+00 0. -1.
<mgrwt>
<rscale>  0 0.74033964E+03</rscale>
<asrwt>0</asrwt>
<pdfrwt beam="1">  1        2 0.30728192E-01 0.74033964E+03</pdfrwt>
<pdfrwt beam="2">  1       -2 0.10554516E+00 0.74033964E+03</pdfrwt>
<totfact> 0.12691253E+02</totfact>
</mgrwt>
</event>
<event>
 6    1  0.1968710E-004  0.2507823E+04  0.7818608E-02  0.8400204E-01
          2   -1    0    0  501    0  0.00000000000E+00  0.00000000000E+00  0.20201531495E+04  0.20201531495E+04  0.00000000000E+00 0.  1.
         -2   -1    0    0    0  501 -0.00000000000E+00 -0.00000000000E+00 -0.77830457521E+03  0.77830457521E+03  0.00000000000E+00 0. -1.
         23    2    1    2    0    0  0.85416655850E+03 -0.35472774106E+03 -0.32163947985E+03  0.98188755667E+03  0.72242224576E+02 0.  0.
         13    1    3    3    0    0  0.41705533269E+03 -0.14084368534E+03 -0.17417040619E+03  0.47339985701E+03  0.00000000000E+00 0. -1.
        -13    1    3    3    0    0  0.43711122581E+03 -0.21388405572E+03 -0.14746907365E+03  0.50848769966E+03  0.00000000000E+00 0.  1.
         22    1    1    2    0    0 -0.85416655850E+03  0.35472774106E+03  0.15634880541E+04  0.18165701680E+04  0.00000000000E+00 0.  1.
<mgrwt>
<rscale>  0 0.25078233E+04</rscale>
<asrwt>0</asrwt>
<pdfrwt beam="1">  1        2 0.31079279E+00 0.25078233E+04</pdfrwt>
<pdfrwt beam="2">  1       -2 0.11973917E+00 0.25078233E+04</pdfrwt>
<totfact> 0.30981628E+00</totfact>
</mgrwt>
</event>
<event>
 6    1  0.1878398E-004  0.3112794E+04  0.7818608E-02  0.8212235E-01
          1   -1    0    0  501    0  0.00000000000E+00  0.00000000000E+00  0.22347007953E+04  0.22347007953E+04  0.00000000000E+00 0.  1.
         -1   -1    0    0    0  501 -0.00000000000E+00 -0.00000000000E+00 -0.10839804731E+04  0.10839804731E+04  0.00000000000E+00 0. -1.
         23    2    1    2    0    0  0.89367674726E+03 -0.98902415340E+03  0.14297818490E+04  0.19568067365E+04  0.89384359981E+02 0.  0.
         13    1    3    3    0    0  0.25780410931E+03 -0.22803814133E+03  0.35788885971E+03  0.49653679479E+03  0.00000000000E+00 0.  1.
        -13    1    3    3    0    0  0.63587263794E+03 -0.76098601207E+03  0.10718929893E+04  0.14602699417E+04  0.00000000000E+00 0. -1.
         22    1    1    2    0    0 -0.89367674726E+03  0.98902415340E+03 -0.27906152680E+03  0.13618745318E+04  0.00000000000E+00 0.  1.
<mgrwt>
<rscale>  0 0.31127943E+04</rscale>
<asrwt>0</asrwt>
<pdfrwt beam="1">  1        1 0.34380012E+00 0.31127943E+04</pdfrwt>
<pdfrwt beam="2">  1       -1 0.16676623E+00 0.31127943E+04</pdfrwt>
<totfact> 0.45201081E-01</totfact>
</mgrwt>
</event>
<event>
 6    1  0.1878398E-004  0.9380671E+03  0.7818608E-02  0.9379208E-01
          1   -1    0    0  501    0  0.00000000000E+00  0.00000000000E+00  0.35319704208E+03  0.35319704208E+03  0.00000000000E+00 0.  1.
         -1   -1    0    0    0  501 -0.00000000000E+00 -0.00000000000E+00 -0.62286043027E+03  0.62286043027E+03  0.00000000000E+00 0. -1.
         23    2    1    2    0    0  0.24285212197E+03  0.60755645155E+02  0.27126389639E+03  0.38001156073E+03  0.90312143351E+02 0.  0.
         11    1    3    3    0    0  0.39333796253E+02  0.12941252019E+02  0.10509138476E+03  0.11295495865E+03  0.00000000000E+00 0. -1.
        -11    1    3    3    0    0  0.20351832572E+03  0.47814393136E+02  0.16617251163E+03  0.26705660208E+03  0.00000000000E+00 0.  1.
         22    1    1    2    0    0 -0.24285212197E+03 -0.60755645155E+02 -0.54092728458E+03  0.59604591162E+03  0.00000000000E+00 0. -1.
<mgrwt>
<rscale>  0 0.93806708E+03</rscale>
<asrwt>0</asrwt>
<pdfrwt beam="1">  1        1 0.54338006E-01 0.93806708E+03</pdfrwt>
<pdfrwt beam="2">  1       -1 0.95824682E-01 0.93806708E+03</pdfrwt>
<totfact> 0.74803748E+01</totfact>
</mgrwt>
</event>
<event>
 6    1  0.1878398E-004  0.4064956E+04  0.7818608E-02  0.7991570E-01
          2   -1    0    0  501    0  0.00000000000E+00  0.00000000000E+00  0.25166423942E+04  0.25166423942E+04  0.00000000000E+00 0.  1.
         -2   -1    0    0    0  501 -0.00000000000E+00 -0.00000000000E+00 -0.16414598364E+04  0.16414598364E+04  0.00000000000E+00 0. -1.
         23    2    1    2    0    0 -0.64626690715E+03 -0.24821294677E+03  0.23914414084E+04  0.24912754598E+04  0.90503175618E+02 0.  0.
         11    1    3    3    0    0 -0.23644744221E+03 -0.61800341692E+02  0.72479631665E+03  0.76488978016E+03  0.00000000000E+00 0.  1.
        -11    1    3    3    0    0 -0.40981946494E+03 -0.18641260508E+03  0.16666450917E+04  0.17263856796E+04  0.00000000000E+00 0. -1.
         22    1    1    2    0    0  0.64626690715E+03  0.24821294677E+03 -0.15162588506E+04  0.16668267709E+04  0.00000000000E+00 0. -1.
<mgrwt>
<rscale>  0 0.40649563E+04</rscale>
<asrwt>0</asrwt>
<pdfrwt beam="1">  1        2 0.38717575E+00 0.40649563E+04</pdfrwt>
<pdfrwt beam="2">  1       -2 0.25253228E+00 0.40649563E+04</pdfrwt>
<totfact> 0.16564115E-01</totfact>
</mgrwt>
</event>
<event>
 6    1  0.1878398E-004  0.1462164E+04  0.7818608E-02  0.8910011E-01
          2   -1    0    0  501    0  0.00000000000E+00  0.00000000000E+00  0.69717952344E+03  0.69717952344E+03  0.00000000000E+00 0.  1.
         -2   -1    0    0    0  501 -0.00000000000E+00 -0.00000000000E+00 -0.76663286698E+03  0.76663286698E+03  0.00000000000E+00 0. -1.
         23    2    1    2    0    0 -0.46888746453E+03 -0.40552598107E+03  0.35015933389E+03  0.71522600611E+03  0.68043405180E+02 0.  0.
         11    1    3    3    0    0 -0.24333556319E+03 -0.19962486103E+03  0.21555310500E+03  0.38147794501E+03  0.00000000000E+00 0. -1.
        -11    1    3    3    0    0 -0.22555190133E+03 -0.20590112004E+03  0.13460622890E+03  0.33374806110E+03  0.00000000000E+00 0.  1.
         22    1    1    2    0    0  0.46888746453E+03  0.40552598107E+03 -0.41961267743E+03  0.74858638431E+03  0.00000000000E+00 0. -1.
<mgrwt>
<rscale>  0 0.14621638E+04</rscale>
<asrwt>0</asrwt>
<pdfrwt beam="1">  1        2 0.10725839E+00 0.14621638E+04</pdfrwt>
<pdfrwt beam="2">  1       -2 0.11794352E+00 0.14621638E+04</pdfrwt>
<totfact> 0.22113793E+01</totfact>
</mgrwt>
</event>
<event>
 6    1  0.1878398E-004  0.2564380E+04  0.7818608E-02  0.8380402E-01
         -2   -1    0    0    0  501 -0.00000000000E+00  0.00000000000E+00  0.48260509788E+03  0.48260509788E+03  0.00000000000E+00 0. -1.
          2   -1    0    0  501    0  0.00000000000E+00 -0.00000000000E+00 -0.34065358695E+04  0.34065358695E+04  0.00000000000E+00 0.  1.
         23    2    1    2    0    0  0.23321073412E+03 -0.88560751453E+03 -0.28201532950E+04  0.29674806824E+04  0.11827542832E+03 0.  0.
         13    1    3    3    0    0  0.14643430687E+02 -0.23872966114E+03 -0.80586880264E+03  0.84061335240E+03  0.00000000000E+00 0.  1.
        -13    1    3    3    0    0  0.21856730343E+03 -0.64687785339E+03 -0.20142844923E+04  0.21268673300E+04  0.00000000000E+00 0. -1.
         22    1    1    2    0    0 -0.23321073412E+03  0.88560751453E+03 -0.10377747667E+03  0.92166028501E+03  0.00000000000E+00 0. -1.
<mgrwt>
<rscale>  0 0.25643803E+04</rscale>
<asrwt>0</asrwt>
<pdfrwt beam="1">  1        2 0.52408245E+00 0.25643803E+04</pdfrwt>
<pdfrwt beam="2">  1       -2 0.74246937E-01 0.25643803E+04</pdfrwt>
<totfact> 0.13679624E+00</totfact>
</mgrwt>
</event>
<event>
 6    1  0.1878398E-004  0.1261067E+04  0.7818608E-02  0.9061022E-01
          1   -1    0    0  501    0  0.00000000000E+00  0.00000000000E+00  0.22384765717E+03  0.22384765717E+03  0.00000000000E+00 0. -1.
         -1   -1    0    0    0  501 -0.00000000000E+00 -0.00000000000E+00 -0.17760850247E+04  0.17760850247E+04  0.00000000000E+00 0.  1.
         23    2    1    2    0    0  0.17661968093E+03 -0.48542229906E+03 -0.13445627211E+04  0.14431938931E+04  0.90168631220E+02 0.  0.
         13    1    3    3    0    0  0.92562536262E+02 -0.20219349488E+03 -0.46715809377E+03  0.51738449636E+03  0.00000000000E+00 0.  1.
        -13    1    3    3    0    0  0.84057144669E+02 -0.28322880418E+03 -0.87740462733E+03  0.92580939677E+03  0.00000000000E+00 0. -1.
         22    1    1    2    0    0 -0.17661968093E+03  0.48542229906E+03 -0.20767464642E+03  0.55673878874E+03  0.00000000000E+00 0. -1.
<mgrwt>
<rscale>  0 0.12610670E+04</rscale>
<asrwt>0</asrwt>
<pdfrwt beam="1">  1        1 0.34438100E-01 0.12610670E+04</pdfrwt>
<pdfrwt beam="2">  1       -1 0.27324386E+00 0.12610670E+04</pdfrwt>
<totfact> 0.62504509E+00</totfact>
</mgrwt>
</event>
<event>
 6    1  0.1878398E-004  0.9875965E+03  0.7818608E-02  0.9322254E-01
          2   -1    0    0  501    0  0.00000000000E+00  0.00000000000E+00  0.98809004637E+03  0.98809004637E+03  0.00000000000E+00 0. -1.
         -2   -1    0    0    0  501 -0.00000000000E+00 -0.00000000000E+00 -0.24677579941E+03  0.24677579941E+03  0.00000000000E+00 0.  1.
         23    2    1    2    0    0 -0.62252503789E+02 -0.13293090045E+02  0.98071673543E+03  0.98714497069E+03  0.92724309239E+02 0.  0.
         13    1    3    3    0    0 -0.63199964570E+02  0.26657759613E+02  0.73571141418E+03  0.73890199392E+03  0.00000000000E+00 0.  1.
        -13    1    3    3    0    0  0.94746078111E+00 -0.39950849657E+02  0.24500532125E+03  0.24824297676E+03  0.00000000000E+00 0. -1.
         22    1    1    2    0    0  0.62252503789E+02  0.13293090045E+02 -0.23940248847E+03  0.24772087509E+03  0.00000000000E+00 0.  1.
<mgrwt>
<rscale>  0 0.98759650E+03</rscale>
<asrwt>0</asrwt>
<pdfrwt beam="1">  1        2 0.15201385E+00 0.98759650E+03</pdfrwt>
<pdfrwt beam="2">  1       -2 0.37965508E-01 0.98759650E+03</pdfrwt>
<totfact> 0.16754997E+02</totfact>
</mgrwt>
</event>
<event>
 6    1  0.1878398E-004  0.1119206E+04  0.7818608E-02  0.9186672E-01
          2   -1    0    0  501    0  0.00000000000E+00  0.00000000000E+00  0.25523977241E+04  0.25523977241E+04  0.00000000000E+00 0.  1.
         -2   -1    0    0    0  501 -0.00000000000E+00 -0.00000000000E+00 -0.12269065840E+03  0.12269065840E+03  0.00000000000E+00 0. -1.
         23    2    1    2    0    0  0.40071888184E+03 -0.23586562040E+03  0.49498584230E+03  0.68527572162E+03  0.91562096008E+02 0.  0.
         11    1    3    3    0    0  0.22553333187E+03 -0.11556356749E+03  0.33087076819E+03  0.41676814557E+03  0.00000000000E+00 0.  1.
        -11    1    3    3    0    0  0.17518554997E+03 -0.12030205291E+03  0.16411507411E+03  0.26850757606E+03  0.00000000000E+00 0. -1.
         22    1    1    2    0    0 -0.40071888184E+03  0.23586562040E+03  0.19347212234E+04  0.19898126609E+04  0.00000000000E+00 0.  1.
<mgrwt>
<rscale>  0 0.11192057E+04</rscale>
<asrwt>0</asrwt>
<pdfrwt beam="1">  1        2 0.39267653E+00 0.11192057E+04</pdfrwt>
<pdfrwt beam="2">  1       -2 0.18875488E-01 0.11192057E+04</pdfrwt>
<totfact> 0.76828105E+01</totfact>
</mgrwt>
</event>
<event>
 6    1  0.2117967E-004  0.4341046E+04  0.7818608E-02  0.7939072E-01
          2   -1    0    0  501    0  0.00000000000E+00  0.00000000000E+00  0.26690441731E+04  0.26690441731E+04  0.00000000000E+00 0.  1.
         -2   -1    0    0    0  501 -0.00000000000E+00 -0.00000000000E+00 -0.17651150730E+04  0.17651150730E+04  0.00000000000E+00 0. -1.
         23    2    1    2    0    0  0.20271864930E+04 -0.73315007209E+03  0.70267277858E+03  0.22690961495E+04  0.89745175042E+02 0.  0.
         11    1    3    3    0    0  0.12029014590E+04 -0.39532345918E+03  0.38761263112E+03  0.13241964013E+04  0.00000000000E+00 0.  1.
        -11    1    3    3    0    0  0.82428503400E+03 -0.33782661290E+03  0.31506014745E+03  0.94489974822E+03  0.00000000000E+00 0. -1.
         22    1    1    2    0    0 -0.20271864930E+04  0.73315007209E+03  0.20125632151E+03  0.21650630966E+04  0.00000000000E+00 0. -1.
<mgrwt>
<rscale>  0 0.43410460E+04</rscale>
<asrwt>0</asrwt>
<pdfrwt beam="1">  1        2 0.41062218E+00 0.43410460E+04</pdfrwt>
<pdfrwt beam="2">  1       -2 0.27155616E+00 0.43410460E+04</pdfrwt>
<totfact> 0.10081666E-01</totfact>
</mgrwt>
</event>
<event>
 6    1  0.1878398E-004  0.1173310E+04  0.7818608E-02  0.9136544E-01
         -4   -1    0    0    0  501 -0.00000000000E+00  0.00000000000E+00  0.12523125575E+04  0.12523125575E+04  0.00000000000E+00 0. -1.
          4   -1    0    0  501    0  0.00000000000E+00 -0.00000000000E+00 -0.27482302092E+03  0.27482302092E+03  0.00000000000E+00 0.  1.
         23    2    1    2    0    0 -0.47895515898E+03  0.13166272353E+03  0.94193475652E+02  0.51375260622E+03  0.91302861166E+02 0.  0.
         11    1    3    3    0    0 -0.39251239978E+03  0.74788485416E+02  0.56120598220E+02  0.40349575348E+03  0.00000000000E+00 0. -1.
        -11    1    3    3    0    0 -0.86442759205E+02  0.56874238118E+02  0.38072877432E+02  0.11025685274E+03  0.00000000000E+00 0.  1.
         22    1    1    2    0    0  0.47895515898E+03 -0.13166272353E+03  0.88329606091E+03  0.10133829722E+04  0.00000000000E+00 0. -1.
<mgrwt>
<rscale>  0 0.11733104E+04</rscale>
<asrwt>0</asrwt>
<pdfrwt beam="1">  1        4 0.42280465E-01 0.11733104E+04</pdfrwt>
<pdfrwt beam="2">  1       -4 0.19266347E+00 0.11733104E+04</pdfrwt>
<totfact> 0.15848031E+00</totfact>
</mgrwt>
</event>
<event>
 6    1  0.1878398E-004  0.3836219E+03  0.7818608E-02  0.1049603E+00
         -2   -1    0    0    0  501 -0.00000000000E+00  0.00000000000E+00  0.20895383805E+02  0.20895383805E+02  0.00000000000E+00 0. -1.
          2   -1    0    0  501    0  0.00000000000E+00 -0.00000000000E+00 -0.17607451092E+04  0.17607451092E+04  0.00000000000E+00 0.  1.
         23    2    1    2    0    0  0.93618227513E+02  0.95191659296E+02 -0.14846147440E+04  0.14935941074E+04  0.94427724161E+02 0.  0.
         11    1    3    3    0    0  0.10613486736E+03  0.74141544459E+02 -0.99786755918E+03  0.10062312082E+04  0.00000000000E+00 0.  1.
        -11    1    3    3    0    0 -0.12516639849E+02  0.21050114837E+02 -0.48674718479E+03  0.48736289919E+03  0.00000000000E+00 0. -1.
         22    1    1    2    0    0 -0.93618227513E+02 -0.95191659296E+02 -0.25523498140E+03  0.28804638559E+03  0.00000000000E+00 0. -1.
<mgrwt>
<rscale>  0 0.38362192E+03</rscale>
<asrwt>0</asrwt>
<pdfrwt beam="1">  1        2 0.27088387E+00 0.38362192E+03</pdfrwt>
<pdfrwt beam="2">  1       -2 0.32146743E-02 0.38362192E+03</pdfrwt>
<totfact> 0.37869826E+03</totfact>
</mgrwt>
</event>
<event>
 6    1  0.1878398E-004  0.2118187E+04  0.7818608E-02  0.8553274E-01
         -2   -1    0    0    0  501 -0.00000000000E+00  0.00000000000E+00  0.38249171241E+03  0.38249171241E+03  0.00000000000E+00 0. -1.
          2   -1    0    0  501    0  0.00000000000E+00 -0.00000000000E+00 -0.29325567231E+04  0.29325567231E+04  0.00000000000E+00 0.  1.
         23    2    1    2    0    0  0.20189652972E+03 -0.22962237061E+02 -0.29009986429E+04  0.29095316205E+04  0.91058505843E+02 0.  0.
         11    1    3    3    0    0  0.28939491304E+02 -0.35352516805E+02 -0.84479417368E+03  0.84602865819E+03  0.00000000000E+00 0. -1.
        -11    1    3    3    0    0  0.17295703842E+03  0.12390279744E+02 -0.20562044692E+04  0.20635029623E+04  0.00000000000E+00 0.  1.
         22    1    1    2    0    0 -0.20189652972E+03  0.22962237061E+02  0.35093363221E+03  0.40551681501E+03  0.00000000000E+00 0. -1.
<mgrwt>
<rscale>  0 0.21181866E+04</rscale>
<asrwt>0</asrwt>
<pdfrwt beam="1">  1        2 0.45116256E+00 0.21181866E+04</pdfrwt>
<pdfrwt beam="2">  1       -2 0.58844881E-01 0.21181866E+04</pdfrwt>
<totfact> 0.47698322E+00</totfact>
</mgrwt>
</event>
<event>
 6    1  0.1878398E-004  0.1010414E+04  0.7818608E-02  0.9297196E-01
         -1   -1    0    0    0  501 -0.00000000000E+00  0.00000000000E+00  0.19264390880E+04  0.19264390880E+04  0.00000000000E+00 0. -1.
          1   -1    0    0  501    0  0.00000000000E+00 -0.00000000000E+00 -0.13249021534E+03  0.13249021534E+03  0.00000000000E+00 0.  1.
         23    2    1    2    0    0 -0.31941880078E+02  0.14233025535E+03  0.18811111565E+04  0.18890015275E+04  0.92029357299E+02 0.  0.
         13    1    3    3    0    0 -0.12641801818E+02  0.92276473242E+02  0.16066121559E+04  0.16093095979E+04  0.00000000000E+00 0.  1.
        -13    1    3    3    0    0 -0.19300078260E+02  0.50053782105E+02  0.27449900062E+03  0.27969192957E+03  0.00000000000E+00 0. -1.
         22    1    1    2    0    0  0.31941880078E+02 -0.14233025535E+03 -0.87162283799E+02  0.16992777585E+03  0.00000000000E+00 0.  1.
<mgrwt>
<rscale>  0 0.10104144E+04</rscale>
<asrwt>0</asrwt>
<pdfrwt beam="1">  1        1 0.20383111E-01 0.10104144E+04</pdfrwt>
<pdfrwt beam="2">  1       -1 0.29637522E+00 0.10104144E+04</pdfrwt>
<totfact> 0.90424804E+00</totfact>
</mgrwt>
</event>
<event>
 6    1  0.1878398E-004  0.1196127E+04  0.7818608E-02  0.9116253E-01
          2   -1    0    0  501    0  0.00000000000E+00  0.00000000000E+00  0.93807840020E+03  0.93807840020E+03  0.00000000000E+00 0.  1.
         -2   -1    0    0    0  501 -0.00000000000E+00 -0.00000000000E+00 -0.38129035758E+03  0.38129035758E+03  0.00000000000E+00 0. -1.
         23    2    1    2    0    0 -0.35616149677E+03 -0.44596681370E+03  0.96279200369E+02  0.58601631557E+03  0.91695294229E+02 0.  0.
         13    1    3    3    0    0 -0.41604795034E+02 -0.10669775155E+03  0.32064471367E+02  0.11892644567E+03  0.00000000000E+00 0. -1.
        -13    1    3    3    0    0 -0.31455670174E+03 -0.33926906215E+03  0.64214729002E+02  0.46708986990E+03  0.00000000000E+00 0.  1.
         22    1    1    2    0    0  0.35616149677E+03  0.44596681370E+03  0.46050884225E+03  0.73335244221E+03  0.00000000000E+00 0. -1.
<mgrwt>
<rscale>  0 0.11961275E+04</rscale>
<asrwt>0</asrwt>
<pdfrwt beam="1">  1        2 0.14431975E+00 0.11961275E+04</pdfrwt>
<pdfrwt beam="2">  1       -2 0.58660055E-01 0.11961275E+04</pdfrwt>
<totfact> 0.74137950E+01</totfact>
</mgrwt>
</event>
<event>
 6    1  0.1878398E-004  0.2309206E+04  0.7818608E-02  0.8474300E-01
         -2   -1    0    0    0  501 -0.00000000000E+00  0.00000000000E+00  0.11649555495E+04  0.11649555495E+04  0.00000000000E+00 0. -1.
          2   -1    0    0  501    0  0.00000000000E+00 -0.00000000000E+00 -0.11443422539E+04  0.11443422539E+04  0.00000000000E+00 0.  1.
         23    2    1    2    0    0 -0.88903627951E+03  0.20064640675E+03  0.71626421527E+03  0.11627487687E+04  0.91136086610E+02 0.  0.
         11    1    3    3    0    0 -0.32726592774E+03  0.10498892505E+03  0.31062072718E+03  0.46326115529E+03  0.00000000000E+00 0. -1.
        -11    1    3    3    0    0 -0.56177035177E+03  0.95657481700E+02  0.40564348809E+03  0.69948761345E+03  0.00000000000E+00 0.  1.
         22    1    1    2    0    0  0.88903627951E+03 -0.20064640675E+03 -0.69565091964E+03  0.11465490346E+04  0.00000000000E+00 0.  1.
<mgrwt>
<rscale>  0 0.23092058E+04</rscale>
<asrwt>0</asrwt>
<pdfrwt beam="1">  1        2 0.17605266E+00 0.23092058E+04</pdfrwt>
<pdfrwt beam="2">  1       -2 0.17922393E+00 0.23092058E+04</pdfrwt>
<totfact> 0.34033163E+00</totfact>
</mgrwt>
</event>
<event>
 6    1  0.1878398E-004  0.2610315E+04  0.7818608E-02  0.8364706E-01
          2   -1    0    0  501    0  0.00000000000E+00  0.00000000000E+00  0.84659039479E+03  0.84659039479E+03  0.00000000000E+00 0.  1.
         -2   -1    0    0    0  501 -0.00000000000E+00 -0.00000000000E+00 -0.20121143133E+04  0.20121143133E+04  0.00000000000E+00 0. -1.
         23    2    1    2    0    0 -0.18957125713E+03 -0.11559953509E+04  0.42806467308E+02  0.11757534806E+04  0.91111693482E+02 0.  0.
         11    1    3    3    0    0 -0.21914772068E+02 -0.36849932492E+03 -0.50830680142E+01  0.36918538335E+03  0.00000000000E+00 0. -1.
        -11    1    3    3    0    0 -0.16765648506E+03 -0.78749602597E+03  0.47889535322E+02  0.80656809725E+03  0.00000000000E+00 0.  1.
         22    1    1    2    0    0  0.18957125713E+03  0.11559953509E+04 -0.12083303859E+04  0.16829512275E+04  0.00000000000E+00 0. -1.
<mgrwt>
<rscale>  0 0.26103154E+04</rscale>
<asrwt>0</asrwt>
<pdfrwt beam="1">  1        2 0.13024468E+00 0.26103154E+04</pdfrwt>
<pdfrwt beam="2">  1       -2 0.30955604E+00 0.26103154E+04</pdfrwt>
<totfact> 0.78334674E-01</totfact>
</mgrwt>
</event>
<event>
 6    1  0.1878398E-004  0.9457895E+03  0.7818608E-02  0.9370086E-01
         -2   -1    0    0    0  501 -0.00000000000E+00  0.00000000000E+00  0.19646349726E+03  0.19646349726E+03  0.00000000000E+00 0. -1.
          2   -1    0    0  501    0  0.00000000000E+00 -0.00000000000E+00 -0.11382748932E+04  0.11382748932E+04  0.00000000000E+00 0.  1.
         23    2    1    2    0    0  0.26224878000E+03  0.16554383153E+03 -0.97067518856E+03  0.10232704125E+04  0.93235361417E+02 0.  0.
         11    1    3    3    0    0  0.23459266808E+03  0.15097997516E+03 -0.74648570689E+03  0.79691253184E+03  0.00000000000E+00 0.  1.
        -11    1    3    3    0    0  0.27656111920E+02  0.14563856371E+02 -0.22418948167E+03  0.22635788065E+03  0.00000000000E+00 0. -1.
         22    1    1    2    0    0 -0.26224878000E+03 -0.16554383153E+03  0.28863792633E+02  0.31146797796E+03  0.00000000000E+00 0. -1.
<mgrwt>
<rscale>  0 0.94578955E+03</rscale>
<asrwt>0</asrwt>
<pdfrwt beam="1">  1        2 0.17511922E+00 0.94578955E+03</pdfrwt>
<pdfrwt beam="2">  1       -2 0.30225153E-01 0.94578955E+03</pdfrwt>
<totfact> 0.20856117E+02</totfact>
</mgrwt>
</event>
<event>
 6    1  0.1878398E-004  0.6380179E+03  0.7818608E-02  0.9829526E-01
         -2   -1    0    0    0  501 -0.00000000000E+00  0.00000000000E+00  0.10271216084E+04  0.10271216084E+04  0.00000000000E+00 0. -1.
          2   -1    0    0  501    0  0.00000000000E+00 -0.00000000000E+00 -0.99079520923E+02  0.99079520923E+02  0.00000000000E+00 0.  1.
         23    2    1    2    0    0  0.15544847742E+03 -0.27121879641E+03  0.45451322452E+03  0.55879171037E+03  0.89118121950E+02 0.  0.
         13    1    3    3    0    0  0.51756390236E+02 -0.17244556558E+03  0.22360490485E+03  0.28708073863E+03  0.00000000000E+00 0.  1.
        -13    1    3    3    0    0  0.10369208719E+03 -0.98773230828E+02  0.23090831966E+03  0.27171097174E+03  0.00000000000E+00 0. -1.
         22    1    1    2    0    0 -0.15544847742E+03  0.27121879641E+03  0.47352886298E+03  0.56740941897E+03  0.00000000000E+00 0. -1.
<mgrwt>
<rscale>  0 0.63801792E+03</rscale>
<asrwt>0</asrwt>
<pdfrwt beam="1">  1        2 0.15243004E-01 0.63801792E+03</pdfrwt>
<pdfrwt beam="2">  1       -2 0.15801870E+00 0.63801792E+03</pdfrwt>
<totfact> 0.10416318E+02</totfact>
</mgrwt>
</event>
<event>
 6    1  0.2082639E-004  0.3287466E+04  0.7818608E-02  0.8166092E-01
          2   -1    0    0  501    0  0.00000000000E+00  0.00000000000E+00  0.19273755922E+04  0.19273755922E+04  0.00000000000E+00 0.  1.
         -2   -1    0    0    0  501 -0.00000000000E+00 -0.00000000000E+00 -0.14018323420E+04  0.14018323420E+04  0.00000000000E+00 0. -1.
         23    2    1    2    0    0 -0.10908816242E+02  0.42571266036E+03 -0.13431754448E+04  0.14125807319E+04  0.99567953033E+02 0.  0.
         13    1    3    3    0    0 -0.16528398196E+02  0.36570970392E+03 -0.10169385501E+04  0.10808241255E+04  0.00000000000E+00 0.  1.
        -13    1    3    3    0    0  0.56195819543E+01  0.60002956439E+02 -0.32623689466E+03  0.33175660644E+03  0.00000000000E+00 0. -1.
         22    1    1    2    0    0  0.10908816242E+02 -0.42571266036E+03  0.18687186950E+04  0.19166272023E+04  0.00000000000E+00 0.  1.
<mgrwt>
<rscale>  0 0.32874656E+04</rscale>
<asrwt>0</asrwt>
<pdfrwt beam="1">  1        2 0.29651932E+00 0.32874656E+04</pdfrwt>
<pdfrwt beam="2">  1       -2 0.21566651E+00 0.32874656E+04</pdfrwt>
<totfact> 0.64564006E-01</totfact>
</mgrwt>
</event>
<event>
 6    1  0.1878398E-004  0.1974368E+04  0.7818608E-02  0.8618699E-01
         -1   -1    0    0    0  501 -0.00000000000E+00  0.00000000000E+00  0.11004048572E+04  0.11004048572E+04  0.00000000000E+00 0. -1.
          1   -1    0    0  501    0  0.00000000000E+00 -0.00000000000E+00 -0.88561225423E+03  0.88561225423E+03  0.00000000000E+00 0.  1.
         23    2    1    2    0    0 -0.72806127087E+03  0.57277763578E+03  0.44464973849E+03  0.10315634788E+04  0.90897670895E+02 0.  0.
         13    1    3    3    0    0 -0.10002666046E+03  0.12183760950E+03  0.77483058216E+02  0.17565124594E+03  0.00000000000E+00 0.  1.
        -13    1    3    3    0    0 -0.62803461040E+03  0.45094002628E+03  0.36716668027E+03  0.85591223281E+03  0.00000000000E+00 0. -1.
         22    1    1    2    0    0  0.72806127087E+03 -0.57277763578E+03 -0.22985713552E+03  0.95445363268E+03  0.00000000000E+00 0.  1.
<mgrwt>
<rscale>  0 0.19743678E+04</rscale>
<asrwt>0</asrwt>
<pdfrwt beam="1">  1        1 0.13624804E+00 0.19743678E+04</pdfrwt>
<pdfrwt beam="2">  1       -1 0.16929305E+00 0.19743678E+04</pdfrwt>
<totfact> 0.43296334E+00</totfact>
</mgrwt>
</event>
<event>
 6    1  0.1878398E-004  0.2914000E+04  0.7818608E-02  0.8268724E-01
          2   -1    0    0  501    0  0.00000000000E+00  0.00000000000E+00  0.36215822979E+04  0.36215822979E+04  0.00000000000E+00 0.  1.
         -2   -1    0    0    0  501 -0.00000000000E+00 -0.00000000000E+00 -0.58616612357E+03  0.58616612357E+03  0.00000000000E+00 0. -1.
         23    2    1    2    0    0 -0.41264808544E+03  0.96577164999E+03  0.64095424490E+02  0.10562820452E+04  0.92898940806E+02 0.  0.
         13    1    3    3    0    0 -0.14594034848E+03  0.29047240905E+03 -0.18147275800E+02  0.32557968204E+03  0.00000000000E+00 0.  1.
        -13    1    3    3    0    0 -0.26670773696E+03  0.67529924094E+03  0.82242700291E+02  0.73070236315E+03  0.00000000000E+00 0. -1.
         22    1    1    2    0    0  0.41264808544E+03 -0.96577164999E+03  0.29713207498E+04  0.31514663763E+04  0.00000000000E+00 0.  1.
<mgrwt>
<rscale>  0 0.29139999E+04</rscale>
<asrwt>0</asrwt>
<pdfrwt beam="1">  1        2 0.55716649E+00 0.29139999E+04</pdfrwt>
<pdfrwt beam="2">  1       -2 0.90179406E-01 0.29139999E+04</pdfrwt>
<totfact> 0.60376533E-01</totfact>
</mgrwt>
</event>
<event>
 6    1  0.1878398E-004  0.1310181E+04  0.7818608E-02  0.9021531E-01
          2   -1    0    0  501    0  0.00000000000E+00  0.00000000000E+00  0.29575320197E+04  0.29575320197E+04  0.00000000000E+00 0.  1.
         -2   -1    0    0    0  501 -0.00000000000E+00 -0.00000000000E+00 -0.14510185353E+03  0.14510185353E+03  0.00000000000E+00 0. -1.
         23    2    1    2    0    0 -0.38028645285E+03  0.34491039404E+02  0.26654978221E+04  0.26934926608E+04  0.64935783670E+02 0.  0.
         13    1    3    3    0    0 -0.24571928762E+03  0.35118978500E+02  0.19158501294E+04  0.19318625803E+04  0.00000000000E+00 0. -1.
        -13    1    3    3    0    0 -0.13456716523E+03 -0.62793909564E+00  0.74964769273E+03  0.76163008047E+03  0.00000000000E+00 0.  1.
         22    1    1    2    0    0  0.38028645285E+03 -0.34491039404E+02  0.14693234411E+03  0.40914121250E+03  0.00000000000E+00 0. -1.
<mgrwt>
<rscale>  0 0.13101807E+04</rscale>
<asrwt>0</asrwt>
<pdfrwt beam="1">  1        2 0.45500488E+00 0.13101807E+04</pdfrwt>
<pdfrwt beam="2">  1       -2 0.22323364E-01 0.13101807E+04</pdfrwt>
<totfact> 0.32228282E+01</totfact>
</mgrwt>
</event>
<event>
 6    1  0.1878398E-004  0.2657093E+04  0.7818608E-02  0.8349063E-01
         -1   -1    0    0    0  501 -0.00000000000E+00  0.00000000000E+00  0.92383776251E+03  0.92383776251E+03  0.00000000000E+00 0. -1.
          1   -1    0    0  501    0  0.00000000000E+00 -0.00000000000E+00 -0.19105475679E+04  0.19105475679E+04  0.00000000000E+00 0.  1.
         23    2    1    2    0    0  0.72280085597E+03  0.11119979636E+04 -0.44788341421E+03  0.14028426562E+04  0.91582841637E+02 0.  0.
         11    1    3    3    0    0  0.41988598051E+03  0.57327043674E+03 -0.26350555885E+03  0.75787756915E+03  0.00000000000E+00 0. -1.
        -11    1    3    3    0    0  0.30291487546E+03  0.53872752682E+03 -0.18437785536E+03  0.64496508702E+03  0.00000000000E+00 0.  1.
         22    1    1    2    0    0 -0.72280085597E+03 -0.11119979636E+04 -0.53882639119E+03  0.14315426743E+04  0.00000000000E+00 0.  1.
<mgrwt>
<rscale>  0 0.26570931E+04</rscale>
<asrwt>0</asrwt>
<pdfrwt beam="1">  1        1 0.29393039E+00 0.26570931E+04</pdfrwt>
<pdfrwt beam="2">  1       -1 0.14212889E+00 0.26570931E+04</pdfrwt>
<totfact> 0.12098886E+00</totfact>
</mgrwt>
</event>
<event>
 6    1  0.1878398E-004  0.2195175E+04  0.7818608E-02  0.8520439E-01
         -2   -1    0    0    0  501 -0.00000000000E+00  0.00000000000E+00  0.75222054878E+03  0.75222054878E+03  0.00000000000E+00 0. -1.
          2   -1    0    0  501    0  0.00000000000E+00 -0.00000000000E+00 -0.16015225659E+04  0.16015225659E+04  0.00000000000E+00 0.  1.
         23    2    1    2    0    0  0.86914178039E+03  0.51387992222E+03  0.30944061148E+02  0.10142233623E+04  0.90617243091E+02 0.  0.
         13    1    3    3    0    0  0.64459144813E+03  0.34516384261E+03 -0.39127654831E+01  0.73119868913E+03  0.00000000000E+00 0. -1.
        -13    1    3    3    0    0  0.22455033226E+03  0.16871607961E+03  0.34856826631E+02  0.28302467313E+03  0.00000000000E+00 0.  1.
         22    1    1    2    0    0 -0.86914178039E+03 -0.51387992222E+03 -0.88024607831E+03  0.13395197525E+04  0.00000000000E+00 0.  1.
<mgrwt>
<rscale>  0 0.21951749E+04</rscale>
<asrwt>0</asrwt>
<pdfrwt beam="1">  1        2 0.24638809E+00 0.21951749E+04</pdfrwt>
<pdfrwt beam="2">  1       -2 0.11572624E+00 0.21951749E+04</pdfrwt>
<totfact> 0.59101635E+00</totfact>
</mgrwt>
</event>
<event>
 6    1  0.1878398E-004  0.1988225E+04  0.7818608E-02  0.8612146E-01
          2   -1    0    0  501    0  0.00000000000E+00  0.00000000000E+00  0.15480594177E+04  0.15480594177E+04  0.00000000000E+00 0.  1.
         -2   -1    0    0    0  501 -0.00000000000E+00 -0.00000000000E+00 -0.63838600485E+03  0.63838600485E+03  0.00000000000E+00 0. -1.
         23    2    1    2    0    0 -0.33536545369E+03  0.93364339931E+03  0.46577747855E+03  0.10996135197E+04  0.89673009005E+02 0.  0.
         11    1    3    3    0    0 -0.21378226072E+03  0.50664283622E+03  0.22111878332E+03  0.59269160179E+03  0.00000000000E+00 0.  1.
        -11    1    3    3    0    0 -0.12158319296E+03  0.42700056309E+03  0.24465869524E+03  0.50692191790E+03  0.00000000000E+00 0. -1.
         22    1    1    2    0    0  0.33536545369E+03 -0.93364339931E+03  0.44389593429E+03  0.10868319029E+04  0.00000000000E+00 0. -1.
<mgrwt>
<rscale>  0 0.19882248E+04</rscale>
<asrwt>0</asrwt>
<pdfrwt beam="1">  1        2 0.23816299E+00 0.19882248E+04</pdfrwt>
<pdfrwt beam="2">  1       -2 0.98213232E-01 0.19882248E+04</pdfrwt>
<totfact> 0.95605443E+00</totfact>
</mgrwt>
</event>
<event>
 6    1  0.1878398E-004  0.3389180E+04  0.7818608E-02  0.8140567E-01
          1   -1    0    0  501    0  0.00000000000E+00  0.00000000000E+00  0.27124176184E+04  0.27124176184E+04  0.00000000000E+00 0.  1.
         -1   -1    0    0    0  501 -0.00000000000E+00 -0.00000000000E+00 -0.10586994891E+04  0.10586994891E+04  0.00000000000E+00 0. -1.
         23    2    1    2    0    0  0.28817214564E+03 -0.16643073980E+04  0.69333544703E+03  0.18281047049E+04  0.91052014902E+02 0.  0.
         11    1    3    3    0    0 -0.35703614407E+00 -0.14711816793E+03  0.63074809374E+02  0.16006971727E+03  0.00000000000E+00 0. -1.
        -11    1    3    3    0    0  0.28852918178E+03 -0.15171892300E+04  0.63026063765E+03  0.16680349876E+04  0.00000000000E+00 0.  1.
         22    1    1    2    0    0 -0.28817214564E+03  0.16643073980E+04  0.96038268222E+03  0.19430124026E+04  0.00000000000E+00 0. -1.
<mgrwt>
<rscale>  0 0.33891799E+04</rscale>
<asrwt>0</asrwt>
<pdfrwt beam="1">  1        1 0.41729502E+00 0.33891799E+04</pdfrwt>
<pdfrwt beam="2">  1       -1 0.16287685E+00 0.33891799E+04</pdfrwt>
<totfact> 0.22004879E-01</totfact>
</mgrwt>
</event>
<event>
 6    1  0.1878398E-004  0.2725918E+04  0.7818608E-02  0.8326644E-01
         -2   -1    0    0    0  501 -0.00000000000E+00  0.00000000000E+00  0.13666574914E+04  0.13666574914E+04  0.00000000000E+00 0. -1.
          2   -1    0    0  501    0  0.00000000000E+00 -0.00000000000E+00 -0.13592701323E+04  0.13592701323E+04  0.00000000000E+00 0.  1.
         23    2    1    2    0    0  0.23700947023E+03  0.13223923772E+04  0.22857076468E+03  0.13643780700E+04  0.66240737809E+02 0.  0.
         13    1    3    3    0    0  0.21521521959E+03  0.11628879030E+04  0.22176362327E+03  0.12032476762E+04  0.00000000000E+00 0. -1.
        -13    1    3    3    0    0  0.21794250646E+02  0.15950447416E+03  0.68071414080E+01  0.16113039381E+03  0.00000000000E+00 0.  1.
         22    1    1    2    0    0 -0.23700947023E+03 -0.13223923772E+04 -0.22118340555E+03  0.13615495537E+04  0.00000000000E+00 0. -1.
<mgrwt>
<rscale>  0 0.27259176E+04</rscale>
<asrwt>0</asrwt>
<pdfrwt beam="1">  1        2 0.20911848E+00 0.27259176E+04</pdfrwt>
<pdfrwt beam="2">  1       -2 0.21025500E+00 0.27259176E+04</pdfrwt>
<totfact> 0.15253184E+00</totfact>
</mgrwt>
</event>
<event>
 6    1  0.1878398E-004  0.3022908E+04  0.7818608E-02  0.8237219E-01
         -2   -1    0    0    0  501 -0.00000000000E+00  0.00000000000E+00  0.12691219764E+04  0.12691219764E+04  0.00000000000E+00 0. -1.
          2   -1    0    0  501    0  0.00000000000E+00 -0.00000000000E+00 -0.18000582464E+04  0.18000582464E+04  0.00000000000E+00 0.  1.
         23    2    1    2    0    0 -0.10123338696E+04  0.10060381959E+04  0.23536554802E+03  0.14492570174E+04  0.89533490634E+02 0.  0.
         11    1    3    3    0    0 -0.25603909869E+03  0.20160151582E+03  0.55436363214E+02  0.33056373304E+03  0.00000000000E+00 0.  1.
        -11    1    3    3    0    0 -0.75629477094E+03  0.80443668010E+03  0.17992918481E+03  0.11186932843E+04  0.00000000000E+00 0. -1.
         22    1    1    2    0    0  0.10123338696E+04 -0.10060381959E+04 -0.76630181801E+03  0.16199232054E+04  0.00000000000E+00 0.  1.
<mgrwt>
<rscale>  0 0.30229082E+04</rscale>
<asrwt>0</asrwt>
<pdfrwt beam="1">  1        2 0.27693204E+00 0.30229082E+04</pdfrwt>
<pdfrwt beam="2">  1       -2 0.19524953E+00 0.30229082E+04</pdfrwt>
<totfact> 0.10540999E+00</totfact>
</mgrwt>
</event>
<event>
 6    1  0.1878398E-004  0.1256319E+04  0.7818608E-02  0.9064940E-01
          1   -1    0    0  501    0  0.00000000000E+00  0.00000000000E+00  0.10983186082E+04  0.10983186082E+04  0.00000000000E+00 0.  1.
         -1   -1    0    0    0  501 -0.00000000000E+00 -0.00000000000E+00 -0.35926228245E+03  0.35926228245E+03  0.00000000000E+00 0. -1.
         23    2    1    2    0    0  0.16550442926E+03  0.52500372566E+03  0.27922636472E+02  0.55828574884E+03  0.88784433725E+02 0.  0.
         13    1    3    3    0    0  0.10730749433E+03  0.19621384112E+03  0.76660283090E+01  0.22377117280E+03  0.00000000000E+00 0. -1.
        -13    1    3    3    0    0  0.58196934929E+02  0.32878988454E+03  0.20256608163E+02  0.33451457604E+03  0.00000000000E+00 0.  1.
         22    1    1    2    0    0 -0.16550442926E+03 -0.52500372566E+03  0.71113368932E+03  0.89929514184E+03  0.00000000000E+00 0.  1.
<mgrwt>
<rscale>  0 0.12563191E+04</rscale>
<asrwt>0</asrwt>
<pdfrwt beam="1">  1        1 0.16897209E+00 0.12563191E+04</pdfrwt>
<pdfrwt beam="2">  1       -1 0.55271121E-01 0.12563191E+04</pdfrwt>
<totfact> 0.41473149E+01</totfact>
</mgrwt>
</event>
<event>
 6    1  0.1878398E-004  0.2198077E+04  0.7818608E-02  0.8519229E-01
          2   -1    0    0  501    0  0.00000000000E+00  0.00000000000E+00  0.23116844361E+04  0.23116844361E+04  0.00000000000E+00 0.  1.
         -2   -1    0    0    0  501 -0.00000000000E+00 -0.00000000000E+00 -0.52251335861E+03  0.52251335861E+03  0.00000000000E+00 0. -1.
         23    2    1    2    0    0  0.57848611846E+03  0.76903555174E+03  0.15755771458E+04  0.18484573437E+04  0.91045811780E+02 0.  0.
         11    1    3    3    0    0  0.13950336655E+03  0.12577112664E+03  0.30252788914E+03  0.35609365240E+03  0.00000000000E+00 0.  1.
        -11    1    3    3    0    0  0.43898275192E+03  0.64326442510E+03  0.12730492567E+04  0.14923636913E+04  0.00000000000E+00 0. -1.
         22    1    1    2    0    0 -0.57848611846E+03 -0.76903555174E+03  0.21359393162E+03  0.98574045099E+03  0.00000000000E+00 0. -1.
<mgrwt>
<rscale>  0 0.21980773E+04</rscale>
<asrwt>0</asrwt>
<pdfrwt beam="1">  1        2 0.35564375E+00 0.21980773E+04</pdfrwt>
<pdfrwt beam="2">  1       -2 0.80386672E-01 0.21980773E+04</pdfrwt>
<totfact> 0.55807687E+00</totfact>
</mgrwt>
</event>
<event>
 6    1  0.1878398E-004  0.2268724E+04  0.7818608E-02  0.8490356E-01
         -2   -1    0    0    0  501 -0.00000000000E+00  0.00000000000E+00  0.72132740407E+03  0.72132740407E+03  0.00000000000E+00 0. -1.
          2   -1    0    0  501    0  0.00000000000E+00 -0.00000000000E+00 -0.17839021648E+04  0.17839021648E+04  0.00000000000E+00 0.  1.
         23    2    1    2    0    0  0.20905305691E+03 -0.20589263631E+03  0.67574492213E+03  0.74231996310E+03  0.91174390788E+02 0.  0.
         11    1    3    3    0    0  0.15524917191E+03 -0.10634541961E+03  0.48910248928E+03  0.52405428981E+03  0.00000000000E+00 0.  1.
        -11    1    3    3    0    0  0.53803884993E+02 -0.99547216697E+02  0.18664243285E+03  0.21826567328E+03  0.00000000000E+00 0. -1.
         22    1    1    2    0    0 -0.20905305691E+03  0.20589263631E+03 -0.17383196829E+04  0.17629096058E+04  0.00000000000E+00 0.  1.
<mgrwt>
<rscale>  0 0.22687243E+04</rscale>
<asrwt>0</asrwt>
<pdfrwt beam="1">  1        2 0.27444648E+00 0.22687243E+04</pdfrwt>
<pdfrwt beam="2">  1       -2 0.11097345E+00 0.22687243E+04</pdfrwt>
<totfact> 0.51491614E+00</totfact>
</mgrwt>
</event>
<event>
 6    1  0.1970317E-004  0.3112595E+04  0.7818608E-02  0.8212290E-01
         -1   -1    0    0    0  501 -0.00000000000E+00  0.00000000000E+00  0.87365399029E+03  0.87365399029E+03  0.00000000000E+00 0. -1.
          1   -1    0    0  501    0  0.00000000000E+00 -0.00000000000E+00 -0.27723348601E+04  0.27723348601E+04  0.00000000000E+00 0.  1.
         23    2    1    2    0    0  0.50986563053E+03 -0.13916790277E+04 -0.39792755575E+03  0.15367250008E+04  0.80273974927E+02 0.  0.
         11    1    3    3    0    0  0.32351336062E+03 -0.85542290137E+03 -0.20620291564E+03  0.93751206772E+03  0.00000000000E+00 0. -1.
        -11    1    3    3    0    0  0.18635226991E+03 -0.53625612637E+03 -0.19172464010E+03  0.59921293310E+03  0.00000000000E+00 0.  1.
         22    1    1    2    0    0 -0.50986563053E+03  0.13916790277E+04 -0.15007533141E+04  0.21092638496E+04  0.00000000000E+00 0. -1.
<mgrwt>
<rscale>  0 0.31125947E+04</rscale>
<asrwt>0</asrwt>
<pdfrwt beam="1">  1        1 0.42651305E+00 0.31125947E+04</pdfrwt>
<pdfrwt beam="2">  1       -1 0.13440831E+00 0.31125947E+04</pdfrwt>
<totfact> 0.34224552E-01</totfact>
</mgrwt>
</event>
<event>
 6    1  0.1878398E-004  0.1386484E+04  0.7818608E-02  0.8963661E-01
         -1   -1    0    0    0  501 -0.00000000000E+00  0.00000000000E+00  0.38399334183E+03  0.38399334183E+03  0.00000000000E+00 0. -1.
          1   -1    0    0  501    0  0.00000000000E+00 -0.00000000000E+00 -0.12515436911E+04  0.12515436911E+04  0.00000000000E+00 0.  1.
         23    2    1    2    0    0  0.19488747263E+03 -0.19638603834E+03 -0.11819136656E+04  0.12167615588E+04  0.83905749928E+02 0.  0.
         11    1    3    3    0    0  0.58895557569E+02 -0.11753646710E+03 -0.50453803886E+03  0.52138482953E+03  0.00000000000E+00 0.  1.
        -11    1    3    3    0    0  0.13599191506E+03 -0.78849571246E+02 -0.67737562677E+03  0.69537672925E+03  0.00000000000E+00 0. -1.
         22    1    1    2    0    0 -0.19488747263E+03  0.19638603834E+03  0.31436331639E+03  0.41877547413E+03  0.00000000000E+00 0. -1.
<mgrwt>
<rscale>  0 0.13864840E+04</rscale>
<asrwt>0</asrwt>
<pdfrwt beam="1">  1        1 0.19254518E+00 0.13864840E+04</pdfrwt>
<pdfrwt beam="2">  1       -1 0.59075899E-01 0.13864840E+04</pdfrwt>
<totfact> 0.27785148E+01</totfact>
</mgrwt>
</event>
<event>
 6    1  0.1878398E-004  0.1628849E+04  0.7818608E-02  0.8803018E-01
          2   -1    0    0  501    0  0.00000000000E+00  0.00000000000E+00  0.11485007917E+04  0.11485007917E+04  0.00000000000E+00 0.  1.
         -2   -1    0    0    0  501 -0.00000000000E+00 -0.00000000000E+00 -0.57752446198E+03  0.57752446198E+03  0.00000000000E+00 0. -1.
         23    2    1    2    0    0 -0.94190489550E+02 -0.19532809509E+03  0.11154509774E+04  0.11399556716E+04  0.90791723778E+02 0.  0.
         11    1    3    3    0    0 -0.63118908519E+02 -0.11827492663E+03  0.45621774103E+03  0.47550770984E+03  0.00000000000E+00 0. -1.
        -11    1    3    3    0    0 -0.31071581031E+02 -0.77053168458E+02  0.65923323639E+03  0.66444796175E+03  0.00000000000E+00 0.  1.
         22    1    1    2    0    0  0.94190489550E+02  0.19532809509E+03 -0.54447464770E+03  0.58606958208E+03  0.00000000000E+00 0. -1.
<mgrwt>
<rscale>  0 0.16288490E+04</rscale>
<asrwt>0</asrwt>
<pdfrwt beam="1">  1        2 0.17669243E+00 0.16288490E+04</pdfrwt>
<pdfrwt beam="2">  1       -2 0.88849917E-01 0.16288490E+04</pdfrwt>
<totfact> 0.21195371E+01</totfact>
</mgrwt>
</event>
<event>
 6    1  0.1878398E-004  0.4037883E+04  0.7818608E-02  0.7996948E-01
          2   -1    0    0  501    0  0.00000000000E+00  0.00000000000E+00  0.34891527660E+04  0.34891527660E+04  0.00000000000E+00 0.  1.
         -2   -1    0    0    0  501 -0.00000000000E+00 -0.00000000000E+00 -0.11682274169E+04  0.11682274169E+04  0.00000000000E+00 0. -1.
         23    2    1    2    0    0  0.17981984835E+04  0.58912318460E+03  0.35254546354E+03  0.19269766804E+04  0.91470817161E+02 0.  0.
         13    1    3    3    0    0  0.10451507996E+04  0.35363785217E+03  0.25006333350E+03  0.11313406185E+04  0.00000000000E+00 0.  1.
        -13    1    3    3    0    0  0.75304768395E+03  0.23548533243E+03  0.10248213004E+03  0.79563606195E+03  0.00000000000E+00 0. -1.
         22    1    1    2    0    0 -0.17981984835E+04 -0.58912318460E+03  0.19683798855E+04  0.27304035025E+04  0.00000000000E+00 0.  1.
<mgrwt>
<rscale>  0 0.40378826E+04</rscale>
<asrwt>0</asrwt>
<pdfrwt beam="1">  1        2 0.53679273E+00 0.40378826E+04</pdfrwt>
<pdfrwt beam="2">  1       -2 0.17972730E+00 0.40378826E+04</pdfrwt>
<totfact> 0.11828375E-01</totfact>
</mgrwt>
</event>
<event>
 6    1  0.1878398E-004  0.9894660E+03  0.7818608E-02  0.9320174E-01
          3   -1    0    0  501    0  0.00000000000E+00  0.00000000000E+00  0.17607704418E+04  0.17607704418E+04  0.00000000000E+00 0.  1.
         -3   -1    0    0    0  501 -0.00000000000E+00 -0.00000000000E+00 -0.13900776236E+03  0.13900776236E+03  0.00000000000E+00 0. -1.
         23    2    1    2    0    0 -0.15657245549E+03 -0.17239029207E+03  0.16462439820E+04  0.16656144136E+04  0.99593071989E+02 0.  0.
         11    1    3    3    0    0  0.11246719648E+02 -0.33504113346E+02  0.21366459548E+03  0.21656771153E+03  0.00000000000E+00 0. -1.
        -11    1    3    3    0    0 -0.16781917514E+03 -0.13888617873E+03  0.14325793865E+04  0.14490467021E+04  0.00000000000E+00 0.  1.
         22    1    1    2    0    0  0.15657245549E+03  0.17239029207E+03 -0.24481302571E+02  0.23416379053E+03  0.00000000000E+00 0. -1.
<mgrwt>
<rscale>  0 0.98946604E+03</rscale>
<asrwt>0</asrwt>
<pdfrwt beam="1">  1        3 0.27088774E+00 0.98946604E+03</pdfrwt>
<pdfrwt beam="2">  1       -3 0.21385811E-01 0.98946604E+03</pdfrwt>
<totfact> 0.30273287E+00</totfact>
</mgrwt>
</event>
<event>
 6    1  0.1878398E-004  0.3449755E+04  0.7818608E-02  0.8125802E-01
         -2   -1    0    0    0  501 -0.00000000000E+00  0.00000000000E+00  0.16366666066E+04  0.16366666066E+04  0.00000000000E+00 0.  1.
          2   -1    0    0  501    0  0.00000000000E+00 -0.00000000000E+00 -0.18178427897E+04  0.18178427897E+04  0.00000000000E+00 0. -1.
         23    2    1    2    0    0 -0.97883336343E+03 -0.13893644865E+04 -0.37803647201E+03  0.17436025014E+04  0.93753288635E+02 0.  0.
         13    1    3    3    0    0 -0.15417388483E+03 -0.24401269821E+03 -0.31614643704E+02  0.29036402902E+03  0.00000000000E+00 0.  1.
        -13    1    3    3    0    0 -0.82465947860E+03 -0.11453517883E+04 -0.34642182831E+03  0.14532384724E+04  0.00000000000E+00 0. -1.
         22    1    1    2    0    0  0.97883336343E+03  0.13893644865E+04  0.19686028894E+03  0.17109068949E+04  0.00000000000E+00 0.  1.
<mgrwt>
<rscale>  0 0.34497551E+04</rscale>
<asrwt>0</asrwt>
<pdfrwt beam="1">  1        2 0.27966812E+00 0.34497551E+04</pdfrwt>
<pdfrwt beam="2">  1       -2 0.25179486E+00 0.34497551E+04</pdfrwt>
<totfact> 0.43598855E-01</totfact>
</mgrwt>
</event>
<event>
 6    1  0.1878398E-004  0.3159268E+04  0.7818608E-02  0.8199658E-01
          1   -1    0    0  501    0  0.00000000000E+00  0.00000000000E+00  0.41185862767E+04  0.41185862767E+04  0.00000000000E+00 0.  1.
         -1   -1    0    0    0  501 -0.00000000000E+00 -0.00000000000E+00 -0.60584958316E+03  0.60584958316E+03  0.00000000000E+00 0. -1.
         23    2    1    2    0    0  0.14178028397E+04 -0.26381603491E+03  0.27169766023E+04  0.30773177963E+04  0.90328120699E+02 0.  0.
         11    1    3    3    0    0  0.23402360596E+03 -0.46607602259E+02  0.52438107338E+03  0.57612049682E+03  0.00000000000E+00 0. -1.
        -11    1    3    3    0    0  0.11837792338E+04 -0.21720843265E+03  0.21925955289E+04  0.25011972995E+04  0.00000000000E+00 0.  1.
         22    1    1    2    0    0 -0.14178028397E+04  0.26381603491E+03  0.79576009130E+03  0.16471180636E+04  0.00000000000E+00 0. -1.
<mgrwt>
<rscale>  0 0.31592681E+04</rscale>
<asrwt>0</asrwt>
<pdfrwt beam="1">  1        1 0.63362864E+00 0.31592681E+04</pdfrwt>
<pdfrwt beam="2">  1       -1 0.93207631E-01 0.31592681E+04</pdfrwt>
<totfact> 0.70400681E-02</totfact>
</mgrwt>
</event>
<event>
 6    1  0.1878398E-004  0.2841869E+04  0.7818608E-02  0.8290386E-01
          1   -1    0    0  501    0  0.00000000000E+00  0.00000000000E+00  0.25737661080E+04  0.25737661080E+04  0.00000000000E+00 0. -1.
         -1   -1    0    0    0  501 -0.00000000000E+00 -0.00000000000E+00 -0.78447513140E+03  0.78447513140E+03  0.00000000000E+00 0.  1.
         23    2    1    2    0    0 -0.38534540284E+03  0.57847350704E+02  0.25085306927E+04  0.25402295252E+04  0.90567150714E+02 0.  0.
         13    1    3    3    0    0 -0.13091877637E+03  0.60350737311E+02  0.80585808142E+03  0.81865083209E+03  0.00000000000E+00 0.  1.
        -13    1    3    3    0    0 -0.25442662647E+03 -0.25033866073E+01  0.17026726113E+04  0.17215786931E+04  0.00000000000E+00 0. -1.
         22    1    1    2    0    0  0.38534540284E+03 -0.57847350704E+02 -0.71923971608E+03  0.81801171426E+03  0.00000000000E+00 0.  1.
<mgrwt>
<rscale>  0 0.28418695E+04</rscale>
<asrwt>0</asrwt>
<pdfrwt beam="1">  1        1 0.39596401E+00 0.28418695E+04</pdfrwt>
<pdfrwt beam="2">  1       -1 0.12068848E+00 0.28418695E+04</pdfrwt>
<totfact> 0.63351279E-01</totfact>
</mgrwt>
</event>
<event>
 6    1  0.1878398E-004  0.2260306E+04  0.7818608E-02  0.8493738E-01
          2   -1    0    0  501    0  0.00000000000E+00  0.00000000000E+00  0.11042719379E+04  0.11042719379E+04  0.00000000000E+00 0.  1.
         -2   -1    0    0    0  501 -0.00000000000E+00 -0.00000000000E+00 -0.11566406502E+04  0.11566406502E+04  0.00000000000E+00 0. -1.
         23    2    1    2    0    0 -0.23709115188E+03 -0.27267134708E+03  0.10429912964E+04  0.11074935722E+04  0.90273419557E+02 0.  0.
         11    1    3    3    0    0 -0.52354951515E+02 -0.44828440082E+02  0.31855098791E+03  0.32592232493E+03  0.00000000000E+00 0. -1.
        -11    1    3    3    0    0 -0.18473620036E+03 -0.22784290700E+03  0.72444030847E+03  0.78157124726E+03  0.00000000000E+00 0.  1.
         22    1    1    2    0    0  0.23709115188E+03  0.27267134708E+03 -0.10953600087E+04  0.11534190160E+04  0.00000000000E+00 0. -1.
<mgrwt>
<rscale>  0 0.22603060E+04</rscale>
<asrwt>0</asrwt>
<pdfrwt beam="1">  1        2 0.16988799E+00 0.22603060E+04</pdfrwt>
<pdfrwt beam="2">  1       -2 0.17794472E+00 0.22603060E+04</pdfrwt>
<totfact> 0.36902744E+00</totfact>
</mgrwt>
</event>
<event>
 6    1  0.1878398E-004  0.2171884E+04  0.7818608E-02  0.8530223E-01
          2   -1    0    0  501    0  0.00000000000E+00  0.00000000000E+00  0.19331478435E+04  0.19331478435E+04  0.00000000000E+00 0.  1.
         -2   -1    0    0    0  501 -0.00000000000E+00 -0.00000000000E+00 -0.61002560543E+03  0.61002560543E+03  0.00000000000E+00 0. -1.
         23    2    1    2    0    0 -0.81742768981E+03 -0.28873913474E+03  0.14246595490E+04  0.16703228652E+04  0.93623327311E+02 0.  0.
         13    1    3    3    0    0 -0.35831687848E+03 -0.91017593046E+02  0.66740971696E+03  0.76296193741E+03  0.00000000000E+00 0. -1.
        -13    1    3    3    0    0 -0.45911081133E+03 -0.19772154169E+03  0.75724983203E+03  0.90736092777E+03  0.00000000000E+00 0.  1.
         22    1    1    2    0    0  0.81742768981E+03  0.28873913474E+03 -0.10153731095E+03  0.87285058373E+03  0.00000000000E+00 0. -1.
<mgrwt>
<rscale>  0 0.21718837E+04</rscale>
<asrwt>0</asrwt>
<pdfrwt beam="1">  1        2 0.29740736E+00 0.21718837E+04</pdfrwt>
<pdfrwt beam="2">  1       -2 0.93850094E-01 0.21718837E+04</pdfrwt>
<totfact> 0.63935535E+00</totfact>
</mgrwt>
</event>
<event>
 6    1  0.1878398E-004  0.2466725E+04  0.7818608E-02  0.8414937E-01
         -2   -1    0    0    0  501 -0.00000000000E+00  0.00000000000E+00  0.97860965281E+03  0.97860965281E+03  0.00000000000E+00 0. -1.
          2   -1    0    0  501    0  0.00000000000E+00 -0.00000000000E+00 -0.15544331844E+04  0.15544331844E+04  0.00000000000E+00 0.  1.
         23    2    1    2    0    0  0.47910906663E+02  0.11820607505E+04 -0.64038784916E+03  0.13482510310E+04  0.90117547527E+02 0.  0.
         11    1    3    3    0    0  0.51304948366E+02  0.47963600016E+03 -0.22592646762E+03  0.53265904587E+03  0.00000000000E+00 0.  1.
        -11    1    3    3    0    0 -0.33940417028E+01  0.70242475037E+03 -0.41446138154E+03  0.81559198514E+03  0.00000000000E+00 0. -1.
         22    1    1    2    0    0 -0.47910906663E+02 -0.11820607505E+04  0.64564317576E+02  0.11847918062E+04  0.00000000000E+00 0. -1.
<mgrwt>
<rscale>  0 0.24667252E+04</rscale>
<asrwt>0</asrwt>
<pdfrwt beam="1">  1        2 0.23914357E+00 0.24667252E+04</pdfrwt>
<pdfrwt beam="2">  1       -2 0.15055533E+00 0.24667252E+04</pdfrwt>
<totfact> 0.31389648E+00</totfact>
</mgrwt>
</event>
<event>
 6    1  0.1878398E-004  0.1742296E+04  0.7818608E-02  0.8737602E-01
         -1   -1    0    0    0  501 -0.00000000000E+00  0.00000000000E+00  0.27181038930E+03  0.27181038930E+03  0.00000000000E+00 0. -1.
          1   -1    0    0  501    0  0.00000000000E+00 -0.00000000000E+00 -0.27920165590E+04  0.27920165590E+04  0.00000000000E+00 0.  1.
         23    2    1    2    0    0 -0.25897809849E+03  0.60517527854E+03 -0.26898983744E+03  0.71834581473E+03  0.10177624300E+03 0.  0.
         11    1    3    3    0    0 -0.57145513119E+02  0.15281106895E+03 -0.21326774575E+02  0.16453468867E+03  0.00000000000E+00 0. -1.
        -11    1    3    3    0    0 -0.20183258537E+03  0.45236420960E+03 -0.24766306287E+03  0.55381112606E+03  0.00000000000E+00 0.  1.
         22    1    1    2    0    0  0.25897809849E+03 -0.60517527854E+03 -0.22512163323E+04  0.23454811336E+04  0.00000000000E+00 0.  1.
<mgrwt>
<rscale>  0 0.17422963E+04</rscale>
<asrwt>0</asrwt>
<pdfrwt beam="1">  1        1 0.42954100E+00 0.17422963E+04</pdfrwt>
<pdfrwt beam="2">  1       -1 0.41816983E-01 0.17422963E+04</pdfrwt>
<totfact> 0.45054385E+00</totfact>
</mgrwt>
</event>
<event>
 6    1  0.1878398E-004  0.2971358E+04  0.7818608E-02  0.8251957E-01
          1   -1    0    0  501    0  0.00000000000E+00  0.00000000000E+00  0.17512618101E+04  0.17512618101E+04  0.00000000000E+00 0.  1.
         -1   -1    0    0    0  501 -0.00000000000E+00 -0.00000000000E+00 -0.12603723565E+04  0.12603723565E+04  0.00000000000E+00 0. -1.
         23    2    1    2    0    0  0.15003805181E+03 -0.18427937923E+03  0.17309547786E+04  0.17490050378E+04  0.79648415346E+02 0.  0.
         13    1    3    3    0    0  0.64867348677E+02 -0.11652619584E+03  0.72351742910E+03  0.73570618963E+03  0.00000000000E+00 0. -1.
        -13    1    3    3    0    0  0.85170703131E+02 -0.67753183397E+02  0.10074373495E+04  0.10132988482E+04  0.00000000000E+00 0.  1.
         22    1    1    2    0    0 -0.15003805181E+03  0.18427937923E+03 -0.12400653250E+04  0.12626291288E+04  0.00000000000E+00 0. -1.
<mgrwt>
<rscale>  0 0.29713579E+04</rscale>
<asrwt>0</asrwt>
<pdfrwt beam="1">  1        1 0.26942489E+00 0.29713579E+04</pdfrwt>
<pdfrwt beam="2">  1       -1 0.19390344E+00 0.29713579E+04</pdfrwt>
<totfact> 0.62248173E-01</totfact>
</mgrwt>
</event>
<event>
 6    1  0.1878398E-004  0.5534682E+04  0.7818608E-02  0.7750935E-01
         -2   -1    0    0    0  501 -0.00000000000E+00  0.00000000000E+00  0.19583292941E+04  0.19583292941E+04  0.00000000000E+00 0. -1.
          2   -1    0    0  501    0  0.00000000000E+00 -0.00000000000E+00 -0.39105659027E+04  0.39105659027E+04  0.00000000000E+00 0.  1.
         23    2    1    2    0    0 -0.24106720020E+04 -0.12916913816E+04 -0.14188034135E+04  0.30824355972E+04  0.92735961459E+02 0.  0.
         13    1    3    3    0    0 -0.17247998070E+04 -0.88395468658E+03 -0.10305950769E+04  0.21950937280E+04  0.00000000000E+00 0. -1.
        -13    1    3    3    0    0 -0.68587219499E+03 -0.40773669497E+03 -0.38820833659E+03  0.88734186923E+03  0.00000000000E+00 0.  1.
         22    1    1    2    0    0  0.24106720020E+04  0.12916913816E+04 -0.53343319511E+03  0.27864595996E+04  0.00000000000E+00 0. -1.
<mgrwt>
<rscale>  0 0.55346818E+04</rscale>
<asrwt>0</asrwt>
<pdfrwt beam="1">  1        2 0.60162553E+00 0.55346818E+04</pdfrwt>
<pdfrwt beam="2">  1       -2 0.30128143E+00 0.55346818E+04</pdfrwt>
<totfact> 0.87463713E-03</totfact>
</mgrwt>
</event>
<event>
 6    1  0.1878398E-004  0.6106720E+04  0.7818608E-02  0.7677309E-01
          2   -1    0    0  501    0  0.00000000000E+00  0.00000000000E+00  0.21266726268E+04  0.21266726268E+04  0.00000000000E+00 0.  1.
         -2   -1    0    0    0  501 -0.00000000000E+00 -0.00000000000E+00 -0.43838463442E+04  0.43838463442E+04  0.00000000000E+00 0. -1.
         23    2    1    2    0    0 -0.10358415377E+04  0.16564476652E+04 -0.36295765016E+04  0.41229939008E+04  0.92013945922E+02 0.  0.
         13    1    3    3    0    0 -0.71032345007E+03  0.12124544505E+04 -0.26246736794E+04  0.29771659547E+04  0.00000000000E+00 0. -1.
        -13    1    3    3    0    0 -0.32551808761E+03  0.44399321469E+03 -0.10049028222E+04  0.11458279461E+04  0.00000000000E+00 0.  1.
         22    1    1    2    0    0  0.10358415377E+04 -0.16564476652E+04  0.13724027842E+04  0.23875250702E+04  0.00000000000E+00 0.  1.
<mgrwt>
<rscale>  0 0.61067196E+04</rscale>
<asrwt>0</asrwt>
<pdfrwt beam="1">  1        2 0.32718041E+00 0.61067196E+04</pdfrwt>
<pdfrwt beam="2">  1       -2 0.67443790E+00 0.61067196E+04</pdfrwt>
<totfact> 0.10779688E-03</totfact>
</mgrwt>
</event>
<event>
 6    1  0.1878398E-004  0.1740716E+04  0.7818608E-02  0.8738477E-01
          2   -1    0    0  501    0  0.00000000000E+00  0.00000000000E+00  0.64946942505E+03  0.64946942505E+03  0.00000000000E+00 0.  1.
         -2   -1    0    0    0  501 -0.00000000000E+00 -0.00000000000E+00 -0.11663717484E+04  0.11663717484E+04  0.00000000000E+00 0. -1.
         23    2    1    2    0    0  0.34203519049E+03 -0.49882216961E+03 -0.90860176416E+03  0.10952580205E+04  0.90671590183E+02 0.  0.
         13    1    3    3    0    0  0.58700336825E+02 -0.15219532523E+03 -0.21891840815E+03  0.27300991922E+03  0.00000000000E+00 0. -1.
        -13    1    3    3    0    0  0.28333485366E+03 -0.34662684438E+03 -0.68968335601E+03  0.82224810131E+03  0.00000000000E+00 0.  1.
         22    1    1    2    0    0 -0.34203519049E+03  0.49882216961E+03  0.39169944077E+03  0.72058315296E+03  0.00000000000E+00 0. -1.
<mgrwt>
<rscale>  0 0.17407157E+04</rscale>
<asrwt>0</asrwt>
<pdfrwt beam="1">  1        2 0.99918373E-01 0.17407157E+04</pdfrwt>
<pdfrwt beam="2">  1       -2 0.17944181E+00 0.17407157E+04</pdfrwt>
<totfact> 0.78037799E+00</totfact>
</mgrwt>
</event>
<event>
 6    1  0.1878398E-004  0.3695531E+04  0.7818608E-02  0.8068953E-01
          2   -1    0    0  501    0  0.00000000000E+00  0.00000000000E+00  0.30524401124E+04  0.30524401124E+04  0.00000000000E+00 0.  1.
         -2   -1    0    0    0  501 -0.00000000000E+00 -0.00000000000E+00 -0.11185271143E+04  0.11185271143E+04  0.00000000000E+00 0. -1.
         23    2    1    2    0    0 -0.25035064323E+03  0.17284571200E+04  0.16447477659E+04  0.24006971931E+04  0.88951330707E+02 0.  0.
         13    1    3    3    0    0 -0.29499345878E+02  0.46924840279E+03  0.45639718360E+03  0.65525770818E+03  0.00000000000E+00 0.  1.
        -13    1    3    3    0    0 -0.22085129735E+03  0.12592087172E+04  0.11883505823E+04  0.17454394849E+04  0.00000000000E+00 0. -1.
         22    1    1    2    0    0  0.25035064323E+03 -0.17284571200E+04  0.28916523227E+03  0.17702700336E+04  0.00000000000E+00 0. -1.
<mgrwt>
<rscale>  0 0.36955308E+04</rscale>
<asrwt>0</asrwt>
<pdfrwt beam="1">  1        2 0.46960617E+00 0.36955308E+04</pdfrwt>
<pdfrwt beam="2">  1       -2 0.17208110E+00 0.36955308E+04</pdfrwt>
<totfact> 0.26860509E-01</totfact>
</mgrwt>
</event>
<event>
 6    1  0.1878398E-004  0.4856494E+04  0.7818608E-02  0.7851034E-01
         -1   -1    0    0    0  501 -0.00000000000E+00  0.00000000000E+00  0.19185064396E+04  0.19185064396E+04  0.00000000000E+00 0. -1.
          1   -1    0    0  501    0  0.00000000000E+00 -0.00000000000E+00 -0.30734234705E+04  0.30734234705E+04  0.00000000000E+00 0.  1.
         23    2    1    2    0    0 -0.57217462339E+03 -0.12750689364E+03 -0.29989453711E+04  0.30569667768E+04  0.87924558789E+02 0.  0.
         11    1    3    3    0    0 -0.26973369305E+03 -0.42879280665E+02 -0.16057797107E+04  0.16288411148E+04  0.00000000000E+00 0. -1.
        -11    1    3    3    0    0 -0.30244093034E+03 -0.84627612972E+02 -0.13931656604E+04  0.14281256620E+04  0.00000000000E+00 0.  1.
         22    1    1    2    0    0  0.57217462339E+03  0.12750689364E+03  0.18440283402E+04  0.19349631332E+04  0.00000000000E+00 0. -1.
<mgrwt>
<rscale>  0 0.48564937E+04</rscale>
<asrwt>0</asrwt>
<pdfrwt beam="1">  1        1 0.47283438E+00 0.48564937E+04</pdfrwt>
<pdfrwt beam="2">  1       -1 0.29515484E+00 0.48564937E+04</pdfrwt>
<totfact> 0.13684558E-02</totfact>
</mgrwt>
</event>
<event>
 6    1  0.1878398E-004  0.1644600E+04  0.7818608E-02  0.8793607E-01
         -2   -1    0    0    0  501 -0.00000000000E+00  0.00000000000E+00  0.25141313579E+03  0.25141313579E+03  0.00000000000E+00 0. -1.
          2   -1    0    0  501    0  0.00000000000E+00 -0.00000000000E+00 -0.26895078749E+04  0.26895078749E+04  0.00000000000E+00 0.  1.
         23    2    1    2    0    0  0.27696798366E+02 -0.41722329854E+03  0.37896633998E+02  0.42987029969E+03  0.92249261258E+02 0.  0.
         13    1    3    3    0    0 -0.12866073225E+02 -0.99747053011E+02 -0.25132563797E+02  0.10366608022E+03  0.00000000000E+00 0.  1.
        -13    1    3    3    0    0  0.40562871591E+02 -0.31747624553E+03  0.63029197795E+02  0.32620421948E+03  0.00000000000E+00 0. -1.
         22    1    1    2    0    0 -0.27696798366E+02  0.41722329854E+03 -0.24759913731E+04  0.25110507110E+04  0.00000000000E+00 0.  1.
<mgrwt>
<rscale>  0 0.16446004E+04</rscale>
<asrwt>0</asrwt>
<pdfrwt beam="1">  1        2 0.41377047E+00 0.16446004E+04</pdfrwt>
<pdfrwt beam="2">  1       -2 0.38678941E-01 0.16446004E+04</pdfrwt>
<totfact> 0.16308991E+01</totfact>
</mgrwt>
</event>
<event>
 6    1  0.1878398E-004  0.2139404E+04  0.7818608E-02  0.8544081E-01
         -2   -1    0    0    0  501 -0.00000000000E+00  0.00000000000E+00  0.47204590435E+03  0.47204590435E+03  0.00000000000E+00 0. -1.
          2   -1    0    0  501    0  0.00000000000E+00 -0.00000000000E+00 -0.24240497940E+04  0.24240497940E+04  0.00000000000E+00 0.  1.
         23    2    1    2    0    0 -0.39738827085E+03  0.99098941176E+03 -0.99175019459E+03  0.14601066277E+04  0.91462909706E+02 0.  0.
         11    1    3    3    0    0 -0.27757542651E+03  0.74296167813E+03 -0.68665367669E+03  0.10490631269E+04  0.00000000000E+00 0. -1.
        -11    1    3    3    0    0 -0.11981284434E+03  0.24802773363E+03 -0.30509651790E+03  0.41104350080E+03  0.00000000000E+00 0.  1.
         22    1    1    2    0    0  0.39738827085E+03 -0.99098941176E+03 -0.96025369502E+03  0.14359890706E+04  0.00000000000E+00 0. -1.
<mgrwt>
<rscale>  0 0.21394044E+04</rscale>
<asrwt>0</asrwt>
<pdfrwt beam="1">  1        2 0.37293074E+00 0.21394044E+04</pdfrwt>
<pdfrwt beam="2">  1       -2 0.72622447E-01 0.21394044E+04</pdfrwt>
<totfact> 0.60666004E+00</totfact>
</mgrwt>
</event>
<event>
 6    1  0.1878398E-004  0.2447063E+04  0.7818608E-02  0.8422091E-01
          1   -1    0    0  501    0  0.00000000000E+00  0.00000000000E+00  0.83546661045E+03  0.83546661045E+03  0.00000000000E+00 0.  1.
         -1   -1    0    0    0  501 -0.00000000000E+00 -0.00000000000E+00 -0.17918480132E+04  0.17918480132E+04  0.00000000000E+00 0. -1.
         23    2    1    2    0    0 -0.48603183518E+03  0.35241306807E+03 -0.16212608217E+04  0.17314984835E+04  0.95804128130E+02 0.  0.
         11    1    3    3    0    0 -0.17493672326E+03  0.97091410193E+02 -0.65194768243E+03  0.68195702189E+03  0.00000000000E+00 0. -1.
        -11    1    3    3    0    0 -0.31109511192E+03  0.25532165787E+03 -0.96931313926E+03  0.10495414616E+04  0.00000000000E+00 0.  1.
         22    1    1    2    0    0  0.48603183518E+03 -0.35241306807E+03  0.66487941892E+03  0.89581614020E+03  0.00000000000E+00 0.  1.
<mgrwt>
<rscale>  0 0.24470629E+04</rscale>
<asrwt>0</asrwt>
<pdfrwt beam="1">  1        1 0.12853332E+00 0.24470629E+04</pdfrwt>
<pdfrwt beam="2">  1       -1 0.27566892E+00 0.24470629E+04</pdfrwt>
<totfact> 0.87308408E-01</totfact>
</mgrwt>
</event>
<event>
 6    1  0.1878398E-004  0.2128824E+04  0.7818608E-02  0.8548652E-01
         -2   -1    0    0    0  501 -0.00000000000E+00  0.00000000000E+00  0.45708249259E+03  0.45708249259E+03  0.00000000000E+00 0. -1.
          2   -1    0    0  501    0  0.00000000000E+00 -0.00000000000E+00 -0.24787044016E+04  0.24787044016E+04  0.00000000000E+00 0.  1.
         23    2    1    2    0    0 -0.80214560647E+03 -0.51103458908E+03 -0.16662610288E+04  0.19204666095E+04  0.84689178635E+02 0.  0.
         13    1    3    3    0    0 -0.44711071353E+03 -0.24231027009E+03 -0.93317249782E+03  0.10627479324E+04  0.00000000000E+00 0. -1.
        -13    1    3    3    0    0 -0.35503489295E+03 -0.26872431899E+03 -0.73308853100E+03  0.85771867714E+03  0.00000000000E+00 0.  1.
         22    1    1    2    0    0  0.80214560647E+03  0.51103458908E+03 -0.35536088017E+03  0.10153202846E+04  0.00000000000E+00 0. -1.
<mgrwt>
<rscale>  0 0.21288235E+04</rscale>
<asrwt>0</asrwt>
<pdfrwt beam="1">  1        2 0.38133915E+00 0.21288235E+04</pdfrwt>
<pdfrwt beam="2">  1       -2 0.70320382E-01 0.21288235E+04</pdfrwt>
<totfact> 0.60613075E+00</totfact>
</mgrwt>
</event>
<event>
 6    1  0.1878398E-004  0.3566753E+04  0.7818608E-02  0.8098150E-01
          2   -1    0    0  501    0  0.00000000000E+00  0.00000000000E+00  0.23448576382E+04  0.23448576382E+04  0.00000000000E+00 0.  1.
         -2   -1    0    0    0  501 -0.00000000000E+00 -0.00000000000E+00 -0.13563429237E+04  0.13563429237E+04  0.00000000000E+00 0. -1.
         23    2    1    2    0    0  0.97691776485E+03 -0.39853225439E+03 -0.99590777671E+03  0.14537288934E+04  0.91099499190E+02 0.  0.
         13    1    3    3    0    0  0.40361351990E+03 -0.15796522845E+03 -0.34879150083E+03  0.55633838434E+03  0.00000000000E+00 0. -1.
        -13    1    3    3    0    0  0.57330424495E+03 -0.24056702594E+03 -0.64711627588E+03  0.89739050906E+03  0.00000000000E+00 0.  1.
         22    1    1    2    0    0 -0.97691776485E+03  0.39853225439E+03  0.19844224912E+04  0.22474716685E+04  0.00000000000E+00 0.  1.
<mgrwt>
<rscale>  0 0.35667526E+04</rscale>
<asrwt>0</asrwt>
<pdfrwt beam="1">  1        2 0.36074733E+00 0.35667526E+04</pdfrwt>
<pdfrwt beam="2">  1       -2 0.20866814E+00 0.35667526E+04</pdfrwt>
<totfact> 0.40803254E-01</totfact>
</mgrwt>
</event>
<event>
 6    1  0.1878398E-004  0.2073176E+04  0.7818608E-02  0.8573152E-01
          1   -1    0    0  501    0  0.00000000000E+00  0.00000000000E+00  0.94033986002E+03  0.94033986002E+03  0.00000000000E+00 0.  1.
         -1   -1    0    0    0  501 -0.00000000000E+00 -0.00000000000E+00 -0.11426880257E+04  0.11426880257E+04  0.00000000000E+00 0. -1.
         23    2    1    2    0    0 -0.60395232575E+03  0.30622960450E+02  0.74204283204E+03  0.96161336198E+03  0.91523307833E+02 0.  0.
         11    1    3    3    0    0 -0.37847951077E+03  0.11319912194E+02  0.53100847431E+03  0.65218469798E+03  0.00000000000E+00 0. -1.
        -11    1    3    3    0    0 -0.22547281498E+03  0.19303048255E+02  0.21103435773E+03  0.30942866401E+03  0.00000000000E+00 0.  1.
         22    1    1    2    0    0  0.60395232575E+03 -0.30622960450E+02 -0.94439099777E+03  0.11214145238E+04  0.00000000000E+00 0. -1.
<mgrwt>
<rscale>  0 0.20731764E+04</rscale>
<asrwt>0</asrwt>
<pdfrwt beam="1">  1        1 0.14466767E+00 0.20731764E+04</pdfrwt>
<pdfrwt beam="2">  1       -1 0.17579816E+00 0.20731764E+04</pdfrwt>
<totfact> 0.34714371E+00</totfact>
</mgrwt>
</event>
<event>
 6    1  0.1878398E-004  0.1856930E+04  0.7818608E-02  0.8676597E-01
         -1   -1    0    0    0  501 -0.00000000000E+00  0.00000000000E+00  0.95664195171E+03  0.95664195171E+03  0.00000000000E+00 0.  1.
          1   -1    0    0  501    0  0.00000000000E+00 -0.00000000000E+00 -0.90111782801E+03  0.90111782801E+03  0.00000000000E+00 0. -1.
         23    2    1    2    0    0 -0.61340940450E+03  0.64283135229E+03  0.28931500790E+03  0.93897720340E+03  0.92042216909E+02 0.  0.
         13    1    3    3    0    0 -0.17363859366E+03  0.20963281622E+03  0.49173052311E+02  0.27661212540E+03  0.00000000000E+00 0. -1.
        -13    1    3    3    0    0 -0.43977081084E+03  0.43319853606E+03  0.24014195559E+03  0.66236507800E+03  0.00000000000E+00 0.  1.
         22    1    1    2    0    0  0.61340940450E+03 -0.64283135229E+03 -0.23379088420E+03  0.91878257632E+03  0.00000000000E+00 0.  1.
<mgrwt>
<rscale>  0 0.18569299E+04</rscale>
<asrwt>0</asrwt>
<pdfrwt beam="1">  1        1 0.13863351E+00 0.18569299E+04</pdfrwt>
<pdfrwt beam="2">  1       -1 0.14717569E+00 0.18569299E+04</pdfrwt>
<totfact> 0.62617481E+00</totfact>
</mgrwt>
</event>
<event>
 6    1  0.1878398E-004  0.2400109E+04  0.7818608E-02  0.8439463E-01
         -2   -1    0    0    0  501 -0.00000000000E+00  0.00000000000E+00  0.50766148284E+03  0.50766148284E+03  0.00000000000E+00 0. -1.
          2   -1    0    0  501    0  0.00000000000E+00 -0.00000000000E+00 -0.28367923722E+04  0.28367923722E+04  0.00000000000E+00 0.  1.
         23    2    1    2    0    0  0.72124575501E+03  0.73921979340E+03 -0.20131939911E+04  0.22644272508E+04  0.89662625839E+02 0.  0.
         11    1    3    3    0    0  0.40524427186E+03  0.40598457591E+03 -0.10209802947E+04  0.11710880231E+04  0.00000000000E+00 0.  1.
        -11    1    3    3    0    0  0.31600148316E+03  0.33323521748E+03 -0.99221369637E+03  0.10933392277E+04  0.00000000000E+00 0. -1.
         22    1    1    2    0    0 -0.72124575501E+03 -0.73921979340E+03 -0.31593689824E+03  0.10800266042E+04  0.00000000000E+00 0. -1.
<mgrwt>
<rscale>  0 0.24001085E+04</rscale>
<asrwt>0</asrwt>
<pdfrwt beam="1">  1        2 0.43642959E+00 0.24001085E+04</pdfrwt>
<pdfrwt beam="2">  1       -2 0.78101768E-01 0.24001085E+04</pdfrwt>
<totfact> 0.28819200E+00</totfact>
</mgrwt>
</event>
<event>
 6    1  0.1878398E-004  0.1197167E+04  0.7818608E-02  0.9115340E-01
          1   -1    0    0  501    0  0.00000000000E+00  0.00000000000E+00  0.37277660098E+03  0.37277660098E+03  0.00000000000E+00 0.  1.
         -1   -1    0    0    0  501 -0.00000000000E+00 -0.00000000000E+00 -0.96117152792E+03  0.96117152792E+03  0.00000000000E+00 0. -1.
         23    2    1    2    0    0  0.13994156382E+03 -0.54717862606E+03 -0.86514435236E+02  0.57838733184E+03  0.89772312136E+02 0.  0.
         13    1    3    3    0    0  0.39344701301E+02 -0.33133613434E+03 -0.55328119190E+02  0.33822010616E+03  0.00000000000E+00 0. -1.
        -13    1    3    3    0    0  0.10059686252E+03 -0.21584249172E+03 -0.31186316046E+02  0.24016722567E+03  0.00000000000E+00 0.  1.
         22    1    1    2    0    0 -0.13994156382E+03  0.54717862606E+03 -0.50188049170E+03  0.75556079706E+03  0.00000000000E+00 0. -1.
<mgrwt>
<rscale>  0 0.11971671E+04</rscale>
<asrwt>0</asrwt>
<pdfrwt beam="1">  1        1 0.57350246E-01 0.11971671E+04</pdfrwt>
<pdfrwt beam="2">  1       -1 0.14787254E+00 0.11971671E+04</pdfrwt>
<totfact> 0.23652190E+01</totfact>
</mgrwt>
</event>
<event>
 6    1  0.2024948E-004  0.4758603E+04  0.7818608E-02  0.7866864E-01
         -2   -1    0    0    0  501 -0.00000000000E+00  0.00000000000E+00  0.23882566362E+04  0.23882566362E+04  0.00000000000E+00 0. -1.
          2   -1    0    0  501    0  0.00000000000E+00 -0.00000000000E+00 -0.23703803212E+04  0.23703803212E+04  0.00000000000E+00 0.  1.
         23    2    1    2    0    0  0.22891641471E+04  0.28875264603E+03 -0.56849941139E+03  0.23779885005E+04  0.89370828918E+02 0.  0.
         13    1    3    3    0    0  0.99076137218E+03  0.16309817536E+03 -0.22352116441E+03  0.10286743033E+04  0.00000000000E+00 0. -1.
        -13    1    3    3    0    0  0.12984027749E+04  0.12565447067E+03 -0.34497824698E+03  0.13493141972E+04  0.00000000000E+00 0.  1.
         22    1    1    2    0    0 -0.22891641471E+04 -0.28875264603E+03  0.58637572642E+03  0.23806484569E+04  0.00000000000E+00 0. -1.
<mgrwt>
<rscale>  0 0.47586034E+04</rscale>
<asrwt>0</asrwt>
<pdfrwt beam="1">  1        2 0.36467390E+00 0.47586034E+04</pdfrwt>
<pdfrwt beam="2">  1       -2 0.36742410E+00 0.47586034E+04</pdfrwt>
<totfact> 0.36998179E-02</totfact>
</mgrwt>
</event>
<event>
 6    1  0.1878398E-004  0.8909990E+03  0.7818608E-02  0.9436904E-01
          1   -1    0    0  501    0  0.00000000000E+00  0.00000000000E+00  0.10074163397E+04  0.10074163397E+04  0.00000000000E+00 0.  1.
         -1   -1    0    0    0  501 -0.00000000000E+00 -0.00000000000E+00 -0.19700874244E+03  0.19700874244E+03  0.00000000000E+00 0. -1.
         23    2    1    2    0    0 -0.24333947612E+03 -0.24283198320E+03  0.37035798742E+02  0.35808861746E+03  0.93136109344E+02 0.  0.
         11    1    3    3    0    0 -0.19057814182E+03 -0.13442136544E+03  0.47096018736E+01  0.23326232438E+03  0.00000000000E+00 0.  1.
        -11    1    3    3    0    0 -0.52761334303E+02 -0.10841061776E+03  0.32326196868E+02  0.12482629308E+03  0.00000000000E+00 0. -1.
         22    1    1    2    0    0  0.24333947612E+03  0.24283198320E+03  0.77337179851E+03  0.84633646468E+03  0.00000000000E+00 0. -1.
<mgrwt>
<rscale>  0 0.89099905E+03</rscale>
<asrwt>0</asrwt>
<pdfrwt beam="1">  1        1 0.15498713E+00 0.89099905E+03</pdfrwt>
<pdfrwt beam="2">  1       -1 0.30309038E-01 0.89099905E+03</pdfrwt>
<totfact> 0.15061206E+02</totfact>
</mgrwt>
</event>
<event>
 6    1  0.1878398E-004  0.2367812E+04  0.7818608E-02  0.8451653E-01
         -2   -1    0    0    0  501 -0.00000000000E+00  0.00000000000E+00  0.21343906106E+04  0.21343906106E+04  0.00000000000E+00 0. -1.
          2   -1    0    0  501    0  0.00000000000E+00 -0.00000000000E+00 -0.65669044855E+03  0.65669044855E+03  0.00000000000E+00 0.  1.
         23    2    1    2    0    0 -0.10238649428E+04 -0.30235669225E+03  0.14167381872E+03  0.10809099038E+04  0.92605392632E+02 0.  0.
         13    1    3    3    0    0 -0.40857432851E+03 -0.16747461947E+03  0.50506999351E+02  0.44444537018E+03  0.00000000000E+00 0. -1.
        -13    1    3    3    0    0 -0.61529061431E+03 -0.13488207277E+03  0.91166819368E+02  0.63646453363E+03  0.00000000000E+00 0.  1.
         22    1    1    2    0    0  0.10238649428E+04  0.30235669225E+03  0.13360263433E+04  0.17101711553E+04  0.00000000000E+00 0. -1.
<mgrwt>
<rscale>  0 0.23678124E+04</rscale>
<asrwt>0</asrwt>
<pdfrwt beam="1">  1        2 0.10102930E+00 0.23678124E+04</pdfrwt>
<pdfrwt beam="2">  1       -2 0.32836778E+00 0.23678124E+04</pdfrwt>
<totfact> 0.85107931E-01</totfact>
</mgrwt>
</event>
<event>
 6    1  0.1878398E-004  0.1359696E+04  0.7818608E-02  0.8983521E-01
         -1   -1    0    0    0  501 -0.00000000000E+00  0.00000000000E+00  0.38160335402E+03  0.38160335402E+03  0.00000000000E+00 0. -1.
          1   -1    0    0  501    0  0.00000000000E+00 -0.00000000000E+00 -0.12111877482E+04  0.12111877482E+04  0.00000000000E+00 0.  1.
         23    2    1    2    0    0  0.21467190504E+03 -0.63084482457E+03 -0.27813899817E+03  0.72783951728E+03  0.91322730533E+02 0.  0.
         13    1    3    3    0    0  0.96019606802E+01 -0.96927173158E+02 -0.66753403427E+02  0.11808086811E+03  0.00000000000E+00 0. -1.
        -13    1    3    3    0    0  0.20506994436E+03 -0.53391765141E+03 -0.21138559474E+03  0.60975864917E+03  0.00000000000E+00 0.  1.
         22    1    1    2    0    0 -0.21467190504E+03  0.63084482457E+03 -0.55144539602E+03  0.86495158494E+03  0.00000000000E+00 0. -1.
<mgrwt>
<rscale>  0 0.13596960E+04</rscale>
<asrwt>0</asrwt>
<pdfrwt beam="1">  1        1 0.18633658E+00 0.13596960E+04</pdfrwt>
<pdfrwt beam="2">  1       -1 0.58708209E-01 0.13596960E+04</pdfrwt>
<totfact> 0.30156853E+01</totfact>
</mgrwt>
</event>
<event>
 6    1  0.1878398E-004  0.2753447E+04  0.7818608E-02  0.8317869E-01
         -2   -1    0    0    0  501 -0.00000000000E+00  0.00000000000E+00  0.20935670593E+04  0.20935670593E+04  0.00000000000E+00 0. -1.
          2   -1    0    0  501    0  0.00000000000E+00 -0.00000000000E+00 -0.90532897366E+03  0.90532897366E+03  0.00000000000E+00 0.  1.
         23    2    1    2    0    0 -0.11641255919E+04  0.65600145423E+02  0.13889453505E+04  0.18157750844E+04  0.91532494802E+02 0.  0.
         13    1    3    3    0    0 -0.79128097571E+03  0.42988480403E+02  0.10087527323E+04  0.12827921370E+04  0.00000000000E+00 0. -1.
        -13    1    3    3    0    0 -0.37284461615E+03  0.22611665020E+02  0.38019261825E+03  0.53298294734E+03  0.00000000000E+00 0.  1.
         22    1    1    2    0    0  0.11641255919E+04 -0.65600145423E+02 -0.20070726493E+03  0.11831209485E+04  0.00000000000E+00 0. -1.
<mgrwt>
<rscale>  0 0.27534465E+04</rscale>
<asrwt>0</asrwt>
<pdfrwt beam="1">  1        2 0.13928138E+00 0.27534465E+04</pdfrwt>
<pdfrwt beam="2">  1       -2 0.32208724E+00 0.27534465E+04</pdfrwt>
<totfact> 0.59038521E-01</totfact>
</mgrwt>
</event>
<event>
 6    1  0.1878398E-004  0.1715039E+04  0.7818608E-02  0.8752833E-01
         -1   -1    0    0    0  501 -0.00000000000E+00  0.00000000000E+00  0.11507105349E+04  0.11507105349E+04  0.00000000000E+00 0. -1.
          1   -1    0    0  501    0  0.00000000000E+00 -0.00000000000E+00 -0.63903132277E+03  0.63903132277E+03  0.00000000000E+00 0.  1.
         23    2    1    2    0    0  0.37635154928E+03  0.13005985385E+03  0.10461950479E+04  0.11232111136E+04  0.92320490853E+02 0.  0.
         13    1    3    3    0    0  0.27710761094E+03  0.10256762010E+03  0.87371431836E+03  0.92232611090E+03  0.00000000000E+00 0.  1.
        -13    1    3    3    0    0  0.99243938339E+02  0.27492233743E+02  0.17248072959E+03  0.20088500266E+03  0.00000000000E+00 0. -1.
         22    1    1    2    0    0 -0.37635154928E+03 -0.13005985385E+03 -0.53451583577E+03  0.66653074417E+03  0.00000000000E+00 0.  1.
<mgrwt>
<rscale>  0 0.17150394E+04</rscale>
<asrwt>0</asrwt>
<pdfrwt beam="1">  1        1 0.98312511E-01 0.17150394E+04</pdfrwt>
<pdfrwt beam="2">  1       -1 0.17703239E+00 0.17150394E+04</pdfrwt>
<totfact> 0.64893336E+00</totfact>
</mgrwt>
</event>
<event>
 6    1  0.1878398E-004  0.3434334E+04  0.7818608E-02  0.8129531E-01
          2   -1    0    0  501    0  0.00000000000E+00  0.00000000000E+00  0.19382491230E+04  0.19382491230E+04  0.00000000000E+00 0.  1.
         -2   -1    0    0    0  501 -0.00000000000E+00 -0.00000000000E+00 -0.15213021908E+04  0.15213021908E+04  0.00000000000E+00 0. -1.
         23    2    1    2    0    0 -0.82279504384E+03 -0.12450531982E+04  0.10617803412E+04  0.18338332337E+04  0.91747945847E+02 0.  0.
         13    1    3    3    0    0 -0.60362340913E+03 -0.85012634938E+03  0.76956309877E+03  0.12958793898E+04  0.00000000000E+00 0.  1.
        -13    1    3    3    0    0 -0.21917163471E+03 -0.39492684886E+03  0.29221724243E+03  0.53795384391E+03  0.00000000000E+00 0. -1.
         22    1    1    2    0    0  0.82279504384E+03  0.12450531982E+04 -0.64483340905E+03  0.16257180801E+04  0.00000000000E+00 0. -1.
<mgrwt>
<rscale>  0 0.34343341E+04</rscale>
<asrwt>0</asrwt>
<pdfrwt beam="1">  1        2 0.29819217E+00 0.34343341E+04</pdfrwt>
<pdfrwt beam="2">  1       -2 0.23404649E+00 0.34343341E+04</pdfrwt>
<totfact> 0.48188432E-01</totfact>
</mgrwt>
</event>
<event>
 6    1  0.1878398E-004  0.3336026E+04  0.7818608E-02  0.8153788E-01
         -1   -1    0    0    0  501 -0.00000000000E+00  0.00000000000E+00  0.12826025311E+04  0.12826025311E+04  0.00000000000E+00 0. -1.
          1   -1    0    0  501    0  0.00000000000E+00 -0.00000000000E+00 -0.21692363617E+04  0.21692363617E+04  0.00000000000E+00 0.  1.
         23    2    1    2    0    0 -0.32740743113E+03  0.15875715276E+04 -0.42017706846E+02  0.16240108436E+04  0.89815094019E+02 0.  0.
         11    1    3    3    0    0 -0.23289604074E+03  0.10432121807E+04  0.11192098033E+02  0.10689515812E+04  0.00000000000E+00 0. -1.
        -11    1    3    3    0    0 -0.94511390386E+02  0.54435934685E+03 -0.53209804878E+02  0.55505926238E+03  0.00000000000E+00 0.  1.
         22    1    1    2    0    0  0.32740743113E+03 -0.15875715276E+04 -0.84461612377E+03  0.18278280493E+04  0.00000000000E+00 0.  1.
<mgrwt>
<rscale>  0 0.33360264E+04</rscale>
<asrwt>0</asrwt>
<pdfrwt beam="1">  1        1 0.33372867E+00 0.33360264E+04</pdfrwt>
<pdfrwt beam="2">  1       -1 0.19732347E+00 0.33360264E+04</pdfrwt>
<totfact> 0.29702121E-01</totfact>
</mgrwt>
</event>
<event>
 6    1  0.1878398E-004  0.4637733E+04  0.7818608E-02  0.7886958E-01
          2   -1    0    0  501    0  0.00000000000E+00  0.00000000000E+00  0.21404222443E+04  0.21404222443E+04  0.00000000000E+00 0.  1.
         -2   -1    0    0    0  501 -0.00000000000E+00 -0.00000000000E+00 -0.25121876713E+04  0.25121876713E+04  0.00000000000E+00 0. -1.
         23    2    1    2    0    0 -0.10817164867E+04  0.84295836157E+03 -0.20607760091E+04  0.24769614828E+04  0.88606266665E+02 0.  0.
         11    1    3    3    0    0 -0.84881922741E+03  0.63049557730E+03 -0.16368995480E+04  0.19487069775E+04  0.00000000000E+00 0.  1.
        -11    1    3    3    0    0 -0.23289725934E+03  0.21246278428E+03 -0.42387646104E+03  0.52825450527E+03  0.00000000000E+00 0. -1.
         22    1    1    2    0    0  0.10817164867E+04 -0.84295836157E+03  0.16890105821E+04  0.21756484328E+04  0.00000000000E+00 0.  1.
<mgrwt>
<rscale>  0 0.46377332E+04</rscale>
<asrwt>0</asrwt>
<pdfrwt beam="1">  1        2 0.32929573E+00 0.46377332E+04</pdfrwt>
<pdfrwt beam="2">  1       -2 0.38649041E+00 0.46377332E+04</pdfrwt>
<totfact> 0.37994719E-02</totfact>
</mgrwt>
</event>
<event>
 6    1  0.1878398E-004  0.2456776E+04  0.7818608E-02  0.8418548E-01
          1   -1    0    0  501    0  0.00000000000E+00  0.00000000000E+00  0.32710167954E+04  0.32710167954E+04  0.00000000000E+00 0.  1.
         -1   -1    0    0    0  501 -0.00000000000E+00 -0.00000000000E+00 -0.46130525921E+03  0.46130525921E+03  0.00000000000E+00 0. -1.
         23    2    1    2    0    0 -0.98740825159E+03 -0.42807243715E+03  0.23011596943E+04  0.25420086326E+04  0.90834370495E+02 0.  0.
         13    1    3    3    0    0 -0.49122102682E+03 -0.21064637762E+03  0.12496567945E+04  0.13591585991E+04  0.00000000000E+00 0. -1.
        -13    1    3    3    0    0 -0.49618722477E+03 -0.21742605953E+03  0.10515028998E+04  0.11828500334E+04  0.00000000000E+00 0.  1.
         22    1    1    2    0    0  0.98740825159E+03  0.42807243715E+03  0.50855184194E+03  0.11903134220E+04  0.00000000000E+00 0. -1.
<mgrwt>
<rscale>  0 0.24567761E+04</rscale>
<asrwt>0</asrwt>
<pdfrwt beam="1">  1        1 0.50323334E+00 0.24567761E+04</pdfrwt>
<pdfrwt beam="2">  1       -1 0.70970042E-01 0.24567761E+04</pdfrwt>
<totfact> 0.67232808E-01</totfact>
</mgrwt>
</event>
<event>
 6    1  0.1878398E-004  0.3912072E+04  0.7818608E-02  0.8022523E-01
          2   -1    0    0  501    0  0.00000000000E+00  0.00000000000E+00  0.25519383799E+04  0.25519383799E+04  0.00000000000E+00 0.  1.
         -2   -1    0    0    0  501 -0.00000000000E+00 -0.00000000000E+00 -0.14992825439E+04  0.14992825439E+04  0.00000000000E+00 0. -1.
         23    2    1    2    0    0  0.13779649892E+03 -0.57896137289E+03  0.24550378164E+04  0.25277842281E+04  0.91094881994E+02 0.  0.
         13    1    3    3    0    0  0.10771054402E+03 -0.26188243150E+03  0.12011785334E+04  0.12341044681E+04  0.00000000000E+00 0.  1.
        -13    1    3    3    0    0  0.30085954901E+02 -0.31707894139E+03  0.12538592830E+04  0.12936797600E+04  0.00000000000E+00 0. -1.
         22    1    1    2    0    0 -0.13779649892E+03  0.57896137289E+03 -0.14023819805E+04  0.15234366956E+04  0.00000000000E+00 0. -1.
<mgrwt>
<rscale>  0 0.39120719E+04</rscale>
<asrwt>0</asrwt>
<pdfrwt beam="1">  1        2 0.39260590E+00 0.39120719E+04</pdfrwt>
<pdfrwt beam="2">  1       -2 0.23065885E+00 0.39120719E+04</pdfrwt>
<totfact> 0.21847224E-01</totfact>
</mgrwt>
</event>
<event>
 6    1  0.1878398E-004  0.3990912E+03  0.7818608E-02  0.1044095E+00
          2   -1    0    0  501    0  0.00000000000E+00  0.00000000000E+00  0.10123116312E+04  0.10123116312E+04  0.00000000000E+00 0.  1.
         -2   -1    0    0    0  501 -0.00000000000E+00 -0.00000000000E+00 -0.39334175689E+02  0.39334175689E+02  0.00000000000E+00 0. -1.
         23    2    1    2    0    0 -0.14005835038E+03  0.31940607499E+02  0.18667810146E+03  0.25233158952E+03  0.90476370305E+02 0.  0.
         11    1    3    3    0    0 -0.34594630213E+02  0.41089759897E+02  0.10737922856E+03  0.12006438079E+03  0.00000000000E+00 0. -1.
        -11    1    3    3    0    0 -0.10546372017E+03 -0.91491523988E+01  0.79298872903E+02  0.13226720873E+03  0.00000000000E+00 0.  1.
         22    1    1    2    0    0  0.14005835038E+03 -0.31940607499E+02  0.78629935403E+03  0.79931421735E+03  0.00000000000E+00 0.  1.
<mgrwt>
<rscale>  0 0.39909119E+03</rscale>
<asrwt>0</asrwt>
<pdfrwt beam="1">  1        2 0.15574023E+00 0.39909119E+03</pdfrwt>
<pdfrwt beam="2">  1       -2 0.60514124E-02 0.39909119E+03</pdfrwt>
<totfact> 0.37844360E+03</totfact>
</mgrwt>
</event>
<event>
 6    1  0.1878398E-004  0.2156628E+04  0.7818608E-02  0.8536701E-01
         -2   -1    0    0    0  501 -0.00000000000E+00  0.00000000000E+00  0.25145363587E+03  0.25145363587E+03  0.00000000000E+00 0.  1.
          2   -1    0    0  501    0  0.00000000000E+00 -0.00000000000E+00 -0.46241559297E+04  0.46241559297E+04  0.00000000000E+00 0. -1.
         23    2    1    2    0    0  0.40253251953E+03 -0.38285090331E+03 -0.42745623981E+04  0.43114830881E+04  0.91626855350E+02 0.  0.
         11    1    3    3    0    0  0.21636000532E+03 -0.20486952153E+03 -0.26384947219E+04  0.26552660074E+04  0.00000000000E+00 0.  1.
        -11    1    3    3    0    0  0.18617251421E+03 -0.17798138178E+03 -0.16360676762E+04  0.16562170807E+04  0.00000000000E+00 0. -1.
         22    1    1    2    0    0 -0.40253251953E+03  0.38285090331E+03 -0.98139895776E+02  0.56412647748E+03  0.00000000000E+00 0.  1.
<mgrwt>
<rscale>  0 0.21566278E+04</rscale>
<asrwt>0</asrwt>
<pdfrwt beam="1">  1        2 0.71140861E+00 0.21566278E+04</pdfrwt>
<pdfrwt beam="2">  1       -2 0.38685174E-01 0.21566278E+04</pdfrwt>
<totfact> 0.54202312E-01</totfact>
</mgrwt>
</event>
<event>
 6    1  0.1878398E-004  0.1726002E+04  0.7818608E-02  0.8746672E-01
          1   -1    0    0  501    0  0.00000000000E+00  0.00000000000E+00  0.20916044799E+04  0.20916044799E+04  0.00000000000E+00 0.  1.
         -1   -1    0    0    0  501 -0.00000000000E+00 -0.00000000000E+00 -0.35607644322E+03  0.35607644322E+03  0.00000000000E+00 0. -1.
         23    2    1    2    0    0 -0.77421754516E+03  0.18276003799E+03  0.40537675367E+03  0.89780464598E+03  0.94386605076E+02 0.  0.
         11    1    3    3    0    0 -0.32272881531E+03  0.87532257019E+02  0.22149100887E+03  0.40109107602E+03  0.00000000000E+00 0. -1.
        -11    1    3    3    0    0 -0.45148872985E+03  0.95227780971E+02  0.18388574480E+03  0.49671356997E+03  0.00000000000E+00 0.  1.
         22    1    1    2    0    0  0.77421754516E+03 -0.18276003799E+03  0.13301512831E+04  0.15498762772E+04  0.00000000000E+00 0.  1.
<mgrwt>
<rscale>  0 0.17260024E+04</rscale>
<asrwt>0</asrwt>
<pdfrwt beam="1">  1        1 0.32178530E+00 0.17260024E+04</pdfrwt>
<pdfrwt beam="2">  1       -1 0.54780992E-01 0.17260024E+04</pdfrwt>
<totfact> 0.82587005E+00</totfact>
</mgrwt>
</event>
<event>
 6    1  0.1878398E-004  0.9021419E+03  0.7818608E-02  0.9422908E-01
         -2   -1    0    0    0  501 -0.00000000000E+00  0.00000000000E+00  0.33751730739E+03  0.33751730739E+03  0.00000000000E+00 0. -1.
          2   -1    0    0  501    0  0.00000000000E+00 -0.00000000000E+00 -0.60282835038E+03  0.60282835038E+03  0.00000000000E+00 0.  1.
         23    2    1    2    0    0 -0.16251126766E+03  0.36238635608E+03  0.77598328297E+02  0.41563562345E+03  0.94856142330E+02 0.  0.
         13    1    3    3    0    0 -0.31880424712E+02  0.94768153690E+02 -0.20556637167E+02  0.10207810620E+03  0.00000000000E+00 0. -1.
        -13    1    3    3    0    0 -0.13063084295E+03  0.26761820239E+03  0.98154965464E+02  0.31355751725E+03  0.00000000000E+00 0.  1.
         22    1    1    2    0    0  0.16251126766E+03 -0.36238635608E+03 -0.34290937128E+03  0.52471003431E+03  0.00000000000E+00 0.  1.
<mgrwt>
<rscale>  0 0.90214190E+03</rscale>
<asrwt>0</asrwt>
<pdfrwt beam="1">  1        2 0.92742821E-01 0.90214190E+03</pdfrwt>
<pdfrwt beam="2">  1       -2 0.51925741E-01 0.90214190E+03</pdfrwt>
<totfact> 0.17328290E+02</totfact>
</mgrwt>
</event>
<event>
 6    1  0.1878398E-004  0.1442122E+04  0.7818608E-02  0.8923881E-01
          2   -1    0    0  501    0  0.00000000000E+00  0.00000000000E+00  0.76137484506E+03  0.76137484506E+03  0.00000000000E+00 0.  1.
         -2   -1    0    0    0  501 -0.00000000000E+00 -0.00000000000E+00 -0.68288139470E+03  0.68288139470E+03  0.00000000000E+00 0. -1.
         23    2    1    2    0    0  0.60964169990E+03 -0.37869749735E+03  0.14630166967E+02  0.72373329375E+03  0.92201095127E+02 0.  0.
         11    1    3    3    0    0  0.54376299359E+03 -0.36863226816E+03  0.13971595565E+02  0.65708686473E+03  0.00000000000E+00 0.  1.
        -11    1    3    3    0    0  0.65878706316E+02 -0.10065229185E+02  0.65857140176E+00  0.66646429017E+02  0.00000000000E+00 0. -1.
         22    1    1    2    0    0 -0.60964169990E+03  0.37869749735E+03  0.63863283386E+02  0.72052294601E+03  0.00000000000E+00 0. -1.
<mgrwt>
<rscale>  0 0.14421217E+04</rscale>
<asrwt>0</asrwt>
<pdfrwt beam="1">  1        2 0.11713459E+00 0.14421217E+04</pdfrwt>
<pdfrwt beam="2">  1       -2 0.10505868E+00 0.14421217E+04</pdfrwt>
<totfact> 0.26197214E+01</totfact>
</mgrwt>
</event>
<event>
 6    1  0.1878398E-004  0.3785482E+04  0.7818608E-02  0.8049278E-01
         -2   -1    0    0    0  501 -0.00000000000E+00  0.00000000000E+00  0.30166894929E+04  0.30166894929E+04  0.00000000000E+00 0. -1.
          2   -1    0    0  501    0  0.00000000000E+00 -0.00000000000E+00 -0.11875494862E+04  0.11875494862E+04  0.00000000000E+00 0.  1.
         23    2    1    2    0    0 -0.36023385135E+03 -0.18566255620E+04  0.95787294819E+03  0.21219486073E+04  0.91205274336E+02 0.  0.
         13    1    3    3    0    0 -0.23745434310E+03 -0.13506291290E+04  0.73070884036E+03  0.15538722658E+04  0.00000000000E+00 0.  1.
        -13    1    3    3    0    0 -0.12277950825E+03 -0.50599643304E+03  0.22716410783E+03  0.56807634151E+03  0.00000000000E+00 0. -1.
         22    1    1    2    0    0  0.36023385135E+03  0.18566255620E+04  0.87126705854E+03  0.20822903718E+04  0.00000000000E+00 0.  1.
<mgrwt>
<rscale>  0 0.37854818E+04</rscale>
<asrwt>0</asrwt>
<pdfrwt beam="1">  1        2 0.18269992E+00 0.37854818E+04</pdfrwt>
<pdfrwt beam="2">  1       -2 0.46410607E+00 0.37854818E+04</pdfrwt>
<totfact> 0.43329160E-02</totfact>
</mgrwt>
</event>
<event>
 6    1  0.1878398E-004  0.2240691E+04  0.7818608E-02  0.8501680E-01
          2   -1    0    0  501    0  0.00000000000E+00  0.00000000000E+00  0.27979616304E+04  0.27979616304E+04  0.00000000000E+00 0.  1.
         -2   -1    0    0    0  501 -0.00000000000E+00 -0.00000000000E+00 -0.44860292300E+03  0.44860292300E+03  0.00000000000E+00 0. -1.
         23    2    1    2    0    0  0.55797457675E+03  0.67458921746E+03  0.16770946947E+03  0.89582006750E+03  0.89223800480E+02 0.  0.
         13    1    3    3    0    0  0.27247892784E+03  0.36828764979E+03  0.49879189169E+02  0.46083456100E+03  0.00000000000E+00 0.  1.
        -13    1    3    3    0    0  0.28549564892E+03  0.30630156767E+03  0.11783028030E+03  0.43498550649E+03  0.00000000000E+00 0. -1.
         22    1    1    2    0    0 -0.55797457675E+03 -0.67458921746E+03  0.21816492379E+04  0.23507444859E+04  0.00000000000E+00 0.  1.
<mgrwt>
<rscale>  0 0.22406908E+04</rscale>
<asrwt>0</asrwt>
<pdfrwt beam="1">  1        2 0.43045562E+00 0.22406908E+04</pdfrwt>
<pdfrwt beam="2">  1       -2 0.69015836E-01 0.22406908E+04</pdfrwt>
<totfact> 0.40525673E+00</totfact>
</mgrwt>
</event>
<event>
 6    1  0.1878398E-004  0.2059250E+04  0.7818608E-02  0.8579409E-01
          2   -1    0    0  501    0  0.00000000000E+00  0.00000000000E+00  0.16596741672E+04  0.16596741672E+04  0.00000000000E+00 0.  1.
         -2   -1    0    0    0  501 -0.00000000000E+00 -0.00000000000E+00 -0.63875667419E+03  0.63875667419E+03  0.00000000000E+00 0. -1.
         23    2    1    2    0    0 -0.28451319495E+03  0.73874893746E+03  0.12427048039E+04  0.14763071513E+04  0.92031650383E+02 0.  0.
         13    1    3    3    0    0 -0.86418201107E+02  0.23724438718E+03  0.47836355137E+03  0.54091098345E+03  0.00000000000E+00 0. -1.
        -13    1    3    3    0    0 -0.19809499384E+03  0.50150455027E+03  0.76434125249E+03  0.93539616783E+03  0.00000000000E+00 0.  1.
         22    1    1    2    0    0  0.28451319495E+03 -0.73874893746E+03 -0.22178731081E+03  0.82212369016E+03  0.00000000000E+00 0. -1.
<mgrwt>
<rscale>  0 0.20592503E+04</rscale>
<asrwt>0</asrwt>
<pdfrwt beam="1">  1        2 0.25533449E+00 0.20592503E+04</pdfrwt>
<pdfrwt beam="2">  1       -2 0.98270258E-01 0.20592503E+04</pdfrwt>
<totfact> 0.82201727E+00</totfact>
</mgrwt>
</event>
<event>
 6    1  0.1878398E-004  0.1012658E+04  0.7818608E-02  0.9294770E-01
          2   -1    0    0  501    0  0.00000000000E+00  0.00000000000E+00  0.76445453995E+03  0.76445453995E+03  0.00000000000E+00 0.  1.
         -2   -1    0    0    0  501 -0.00000000000E+00 -0.00000000000E+00 -0.33536198456E+03  0.33536198456E+03  0.00000000000E+00 0. -1.
         23    2    1    2    0    0  0.31785878443E+03  0.19173001044E+03 -0.15074257585E+03  0.41133748840E+03  0.93169745332E+02 0.  0.
         13    1    3    3    0    0  0.25046431093E+03  0.16503233817E+03 -0.80875394740E+02  0.31065877288E+03  0.00000000000E+00 0. -1.
        -13    1    3    3    0    0  0.67394473500E+02  0.26697672272E+02 -0.69867181106E+02  0.10067871552E+03  0.00000000000E+00 0.  1.
         22    1    1    2    0    0 -0.31785878443E+03 -0.19173001044E+03  0.57983513124E+03  0.68847903611E+03  0.00000000000E+00 0.  1.
<mgrwt>
<rscale>  0 0.10126579E+04</rscale>
<asrwt>0</asrwt>
<pdfrwt beam="1">  1        2 0.11760839E+00 0.10126579E+04</pdfrwt>
<pdfrwt beam="2">  1       -2 0.51594152E-01 0.10126579E+04</pdfrwt>
<totfact> 0.12951643E+02</totfact>
</mgrwt>
</event>
<event>
 6    1  0.1878398E-004  0.3148022E+04  0.7818608E-02  0.8202681E-01
         -1   -1    0    0    0  501 -0.00000000000E+00  0.00000000000E+00  0.14146965267E+04  0.14146965267E+04  0.00000000000E+00 0. -1.
          1   -1    0    0  501    0  0.00000000000E+00 -0.00000000000E+00 -0.17512665534E+04  0.17512665534E+04  0.00000000000E+00 0.  1.
         23    2    1    2    0    0 -0.14456531081E+04  0.13494315836E+03 -0.77654805362E+03  0.16488265572E+04  0.86484513756E+02 0.  0.
         11    1    3    3    0    0 -0.37239300312E+03  0.61227055957E+02 -0.17109872012E+03  0.41436707540E+03  0.00000000000E+00 0.  1.
        -11    1    3    3    0    0 -0.10732601050E+04  0.73716102406E+02 -0.60544933350E+03  0.12344594818E+04  0.00000000000E+00 0. -1.
         22    1    1    2    0    0  0.14456531081E+04 -0.13494315836E+03  0.43997802695E+03  0.15171365229E+04  0.00000000000E+00 0.  1.
<mgrwt>
<rscale>  0 0.31480221E+04</rscale>
<asrwt>0</asrwt>
<pdfrwt beam="1">  1        1 0.26942562E+00 0.31480221E+04</pdfrwt>
<pdfrwt beam="2">  1       -1 0.21764562E+00 0.31480221E+04</pdfrwt>
<totfact> 0.42178683E-01</totfact>
</mgrwt>
</event>
<event>
 6    1  0.1878398E-004  0.2016802E+04  0.7818608E-02  0.8598805E-01
          2   -1    0    0  501    0  0.00000000000E+00  0.00000000000E+00  0.52648783323E+03  0.52648783323E+03  0.00000000000E+00 0.  1.
         -2   -1    0    0    0  501 -0.00000000000E+00 -0.00000000000E+00 -0.19314260575E+04  0.19314260575E+04  0.00000000000E+00 0. -1.
         23    2    1    2    0    0  0.88044568830E+03  0.46372106369E+03 -0.88823025138E+03  0.13366605901E+04  0.86525826452E+02 0.  0.
         13    1    3    3    0    0  0.53183986069E+03  0.28885798380E+03 -0.48388035536E+03  0.77487597106E+03  0.00000000000E+00 0. -1.
        -13    1    3    3    0    0  0.34860582761E+03  0.17486307989E+03 -0.40434989602E+03  0.56178461902E+03  0.00000000000E+00 0.  1.
         22    1    1    2    0    0 -0.88044568830E+03 -0.46372106369E+03 -0.51670797287E+03  0.11212533006E+04  0.00000000000E+00 0. -1.
<mgrwt>
<rscale>  0 0.20168017E+04</rscale>
<asrwt>0</asrwt>
<pdfrwt beam="1">  1        2 0.80998127E-01 0.20168017E+04</pdfrwt>
<pdfrwt beam="2">  1       -2 0.29714248E+00 0.20168017E+04</pdfrwt>
<totfact> 0.17812967E+00</totfact>
</mgrwt>
</event>
<event>
 6    1  0.1878398E-004  0.7664985E+03  0.7818608E-02  0.9609817E-01
          3   -1    0    0  501    0  0.00000000000E+00  0.00000000000E+00  0.20610890372E+03  0.20610890372E+03  0.00000000000E+00 0.  1.
         -3   -1    0    0    0  501 -0.00000000000E+00 -0.00000000000E+00 -0.71263294178E+03  0.71263294178E+03  0.00000000000E+00 0. -1.
         23    2    1    2    0    0  0.14510336621E+03 -0.33311605201E+03 -0.14061138712E+03  0.40307396876E+03  0.10332362319E+03 0.  0.
         13    1    3    3    0    0  0.78902899532E+02 -0.86285474283E+02 -0.13640103820E+02  0.11771534759E+03  0.00000000000E+00 0.  1.
        -13    1    3    3    0    0  0.66200466674E+02 -0.24683057772E+03 -0.12697128330E+03  0.28535862116E+03  0.00000000000E+00 0. -1.
         22    1    1    2    0    0 -0.14510336621E+03  0.33311605201E+03 -0.36591265094E+03  0.51566787675E+03  0.00000000000E+00 0. -1.
<mgrwt>
<rscale>  0 0.76649852E+03</rscale>
<asrwt>0</asrwt>
<pdfrwt beam="1">  1        3 0.31709062E-01 0.76649852E+03</pdfrwt>
<pdfrwt beam="2">  1       -3 0.10963584E+00 0.76649852E+03</pdfrwt>
<totfact> 0.18075408E+01</totfact>
</mgrwt>
</event>
<event>
 6    1  0.1878398E-004  0.7959643E+03  0.7818608E-02  0.9565877E-01
         -4   -1    0    0    0  501 -0.00000000000E+00  0.00000000000E+00  0.47573888660E+03  0.47573888660E+03  0.00000000000E+00 0. -1.
          4   -1    0    0  501    0  0.00000000000E+00 -0.00000000000E+00 -0.33293431280E+03  0.33293431280E+03  0.00000000000E+00 0.  1.
         23    2    1    2    0    0 -0.25191629689E+03  0.29937095223E+03  0.37604546002E+02  0.40351664506E+03  0.91251264559E+02 0.  0.
         11    1    3    3    0    0 -0.18552503545E+03  0.23298964665E+03 -0.10518423512E+02  0.29801736772E+03  0.00000000000E+00 0.  1.
        -11    1    3    3    0    0 -0.66391261443E+02  0.66381305571E+02  0.48122969514E+02  0.10549927734E+03  0.00000000000E+00 0. -1.
         22    1    1    2    0    0  0.25191629689E+03 -0.29937095223E+03  0.10520002780E+03  0.40515655434E+03  0.00000000000E+00 0. -1.
<mgrwt>
<rscale>  0 0.79596432E+03</rscale>
<asrwt>0</asrwt>
<pdfrwt beam="1">  1        4 0.51220664E-01 0.79596432E+03</pdfrwt>
<pdfrwt beam="2">  1       -4 0.73190598E-01 0.79596432E+03</pdfrwt>
<totfact> 0.12369916E+01</totfact>
</mgrwt>
</event>
<event>
 6    1  0.1878398E-004  0.4555173E+04  0.7818608E-02  0.7901048E-01
         -1   -1    0    0    0  501 -0.00000000000E+00  0.00000000000E+00  0.27792657851E+04  0.27792657851E+04  0.00000000000E+00 0. -1.
          1   -1    0    0  501    0  0.00000000000E+00 -0.00000000000E+00 -0.18664645484E+04  0.18664645484E+04  0.00000000000E+00 0.  1.
         23    2    1    2    0    0 -0.59915627956E+03 -0.29464898447E+03 -0.17632423502E+04  0.18876484727E+04  0.91580016550E+02 0.  0.
         11    1    3    3    0    0 -0.52456199923E+03 -0.25365773817E+03 -0.14407568966E+04  0.15541196782E+04  0.00000000000E+00 0. -1.
        -11    1    3    3    0    0 -0.74594280338E+02 -0.40991246300E+02 -0.32248545366E+03  0.33352879449E+03  0.00000000000E+00 0.  1.
         22    1    1    2    0    0  0.59915627956E+03  0.29464898447E+03  0.26760435870E+04  0.27580818608E+04  0.00000000000E+00 0. -1.
<mgrwt>
<rscale>  0 0.45551733E+04</rscale>
<asrwt>0</asrwt>
<pdfrwt beam="1">  1        1 0.28714839E+00 0.45551733E+04</pdfrwt>
<pdfrwt beam="2">  1       -1 0.42757935E+00 0.45551733E+04</pdfrwt>
<totfact> 0.12700244E-02</totfact>
</mgrwt>
</event>
<event>
 6    1  0.1878398E-004  0.1451245E+04  0.7818608E-02  0.8917538E-01
          2   -1    0    0  501    0  0.00000000000E+00  0.00000000000E+00  0.70439770563E+03  0.70439770563E+03  0.00000000000E+00 0.  1.
         -2   -1    0    0    0  501 -0.00000000000E+00 -0.00000000000E+00 -0.74748632492E+03  0.74748632492E+03  0.00000000000E+00 0. -1.
         23    2    1    2    0    0  0.31505833815E+03  0.49071597143E+02  0.62744693569E+03  0.70939651647E+03  0.88791792391E+02 0.  0.
         11    1    3    3    0    0  0.22086486234E+03  0.46845936691E+02  0.51745717223E+03  0.56456864445E+03  0.00000000000E+00 0.  1.
        -11    1    3    3    0    0  0.94193475813E+02  0.22256604519E+01  0.10998976346E+03  0.14482787203E+03  0.00000000000E+00 0. -1.
         22    1    1    2    0    0 -0.31505833815E+03 -0.49071597143E+02 -0.67053555497E+03  0.74248751408E+03  0.00000000000E+00 0. -1.
<mgrwt>
<rscale>  0 0.14512445E+04</rscale>
<asrwt>0</asrwt>
<pdfrwt beam="1">  1        2 0.10836888E+00 0.14512445E+04</pdfrwt>
<pdfrwt beam="2">  1       -2 0.11499790E+00 0.14512445E+04</pdfrwt>
<totfact> 0.23242070E+01</totfact>
</mgrwt>
</event>
<event>
 6    1  0.1878398E-004  0.2188228E+04  0.7818608E-02  0.8523344E-01
         -2   -1    0    0    0  501 -0.00000000000E+00  0.00000000000E+00  0.18725382701E+04  0.18725382701E+04  0.00000000000E+00 0. -1.
          2   -1    0    0  501    0  0.00000000000E+00 -0.00000000000E+00 -0.63928519372E+03  0.63928519372E+03  0.00000000000E+00 0.  1.
         23    2    1    2    0    0 -0.94249634884E+03 -0.34033237901E+03  0.11917369090E+03  0.10133914924E+04  0.92921754701E+02 0.  0.
         11    1    3    3    0    0 -0.62637549667E+03 -0.18300569222E+03  0.59378571539E+02  0.65525808730E+03  0.00000000000E+00 0. -1.
        -11    1    3    3    0    0 -0.31612085217E+03 -0.15732668679E+03  0.59795119362E+02  0.35813340511E+03  0.00000000000E+00 0.  1.
         22    1    1    2    0    0  0.94249634884E+03  0.34033237901E+03  0.11140793855E+04  0.14984319714E+04  0.00000000000E+00 0. -1.
<mgrwt>
<rscale>  0 0.21882285E+04</rscale>
<asrwt>0</asrwt>
<pdfrwt beam="1">  1        2 0.98351569E-01 0.21882285E+04</pdfrwt>
<pdfrwt beam="2">  1       -2 0.28808281E+00 0.21882285E+04</pdfrwt>
<totfact> 0.15790230E+00</totfact>
</mgrwt>
</event>
<event>
 6    1  0.1878398E-004  0.4133724E+04  0.7818608E-02  0.7978100E-01
         -2   -1    0    0    0  501 -0.00000000000E+00  0.00000000000E+00  0.16417784084E+04  0.16417784084E+04  0.00000000000E+00 0. -1.
          2   -1    0    0  501    0  0.00000000000E+00 -0.00000000000E+00 -0.26020066692E+04  0.26020066692E+04  0.00000000000E+00 0.  1.
         23    2    1    2    0    0  0.15824549050E+03  0.15305756866E+04  0.93472378429E+03  0.18027715953E+04  0.92592140000E+02 0.  0.
         13    1    3    3    0    0  0.54399068737E+02  0.32337106799E+03  0.23680276170E+03  0.40447948556E+03  0.00000000000E+00 0. -1.
        -13    1    3    3    0    0  0.10384642176E+03  0.12072046186E+04  0.69792102259E+03  0.13982921098E+04  0.00000000000E+00 0.  1.
         22    1    1    2    0    0 -0.15824549050E+03 -0.15305756866E+04 -0.18949520451E+04  0.24410134823E+04  0.00000000000E+00 0.  1.
<mgrwt>
<rscale>  0 0.41337239E+04</rscale>
<asrwt>0</asrwt>
<pdfrwt beam="1">  1        2 0.40030871E+00 0.41337239E+04</pdfrwt>
<pdfrwt beam="2">  1       -2 0.25258130E+00 0.41337239E+04</pdfrwt>
<totfact> 0.14673665E-01</totfact>
</mgrwt>
</event>
<event>
 6    1  0.1878398E-004  0.4594370E+04  0.7818608E-02  0.7894321E-01
          2   -1    0    0  501    0  0.00000000000E+00  0.00000000000E+00  0.26955361273E+04  0.26955361273E+04  0.00000000000E+00 0.  1.
         -2   -1    0    0    0  501 -0.00000000000E+00 -0.00000000000E+00 -0.19577026622E+04  0.19577026622E+04  0.00000000000E+00 0. -1.
         23    2    1    2    0    0 -0.20602264931E+04  0.10120001425E+04  0.43476088889E+03  0.23379568461E+04  0.91365708349E+02 0.  0.
         11    1    3    3    0    0 -0.10162702497E+04  0.45131614623E+03  0.19478281100E+03  0.11289073601E+04  0.00000000000E+00 0. -1.
        -11    1    3    3    0    0 -0.10439562434E+04  0.56068399623E+03  0.23997807789E+03  0.12090494860E+04  0.00000000000E+00 0.  1.
         22    1    1    2    0    0  0.20602264931E+04 -0.10120001425E+04  0.30307257620E+03  0.23152819434E+04  0.00000000000E+00 0. -1.
<mgrwt>
<rscale>  0 0.45943697E+04</rscale>
<asrwt>0</asrwt>
<pdfrwt beam="1">  1        2 0.41469786E+00 0.45943697E+04</pdfrwt>
<pdfrwt beam="2">  1       -2 0.30118503E+00 0.45943697E+04</pdfrwt>
<totfact> 0.62792199E-02</totfact>
</mgrwt>
</event>
<event>
 6    1  0.1878398E-004  0.1096299E+04  0.7818608E-02  0.9208806E-01
         -1   -1    0    0    0  501 -0.00000000000E+00  0.00000000000E+00  0.23932818263E+03  0.23932818263E+03  0.00000000000E+00 0.  1.
          1   -1    0    0  501    0  0.00000000000E+00 -0.00000000000E+00 -0.12554645367E+04  0.12554645367E+04  0.00000000000E+00 0. -1.
         23    2    1    2    0    0  0.48030127092E+03  0.21940367580E+03 -0.33116869321E+03  0.62991817337E+03  0.91087419361E+02 0.  0.
         11    1    3    3    0    0  0.25200408869E+03  0.15714325087E+03 -0.15569769532E+03  0.33532347717E+03  0.00000000000E+00 0. -1.
        -11    1    3    3    0    0  0.22829718223E+03  0.62260424938E+02 -0.17547099789E+03  0.29459469620E+03  0.00000000000E+00 0.  1.
         22    1    1    2    0    0 -0.48030127092E+03 -0.21940367580E+03 -0.68496766082E+03  0.86487454592E+03  0.00000000000E+00 0. -1.
<mgrwt>
<rscale>  0 0.10962993E+04</rscale>
<asrwt>0</asrwt>
<pdfrwt beam="1">  1        1 0.19314839E+00 0.10962993E+04</pdfrwt>
<pdfrwt beam="2">  1       -1 0.36819720E-01 0.10962993E+04</pdfrwt>
<totfact> 0.68691951E+01</totfact>
</mgrwt>
</event>
<event>
 6    1  0.1878398E-004  0.1077941E+04  0.7818608E-02  0.9226962E-01
          2   -1    0    0  501    0  0.00000000000E+00  0.00000000000E+00  0.36026427547E+03  0.36026427547E+03  0.00000000000E+00 0.  1.
         -2   -1    0    0    0  501 -0.00000000000E+00 -0.00000000000E+00 -0.80632310927E+03  0.80632310927E+03  0.00000000000E+00 0. -1.
         23    2    1    2    0    0 -0.16181936238E+03 -0.53391174061E+02 -0.77364720889E+03  0.79733101444E+03  0.90391477852E+02 0.  0.
         13    1    3    3    0    0 -0.84262060030E+02  0.11427816149E+02 -0.25137656667E+03  0.26536930496E+03  0.00000000000E+00 0. -1.
        -13    1    3    3    0    0 -0.77557302350E+02 -0.64818990211E+02 -0.52227064221E+03  0.53196170948E+03  0.00000000000E+00 0.  1.
         22    1    1    2    0    0  0.16181936238E+03  0.53391174061E+02  0.32758837509E+03  0.36925637029E+03  0.00000000000E+00 0.  1.
<mgrwt>
<rscale>  0 0.10779414E+04</rscale>
<asrwt>0</asrwt>
<pdfrwt beam="1">  1        2 0.55425274E-01 0.10779414E+04</pdfrwt>
<pdfrwt beam="2">  1       -2 0.12404971E+00 0.10779414E+04</pdfrwt>
<totfact> 0.43445276E+01</totfact>
</mgrwt>
</event>
<event>
 6    1  0.1878398E-004  0.2619570E+04  0.7818608E-02  0.8361584E-01
         -2   -1    0    0    0  501 -0.00000000000E+00  0.00000000000E+00  0.11743397976E+04  0.11743397976E+04  0.00000000000E+00 0. -1.
          2   -1    0    0  501    0  0.00000000000E+00 -0.00000000000E+00 -0.14608519647E+04  0.14608519647E+04  0.00000000000E+00 0.  1.
         23    2    1    2    0    0  0.37683974108E+03  0.11894443722E+04 -0.53883715349E+03  0.13622212192E+04  0.92277121230E+02 0.  0.
         13    1    3    3    0    0  0.19652030165E+03  0.67405239357E+03 -0.25634922966E+03  0.74745018950E+03  0.00000000000E+00 0. -1.
        -13    1    3    3    0    0  0.18031943943E+03  0.51539197859E+03 -0.28248792383E+03  0.61477102968E+03  0.00000000000E+00 0.  1.
         22    1    1    2    0    0 -0.37683974108E+03 -0.11894443722E+04  0.25232498642E+03  0.12729705431E+04  0.00000000000E+00 0.  1.
<mgrwt>
<rscale>  0 0.26195699E+04</rscale>
<asrwt>0</asrwt>
<pdfrwt beam="1">  1        2 0.22474646E+00 0.26195699E+04</pdfrwt>
<pdfrwt beam="2">  1       -2 0.18066766E+00 0.26195699E+04</pdfrwt>
<totfact> 0.21169414E+00</totfact>
</mgrwt>
</event>
<event>
 6    1  0.1878398E-004  0.1576297E+04  0.7818608E-02  0.8835243E-01
          2   -1    0    0  501    0  0.00000000000E+00  0.00000000000E+00  0.26680913201E+04  0.26680913201E+04  0.00000000000E+00 0.  1.
         -2   -1    0    0    0  501 -0.00000000000E+00 -0.00000000000E+00 -0.23281740160E+03  0.23281740160E+03  0.00000000000E+00 0. -1.
         23    2    1    2    0    0  0.13305411516E+03 -0.36111749252E+03  0.24819607426E+04  0.25132375975E+04  0.90137964287E+02 0.  0.
         11    1    3    3    0    0  0.48052339658E+02 -0.12958177020E+03  0.63392328772E+03  0.64881368452E+03  0.00000000000E+00 0. -1.
        -11    1    3    3    0    0  0.85001775501E+02 -0.23153572233E+03  0.18480374549E+04  0.18644239130E+04  0.00000000000E+00 0.  1.
         22    1    1    2    0    0 -0.13305411516E+03  0.36111749252E+03 -0.46686824149E+02  0.38767112417E+03  0.00000000000E+00 0. -1.
<mgrwt>
<rscale>  0 0.15762970E+04</rscale>
<asrwt>0</asrwt>
<pdfrwt beam="1">  1        2 0.41047557E+00 0.15762970E+04</pdfrwt>
<pdfrwt beam="2">  1       -2 0.35818064E-01 0.15762970E+04</pdfrwt>
<totfact> 0.19597043E+01</totfact>
</mgrwt>
</event>
<event>
 6    1  0.1878398E-004  0.2113494E+04  0.7818608E-02  0.8555322E-01
         -1   -1    0    0    0  501 -0.00000000000E+00  0.00000000000E+00  0.56999926855E+03  0.56999926855E+03  0.00000000000E+00 0.  1.
          1   -1    0    0  501    0  0.00000000000E+00 -0.00000000000E+00 -0.19591501519E+04  0.19591501519E+04  0.00000000000E+00 0. -1.
         23    2    1    2    0    0  0.40506216631E+03  0.94002340323E+03 -0.10007005230E+04  0.14343375464E+04  0.90572086952E+02 0.  0.
         11    1    3    3    0    0  0.21766613797E+03  0.40846252734E+03 -0.41807834502E+03  0.62370641045E+03  0.00000000000E+00 0. -1.
        -11    1    3    3    0    0  0.18739602834E+03  0.53156087588E+03 -0.58262217800E+03  0.81063113591E+03  0.00000000000E+00 0.  1.
         22    1    1    2    0    0 -0.40506216631E+03 -0.94002340323E+03 -0.38845036033E+03  0.10948118741E+04  0.00000000000E+00 0. -1.
<mgrwt>
<rscale>  0 0.21134939E+04</rscale>
<asrwt>0</asrwt>
<pdfrwt beam="1">  1        1 0.30140772E+00 0.21134939E+04</pdfrwt>
<pdfrwt beam="2">  1       -1 0.87692194E-01 0.21134939E+04</pdfrwt>
<totfact> 0.37315850E+00</totfact>
</mgrwt>
</event>
<event>
 6    1  0.1878398E-004  0.1567207E+04  0.7818608E-02  0.8840951E-01
         -1   -1    0    0    0  501 -0.00000000000E+00  0.00000000000E+00  0.15845233187E+04  0.15845233187E+04  0.00000000000E+00 0. -1.
          1   -1    0    0  501    0  0.00000000000E+00 -0.00000000000E+00 -0.38751983843E+03  0.38751983843E+03  0.00000000000E+00 0.  1.
         23    2    1    2    0    0 -0.11677566723E+03 -0.12483715466E+03  0.15594568742E+04  0.15713021754E+04  0.88678702945E+02 0.  0.
         11    1    3    3    0    0 -0.88642025105E+02 -0.11610027772E+03  0.95292940089E+03  0.96405971090E+03  0.00000000000E+00 0.  1.
        -11    1    3    3    0    0 -0.28133642130E+02 -0.87368769332E+01  0.60652747329E+03  0.60724246450E+03  0.00000000000E+00 0. -1.
         22    1    1    2    0    0  0.11677566723E+03  0.12483715466E+03 -0.36245339394E+03  0.40074098170E+03  0.00000000000E+00 0.  1.
<mgrwt>
<rscale>  0 0.15672067E+04</rscale>
<asrwt>0</asrwt>
<pdfrwt beam="1">  1        1 0.59618437E-01 0.15672067E+04</pdfrwt>
<pdfrwt beam="2">  1       -1 0.24377282E+00 0.15672067E+04</pdfrwt>
<totfact> 0.46125850E+00</totfact>
</mgrwt>
</event>
<event>
 6    1  0.1878398E-004  0.1342751E+04  0.7818608E-02  0.8996334E-01
          1   -1    0    0  501    0  0.00000000000E+00  0.00000000000E+00  0.16545766388E+04  0.16545766388E+04  0.00000000000E+00 0.  1.
         -1   -1    0    0    0  501 -0.00000000000E+00 -0.00000000000E+00 -0.27242310114E+03  0.27242310114E+03  0.00000000000E+00 0. -1.
         23    2    1    2    0    0 -0.30449603540E+03 -0.18620837279E+03  0.15051577941E+04  0.15494796203E+04  0.89418761280E+02 0.  0.
         13    1    3    3    0    0 -0.16499084873E+03 -0.10372801691E+03  0.63045963314E+03  0.65989456027E+03  0.00000000000E+00 0.  1.
        -13    1    3    3    0    0 -0.13950518667E+03 -0.82480355886E+02  0.87469816095E+03  0.88958506000E+03  0.00000000000E+00 0. -1.
         22    1    1    2    0    0  0.30449603540E+03  0.18620837279E+03 -0.12300425641E+03  0.37752011969E+03  0.00000000000E+00 0. -1.
<mgrwt>
<rscale>  0 0.13427508E+04</rscale>
<asrwt>0</asrwt>
<pdfrwt beam="1">  1        1 0.25455025E+00 0.13427508E+04</pdfrwt>
<pdfrwt beam="2">  1       -1 0.41911247E-01 0.13427508E+04</pdfrwt>
<totfact> 0.28026230E+01</totfact>
</mgrwt>
</event>
<event>
 6    1  0.1878398E-004  0.4476242E+04  0.7818608E-02  0.7914809E-01
          2   -1    0    0  501    0  0.00000000000E+00  0.00000000000E+00  0.22653760616E+04  0.22653760616E+04  0.00000000000E+00 0.  1.
         -2   -1    0    0    0  501 -0.00000000000E+00 -0.00000000000E+00 -0.22111934495E+04  0.22111934495E+04  0.00000000000E+00 0. -1.
         23    2    1    2    0    0  0.39298446703E+03  0.11117843282E+04  0.19284684627E+04  0.22621963191E+04  0.89668227057E+02 0.  0.
         13    1    3    3    0    0  0.35113731202E+03  0.94085045800E+03  0.15870208079E+04  0.18780660374E+04  0.00000000000E+00 0. -1.
        -13    1    3    3    0    0  0.41847155010E+02  0.17093387020E+03  0.34144765479E+03  0.38413028171E+03  0.00000000000E+00 0.  1.
         22    1    1    2    0    0 -0.39298446703E+03 -0.11117843282E+04 -0.18742858505E+04  0.22143731920E+04  0.00000000000E+00 0. -1.
<mgrwt>
<rscale>  0 0.44762416E+04</rscale>
<asrwt>0</asrwt>
<pdfrwt beam="1">  1        2 0.34851939E+00 0.44762416E+04</pdfrwt>
<pdfrwt beam="2">  1       -2 0.34018361E+00 0.44762416E+04</pdfrwt>
<totfact> 0.64574481E-02</totfact>
</mgrwt>
</event>
<event>
 6    1  0.1878398E-004  0.2662338E+04  0.7818608E-02  0.8347329E-01
         -2   -1    0    0    0  501 -0.00000000000E+00  0.00000000000E+00  0.48672416227E+03  0.48672416227E+03  0.00000000000E+00 0. -1.
          2   -1    0    0  501    0  0.00000000000E+00 -0.00000000000E+00 -0.36406883976E+04  0.36406883976E+04  0.00000000000E+00 0.  1.
         23    2    1    2    0    0 -0.72036551425E+03 -0.80634165806E+03 -0.27783982680E+04  0.29827889801E+04  0.91759578715E+02 0.  0.
         11    1    3    3    0    0 -0.21160168558E+03 -0.18806708533E+03 -0.66193875457E+03  0.71993570318E+03  0.00000000000E+00 0.  1.
        -11    1    3    3    0    0 -0.50876382867E+03 -0.61827457273E+03 -0.21164595134E+04  0.22628532769E+04  0.00000000000E+00 0. -1.
         22    1    1    2    0    0  0.72036551425E+03  0.80634165806E+03 -0.37556596733E+03  0.11446235798E+04  0.00000000000E+00 0. -1.
<mgrwt>
<rscale>  0 0.26623381E+04</rscale>
<asrwt>0</asrwt>
<pdfrwt beam="1">  1        2 0.56010593E+00 0.26623381E+04</pdfrwt>
<pdfrwt beam="2">  1       -2 0.74880638E-01 0.26623381E+04</pdfrwt>
<totfact> 0.91044719E-01</totfact>
</mgrwt>
</event>
<event>
 6    1  0.1878398E-004  0.1514142E+04  0.7818608E-02  0.8875103E-01
         -2   -1    0    0    0  501 -0.00000000000E+00  0.00000000000E+00  0.58392952942E+03  0.58392952942E+03  0.00000000000E+00 0. -1.
          2   -1    0    0  501    0  0.00000000000E+00 -0.00000000000E+00 -0.98155018306E+03  0.98155018306E+03  0.00000000000E+00 0.  1.
         23    2    1    2    0    0 -0.41542282203E+03 -0.32028477214E+03  0.36100886198E+03  0.64315807752E+03  0.90368456467E+02 0.  0.
         11    1    3    3    0    0 -0.39080013219E+03 -0.30153931723E+03  0.30812858698E+03  0.58188824466E+03  0.00000000000E+00 0.  1.
        -11    1    3    3    0    0 -0.24622689834E+02 -0.18745454913E+02  0.52880275008E+02  0.61269832866E+02  0.00000000000E+00 0. -1.
         22    1    1    2    0    0  0.41542282203E+03  0.32028477214E+03 -0.75862951563E+03  0.92232163496E+03  0.00000000000E+00 0.  1.
<mgrwt>
<rscale>  0 0.15141415E+04</rscale>
<asrwt>0</asrwt>
<pdfrwt beam="1">  1        2 0.15100772E+00 0.15141415E+04</pdfrwt>
<pdfrwt beam="2">  1       -2 0.89835312E-01 0.15141415E+04</pdfrwt>
<totfact> 0.26525982E+01</totfact>
</mgrwt>
</event>
<event>
 6    1  0.1878398E-004  0.2145363E+04  0.7818608E-02  0.8541520E-01
         -2   -1    0    0    0  501 -0.00000000000E+00  0.00000000000E+00  0.84609961990E+03  0.84609961990E+03  0.00000000000E+00 0. -1.
          2   -1    0    0  501    0  0.00000000000E+00 -0.00000000000E+00 -0.13599411949E+04  0.13599411949E+04  0.00000000000E+00 0.  1.
         23    2    1    2    0    0 -0.71473624659E+03 -0.47035643594E+03  0.40438159262E+03  0.95096437706E+03  0.93411428542E+02 0.  0.
         11    1    3    3    0    0 -0.54774318977E+03 -0.40354765094E+03  0.30660048530E+03  0.74624202917E+03  0.00000000000E+00 0. -1.
        -11    1    3    3    0    0 -0.16699305681E+03 -0.66808785003E+02  0.97781107313E+02  0.20472234789E+03  0.00000000000E+00 0.  1.
         22    1    1    2    0    0  0.71473624659E+03  0.47035643594E+03 -0.91822316760E+03  0.12550764377E+04  0.00000000000E+00 0.  1.
<mgrwt>
<rscale>  0 0.21453631E+04</rscale>
<asrwt>0</asrwt>
<pdfrwt beam="1">  1        2 0.20922172E+00 0.21453631E+04</pdfrwt>
<pdfrwt beam="2">  1       -2 0.13016917E+00 0.21453631E+04</pdfrwt>
<totfact> 0.60655279E+00</totfact>
</mgrwt>
</event>
<event>
 6    1  0.1878398E-004  0.4516100E+04  0.7818608E-02  0.7907824E-01
          1   -1    0    0  501    0  0.00000000000E+00  0.00000000000E+00  0.20709300016E+04  0.20709300016E+04  0.00000000000E+00 0. -1.
         -1   -1    0    0    0  501 -0.00000000000E+00 -0.00000000000E+00 -0.24620776598E+04  0.24620776598E+04  0.00000000000E+00 0.  1.
         23    2    1    2    0    0  0.14572635103E+04 -0.16537076314E+04  0.29221993441E+03  0.22253341284E+04  0.91398163834E+02 0.  0.
         13    1    3    3    0    0  0.59367086965E+03 -0.70558789823E+03  0.82059346757E+02  0.92576083304E+03  0.00000000000E+00 0.  1.
        -13    1    3    3    0    0  0.86359264062E+03 -0.94811973314E+03  0.21016058766E+03  0.12995732953E+04  0.00000000000E+00 0. -1.
         22    1    1    2    0    0 -0.14572635103E+04  0.16537076314E+04 -0.68336759267E+03  0.23076735330E+04  0.00000000000E+00 0.  1.
<mgrwt>
<rscale>  0 0.45161003E+04</rscale>
<asrwt>0</asrwt>
<pdfrwt beam="1">  1        1 0.31860462E+00 0.45161003E+04</pdfrwt>
<pdfrwt beam="2">  1       -1 0.37878118E+00 0.45161003E+04</pdfrwt>
<totfact> 0.19954838E-02</totfact>
</mgrwt>
</event>
<event>
 6    1  0.1878398E-004  0.3502415E+04  0.7818608E-02  0.8113218E-01
          1   -1    0    0  501    0  0.00000000000E+00  0.00000000000E+00  0.24037709286E+04  0.24037709286E+04  0.00000000000E+00 0.  1.
         -1   -1    0    0    0  501 -0.00000000000E+00 -0.00000000000E+00 -0.12757988008E+04  0.12757988008E+04  0.00000000000E+00 0. -1.
         23    2    1    2    0    0 -0.17099830048E+04  0.16069969990E+03  0.21169370536E+03  0.17329232751E+04  0.91337737317E+02 0.  0.
         11    1    3    3    0    0 -0.82723962808E+03  0.33764195450E+02  0.88947088069E+02  0.83269262495E+03  0.00000000000E+00 0. -1.
        -11    1    3    3    0    0 -0.88274337674E+03  0.12693550445E+03  0.12274661729E+03  0.90023065018E+03  0.00000000000E+00 0.  1.
         22    1    1    2    0    0  0.17099830048E+04 -0.16069969990E+03  0.91627842245E+03  0.19466464542E+04  0.00000000000E+00 0.  1.
<mgrwt>
<rscale>  0 0.35024152E+04</rscale>
<asrwt>0</asrwt>
<pdfrwt beam="1">  1        1 0.36981091E+00 0.35024152E+04</pdfrwt>
<pdfrwt beam="2">  1       -1 0.19627674E+00 0.35024152E+04</pdfrwt>
<totfact> 0.20571673E-01</totfact>
</mgrwt>
</event>
<event>
 6    1  0.1878398E-004  0.2713699E+04  0.7818608E-02  0.8330574E-01
          2   -1    0    0  501    0  0.00000000000E+00  0.00000000000E+00  0.15875481041E+04  0.15875481041E+04  0.00000000000E+00 0.  1.
         -2   -1    0    0    0  501 -0.00000000000E+00 -0.00000000000E+00 -0.11596756312E+04  0.11596756312E+04  0.00000000000E+00 0. -1.
         23    2    1    2    0    0  0.51965596775E+03  0.97407983007E+02 -0.10491894098E+04  0.11783889941E+04  0.90948139173E+02 0.  0.
         13    1    3    3    0    0  0.32292874363E+03  0.50414574429E+02 -0.73940546506E+03  0.80842132860E+03  0.00000000000E+00 0. -1.
        -13    1    3    3    0    0  0.19672722413E+03  0.46993408577E+02 -0.30978394469E+03  0.36996766555E+03  0.00000000000E+00 0.  1.
         22    1    1    2    0    0 -0.51965596775E+03 -0.97407983007E+02  0.14770618826E+04  0.15688347412E+04  0.00000000000E+00 0.  1.
<mgrwt>
<rscale>  0 0.27136992E+04</rscale>
<asrwt>0</asrwt>
<pdfrwt beam="1">  1        2 0.24423817E+00 0.27136992E+04</pdfrwt>
<pdfrwt beam="2">  1       -2 0.17841163E+00 0.27136992E+04</pdfrwt>
<totfact> 0.18472635E+00</totfact>
</mgrwt>
</event>
<event>
 6    1  0.1878398E-004  0.2600288E+04  0.7818608E-02  0.8368103E-01
          1   -1    0    0  501    0  0.00000000000E+00  0.00000000000E+00  0.17670932903E+04  0.17670932903E+04  0.00000000000E+00 0.  1.
         -1   -1    0    0    0  501 -0.00000000000E+00 -0.00000000000E+00 -0.95658472873E+03  0.95658472873E+03  0.00000000000E+00 0. -1.
         23    2    1    2    0    0  0.47017198903E+03 -0.10225874757E+04 -0.27263094544E+03  0.11616479181E+04  0.91386040404E+02 0.  0.
         11    1    3    3    0    0  0.13925034464E+03 -0.23817232518E+03 -0.96310693682E+02  0.29221989098E+03  0.00000000000E+00 0. -1.
        -11    1    3    3    0    0  0.33092164439E+03 -0.78441515051E+03 -0.17632025176E+03  0.86942802708E+03  0.00000000000E+00 0.  1.
         22    1    1    2    0    0 -0.47017198903E+03  0.10225874757E+04  0.10831395071E+04  0.15620301010E+04  0.00000000000E+00 0.  1.
<mgrwt>
<rscale>  0 0.26002880E+04</rscale>
<asrwt>0</asrwt>
<pdfrwt beam="1">  1        1 0.27186051E+00 0.26002880E+04</pdfrwt>
<pdfrwt beam="2">  1       -1 0.14716688E+00 0.26002880E+04</pdfrwt>
<totfact> 0.13874030E+00</totfact>
</mgrwt>
</event>
<event>
 6    1  0.1878398E-004  0.2649377E+04  0.7818608E-02  0.8351620E-01
          2   -1    0    0  501    0  0.00000000000E+00  0.00000000000E+00  0.27168163666E+04  0.27168163666E+04  0.00000000000E+00 0.  1.
         -2   -1    0    0    0  501 -0.00000000000E+00 -0.00000000000E+00 -0.64590278654E+03  0.64590278654E+03  0.00000000000E+00 0. -1.
         23    2    1    2    0    0  0.49949604352E+03  0.69546750171E+03 -0.24355184477E+03  0.89494251289E+03  0.91832765731E+02 0.  0.
         13    1    3    3    0    0  0.16955571563E+03  0.25172836532E+03 -0.42019240587E+02  0.30640157831E+03  0.00000000000E+00 0. -1.
        -13    1    3    3    0    0  0.32994032790E+03  0.44373913639E+03 -0.20153260418E+03  0.58854093459E+03  0.00000000000E+00 0.  1.
         22    1    1    2    0    0 -0.49949604352E+03 -0.69546750171E+03  0.23144654248E+04  0.24677766402E+04  0.00000000000E+00 0.  1.
<mgrwt>
<rscale>  0 0.26493767E+04</rscale>
<asrwt>0</asrwt>
<pdfrwt beam="1">  1        2 0.41797174E+00 0.26493767E+04</pdfrwt>
<pdfrwt beam="2">  1       -2 0.99369661E-01 0.26493767E+04</pdfrwt>
<totfact> 0.19161920E+00</totfact>
</mgrwt>
</event>
<event>
 6    1  0.1878398E-004  0.1779211E+04  0.7818608E-02  0.8717434E-01
         -1   -1    0    0    0  501 -0.00000000000E+00  0.00000000000E+00  0.27366504804E+03  0.27366504804E+03  0.00000000000E+00 0.  1.
          1   -1    0    0  501    0  0.00000000000E+00 -0.00000000000E+00 -0.28918474449E+04  0.28918474449E+04  0.00000000000E+00 0. -1.
         23    2    1    2    0    0 -0.67446656235E+03 -0.50132310293E+03 -0.80467745612E+03  0.11667553373E+04  0.87075894324E+02 0.  0.
         11    1    3    3    0    0 -0.37912887484E+03 -0.26596334287E+03 -0.38565813880E+03  0.60266690925E+03  0.00000000000E+00 0.  1.
        -11    1    3    3    0    0 -0.29533768751E+03 -0.23535976006E+03 -0.41901931733E+03  0.56408842801E+03  0.00000000000E+00 0. -1.
         22    1    1    2    0    0  0.67446656235E+03  0.50132310293E+03 -0.18135049407E+04  0.19987571556E+04  0.00000000000E+00 0. -1.
<mgrwt>
<rscale>  0 0.17792106E+04</rscale>
<asrwt>0</asrwt>
<pdfrwt beam="1">  1        1 0.44489963E+00 0.17792106E+04</pdfrwt>
<pdfrwt beam="2">  1       -1 0.42102313E-01 0.17792106E+04</pdfrwt>
<totfact> 0.37623542E+00</totfact>
</mgrwt>
</event>
<event>
 6    1  0.1878398E-004  0.1271916E+04  0.7818608E-02  0.9052137E-01
         -2   -1    0    0    0  501 -0.00000000000E+00  0.00000000000E+00  0.10868796169E+03  0.10868796169E+03  0.00000000000E+00 0. -1.
          2   -1    0    0  501    0  0.00000000000E+00 -0.00000000000E+00 -0.37211339799E+04  0.37211339799E+04  0.00000000000E+00 0.  1.
         23    2    1    2    0    0 -0.34936266711E+03  0.40297281834E+03 -0.28398427885E+04  0.28910157230E+04  0.93933390083E+02 0.  0.
         13    1    3    3    0    0 -0.26590876298E+03  0.24538401851E+03 -0.18025593524E+04  0.18385159792E+04  0.00000000000E+00 0. -1.
        -13    1    3    3    0    0 -0.83453904132E+02  0.15758879984E+03 -0.10372834361E+04  0.10524997438E+04  0.00000000000E+00 0.  1.
         22    1    1    2    0    0  0.34936266711E+03 -0.40297281834E+03 -0.77260322971E+03  0.93880621859E+03  0.00000000000E+00 0.  1.
<mgrwt>
<rscale>  0 0.12719158E+04</rscale>
<asrwt>0</asrwt>
<pdfrwt beam="1">  1        2 0.57248221E+00 0.12719158E+04</pdfrwt>
<pdfrwt beam="2">  1       -2 0.16721223E-01 0.12719158E+04</pdfrwt>
<totfact> 0.16581198E+01</totfact>
</mgrwt>
</event>
<event>
 6    1  0.1878398E-004  0.1068208E+04  0.7818608E-02  0.9236745E-01
         -2   -1    0    0    0  501 -0.00000000000E+00  0.00000000000E+00  0.30233071199E+03  0.30233071199E+03  0.00000000000E+00 0. -1.
          2   -1    0    0  501    0  0.00000000000E+00 -0.00000000000E+00 -0.94356009218E+03  0.94356009218E+03  0.00000000000E+00 0.  1.
         23    2    1    2    0    0  0.23498945590E+03 -0.47545115680E+03 -0.30658808691E+03  0.61878742988E+03  0.87337171108E+02 0.  0.
         13    1    3    3    0    0  0.12993616633E+03 -0.35283842539E+03 -0.21748768375E+03  0.43437225318E+03  0.00000000000E+00 0.  1.
        -13    1    3    3    0    0  0.10505328957E+03 -0.12261273141E+03 -0.89100403168E+02  0.18441517670E+03  0.00000000000E+00 0. -1.
         22    1    1    2    0    0 -0.23498945590E+03  0.47545115680E+03 -0.33464129328E+03  0.62710337429E+03  0.00000000000E+00 0.  1.
<mgrwt>
<rscale>  0 0.10682082E+04</rscale>
<asrwt>0</asrwt>
<pdfrwt beam="1">  1        2 0.14516309E+00 0.10682082E+04</pdfrwt>
<pdfrwt beam="2">  1       -2 0.46512417E-01 0.10682082E+04</pdfrwt>
<totfact> 0.11947008E+02</totfact>
</mgrwt>
</event>
<event>
 6    1  0.1878398E-004  0.2150933E+04  0.7818608E-02  0.8539133E-01
         -1   -1    0    0    0  501 -0.00000000000E+00  0.00000000000E+00  0.48956967781E+03  0.48956967781E+03  0.00000000000E+00 0. -1.
          1   -1    0    0  501    0  0.00000000000E+00 -0.00000000000E+00 -0.23625406648E+04  0.23625406648E+04  0.00000000000E+00 0.  1.
         23    2    1    2    0    0  0.84936110330E+03  0.54325033717E+03 -0.14261601677E+04  0.17493070415E+04  0.98015758882E+02 0.  0.
         13    1    3    3    0    0  0.69744579708E+03  0.46880507144E+03 -0.11299322355E+04  0.14081745956E+04  0.00000000000E+00 0.  1.
        -13    1    3    3    0    0  0.15191530622E+03  0.74445265729E+02 -0.29622793217E+03  0.34113244591E+03  0.00000000000E+00 0. -1.
         22    1    1    2    0    0 -0.84936110330E+03 -0.54325033717E+03 -0.44681081931E+03  0.11028033011E+04  0.00000000000E+00 0. -1.
<mgrwt>
<rscale>  0 0.21509331E+04</rscale>
<asrwt>0</asrwt>
<pdfrwt beam="1">  1        1 0.36346779E+00 0.21509331E+04</pdfrwt>
<pdfrwt beam="2">  1       -1 0.75318413E-01 0.21509331E+04</pdfrwt>
<totfact> 0.27355191E+00</totfact>
</mgrwt>
</event>
<event>
 6    1  0.1878398E-004  0.3007214E+04  0.7818608E-02  0.8241674E-01
          1   -1    0    0  501    0  0.00000000000E+00  0.00000000000E+00  0.16437386554E+04  0.16437386554E+04  0.00000000000E+00 0.  1.
         -1   -1    0    0    0  501 -0.00000000000E+00 -0.00000000000E+00 -0.13754222234E+04  0.13754222234E+04  0.00000000000E+00 0. -1.
         23    2    1    2    0    0  0.11269316085E+04  0.52112269689E+03  0.98329327194E+03  0.15864237791E+04  0.91274491220E+02 0.  0.
         11    1    3    3    0    0  0.49257176253E+03  0.25894954227E+03  0.39520214910E+03  0.68254417098E+03  0.00000000000E+00 0.  1.
        -11    1    3    3    0    0  0.63435984594E+03  0.26217315461E+03  0.58809112284E+03  0.90387960808E+03  0.00000000000E+00 0. -1.
         22    1    1    2    0    0 -0.11269316085E+04 -0.52112269689E+03 -0.71497683998E+03  0.14327370998E+04  0.00000000000E+00 0. -1.
<mgrwt>
<rscale>  0 0.30072144E+04</rscale>
<asrwt>0</asrwt>
<pdfrwt beam="1">  1        1 0.25288287E+00 0.30072144E+04</pdfrwt>
<pdfrwt beam="2">  1       -1 0.21160342E+00 0.30072144E+04</pdfrwt>
<totfact> 0.55534753E-01</totfact>
</mgrwt>
</event>
<event>
 6    1  0.1878398E-004  0.4098539E+04  0.7818608E-02  0.7984958E-01
         -2   -1    0    0    0  501 -0.00000000000E+00  0.00000000000E+00  0.12135539053E+04  0.12135539053E+04  0.00000000000E+00 0. -1.
          2   -1    0    0  501    0  0.00000000000E+00 -0.00000000000E+00 -0.34605020013E+04  0.34605020013E+04  0.00000000000E+00 0.  1.
         23    2    1    2    0    0 -0.16533511491E+04 -0.19387337676E+03 -0.24847746120E+04  0.29924738063E+04  0.98171792083E+02 0.  0.
         13    1    3    3    0    0 -0.45446399985E+03 -0.20363489880E+02 -0.62712842365E+03  0.77475303073E+03  0.00000000000E+00 0. -1.
        -13    1    3    3    0    0 -0.11988871493E+04 -0.17350988688E+03 -0.18576461883E+04  0.22177207756E+04  0.00000000000E+00 0.  1.
         22    1    1    2    0    0  0.16533511491E+04  0.19387337676E+03  0.23782651587E+03  0.16815821003E+04  0.00000000000E+00 0.  1.
<mgrwt>
<rscale>  0 0.40985391E+04</rscale>
<asrwt>0</asrwt>
<pdfrwt beam="1">  1        2 0.53238492E+00 0.40985391E+04</pdfrwt>
<pdfrwt beam="2">  1       -2 0.18670060E+00 0.40985391E+04</pdfrwt>
<totfact> 0.11041497E-01</totfact>
</mgrwt>
</event>
<event>
 6    1  0.1878398E-004  0.1375015E+04  0.7818608E-02  0.8972105E-01
         -2   -1    0    0    0  501 -0.00000000000E+00  0.00000000000E+00  0.11325617614E+04  0.11325617614E+04  0.00000000000E+00 0. -1.
          2   -1    0    0  501    0  0.00000000000E+00 -0.00000000000E+00 -0.41734276435E+03  0.41734276435E+03  0.00000000000E+00 0.  1.
         23    2    1    2    0    0  0.52058821079E+03 -0.78836902689E+02 -0.13310343682E+03  0.55146659867E+03  0.95768168604E+02 0.  0.
         13    1    3    3    0    0  0.41213629199E+03 -0.97687530336E+02 -0.88542218043E+02  0.43271110586E+03  0.00000000000E+00 0.  1.
        -13    1    3    3    0    0  0.10845191881E+03  0.18850627647E+02 -0.44561218778E+02  0.11875549282E+03  0.00000000000E+00 0. -1.
         22    1    1    2    0    0 -0.52058821079E+03  0.78836902689E+02  0.84832243389E+03  0.99843792710E+03  0.00000000000E+00 0. -1.
<mgrwt>
<rscale>  0 0.13750148E+04</rscale>
<asrwt>0</asrwt>
<pdfrwt beam="1">  1        2 0.64206579E-01 0.13750148E+04</pdfrwt>
<pdfrwt beam="2">  1       -2 0.17424027E+00 0.13750148E+04</pdfrwt>
<totfact> 0.14681341E+01</totfact>
</mgrwt>
</event>
<event>
 6    1  0.1878398E-004  0.3409269E+04  0.7818608E-02  0.8135635E-01
          2   -1    0    0  501    0  0.00000000000E+00  0.00000000000E+00  0.10832030035E+04  0.10832030035E+04  0.00000000000E+00 0.  1.
         -2   -1    0    0    0  501 -0.00000000000E+00 -0.00000000000E+00 -0.26825793192E+04  0.26825793192E+04  0.00000000000E+00 0. -1.
         23    2    1    2    0    0  0.38534968707E+03  0.26637303778E+03 -0.26092862159E+04  0.26525137194E+04  0.89473453807E+02 0.  0.
         13    1    3    3    0    0  0.23355843431E+03  0.10815624554E+03 -0.14542189500E+04  0.14768209337E+04  0.00000000000E+00 0. -1.
        -13    1    3    3    0    0  0.15179125275E+03  0.15821679223E+03 -0.11550672659E+04  0.11756927858E+04  0.00000000000E+00 0.  1.
         22    1    1    2    0    0 -0.38534968707E+03 -0.26637303778E+03  0.10099099002E+04  0.11132686033E+04  0.00000000000E+00 0.  1.
<mgrwt>
<rscale>  0 0.34092685E+04</rscale>
<asrwt>0</asrwt>
<pdfrwt beam="1">  1        2 0.16664662E+00 0.34092685E+04</pdfrwt>
<pdfrwt beam="2">  1       -2 0.41270450E+00 0.34092685E+04</pdfrwt>
<totfact> 0.11304146E-01</totfact>
</mgrwt>
</event>
<event>
 6    1  0.1878398E-004  0.2803075E+04  0.7818608E-02  0.8302314E-01
         -2   -1    0    0    0  501 -0.00000000000E+00  0.00000000000E+00  0.15002643049E+04  0.15002643049E+04  0.00000000000E+00 0. -1.
          2   -1    0    0  501    0  0.00000000000E+00 -0.00000000000E+00 -0.13093071183E+04  0.13093071183E+04  0.00000000000E+00 0.  1.
         23    2    1    2    0    0 -0.24774391334E+03 -0.10752602232E+04  0.95927017180E+03  0.14650021847E+04  0.92035559956E+02 0.  0.
         13    1    3    3    0    0 -0.20400993022E+03 -0.82520575927E+03  0.78518168399E+03  0.11571926692E+04  0.00000000000E+00 0. -1.
        -13    1    3    3    0    0 -0.43733983123E+02 -0.25005446394E+03  0.17408848782E+03  0.30780951546E+03  0.00000000000E+00 0.  1.
         22    1    1    2    0    0  0.24774391334E+03  0.10752602232E+04 -0.76831298518E+03  0.13445692386E+04  0.00000000000E+00 0.  1.
<mgrwt>
<rscale>  0 0.28030746E+04</rscale>
<asrwt>0</asrwt>
<pdfrwt beam="1">  1        2 0.20143186E+00 0.28030746E+04</pdfrwt>
<pdfrwt beam="2">  1       -2 0.23080989E+00 0.28030746E+04</pdfrwt>
<totfact> 0.12002355E+00</totfact>
</mgrwt>
</event>
<event>
 6    1  0.1878398E-004  0.1183180E+04  0.7818608E-02  0.9127707E-01
         -1   -1    0    0    0  501 -0.00000000000E+00  0.00000000000E+00  0.60523712568E+03  0.60523712568E+03  0.00000000000E+00 0. -1.
          1   -1    0    0  501    0  0.00000000000E+00 -0.00000000000E+00 -0.57825107339E+03  0.57825107339E+03  0.00000000000E+00 0.  1.
         23    2    1    2    0    0 -0.12085255101E+03 -0.54295657213E+03 -0.17712750812E+03  0.59097699761E+03  0.92046071418E+02 0.  0.
         13    1    3    3    0    0 -0.42265236610E+02 -0.18295240818E+03 -0.14889465515E+02  0.18836037288E+03  0.00000000000E+00 0. -1.
        -13    1    3    3    0    0 -0.78587314404E+02 -0.36000416395E+03 -0.16223804261E+03  0.40261662474E+03  0.00000000000E+00 0.  1.
         22    1    1    2    0    0  0.12085255101E+03  0.54295657213E+03  0.20411356041E+03  0.59251120146E+03  0.00000000000E+00 0.  1.
<mgrwt>
<rscale>  0 0.11831805E+04</rscale>
<asrwt>0</asrwt>
<pdfrwt beam="1">  1        1 0.88961703E-01 0.11831805E+04</pdfrwt>
<pdfrwt beam="2">  1       -1 0.93113404E-01 0.11831805E+04</pdfrwt>
<totfact> 0.40109270E+01</totfact>
</mgrwt>
</event>
<event>
 6    1  0.1878398E-004  0.4517208E+04  0.7818608E-02  0.7907631E-01
         -2   -1    0    0    0  501 -0.00000000000E+00  0.00000000000E+00  0.15801095216E+04  0.15801095216E+04  0.00000000000E+00 0. -1.
          2   -1    0    0  501    0  0.00000000000E+00 -0.00000000000E+00 -0.32284423512E+04  0.32284423512E+04  0.00000000000E+00 0.  1.
         23    2    1    2    0    0 -0.11656554461E+04 -0.14597609306E+04  0.52524768548E+03  0.19425255559E+04  0.88689407473E+02 0.  0.
         13    1    3    3    0    0 -0.81170197725E+03 -0.10447597470E+04  0.33404569055E+03  0.13645400515E+04  0.00000000000E+00 0.  1.
        -13    1    3    3    0    0 -0.35395346881E+03 -0.41500118358E+03  0.19120199493E+03  0.57798550442E+03  0.00000000000E+00 0. -1.
         22    1    1    2    0    0  0.11656554461E+04  0.14597609306E+04 -0.21735805151E+04  0.28660263168E+04  0.00000000000E+00 0.  1.
<mgrwt>
<rscale>  0 0.45172082E+04</rscale>
<asrwt>0</asrwt>
<pdfrwt beam="1">  1        2 0.49668344E+00 0.45172082E+04</pdfrwt>
<pdfrwt beam="2">  1       -2 0.24309377E+00 0.45172082E+04</pdfrwt>
<totfact> 0.66558225E-02</totfact>
</mgrwt>
</event>
<event>
 6    1  0.1878398E-004  0.1644162E+04  0.7818608E-02  0.8793867E-01
          4   -1    0    0  501    0  0.00000000000E+00  0.00000000000E+00  0.40254099318E+03  0.40254099318E+03  0.00000000000E+00 0.  1.
         -4   -1    0    0    0  501 -0.00000000000E+00 -0.00000000000E+00 -0.16788785162E+04  0.16788785162E+04  0.00000000000E+00 0. -1.
         23    2    1    2    0    0  0.97783559308E+02 -0.34088680927E+03 -0.15754709282E+04  0.16174731382E+04  0.91352427627E+02 0.  0.
         11    1    3    3    0    0  0.25355713142E+02 -0.43509373364E+02 -0.38529651282E+03  0.38857352014E+03  0.00000000000E+00 0. -1.
        -11    1    3    3    0    0  0.72427846166E+02 -0.29737743590E+03 -0.11901744154E+04  0.12288996181E+04  0.00000000000E+00 0.  1.
         22    1    1    2    0    0 -0.97783559308E+02  0.34088680927E+03  0.29913340519E+03  0.46394637115E+03  0.00000000000E+00 0.  1.
<mgrwt>
<rscale>  0 0.16441623E+04</rscale>
<asrwt>0</asrwt>
<pdfrwt beam="1">  1        4 0.61929383E-01 0.16441623E+04</pdfrwt>
<pdfrwt beam="2">  1       -4 0.25828900E+00 0.16441623E+04</pdfrwt>
<totfact> 0.26308596E-01</totfact>
</mgrwt>
</event>
<event>
 6    1  0.1878398E-004  0.6980821E+03  0.7818608E-02  0.9720518E-01
          1   -1    0    0  501    0  0.00000000000E+00  0.00000000000E+00  0.59241544529E+03  0.59241544529E+03  0.00000000000E+00 0.  1.
         -1   -1    0    0    0  501 -0.00000000000E+00 -0.00000000000E+00 -0.20564903773E+03  0.20564903773E+03  0.00000000000E+00 0. -1.
         23    2    1    2    0    0  0.13379470826E+03  0.28893726977E+03  0.34079909144E+03  0.47635224519E+03  0.96859026178E+02 0.  0.
         13    1    3    3    0    0  0.11290144448E+02  0.26349675592E+02  0.85470759800E+02  0.90150005803E+02  0.00000000000E+00 0. -1.
        -13    1    3    3    0    0  0.12250456382E+03  0.26258759417E+03  0.25532833164E+03  0.38620223938E+03  0.00000000000E+00 0.  1.
         22    1    1    2    0    0 -0.13379470826E+03 -0.28893726977E+03  0.45967316117E+02  0.32171223783E+03  0.00000000000E+00 0. -1.
<mgrwt>
<rscale>  0 0.69808213E+03</rscale>
<asrwt>0</asrwt>
<pdfrwt beam="1">  1        1 0.91140837E-01 0.69808213E+03</pdfrwt>
<pdfrwt beam="2">  1       -1 0.31638314E-01 0.69808213E+03</pdfrwt>
<totfact> 0.32783943E+02</totfact>
</mgrwt>
</event>
<event>
 6    1  0.1878398E-004  0.1023242E+04  0.7818608E-02  0.9283415E-01
         -2   -1    0    0    0  501 -0.00000000000E+00  0.00000000000E+00  0.36117676789E+03  0.36117676789E+03  0.00000000000E+00 0. -1.
          2   -1    0    0  501    0  0.00000000000E+00 -0.00000000000E+00 -0.72473044254E+03  0.72473044254E+03  0.00000000000E+00 0.  1.
         23    2    1    2    0    0 -0.34644947383E+03 -0.23167469094E+03  0.12454013604E+03  0.44408482973E+03  0.89446577216E+02 0.  0.
         13    1    3    3    0    0 -0.16258890667E+03 -0.56014083613E+02  0.48687109538E+02  0.17872650830E+03  0.00000000000E+00 0.  1.
        -13    1    3    3    0    0 -0.18386056716E+03 -0.17566060733E+03  0.75853026501E+02  0.26535832143E+03  0.00000000000E+00 0. -1.
         22    1    1    2    0    0  0.34644947383E+03  0.23167469094E+03 -0.48809381069E+03  0.64182238070E+03  0.00000000000E+00 0.  1.
<mgrwt>
<rscale>  0 0.10232415E+04</rscale>
<asrwt>0</asrwt>
<pdfrwt beam="1">  1        2 0.11149699E+00 0.10232415E+04</pdfrwt>
<pdfrwt beam="2">  1       -2 0.55565657E-01 0.10232415E+04</pdfrwt>
<totfact> 0.11899438E+02</totfact>
</mgrwt>
</event>
<event>
 6    1  0.1878398E-004  0.2764027E+04  0.7818608E-02  0.8314524E-01
          2   -1    0    0  501    0  0.00000000000E+00  0.00000000000E+00  0.14352379188E+04  0.14352379188E+04  0.00000000000E+00 0.  1.
         -2   -1    0    0    0  501 -0.00000000000E+00 -0.00000000000E+00 -0.13307629405E+04  0.13307629405E+04  0.00000000000E+00 0. -1.
         23    2    1    2    0    0  0.55942327943E+03 -0.26753011311E+03  0.12866122993E+04  0.14310943410E+04  0.90183354008E+02 0.  0.
         11    1    3    3    0    0  0.35840560420E+03 -0.12255160832E+03  0.77964270035E+03  0.86678498720E+03  0.00000000000E+00 0. -1.
        -11    1    3    3    0    0  0.20101767523E+03 -0.14497850479E+03  0.50696959892E+03  0.56430935384E+03  0.00000000000E+00 0.  1.
         22    1    1    2    0    0 -0.55942327943E+03  0.26753011311E+03 -0.11821373209E+04  0.13349065182E+04  0.00000000000E+00 0. -1.
<mgrwt>
<rscale>  0 0.27640271E+04</rscale>
<asrwt>0</asrwt>
<pdfrwt beam="1">  1        2 0.22080583E+00 0.27640271E+04</pdfrwt>
<pdfrwt beam="2">  1       -2 0.20473276E+00 0.27640271E+04</pdfrwt>
<totfact> 0.14933858E+00</totfact>
</mgrwt>
</event>
<event>
 6    1  0.1878398E-004  0.1470059E+04  0.7818608E-02  0.8904611E-01
          2   -1    0    0  501    0  0.00000000000E+00  0.00000000000E+00  0.70838708664E+03  0.70838708664E+03  0.00000000000E+00 0.  1.
         -2   -1    0    0    0  501 -0.00000000000E+00 -0.00000000000E+00 -0.76267394867E+03  0.76267394867E+03  0.00000000000E+00 0. -1.
         23    2    1    2    0    0  0.11437088552E+03 -0.42605901574E+03  0.55750670111E+03  0.71680753133E+03  0.91609665630E+02 0.  0.
         13    1    3    3    0    0  0.12781779253E+03 -0.38897895338E+03  0.48922441029E+03  0.63795183038E+03  0.00000000000E+00 0. -1.
        -13    1    3    3    0    0 -0.13446907006E+02 -0.37080062362E+02  0.68282290818E+02  0.78855700949E+02  0.00000000000E+00 0.  1.
         22    1    1    2    0    0 -0.11437088552E+03  0.42605901574E+03 -0.61179356315E+03  0.75425350398E+03  0.00000000000E+00 0. -1.
<mgrwt>
<rscale>  0 0.14700590E+04</rscale>
<asrwt>0</asrwt>
<pdfrwt beam="1">  1        2 0.10898263E+00 0.14700590E+04</pdfrwt>
<pdfrwt beam="2">  1       -2 0.11733445E+00 0.14700590E+04</pdfrwt>
<totfact> 0.21935171E+01</totfact>
</mgrwt>
</event>
<event>
 6    1  0.1878398E-004  0.1375625E+04  0.7818608E-02  0.8971654E-01
          2   -1    0    0  501    0  0.00000000000E+00  0.00000000000E+00  0.14943632659E+04  0.14943632659E+04  0.00000000000E+00 0.  1.
         -2   -1    0    0    0  501 -0.00000000000E+00 -0.00000000000E+00 -0.31658047398E+03  0.31658047398E+03  0.00000000000E+00 0. -1.
         23    2    1    2    0    0 -0.25462375356E+03 -0.53674605838E+03  0.10398600122E+04  0.12010648337E+04  0.91204729714E+02 0.  0.
         13    1    3    3    0    0 -0.22153056814E+03 -0.38002185984E+03  0.73112645188E+03  0.85325160136E+03  0.00000000000E+00 0.  1.
        -13    1    3    3    0    0 -0.33093185426E+02 -0.15672419854E+03  0.30873356031E+03  0.34781323234E+03  0.00000000000E+00 0. -1.
         22    1    1    2    0    0  0.25462375356E+03  0.53674605838E+03  0.13792277976E+03  0.60987890621E+03  0.00000000000E+00 0.  1.
<mgrwt>
<rscale>  0 0.13756253E+04</rscale>
<asrwt>0</asrwt>
<pdfrwt beam="1">  1        2 0.22990204E+00 0.13756253E+04</pdfrwt>
<pdfrwt beam="2">  1       -2 0.48704689E-01 0.13756253E+04</pdfrwt>
<totfact> 0.49760932E+01</totfact>
</mgrwt>
</event>
<event>
 6    1  0.1878398E-004  0.4626536E+04  0.7818608E-02  0.7888851E-01
          2   -1    0    0  501    0  0.00000000000E+00  0.00000000000E+00  0.44840096257E+04  0.44840096257E+04  0.00000000000E+00 0.  1.
         -2   -1    0    0    0  501 -0.00000000000E+00 -0.00000000000E+00 -0.11933980057E+04  0.11933980057E+04  0.00000000000E+00 0. -1.
         23    2    1    2    0    0  0.25006588386E+03 -0.22979572047E+04  0.17199694432E+04  0.28827596915E+04  0.94171611085E+02 0.  0.
         13    1    3    3    0    0  0.10305314517E+03 -0.13452019403E+04  0.10247025388E+04  0.16941674958E+04  0.00000000000E+00 0.  1.
        -13    1    3    3    0    0  0.14701273869E+03 -0.95275526440E+03  0.69526690440E+03  0.11885921956E+04  0.00000000000E+00 0. -1.
         22    1    1    2    0    0 -0.25006588386E+03  0.22979572047E+04  0.15706421767E+04  0.27946479399E+04  0.00000000000E+00 0. -1.
<mgrwt>
<rscale>  0 0.46265357E+04</rscale>
<asrwt>0</asrwt>
<pdfrwt beam="1">  1        2 0.68984763E+00 0.46265357E+04</pdfrwt>
<pdfrwt beam="2">  1       -2 0.18359970E+00 0.46265357E+04</pdfrwt>
<totfact> 0.16245902E-02</totfact>
</mgrwt>
</event>
<event>
 6    1  0.1878398E-004  0.2145904E+04  0.7818608E-02  0.8541288E-01
         -2   -1    0    0    0  501 -0.00000000000E+00  0.00000000000E+00  0.38264912564E+03  0.38264912564E+03  0.00000000000E+00 0. -1.
          2   -1    0    0  501    0  0.00000000000E+00 -0.00000000000E+00 -0.30085672168E+04  0.30085672168E+04  0.00000000000E+00 0.  1.
         23    2    1    2    0    0 -0.54452783346E+03 -0.27298720947E+03 -0.27074400898E+04  0.27766608818E+04  0.92634954055E+02 0.  0.
         11    1    3    3    0    0 -0.29495866139E+03 -0.10138911627E+03 -0.14656724587E+04  0.14984912816E+04  0.00000000000E+00 0. -1.
        -11    1    3    3    0    0 -0.24956917206E+03 -0.17159809320E+03 -0.12417676311E+04  0.12781696002E+04  0.00000000000E+00 0.  1.
         22    1    1    2    0    0  0.54452783346E+03  0.27298720947E+03  0.81521998645E+02  0.61455546064E+03  0.00000000000E+00 0. -1.
<mgrwt>
<rscale>  0 0.21459036E+04</rscale>
<asrwt>0</asrwt>
<pdfrwt beam="1">  1        2 0.46285649E+00 0.21459036E+04</pdfrwt>
<pdfrwt beam="2">  1       -2 0.58869096E-01 0.21459036E+04</pdfrwt>
<totfact> 0.42636141E+00</totfact>
</mgrwt>
</event>
<event>
 6    1  0.1878398E-004  0.2813924E+04  0.7818608E-02  0.8298959E-01
          2   -1    0    0  501    0  0.00000000000E+00  0.00000000000E+00  0.21540035387E+04  0.21540035387E+04  0.00000000000E+00 0.  1.
         -2   -1    0    0    0  501 -0.00000000000E+00 -0.00000000000E+00 -0.91900567783E+03  0.91900567783E+03  0.00000000000E+00 0. -1.
         23    2    1    2    0    0  0.65949643672E+02 -0.10088685396E+04  0.16844802239E+04  0.19665737325E+04  0.88167651885E+02 0.  0.
         11    1    3    3    0    0  0.85919384806E+02 -0.71286927104E+03  0.11760681388E+04  0.13779335998E+04  0.00000000000E+00 0. -1.
        -11    1    3    3    0    0 -0.19969741133E+02 -0.29599926857E+03  0.50841208509E+03  0.58864013270E+03  0.00000000000E+00 0.  1.
         22    1    1    2    0    0 -0.65949643672E+02  0.10088685396E+04 -0.44948236303E+03  0.11064354841E+04  0.00000000000E+00 0. -1.
<mgrwt>
<rscale>  0 0.28139236E+04</rscale>
<asrwt>0</asrwt>
<pdfrwt beam="1">  1        2 0.33138516E+00 0.28139236E+04</pdfrwt>
<pdfrwt beam="2">  1       -2 0.14138549E+00 0.28139236E+04</pdfrwt>
<totfact> 0.16675018E+00</totfact>
</mgrwt>
</event>
<event>
 6    1  0.1878398E-004  0.3687146E+04  0.7818608E-02  0.8070816E-01
         -2   -1    0    0    0  501 -0.00000000000E+00  0.00000000000E+00  0.16770242863E+04  0.16770242863E+04  0.00000000000E+00 0. -1.
          2   -1    0    0  501    0  0.00000000000E+00 -0.00000000000E+00 -0.20266620249E+04  0.20266620249E+04  0.00000000000E+00 0.  1.
         23    2    1    2    0    0  0.40032124408E+03 -0.13770076551E+04  0.98706876075E+03  0.17432803721E+04  0.91184081906E+02 0.  0.
         11    1    3    3    0    0  0.17824285001E+03 -0.45840403379E+03  0.33495273794E+03  0.59506143248E+03  0.00000000000E+00 0. -1.
        -11    1    3    3    0    0  0.22207839408E+03 -0.91860362128E+03  0.65211602281E+03  0.11482189396E+04  0.00000000000E+00 0.  1.
         22    1    1    2    0    0 -0.40032124408E+03  0.13770076551E+04 -0.13367064993E+04  0.19604059391E+04  0.00000000000E+00 0.  1.
<mgrwt>
<rscale>  0 0.36871460E+04</rscale>
<asrwt>0</asrwt>
<pdfrwt beam="1">  1        2 0.31179416E+00 0.36871460E+04</pdfrwt>
<pdfrwt beam="2">  1       -2 0.25800374E+00 0.36871460E+04</pdfrwt>
<totfact> 0.29986272E-01</totfact>
</mgrwt>
</event>
<event>
 6    1  0.1878398E-004  0.3110155E+04  0.7818608E-02  0.8212956E-01
          2   -1    0    0  501    0  0.00000000000E+00  0.00000000000E+00  0.49285361951E+04  0.49285361951E+04  0.00000000000E+00 0.  1.
         -2   -1    0    0    0  501 -0.00000000000E+00 -0.00000000000E+00 -0.49066620237E+03  0.49066620237E+03  0.00000000000E+00 0. -1.
         23    2    1    2    0    0 -0.37798255408E+03 -0.34749108036E+02  0.48460973728E+04  0.48617726660E+04  0.89974425584E+02 0.  0.
         13    1    3    3    0    0 -0.28399964462E+03  0.30679133258E+01  0.32091356697E+04  0.32216792138E+04  0.00000000000E+00 0.  1.
        -13    1    3    3    0    0 -0.93982909462E+02 -0.37817021361E+02  0.16369617031E+04  0.16400934522E+04  0.00000000000E+00 0. -1.
         22    1    1    2    0    0  0.37798255408E+03  0.34749108036E+02 -0.40822738008E+03  0.55742973148E+03  0.00000000000E+00 0. -1.
<mgrwt>
<rscale>  0 0.31101551E+04</rscale>
<asrwt>0</asrwt>
<pdfrwt beam="1">  1        2 0.75823630E+00 0.31101551E+04</pdfrwt>
<pdfrwt beam="2">  1       -2 0.75487111E-01 0.31101551E+04</pdfrwt>
<totfact> 0.56073007E-02</totfact>
</mgrwt>
</event>
<event>
 6    1  0.1878398E-004  0.5976952E+03  0.7818608E-02  0.9910199E-01
          2   -1    0    0  501    0  0.00000000000E+00  0.00000000000E+00  0.22461575769E+04  0.22461575769E+04  0.00000000000E+00 0.  1.
         -2   -1    0    0    0  501 -0.00000000000E+00 -0.00000000000E+00 -0.39761179730E+02  0.39761179730E+02  0.00000000000E+00 0. -1.
         23    2    1    2    0    0 -0.82490999175E+01  0.18473745828E+03  0.19919083662E+04  0.20027207843E+04  0.94845263814E+02 0.  0.
         13    1    3    3    0    0  0.43451151290E+02  0.84271197337E+02  0.92394978117E+03  0.92880182783E+03  0.00000000000E+00 0. -1.
        -13    1    3    3    0    0 -0.51700251208E+02  0.10046626095E+03  0.10679585851E+04  0.10739189564E+04  0.00000000000E+00 0.  1.
         22    1    1    2    0    0  0.82490999175E+01 -0.18473745828E+03  0.21448803094E+03  0.28319797238E+03  0.00000000000E+00 0. -1.
<mgrwt>
<rscale>  0 0.59769516E+03</rscale>
<asrwt>0</asrwt>
<pdfrwt beam="1">  1        2 0.34556261E+00 0.59769516E+03</pdfrwt>
<pdfrwt beam="2">  1       -2 0.61171063E-02 0.59769516E+03</pdfrwt>
<totfact> 0.76307296E+02</totfact>
</mgrwt>
</event>
<event>
 6    1  0.1878398E-004  0.3442109E+04  0.7818608E-02  0.8127648E-01
          2   -1    0    0  501    0  0.00000000000E+00  0.00000000000E+00  0.30270704321E+04  0.30270704321E+04  0.00000000000E+00 0.  1.
         -2   -1    0    0    0  501 -0.00000000000E+00 -0.00000000000E+00 -0.97851306277E+03  0.97851306277E+03  0.00000000000E+00 0. -1.
         23    2    1    2    0    0  0.23829962877E+03 -0.15846679993E+04  0.29907479470E+03  0.16331061694E+04  0.98135857853E+02 0.  0.
         13    1    3    3    0    0  0.12671401708E+03 -0.10683648220E+04  0.16832946334E+03  0.10889419834E+04  0.00000000000E+00 0. -1.
        -13    1    3    3    0    0  0.11158561168E+03 -0.51630317725E+03  0.13074533136E+03  0.54416418593E+03  0.00000000000E+00 0.  1.
         22    1    1    2    0    0 -0.23829962877E+03  0.15846679993E+04  0.17494825746E+04  0.23724773255E+04  0.00000000000E+00 0. -1.
<mgrwt>
<rscale>  0 0.34421086E+04</rscale>
<asrwt>0</asrwt>
<pdfrwt beam="1">  1        2 0.46570314E+00 0.34421086E+04</pdfrwt>
<pdfrwt beam="2">  1       -2 0.15054047E+00 0.34421086E+04</pdfrwt>
<totfact> 0.40989217E-01</totfact>
</mgrwt>
</event>
<event>
 6    1  0.1878398E-004  0.3087691E+04  0.7818608E-02  0.8219124E-01
          1   -1    0    0  501    0  0.00000000000E+00  0.00000000000E+00  0.23411304737E+04  0.23411304737E+04  0.00000000000E+00 0.  1.
         -1   -1    0    0    0  501 -0.00000000000E+00 -0.00000000000E+00 -0.10180800728E+04  0.10180800728E+04  0.00000000000E+00 0. -1.
         23    2    1    2    0    0  0.40766523011E+03  0.32004253810E+01  0.22804768023E+04  0.23186018321E+04  0.95597213079E+02 0.  0.
         11    1    3    3    0    0  0.25618257454E+03 -0.39012479337E+02  0.15349712982E+04  0.15566914824E+04  0.00000000000E+00 0. -1.
        -11    1    3    3    0    0  0.15148265557E+03  0.42212904718E+02  0.74550550411E+03  0.76191034967E+03  0.00000000000E+00 0.  1.
         22    1    1    2    0    0 -0.40766523011E+03 -0.32004253810E+01 -0.95742640139E+03  0.10406087145E+04  0.00000000000E+00 0. -1.
<mgrwt>
<rscale>  0 0.30876906E+04</rscale>
<asrwt>0</asrwt>
<pdfrwt beam="1">  1        1 0.36017392E+00 0.30876906E+04</pdfrwt>
<pdfrwt beam="2">  1       -1 0.15662770E+00 0.30876906E+04</pdfrwt>
<totfact> 0.45668980E-01</totfact>
</mgrwt>
</event>
<event>
 6    1  0.1878398E-004  0.2261355E+04  0.7818608E-02  0.8493316E-01
          2   -1    0    0  501    0  0.00000000000E+00  0.00000000000E+00  0.16665178535E+04  0.16665178535E+04  0.00000000000E+00 0.  1.
         -2   -1    0    0    0  501 -0.00000000000E+00 -0.00000000000E+00 -0.76712753430E+03  0.76712753430E+03  0.00000000000E+00 0. -1.
         23    2    1    2    0    0  0.42438543124E+03 -0.10224534693E+04  0.68801744835E+03  0.13066171798E+04  0.91467776191E+02 0.  0.
         13    1    3    3    0    0  0.15700418920E+03 -0.32767592031E+03  0.27138545633E+03  0.45351062841E+03  0.00000000000E+00 0. -1.
        -13    1    3    3    0    0  0.26738124204E+03 -0.69477754901E+03  0.41663199202E+03  0.85310655136E+03  0.00000000000E+00 0.  1.
         22    1    1    2    0    0 -0.42438543124E+03  0.10224534693E+04  0.21137287086E+03  0.11270282080E+04  0.00000000000E+00 0. -1.
<mgrwt>
<rscale>  0 0.22613551E+04</rscale>
<asrwt>0</asrwt>
<pdfrwt beam="1">  1        2 0.25638736E+00 0.22613551E+04</pdfrwt>
<pdfrwt beam="2">  1       -2 0.11801962E+00 0.22613551E+04</pdfrwt>
<totfact> 0.51527771E+00</totfact>
</mgrwt>
</event>
<event>
 6    1  0.1878398E-004  0.3629290E+04  0.7818608E-02  0.8083815E-01
          2   -1    0    0  501    0  0.00000000000E+00  0.00000000000E+00  0.10440137324E+04  0.10440137324E+04  0.00000000000E+00 0.  1.
         -2   -1    0    0    0  501 -0.00000000000E+00 -0.00000000000E+00 -0.31541114199E+04  0.31541114199E+04  0.00000000000E+00 0. -1.
         23    2    1    2    0    0  0.10898877968E+03  0.83886642131E+03 -0.29108894654E+04  0.30332891559E+04  0.10949975723E+03 0.  0.
         13    1    3    3    0    0  0.69572198755E+02  0.31266890138E+03 -0.94484619524E+03  0.99766550777E+03  0.00000000000E+00 0.  1.
        -13    1    3    3    0    0  0.39416580927E+02  0.52619751993E+03 -0.19660432702E+04  0.20356236482E+04  0.00000000000E+00 0. -1.
         22    1    1    2    0    0 -0.10898877968E+03 -0.83886642131E+03  0.80079177795E+03  0.11648359964E+04  0.00000000000E+00 0.  1.
<mgrwt>
<rscale>  0 0.36292895E+04</rscale>
<asrwt>0</asrwt>
<pdfrwt beam="1">  1        2 0.16061750E+00 0.36292895E+04</pdfrwt>
<pdfrwt beam="2">  1       -2 0.48524790E+00 0.36292895E+04</pdfrwt>
<totfact> 0.39205808E-02</totfact>
</mgrwt>
</event>
<event>
 6    1  0.1878398E-004  0.1958974E+04  0.7818608E-02  0.8626045E-01
          2   -1    0    0  501    0  0.00000000000E+00  0.00000000000E+00  0.74270959345E+03  0.74270959345E+03  0.00000000000E+00 0.  1.
         -2   -1    0    0    0  501 -0.00000000000E+00 -0.00000000000E+00 -0.12917496269E+04  0.12917496269E+04  0.00000000000E+00 0. -1.
         23    2    1    2    0    0  0.10837490982E+02  0.91218557542E+03 -0.64145904823E+03  0.11175397858E+04  0.72287529750E+02 0.  0.
         13    1    3    3    0    0 -0.15477692999E+02  0.61885911530E+03 -0.40386626077E+03  0.73914418090E+03  0.00000000000E+00 0. -1.
        -13    1    3    3    0    0  0.26315183982E+02  0.29332646012E+03 -0.23759278746E+03  0.37839560485E+03  0.00000000000E+00 0.  1.
         22    1    1    2    0    0 -0.10837490982E+02 -0.91218557542E+03  0.92419014792E+02  0.91691943458E+03  0.00000000000E+00 0.  1.
<mgrwt>
<rscale>  0 0.19589741E+04</rscale>
<asrwt>0</asrwt>
<pdfrwt beam="1">  1        2 0.11426302E+00 0.19589741E+04</pdfrwt>
<pdfrwt beam="2">  1       -2 0.19873071E+00 0.19589741E+04</pdfrwt>
<totfact> 0.47968678E+00</totfact>
</mgrwt>
</event>
<event>
 6    1  0.1878398E-004  0.1176961E+04  0.7818608E-02  0.9133265E-01
          1   -1    0    0  501    0  0.00000000000E+00  0.00000000000E+00  0.11069512592E+04  0.11069512592E+04  0.00000000000E+00 0.  1.
         -1   -1    0    0    0  501 -0.00000000000E+00 -0.00000000000E+00 -0.31284962724E+03  0.31284962724E+03  0.00000000000E+00 0. -1.
         23    2    1    2    0    0 -0.14840604565E+03  0.48150143503E+03  0.41164873175E+02  0.51383082675E+03  0.91976004520E+02 0.  0.
         11    1    3    3    0    0 -0.10419725459E+03  0.18606678280E+03  0.24221908706E+02  0.21462669076E+03  0.00000000000E+00 0. -1.
        -11    1    3    3    0    0 -0.44208791066E+02  0.29543465223E+03  0.16942964469E+02  0.29920413599E+03  0.00000000000E+00 0.  1.
         22    1    1    2    0    0  0.14840604565E+03 -0.48150143503E+03  0.75293675881E+03  0.90597005971E+03  0.00000000000E+00 0.  1.
<mgrwt>
<rscale>  0 0.11769610E+04</rscale>
<asrwt>0</asrwt>
<pdfrwt beam="1">  1        1 0.17030019E+00 0.11769610E+04</pdfrwt>
<pdfrwt beam="2">  1       -1 0.48130712E-01 0.11769610E+04</pdfrwt>
<totfact> 0.53567627E+01</totfact>
</mgrwt>
</event>
<event>
 6    1  0.1878398E-004  0.1865855E+04  0.7818608E-02  0.8672042E-01
          2   -1    0    0  501    0  0.00000000000E+00  0.00000000000E+00  0.11016285706E+04  0.11016285706E+04  0.00000000000E+00 0.  1.
         -2   -1    0    0    0  501 -0.00000000000E+00 -0.00000000000E+00 -0.79006074671E+03  0.79006074671E+03  0.00000000000E+00 0. -1.
         23    2    1    2    0    0  0.34390060741E+03 -0.57485687086E+03 -0.49869213609E+03  0.84038096459E+03  0.93905640356E+02 0.  0.
         13    1    3    3    0    0  0.14117875728E+03 -0.26625650812E+03 -0.27928135348E+03  0.41087959797E+03  0.00000000000E+00 0. -1.
        -13    1    3    3    0    0  0.20272185013E+03 -0.30860036274E+03 -0.21941078261E+03  0.42950136662E+03  0.00000000000E+00 0.  1.
         22    1    1    2    0    0 -0.34390060741E+03  0.57485687086E+03  0.81025995995E+03  0.10513083527E+04  0.00000000000E+00 0.  1.
<mgrwt>
<rscale>  0 0.18658548E+04</rscale>
<asrwt>0</asrwt>
<pdfrwt beam="1">  1        2 0.16948132E+00 0.18658548E+04</pdfrwt>
<pdfrwt beam="2">  1       -2 0.12154781E+00 0.18658548E+04</pdfrwt>
<totfact> 0.10499626E+01</totfact>
</mgrwt>
</event>
<event>
 6    1  0.1878398E-004  0.9693441E+03  0.7818608E-02  0.9342822E-01
         -2   -1    0    0    0  501 -0.00000000000E+00  0.00000000000E+00  0.29104610481E+03  0.29104610481E+03  0.00000000000E+00 0. -1.
          2   -1    0    0  501    0  0.00000000000E+00 -0.00000000000E+00 -0.80711269890E+03  0.80711269890E+03  0.00000000000E+00 0.  1.
         23    2    1    2    0    0 -0.23043323371E+03 -0.35109725286E+03 -0.52456919062E+03  0.67810993713E+03  0.91057646159E+02 0.  0.
         13    1    3    3    0    0 -0.11493979041E+03 -0.96335613867E+02 -0.17923758236E+03  0.23370455034E+03  0.00000000000E+00 0.  1.
        -13    1    3    3    0    0 -0.11549344331E+03 -0.25476163900E+03 -0.34533160826E+03  0.44440538679E+03  0.00000000000E+00 0. -1.
         22    1    1    2    0    0  0.23043323371E+03  0.35109725286E+03  0.85025965268E+01  0.42004886658E+03  0.00000000000E+00 0. -1.
<mgrwt>
<rscale>  0 0.96934412E+03</rscale>
<asrwt>0</asrwt>
<pdfrwt beam="1">  1        2 0.12417118E+00 0.96934412E+03</pdfrwt>
<pdfrwt beam="2">  1       -2 0.44776324E-01 0.96934412E+03</pdfrwt>
<totfact> 0.16094870E+02</totfact>
</mgrwt>
</event>
<event>
 6    1  0.1878398E-004  0.1520148E+04  0.7818608E-02  0.8871164E-01
          2   -1    0    0  501    0  0.00000000000E+00  0.00000000000E+00  0.10409191649E+04  0.10409191649E+04  0.00000000000E+00 0.  1.
         -2   -1    0    0    0  501 -0.00000000000E+00 -0.00000000000E+00 -0.55500211839E+03  0.55500211839E+03  0.00000000000E+00 0. -1.
         23    2    1    2    0    0 -0.15023773717E+03  0.73792708563E+03  0.32680764819E+03  0.82623072078E+03  0.93521140237E+02 0.  0.
         13    1    3    3    0    0 -0.14371249061E+03  0.50297442120E+03  0.24183759886E+03  0.57630024515E+03  0.00000000000E+00 0.  1.
        -13    1    3    3    0    0 -0.65252465563E+01  0.23495266443E+03  0.84970049331E+02  0.24993047563E+03  0.00000000000E+00 0. -1.
         22    1    1    2    0    0  0.15023773717E+03 -0.73792708563E+03  0.15910939831E+03  0.76969056251E+03  0.00000000000E+00 0. -1.
<mgrwt>
<rscale>  0 0.15201478E+04</rscale>
<asrwt>0</asrwt>
<pdfrwt beam="1">  1        2 0.16014141E+00 0.15201478E+04</pdfrwt>
<pdfrwt beam="2">  1       -2 0.85384941E-01 0.15201478E+04</pdfrwt>
<totfact> 0.27295237E+01</totfact>
</mgrwt>
</event>
<event>
 6    1  0.1878398E-004  0.6744628E+03  0.7818608E-02  0.9761929E-01
         -2   -1    0    0    0  501 -0.00000000000E+00  0.00000000000E+00  0.75139755908E+03  0.75139755908E+03  0.00000000000E+00 0. -1.
          2   -1    0    0  501    0  0.00000000000E+00 -0.00000000000E+00 -0.15135132708E+03  0.15135132708E+03  0.00000000000E+00 0.  1.
         23    2    1    2    0    0  0.21596476781E+03 -0.19192092878E+03  0.94928257414E+02  0.32083944983E+03  0.10223577980E+03 0.  0.
         11    1    3    3    0    0  0.32073170210E+02 -0.91321874742E+02  0.26713304668E+02  0.10040903196E+03  0.00000000000E+00 0.  1.
        -11    1    3    3    0    0  0.18389159760E+03 -0.10059905404E+03  0.68214952746E+02  0.22043041787E+03  0.00000000000E+00 0. -1.
         22    1    1    2    0    0 -0.21596476781E+03  0.19192092878E+03  0.50511797458E+03  0.58190943633E+03  0.00000000000E+00 0. -1.
<mgrwt>
<rscale>  0 0.67446280E+03</rscale>
<asrwt>0</asrwt>
<pdfrwt beam="1">  1        2 0.23284820E-01 0.67446280E+03</pdfrwt>
<pdfrwt beam="2">  1       -2 0.11559962E+00 0.67446280E+03</pdfrwt>
<totfact> 0.14010920E+02</totfact>
</mgrwt>
</event>
<event>
 6    1  0.1878398E-004  0.1069633E+04  0.7818608E-02  0.9235306E-01
         -2   -1    0    0    0  501 -0.00000000000E+00  0.00000000000E+00  0.25030851434E+03  0.25030851434E+03  0.00000000000E+00 0. -1.
          2   -1    0    0  501    0  0.00000000000E+00 -0.00000000000E+00 -0.11427047372E+04  0.11427047372E+04  0.00000000000E+00 0.  1.
         23    2    1    2    0    0 -0.36444574069E+03  0.29078388176E+03 -0.11936647789E+03  0.49026691374E+03  0.93473669361E+02 0.  0.
         11    1    3    3    0    0 -0.37054080840E+02  0.35091902117E+02 -0.45440959336E+02  0.68332476075E+02  0.00000000000E+00 0. -1.
        -11    1    3    3    0    0 -0.32739165985E+03  0.25569197964E+03 -0.73925518557E+02  0.42193443767E+03  0.00000000000E+00 0.  1.
         22    1    1    2    0    0  0.36444574069E+03 -0.29078388176E+03 -0.77302974499E+03  0.90274633781E+03  0.00000000000E+00 0.  1.
<mgrwt>
<rscale>  0 0.10696331E+04</rscale>
<asrwt>0</asrwt>
<pdfrwt beam="1">  1        2 0.17580073E+00 0.10696331E+04</pdfrwt>
<pdfrwt beam="2">  1       -2 0.38509001E-01 0.10696331E+04</pdfrwt>
<totfact> 0.12982987E+02</totfact>
</mgrwt>
</event>
<event>
 6    1  0.1878398E-004  0.5501589E+04  0.7818608E-02  0.7755471E-01
          2   -1    0    0  501    0  0.00000000000E+00  0.00000000000E+00  0.34245732453E+04  0.34245732453E+04  0.00000000000E+00 0.  1.
         -2   -1    0    0    0  501 -0.00000000000E+00 -0.00000000000E+00 -0.22095805575E+04  0.22095805575E+04  0.00000000000E+00 0. -1.
         23    2    1    2    0    0  0.25420746851E+04 -0.48772600224E+03 -0.34355172290E+03  0.26127168867E+04  0.90782079589E+02 0.  0.
         13    1    3    3    0    0  0.20422438020E+04 -0.37013290427E+03 -0.30485687977E+03  0.20977835519E+04  0.00000000000E+00 0. -1.
        -13    1    3    3    0    0  0.49983088311E+03 -0.11759309796E+03 -0.38694843133E+02  0.51493333480E+03  0.00000000000E+00 0.  1.
         22    1    1    2    0    0 -0.25420746851E+04  0.48772600224E+03  0.15585444107E+04  0.30214369161E+04  0.00000000000E+00 0.  1.
<mgrwt>
<rscale>  0 0.55015890E+04</rscale>
<asrwt>0</asrwt>
<pdfrwt beam="1">  1        2 0.52685742E+00 0.55015890E+04</pdfrwt>
<pdfrwt beam="2">  1       -2 0.33993547E+00 0.55015890E+04</pdfrwt>
<totfact> 0.11530261E-02</totfact>
</mgrwt>
</event>
<event>
 6    1  0.1878398E-004  0.4433119E+03  0.7818608E-02  0.1029735E+00
         -3   -1    0    0    0  501 -0.00000000000E+00  0.00000000000E+00  0.21766857309E+03  0.21766857309E+03  0.00000000000E+00 0.  1.
          3   -1    0    0  501    0  0.00000000000E+00 -0.00000000000E+00 -0.22571640194E+03  0.22571640194E+03  0.00000000000E+00 0. -1.
         23    2    1    2    0    0  0.17996464179E+03 -0.11365034140E+03 -0.21171581745E+01  0.23045577259E+03  0.88327279843E+02 0.  0.
         11    1    3    3    0    0  0.17786015505E+02 -0.53294121147E+02 -0.10716719973E+02  0.57196623881E+02  0.00000000000E+00 0.  1.
        -11    1    3    3    0    0  0.16217862629E+03 -0.60356220257E+02  0.85995617981E+01  0.17325914871E+03  0.00000000000E+00 0. -1.
         22    1    1    2    0    0 -0.17996464179E+03  0.11365034140E+03 -0.59306706786E+01  0.21292920244E+03  0.00000000000E+00 0.  1.
<mgrwt>
<rscale>  0 0.44331193E+03</rscale>
<asrwt>0</asrwt>
<pdfrwt beam="1">  1        3 0.34725600E-01 0.44331193E+03</pdfrwt>
<pdfrwt beam="2">  1       -3 0.33487473E-01 0.44331193E+03</pdfrwt>
<totfact> 0.18596924E+02</totfact>
</mgrwt>
</event>
<event>
 6    1  0.1878398E-004  0.1599949E+04  0.7818608E-02  0.8820579E-01
          2   -1    0    0  501    0  0.00000000000E+00  0.00000000000E+00  0.21065684242E+04  0.21065684242E+04  0.00000000000E+00 0.  1.
         -2   -1    0    0    0  501 -0.00000000000E+00 -0.00000000000E+00 -0.30379220804E+03  0.30379220804E+03  0.00000000000E+00 0. -1.
         23    2    1    2    0    0  0.51794510321E+03 -0.18821954591E+03  0.17724697844E+04  0.18584437841E+04  0.92034965342E+02 0.  0.
         11    1    3    3    0    0  0.13144920403E+03 -0.17917888177E+02  0.33849450776E+03  0.36356357868E+03  0.00000000000E+00 0.  1.
        -11    1    3    3    0    0  0.38649589918E+03 -0.17030165774E+03  0.14339752766E+04  0.14948802054E+04  0.00000000000E+00 0. -1.
         22    1    1    2    0    0 -0.51794510321E+03  0.18821954591E+03  0.30306431772E+02  0.55191684810E+03  0.00000000000E+00 0. -1.
<mgrwt>
<rscale>  0 0.15999488E+04</rscale>
<asrwt>0</asrwt>
<pdfrwt beam="1">  1        2 0.32408744E+00 0.15999488E+04</pdfrwt>
<pdfrwt beam="2">  1       -2 0.46737264E-01 0.15999488E+04</pdfrwt>
<totfact> 0.24258917E+01</totfact>
</mgrwt>
</event>
<event>
 6    1  0.1878398E-004  0.2378034E+04  0.7818608E-02  0.8447773E-01
          2   -1    0    0  501    0  0.00000000000E+00  0.00000000000E+00  0.22467192810E+04  0.22467192810E+04  0.00000000000E+00 0.  1.
         -2   -1    0    0    0  501 -0.00000000000E+00 -0.00000000000E+00 -0.62925604518E+03  0.62925604518E+03  0.00000000000E+00 0. -1.
         23    2    1    2    0    0  0.52667799565E+03  0.11853859806E+03 -0.46895445374E+03  0.72084658626E+03  0.90886802715E+02 0.  0.
         13    1    3    3    0    0  0.15675153594E+03  0.13175487036E+02 -0.18447671359E+03  0.24243822993E+03  0.00000000000E+00 0. -1.
        -13    1    3    3    0    0  0.36992645972E+03  0.10536311103E+03 -0.28447774015E+03  0.47840835633E+03  0.00000000000E+00 0.  1.
         22    1    1    2    0    0 -0.52667799565E+03 -0.11853859806E+03  0.20864176896E+04  0.21551287400E+04  0.00000000000E+00 0.  1.
<mgrwt>
<rscale>  0 0.23780342E+04</rscale>
<asrwt>0</asrwt>
<pdfrwt beam="1">  1        2 0.34564912E+00 0.23780342E+04</pdfrwt>
<pdfrwt beam="2">  1       -2 0.96808624E-01 0.23780342E+04</pdfrwt>
<totfact> 0.39032995E+00</totfact>
</mgrwt>
</event>
<event>
 6    1  0.1878398E-004  0.2049136E+04  0.7818608E-02  0.8583987E-01
         -2   -1    0    0    0  501 -0.00000000000E+00  0.00000000000E+00  0.94077370432E+03  0.94077370432E+03  0.00000000000E+00 0. -1.
          2   -1    0    0  501    0  0.00000000000E+00 -0.00000000000E+00 -0.11158253268E+04  0.11158253268E+04  0.00000000000E+00 0.  1.
         23    2    1    2    0    0 -0.24431992872E+03  0.59314683485E+03 -0.88558818926E+03  0.10993228912E+04  0.11282279458E+03 0.  0.
         11    1    3    3    0    0 -0.11273218103E+03  0.36862733734E+03 -0.45648418264E+03  0.59747172943E+03  0.00000000000E+00 0. -1.
        -11    1    3    3    0    0 -0.13158774769E+03  0.22451949751E+03 -0.42910400662E+03  0.50185116180E+03  0.00000000000E+00 0.  1.
         22    1    1    2    0    0  0.24431992872E+03 -0.59314683485E+03  0.71053656678E+03  0.95727613988E+03  0.00000000000E+00 0. -1.
<mgrwt>
<rscale>  0 0.20491356E+04</rscale>
<asrwt>0</asrwt>
<pdfrwt beam="1">  1        2 0.17166543E+00 0.20491356E+04</pdfrwt>
<pdfrwt beam="2">  1       -2 0.14473442E+00 0.20491356E+04</pdfrwt>
<totfact> 0.64907752E+00</totfact>
</mgrwt>
</event>
<event>
 6    1  0.1878398E-004  0.2760821E+04  0.7818608E-02  0.8315536E-01
          2   -1    0    0  501    0  0.00000000000E+00  0.00000000000E+00  0.62491745322E+03  0.62491745322E+03  0.00000000000E+00 0.  1.
         -2   -1    0    0    0  501 -0.00000000000E+00 -0.00000000000E+00 -0.30492548132E+04  0.30492548132E+04  0.00000000000E+00 0. -1.
         23    2    1    2    0    0  0.84966642058E+03  0.82828178736E+03 -0.27884823062E+03  0.12224162937E+04  0.92528449099E+02 0.  0.
         13    1    3    3    0    0  0.11740873238E+03  0.16247212833E+03 -0.50414851727E+02  0.20669702513E+03  0.00000000000E+00 0.  1.
        -13    1    3    3    0    0  0.73225768820E+03  0.66580965903E+03 -0.22843337890E+03  0.10157192686E+04  0.00000000000E+00 0. -1.
         22    1    1    2    0    0 -0.84966642058E+03 -0.82828178736E+03 -0.21454891294E+04  0.24517559727E+04  0.00000000000E+00 0. -1.
<mgrwt>
<rscale>  0 0.27608206E+04</rscale>
<asrwt>0</asrwt>
<pdfrwt beam="1">  1        2 0.96141144E-01 0.27608206E+04</pdfrwt>
<pdfrwt beam="2">  1       -2 0.46911614E+00 0.27608206E+04</pdfrwt>
<totfact> 0.10683154E-01</totfact>
</mgrwt>
</event>
<event>
 6    1  0.3387395E-004  0.3470014E+04  0.7818608E-02  0.8120933E-01
         -2   -1    0    0    0  501 -0.00000000000E+00  0.00000000000E+00  0.15357552963E+04  0.15357552963E+04  0.00000000000E+00 0. -1.
          2   -1    0    0  501    0  0.00000000000E+00 -0.00000000000E+00 -0.19601097060E+04  0.19601097060E+04  0.00000000000E+00 0.  1.
         23    2    1    2    0    0 -0.33625246495E+03  0.66643058812E+03  0.13641116891E+04  0.15578746938E+04  0.94749207174E+02 0.  0.
         13    1    3    3    0    0 -0.14424224699E+03  0.36272187382E+03  0.77692646269E+03  0.86947553847E+03  0.00000000000E+00 0. -1.
        -13    1    3    3    0    0 -0.19201021796E+03  0.30370871430E+03  0.58718522642E+03  0.68839915534E+03  0.00000000000E+00 0.  1.
         22    1    1    2    0    0  0.33625246495E+03 -0.66643058812E+03 -0.17884660988E+04  0.19379903084E+04  0.00000000000E+00 0.  1.
<mgrwt>
<rscale>  0 0.34700138E+04</rscale>
<asrwt>0</asrwt>
<pdfrwt beam="1">  1        2 0.30155534E+00 0.34700138E+04</pdfrwt>
<pdfrwt beam="2">  1       -2 0.23627005E+00 0.34700138E+04</pdfrwt>
<totfact> 0.45256743E-01</totfact>
</mgrwt>
</event>
<event>
 6    1  0.1878398E-004  0.2093663E+04  0.7818608E-02  0.8564040E-01
         -1   -1    0    0    0  501 -0.00000000000E+00  0.00000000000E+00  0.10766573967E+04  0.10766573967E+04  0.00000000000E+00 0. -1.
          1   -1    0    0  501    0  0.00000000000E+00 -0.00000000000E+00 -0.10178323252E+04  0.10178323252E+04  0.00000000000E+00 0.  1.
         23    2    1    2    0    0 -0.68712755991E+03  0.54914467460E+03 -0.53451920293E+03  0.10334705962E+04  0.92986760534E+02 0.  0.
         13    1    3    3    0    0 -0.29987632417E+03  0.18701755441E+03 -0.19101821445E+03  0.40173291340E+03  0.00000000000E+00 0.  1.
        -13    1    3    3    0    0 -0.38725123574E+03  0.36212712019E+03 -0.34350098848E+03  0.63173768278E+03  0.00000000000E+00 0. -1.
         22    1    1    2    0    0  0.68712755991E+03 -0.54914467460E+03  0.59334427442E+03  0.10610191258E+04  0.00000000000E+00 0. -1.
<mgrwt>
<rscale>  0 0.20936635E+04</rscale>
<asrwt>0</asrwt>
<pdfrwt beam="1">  1        1 0.15658959E+00 0.20936635E+04</pdfrwt>
<pdfrwt beam="2">  1       -1 0.16563960E+00 0.20936635E+04</pdfrwt>
<totfact> 0.35743058E+00</totfact>
</mgrwt>
</event>
<event>
 6    1  0.1878398E-004  0.9989295E+03  0.7818608E-02  0.9309720E-01
          2   -1    0    0  501    0  0.00000000000E+00  0.00000000000E+00  0.73404848016E+03  0.73404848016E+03  0.00000000000E+00 0.  1.
         -2   -1    0    0    0  501 -0.00000000000E+00 -0.00000000000E+00 -0.33984820106E+03  0.33984820106E+03  0.00000000000E+00 0. -1.
         23    2    1    2    0    0 -0.31449443820E+03 -0.28859555984E+03 -0.70976321623E+02  0.44256204833E+03  0.92894453946E+02 0.  0.
         11    1    3    3    0    0 -0.80836999310E+02 -0.90910766268E+02  0.19949387048E+02  0.12327759701E+03  0.00000000000E+00 0.  1.
        -11    1    3    3    0    0 -0.23365743889E+03 -0.19768479357E+03 -0.90925708671E+02  0.31928445132E+03  0.00000000000E+00 0. -1.
         22    1    1    2    0    0  0.31449443820E+03  0.28859555984E+03  0.46517660073E+03  0.63133463289E+03  0.00000000000E+00 0.  1.
<mgrwt>
<rscale>  0 0.99892954E+03</rscale>
<asrwt>0</asrwt>
<pdfrwt beam="1">  1        2 0.11293054E+00 0.99892954E+03</pdfrwt>
<pdfrwt beam="2">  1       -2 0.52284339E-01 0.99892954E+03</pdfrwt>
<totfact> 0.13295030E+02</totfact>
</mgrwt>
</event>
<event>
 6    1  0.1878398E-004  0.3993183E+04  0.7818608E-02  0.8005923E-01
         -3   -1    0    0    0  501 -0.00000000000E+00  0.00000000000E+00  0.33786394764E+04  0.33786394764E+04  0.00000000000E+00 0. -1.
          3   -1    0    0  501    0  0.00000000000E+00 -0.00000000000E+00 -0.11798766934E+04  0.11798766934E+04  0.00000000000E+00 0.  1.
         23    2    1    2    0    0  0.19896471002E+04  0.53866639107E+02  0.93611760977E+03  0.22014268563E+04  0.91470357958E+02 0.  0.
         13    1    3    3    0    0  0.46782996660E+03 -0.25456468210E+02  0.21222589572E+03  0.51434690651E+03  0.00000000000E+00 0. -1.
        -13    1    3    3    0    0  0.15218171336E+04  0.79323107317E+02  0.72389171405E+03  0.16870799498E+04  0.00000000000E+00 0.  1.
         22    1    1    2    0    0 -0.19896471002E+04 -0.53866639107E+02  0.12626451733E+04  0.23570893135E+04  0.00000000000E+00 0.  1.
<mgrwt>
<rscale>  0 0.39931832E+04</rscale>
<asrwt>0</asrwt>
<pdfrwt beam="1">  1        3 0.18151949E+00 0.39931832E+04</pdfrwt>
<pdfrwt beam="2">  1       -3 0.51979069E+00 0.39931832E+04</pdfrwt>
<totfact> 0.94270978E-04</totfact>
</mgrwt>
</event>
<event>
 6    1  0.1878398E-004  0.2961551E+04  0.7818608E-02  0.8254796E-01
         -2   -1    0    0    0  501 -0.00000000000E+00  0.00000000000E+00  0.71409553784E+03  0.71409553784E+03  0.00000000000E+00 0. -1.
          2   -1    0    0  501    0  0.00000000000E+00 -0.00000000000E+00 -0.30705910834E+04  0.30705910834E+04  0.00000000000E+00 0.  1.
         23    2    1    2    0    0 -0.10545964526E+04  0.18515982266E+02  0.14600823364E+03  0.10689838237E+04  0.94294705774E+02 0.  0.
         13    1    3    3    0    0 -0.96844816677E+03  0.34302586454E+02  0.11401126171E+03  0.97573925152E+03  0.00000000000E+00 0.  1.
        -13    1    3    3    0    0 -0.86148285882E+02 -0.15786604188E+02  0.31996971929E+02  0.93244572200E+02  0.00000000000E+00 0. -1.
         22    1    1    2    0    0  0.10545964526E+04 -0.18515982266E+02 -0.25025037792E+04  0.27157027975E+04  0.00000000000E+00 0.  1.
<mgrwt>
<rscale>  0 0.29615505E+04</rscale>
<asrwt>0</asrwt>
<pdfrwt beam="1">  1        2 0.47239863E+00 0.29615505E+04</pdfrwt>
<pdfrwt beam="2">  1       -2 0.10986085E+00 0.29615505E+04</pdfrwt>
<totfact> 0.88868181E-01</totfact>
</mgrwt>
</event>
<event>
 6    1  0.1878398E-004  0.1400984E+04  0.7818608E-02  0.8953106E-01
          2   -1    0    0  501    0  0.00000000000E+00  0.00000000000E+00  0.92841175939E+03  0.92841175939E+03  0.00000000000E+00 0.  1.
         -2   -1    0    0    0  501 -0.00000000000E+00 -0.00000000000E+00 -0.52852534251E+03  0.52852534251E+03  0.00000000000E+00 0. -1.
         23    2    1    2    0    0  0.11433134380E+02  0.49390287057E+03  0.71282086276E+03  0.87213052745E+03  0.91800394338E+02 0.  0.
         11    1    3    3    0    0  0.51266885552E+02  0.31632676214E+03  0.46044336112E+03  0.56098039431E+03  0.00000000000E+00 0. -1.
        -11    1    3    3    0    0 -0.39833751172E+02  0.17757610843E+03  0.25237750164E+03  0.31115013313E+03  0.00000000000E+00 0.  1.
         22    1    1    2    0    0 -0.11433134380E+02 -0.49390287057E+03 -0.31293444588E+03  0.58480657446E+03  0.00000000000E+00 0. -1.
<mgrwt>
<rscale>  0 0.14009841E+04</rscale>
<asrwt>0</asrwt>
<pdfrwt beam="1">  1        2 0.14283258E+00 0.14009841E+04</pdfrwt>
<pdfrwt beam="2">  1       -2 0.81311591E-01 0.14009841E+04</pdfrwt>
<totfact> 0.36400925E+01</totfact>
</mgrwt>
</event>
<event>
 6    1  0.1878398E-004  0.7110604E+03  0.7818608E-02  0.9698502E-01
         -1   -1    0    0    0  501 -0.00000000000E+00  0.00000000000E+00  0.10541991625E+03  0.10541991625E+03  0.00000000000E+00 0. -1.
          1   -1    0    0  501    0  0.00000000000E+00 -0.00000000000E+00 -0.11990306636E+04  0.11990306636E+04  0.00000000000E+00 0.  1.
         23    2    1    2    0    0  0.11056354546E+03  0.26360918498E+03 -0.18305899079E+03  0.35008241118E+03  0.85632940631E+02 0.  0.
         13    1    3    3    0    0  0.50902591485E+02  0.37331484822E+02 -0.52574451176E+02  0.82150998139E+02  0.00000000000E+00 0. -1.
        -13    1    3    3    0    0  0.59660953979E+02  0.22627770016E+03 -0.13048453961E+03  0.26793141304E+03  0.00000000000E+00 0.  1.
         22    1    1    2    0    0 -0.11056354546E+03 -0.26360918498E+03 -0.91055175654E+03  0.95436816865E+03  0.00000000000E+00 0.  1.
<mgrwt>
<rscale>  0 0.71106037E+03</rscale>
<asrwt>0</asrwt>
<pdfrwt beam="1">  1        1 0.18446626E+00 0.71106037E+03</pdfrwt>
<pdfrwt beam="2">  1       -1 0.16218448E-01 0.71106037E+03</pdfrwt>
<totfact> 0.31451012E+02</totfact>
</mgrwt>
</event>
<event>
 6    1  0.1878398E-004  0.4957210E+04  0.7818608E-02  0.7835142E-01
          1   -1    0    0  501    0  0.00000000000E+00  0.00000000000E+00  0.21822085612E+04  0.21822085612E+04  0.00000000000E+00 0.  1.
         -1   -1    0    0    0  501 -0.00000000000E+00 -0.00000000000E+00 -0.28152594306E+04  0.28152594306E+04  0.00000000000E+00 0. -1.
         23    2    1    2    0    0 -0.11767537572E+03  0.85321065663E+03  0.20255356063E+04  0.22028485245E+04  0.89057346682E+02 0.  0.
         13    1    3    3    0    0 -0.38902955545E+02  0.85548701765E+02  0.20526343933E+03  0.22575451236E+03  0.00000000000E+00 0.  1.
        -13    1    3    3    0    0 -0.78772420179E+02  0.76766195486E+03  0.18202721670E+04  0.19770940122E+04  0.00000000000E+00 0. -1.
         22    1    1    2    0    0  0.11767537572E+03 -0.85321065663E+03 -0.26585864757E+04  0.27946194673E+04  0.00000000000E+00 0. -1.
<mgrwt>
<rscale>  0 0.49572102E+04</rscale>
<asrwt>0</asrwt>
<pdfrwt beam="1">  1        1 0.33572439E+00 0.49572102E+04</pdfrwt>
<pdfrwt beam="2">  1       -1 0.43311684E+00 0.49572102E+04</pdfrwt>
<totfact> 0.68778356E-03</totfact>
</mgrwt>
</event>
<event>
 6    1  0.1878398E-004  0.1731735E+04  0.7818608E-02  0.8743469E-01
          2   -1    0    0  501    0  0.00000000000E+00  0.00000000000E+00  0.14476939776E+04  0.14476939776E+04  0.00000000000E+00 0.  1.
         -2   -1    0    0    0  501 -0.00000000000E+00 -0.00000000000E+00 -0.51787622939E+03  0.51787622939E+03  0.00000000000E+00 0. -1.
         23    2    1    2    0    0  0.80209946939E+03  0.29800056054E+03  0.33492907744E+03  0.92342797893E+03  0.91508756356E+02 0.  0.
         11    1    3    3    0    0  0.31855880148E+02  0.81687440192E+01  0.33632945769E+02  0.47039350760E+02  0.00000000000E+00 0.  1.
        -11    1    3    3    0    0  0.77024358924E+03  0.28983181652E+03  0.30129613167E+03  0.87638862817E+03  0.00000000000E+00 0. -1.
         22    1    1    2    0    0 -0.80209946939E+03 -0.29800056054E+03  0.59488867077E+03  0.10421422280E+04  0.00000000000E+00 0. -1.
<mgrwt>
<rscale>  0 0.17317347E+04</rscale>
<asrwt>0</asrwt>
<pdfrwt beam="1">  1        2 0.22272215E+00 0.17317347E+04</pdfrwt>
<pdfrwt beam="2">  1       -2 0.79673267E-01 0.17317347E+04</pdfrwt>
<totfact> 0.17997411E+01</totfact>
</mgrwt>
</event>
<event>
 6    1  0.1878398E-004  0.2246396E+04  0.7818608E-02  0.8499361E-01
         -2   -1    0    0    0  501 -0.00000000000E+00  0.00000000000E+00  0.19359540131E+04  0.19359540131E+04  0.00000000000E+00 0. -1.
          2   -1    0    0  501    0  0.00000000000E+00 -0.00000000000E+00 -0.65165484488E+03  0.65165484488E+03  0.00000000000E+00 0.  1.
         23    2    1    2    0    0 -0.10841849018E+04  0.18207302327E+03  0.38876998672E+03  0.11696596339E+04  0.91400599565E+02 0.  0.
         13    1    3    3    0    0 -0.69302883850E+03  0.14642092057E+03  0.28407065999E+03  0.76316721421E+03  0.00000000000E+00 0. -1.
        -13    1    3    3    0    0 -0.39115606328E+03  0.35652102705E+02  0.10469932672E+03  0.40649241971E+03  0.00000000000E+00 0.  1.
         22    1    1    2    0    0  0.10841849018E+04 -0.18207302327E+03  0.89552918145E+03  0.14179492240E+04  0.00000000000E+00 0. -1.
<mgrwt>
<rscale>  0 0.22463961E+04</rscale>
<asrwt>0</asrwt>
<pdfrwt beam="1">  1        2 0.10025459E+00 0.22463961E+04</pdfrwt>
<pdfrwt beam="2">  1       -2 0.29783908E+00 0.22463961E+04</pdfrwt>
<totfact> 0.13378916E+00</totfact>
</mgrwt>
</event>
<event>
 6    1  0.1878398E-004  0.2228803E+04  0.7818608E-02  0.8506534E-01
         -2   -1    0    0    0  501 -0.00000000000E+00  0.00000000000E+00  0.57853878596E+03  0.57853878596E+03  0.00000000000E+00 0. -1.
          2   -1    0    0  501    0  0.00000000000E+00 -0.00000000000E+00 -0.21465995264E+04  0.21465995264E+04  0.00000000000E+00 0.  1.
         23    2    1    2    0    0  0.37682651900E+03 -0.10353546422E+04 -0.59732260553E+03  0.12567071811E+04  0.92526662914E+02 0.  0.
         13    1    3    3    0    0  0.37629769577E+03 -0.98025302902E+03 -0.55843125911E+03  0.11892608746E+04  0.00000000000E+00 0. -1.
        -13    1    3    3    0    0  0.52882323557E+00 -0.55101613222E+02 -0.38891346425E+02  0.67446306499E+02  0.00000000000E+00 0.  1.
         22    1    1    2    0    0 -0.37682651900E+03  0.10353546422E+04 -0.97073813489E+03  0.14684311312E+04  0.00000000000E+00 0.  1.
<mgrwt>
<rscale>  0 0.22288033E+04</rscale>
<asrwt>0</asrwt>
<pdfrwt beam="1">  1        2 0.33024608E+00 0.22288033E+04</pdfrwt>
<pdfrwt beam="2">  1       -2 0.89005966E-01 0.22288033E+04</pdfrwt>
<totfact> 0.54699615E+00</totfact>
</mgrwt>
</event>
<event>
 6    1  0.1878398E-004  0.1315623E+04  0.7818608E-02  0.9017267E-01
         -2   -1    0    0    0  501 -0.00000000000E+00  0.00000000000E+00  0.10457402402E+04  0.10457402402E+04  0.00000000000E+00 0. -1.
          2   -1    0    0  501    0  0.00000000000E+00 -0.00000000000E+00 -0.41378933398E+03  0.41378933398E+03  0.00000000000E+00 0.  1.
         23    2    1    2    0    0  0.39790016163E+03 -0.25131181644E+03 -0.18744604610E+03  0.51459913590E+03  0.90521173013E+02 0.  0.
         13    1    3    3    0    0  0.14684524503E+03 -0.10272171834E+03 -0.11846148455E+03  0.21482178830E+03  0.00000000000E+00 0. -1.
        -13    1    3    3    0    0  0.25105491660E+03 -0.14859009810E+03 -0.68984561549E+02  0.29977734760E+03  0.00000000000E+00 0.  1.
         22    1    1    2    0    0 -0.39790016163E+03  0.25131181644E+03  0.81939695228E+03  0.94493043824E+03  0.00000000000E+00 0. -1.
<mgrwt>
<rscale>  0 0.13156233E+04</rscale>
<asrwt>0</asrwt>
<pdfrwt beam="1">  1        2 0.63659898E-01 0.13156233E+04</pdfrwt>
<pdfrwt beam="2">  1       -2 0.16088311E+00 0.13156233E+04</pdfrwt>
<totfact> 0.18571295E+01</totfact>
</mgrwt>
</event>
<event>
 6    1  0.1878398E-004  0.1898940E+03  0.7818608E-02  0.1158557E+00
         -1   -1    0    0    0  501 -0.00000000000E+00  0.00000000000E+00  0.29536690386E+02  0.29536690386E+02  0.00000000000E+00 0. -1.
          1   -1    0    0  501    0  0.00000000000E+00 -0.00000000000E+00 -0.30521145105E+03  0.30521145105E+03  0.00000000000E+00 0.  1.
         23    2    1    2    0    0 -0.42042830499E+02  0.27636789900E+02 -0.26364220850E+03  0.28301639041E+03  0.89775672567E+02 0.  0.
         11    1    3    3    0    0 -0.30478037991E+02 -0.30801721916E+02 -0.11288080874E+03  0.12091209143E+03  0.00000000000E+00 0. -1.
        -11    1    3    3    0    0 -0.11564792509E+02  0.58438511816E+02 -0.15076139977E+03  0.16210429898E+03  0.00000000000E+00 0.  1.
         22    1    1    2    0    0  0.42042830499E+02 -0.27636789900E+02 -0.12032552158E+02  0.51731751022E+02  0.00000000000E+00 0. -1.
<mgrwt>
<rscale>  0 0.18989403E+03</rscale>
<asrwt>0</asrwt>
<pdfrwt beam="1">  1        1 0.46955609E-01 0.18989403E+03</pdfrwt>
<pdfrwt beam="2">  1       -1 0.45441061E-02 0.18989403E+03</pdfrwt>
<totfact> 0.16796856E+04</totfact>
</mgrwt>
</event>
<event>
 6    1  0.1878398E-004  0.1374432E+04  0.7818608E-02  0.8972537E-01
         -2   -1    0    0    0  501 -0.00000000000E+00  0.00000000000E+00  0.98334497231E+03  0.98334497231E+03  0.00000000000E+00 0. -1.
          2   -1    0    0  501    0  0.00000000000E+00 -0.00000000000E+00 -0.48026468277E+03  0.48026468277E+03  0.00000000000E+00 0.  1.
         23    2    1    2    0    0  0.67772554989E+03 -0.84412694244E+02  0.20920984223E+03  0.72010628339E+03  0.91361246598E+02 0.  0.
         13    1    3    3    0    0  0.21027463852E+03 -0.63009089357E+02  0.44153582997E+02  0.22390870424E+03  0.00000000000E+00 0. -1.
        -13    1    3    3    0    0  0.46745091137E+03 -0.21403604887E+02  0.16505625923E+03  0.49619757915E+03  0.00000000000E+00 0.  1.
         22    1    1    2    0    0 -0.67772554989E+03  0.84412694244E+02  0.29387044731E+03  0.74350337169E+03  0.00000000000E+00 0.  1.
<mgrwt>
<rscale>  0 0.13744320E+04</rscale>
<asrwt>0</asrwt>
<pdfrwt beam="1">  1        2 0.73886874E-01 0.13744320E+04</pdfrwt>
<pdfrwt beam="2">  1       -2 0.15128384E+00 0.13744320E+04</pdfrwt>
<totfact> 0.18412401E+01</totfact>
</mgrwt>
</event>
<event>
 6    1  0.2240577E-004  0.2621431E+04  0.7818608E-02  0.8360958E-01
         -2   -1    0    0    0  501 -0.00000000000E+00  0.00000000000E+00  0.13584491434E+04  0.13584491434E+04  0.00000000000E+00 0. -1.
          2   -1    0    0  501    0  0.00000000000E+00 -0.00000000000E+00 -0.12646589208E+04  0.12646589208E+04  0.00000000000E+00 0.  1.
         23    2    1    2    0    0 -0.10125558735E+04  0.74314189856E+03 -0.32251273910E+03  0.12999159262E+04  0.90761610736E+02 0.  0.
         13    1    3    3    0    0 -0.71629433806E+03  0.55614765436E+03 -0.19888579955E+03  0.92840365868E+03  0.00000000000E+00 0.  1.
        -13    1    3    3    0    0 -0.29626153541E+03  0.18699424420E+03 -0.12362693955E+03  0.37151226751E+03  0.00000000000E+00 0. -1.
         22    1    1    2    0    0  0.10125558735E+04 -0.74314189856E+03  0.41630296172E+03  0.13231921381E+04  0.00000000000E+00 0. -1.
<mgrwt>
<rscale>  0 0.26214308E+04</rscale>
<asrwt>0</asrwt>
<pdfrwt beam="1">  1        2 0.19456291E+00 0.26214308E+04</pdfrwt>
<pdfrwt beam="2">  1       -2 0.20899218E+00 0.26214308E+04</pdfrwt>
<totfact> 0.17796111E+00</totfact>
</mgrwt>
</event>
<event>
 6    1  0.1878398E-004  0.1221894E+04  0.7818608E-02  0.9093905E-01
          1   -1    0    0  501    0  0.00000000000E+00  0.00000000000E+00  0.82875313910E+03  0.82875313910E+03  0.00000000000E+00 0. -1.
         -1   -1    0    0    0  501 -0.00000000000E+00 -0.00000000000E+00 -0.45038322151E+03  0.45038322151E+03  0.00000000000E+00 0.  1.
         23    2    1    2    0    0  0.55888642297E+03  0.22049264602E+03  0.28562865795E+03  0.67121203805E+03  0.89279499570E+02 0.  0.
         13    1    3    3    0    0  0.22902164037E+03  0.61531101779E+02  0.15069275873E+03  0.28097205516E+03  0.00000000000E+00 0.  1.
        -13    1    3    3    0    0  0.32986478260E+03  0.15896154424E+03  0.13493589922E+03  0.39023998289E+03  0.00000000000E+00 0. -1.
         22    1    1    2    0    0 -0.55888642297E+03 -0.22049264602E+03  0.92741259643E+02  0.60792432257E+03  0.00000000000E+00 0. -1.
<mgrwt>
<rscale>  0 0.12218944E+04</rscale>
<asrwt>0</asrwt>
<pdfrwt beam="1">  1        1 0.12750048E+00 0.12218944E+04</pdfrwt>
<pdfrwt beam="2">  1       -1 0.69289727E-01 0.12218944E+04</pdfrwt>
<totfact> 0.43482294E+01</totfact>
</mgrwt>
</event>
<event>
 6    1  0.1878398E-004  0.1480655E+04  0.7818608E-02  0.8897420E-01
          2   -1    0    0  501    0  0.00000000000E+00  0.00000000000E+00  0.31170372957E+04  0.31170372957E+04  0.00000000000E+00 0.  1.
         -2   -1    0    0    0  501 -0.00000000000E+00 -0.00000000000E+00 -0.17583515329E+03  0.17583515329E+03  0.00000000000E+00 0. -1.
         23    2    1    2    0    0 -0.69355933067E+03  0.16088700731E+03  0.10471128796E+04  0.12693894840E+04  0.89415351593E+02 0.  0.
         11    1    3    3    0    0 -0.19891511645E+03  0.48522347707E+02  0.37616011775E+03  0.42827336593E+03  0.00000000000E+00 0. -1.
        -11    1    3    3    0    0 -0.49464421422E+03  0.11236465960E+03  0.67095276189E+03  0.84111611806E+03  0.00000000000E+00 0.  1.
         22    1    1    2    0    0  0.69355933067E+03 -0.16088700731E+03  0.18940892628E+04  0.20234829650E+04  0.00000000000E+00 0.  1.
<mgrwt>
<rscale>  0 0.14806549E+04</rscale>
<asrwt>0</asrwt>
<pdfrwt beam="1">  1        2 0.47954416E+00 0.14806549E+04</pdfrwt>
<pdfrwt beam="2">  1       -2 0.27051564E-01 0.14806549E+04</pdfrwt>
<totfact> 0.17798810E+01</totfact>
</mgrwt>
</event>
<event>
 6    1  0.1878398E-004  0.3272011E+04  0.7818608E-02  0.8170054E-01
         -2   -1    0    0    0  501 -0.00000000000E+00  0.00000000000E+00  0.23168924628E+04  0.23168924628E+04  0.00000000000E+00 0. -1.
          2   -1    0    0  501    0  0.00000000000E+00 -0.00000000000E+00 -0.11552171475E+04  0.11552171475E+04  0.00000000000E+00 0.  1.
         23    2    1    2    0    0  0.11563229242E+04 -0.83153010715E+03  0.14330931593E+04  0.20222155900E+04  0.84112215899E+02 0.  0.
         11    1    3    3    0    0  0.82918617749E+03 -0.62153248922E+03  0.10858108187E+04  0.15009455307E+04  0.00000000000E+00 0. -1.
        -11    1    3    3    0    0  0.32713674669E+03 -0.20999761792E+03  0.34728234060E+03  0.52127005924E+03  0.00000000000E+00 0.  1.
         22    1    1    2    0    0 -0.11563229242E+04  0.83153010715E+03 -0.27141784408E+03  0.14498940203E+04  0.00000000000E+00 0.  1.
<mgrwt>
<rscale>  0 0.32720109E+04</rscale>
<asrwt>0</asrwt>
<pdfrwt beam="1">  1        2 0.17772572E+00 0.32720109E+04</pdfrwt>
<pdfrwt beam="2">  1       -2 0.35644499E+00 0.32720109E+04</pdfrwt>
<totfact> 0.23887399E-01</totfact>
</mgrwt>
</event>
<event>
 6    1  0.1878398E-004  0.1942502E+04  0.7818608E-02  0.8633985E-01
          2   -1    0    0  501    0  0.00000000000E+00  0.00000000000E+00  0.25383103003E+04  0.25383103003E+04  0.00000000000E+00 0.  1.
         -2   -1    0    0    0  501 -0.00000000000E+00 -0.00000000000E+00 -0.37163622733E+03  0.37163622733E+03  0.00000000000E+00 0. -1.
         23    2    1    2    0    0 -0.43650545341E+03  0.34358417819E+03 -0.10365496941E+03  0.57264443783E+03  0.92683337993E+02 0.  0.
         13    1    3    3    0    0 -0.85754211751E+02  0.10501990052E+03 -0.52438591837E+02  0.14537114656E+03  0.00000000000E+00 0.  1.
        -13    1    3    3    0    0 -0.35075124166E+03  0.23856427766E+03 -0.51216377572E+02  0.42727329127E+03  0.00000000000E+00 0. -1.
         22    1    1    2    0    0  0.43650545341E+03 -0.34358417819E+03  0.22703290424E+04  0.23373020898E+04  0.00000000000E+00 0.  1.
<mgrwt>
<rscale>  0 0.19425015E+04</rscale>
<asrwt>0</asrwt>
<pdfrwt beam="1">  1        2 0.39050927E+00 0.19425015E+04</pdfrwt>
<pdfrwt beam="2">  1       -2 0.57174806E-01 0.19425015E+04</pdfrwt>
<totfact> 0.88567869E+00</totfact>
</mgrwt>
</event>
<event>
 6    1  0.2473316E-004  0.3237388E+04  0.7818608E-02  0.8179012E-01
         -1   -1    0    0    0  501 -0.00000000000E+00  0.00000000000E+00  0.14721191503E+04  0.14721191503E+04  0.00000000000E+00 0. -1.
          1   -1    0    0  501    0  0.00000000000E+00 -0.00000000000E+00 -0.17798630291E+04  0.17798630291E+04  0.00000000000E+00 0.  1.
         23    2    1    2    0    0 -0.99042383807E+03 -0.64743519510E+03  0.95373721018E+03  0.15224023898E+04  0.89345730852E+02 0.  0.
         13    1    3    3    0    0 -0.42587320833E+03 -0.30680312827E+03  0.47101604526E+03  0.70523206393E+03  0.00000000000E+00 0.  1.
        -13    1    3    3    0    0 -0.56455062973E+03 -0.34063206682E+03  0.48272116491E+03  0.81717032590E+03  0.00000000000E+00 0. -1.
         22    1    1    2    0    0  0.99042383807E+03  0.64743519510E+03 -0.12614810889E+04  0.17295797896E+04  0.00000000000E+00 0.  1.
<mgrwt>
<rscale>  0 0.32373881E+04</rscale>
<asrwt>0</asrwt>
<pdfrwt beam="1">  1        1 0.27382508E+00 0.32373881E+04</pdfrwt>
<pdfrwt beam="2">  1       -1 0.22647987E+00 0.32373881E+04</pdfrwt>
<totfact> 0.34932686E-01</totfact>
</mgrwt>
</event>
<event>
 6    1  0.1878398E-004  0.1270138E+04  0.7818608E-02  0.9053587E-01
         -2   -1    0    0    0  501 -0.00000000000E+00  0.00000000000E+00  0.19802672906E+03  0.19802672906E+03  0.00000000000E+00 0. -1.
          2   -1    0    0  501    0  0.00000000000E+00 -0.00000000000E+00 -0.20366574813E+04  0.20366574813E+04  0.00000000000E+00 0.  1.
         23    2    1    2    0    0  0.18246868600E+03 -0.50466682749E+03 -0.33661746008E+03  0.63968347119E+03  0.88883073390E+02 0.  0.
         13    1    3    3    0    0  0.89392428515E+02 -0.16830100417E+03 -0.15842036526E+03  0.24781696151E+03  0.00000000000E+00 0.  1.
        -13    1    3    3    0    0  0.93076257484E+02 -0.33636582332E+03 -0.17819709482E+03  0.39186650968E+03  0.00000000000E+00 0. -1.
         22    1    1    2    0    0 -0.18246868600E+03  0.50466682749E+03 -0.15020132921E+04  0.15950007392E+04  0.00000000000E+00 0. -1.
<mgrwt>
<rscale>  0 0.12701380E+04</rscale>
<asrwt>0</asrwt>
<pdfrwt beam="1">  1        2 0.31333195E+00 0.12701380E+04</pdfrwt>
<pdfrwt beam="2">  1       -2 0.30465648E-01 0.12701380E+04</pdfrwt>
<totfact> 0.62451942E+01</totfact>
</mgrwt>
</event>
<event>
 6    1  0.1878398E-004  0.2671418E+04  0.7818608E-02  0.8344339E-01
          2   -1    0    0  501    0  0.00000000000E+00  0.00000000000E+00  0.14703016069E+04  0.14703016069E+04  0.00000000000E+00 0.  1.
         -2   -1    0    0    0  501 -0.00000000000E+00 -0.00000000000E+00 -0.12134372871E+04  0.12134372871E+04  0.00000000000E+00 0. -1.
         23    2    1    2    0    0  0.12877349985E+04  0.28526514786E+03 -0.69648771307E+02  0.13249716477E+04  0.10517264329E+03 0.  0.
         13    1    3    3    0    0  0.97212946947E+03  0.24911051413E+03 -0.22257263605E+02  0.10037864013E+04  0.00000000000E+00 0. -1.
        -13    1    3    3    0    0  0.31560552899E+03  0.36154633731E+02 -0.47391507702E+02  0.32118524635E+03  0.00000000000E+00 0.  1.
         22    1    1    2    0    0 -0.12877349985E+04 -0.28526514786E+03  0.32651309112E+03  0.13587672463E+04  0.00000000000E+00 0.  1.
<mgrwt>
<rscale>  0 0.26714182E+04</rscale>
<asrwt>0</asrwt>
<pdfrwt beam="1">  1        2 0.22620025E+00 0.26714182E+04</pdfrwt>
<pdfrwt beam="2">  1       -2 0.18668266E+00 0.26714182E+04</pdfrwt>
<totfact> 0.18938530E+00</totfact>
</mgrwt>
</event>
<event>
 6    1  0.1878398E-004  0.2313416E+04  0.7818608E-02  0.8472650E-01
          1   -1    0    0  501    0  0.00000000000E+00  0.00000000000E+00  0.98542357715E+03  0.98542357715E+03  0.00000000000E+00 0.  1.
         -1   -1    0    0    0  501 -0.00000000000E+00 -0.00000000000E+00 -0.13577644225E+04  0.13577644225E+04  0.00000000000E+00 0. -1.
         23    2    1    2    0    0 -0.10160083678E+04  0.99702262150E+02  0.36048896743E+03  0.10865046350E+04  0.91249556871E+02 0.  0.
         13    1    3    3    0    0 -0.47746492504E+03  0.69027387449E+02  0.21249881395E+03  0.52715584109E+03  0.00000000000E+00 0.  1.
        -13    1    3    3    0    0 -0.53854344277E+03  0.30674874700E+02  0.14799015348E+03  0.55934879388E+03  0.00000000000E+00 0. -1.
         22    1    1    2    0    0  0.10160083678E+04 -0.99702262150E+02 -0.73282981275E+03  0.12566833647E+04  0.00000000000E+00 0. -1.
<mgrwt>
<rscale>  0 0.23134157E+04</rscale>
<asrwt>0</asrwt>
<pdfrwt beam="1">  1        1 0.15160363E+00 0.23134157E+04</pdfrwt>
<pdfrwt beam="2">  1       -1 0.20888684E+00 0.23134157E+04</pdfrwt>
<totfact> 0.18347511E+00</totfact>
</mgrwt>
</event>
<event>
 6    1  0.1878398E-004  0.1012590E+04  0.7818608E-02  0.9294843E-01
          2   -1    0    0  501    0  0.00000000000E+00  0.00000000000E+00  0.25032208521E+04  0.25032208521E+04  0.00000000000E+00 0.  1.
         -2   -1    0    0    0  501 -0.00000000000E+00 -0.00000000000E+00 -0.10240194594E+03  0.10240194594E+03  0.00000000000E+00 0. -1.
         23    2    1    2    0    0 -0.47193349018E+03  0.30752280195E+02  0.77328585993E+03  0.91076860416E+03  0.88665141236E+02 0.  0.
         13    1    3    3    0    0 -0.25343590798E+03  0.51277346308E+02  0.36607176760E+03  0.44818262431E+03  0.00000000000E+00 0.  1.
        -13    1    3    3    0    0 -0.21849758220E+03 -0.20525066112E+02  0.40721409232E+03  0.46258597985E+03  0.00000000000E+00 0. -1.
         22    1    1    2    0    0  0.47193349018E+03 -0.30752280195E+02  0.16275330462E+04  0.16948541938E+04  0.00000000000E+00 0.  1.
<mgrwt>
<rscale>  0 0.10125901E+04</rscale>
<asrwt>0</asrwt>
<pdfrwt beam="1">  1        2 0.38511085E+00 0.10125901E+04</pdfrwt>
<pdfrwt beam="2">  1       -2 0.15754147E-01 0.10125901E+04</pdfrwt>
<totfact> 0.11306122E+02</totfact>
</mgrwt>
</event>
<event>
 6    1  0.1878398E-004  0.8237731E+03  0.7818608E-02  0.9526230E-01
         -2   -1    0    0    0  501 -0.00000000000E+00  0.00000000000E+00  0.11267277331E+04  0.11267277331E+04  0.00000000000E+00 0. -1.
          2   -1    0    0  501    0  0.00000000000E+00 -0.00000000000E+00 -0.15056923200E+03  0.15056923200E+03  0.00000000000E+00 0.  1.
         23    2    1    2    0    0  0.24514958243E+03  0.27142303857E+03  0.77031956829E+03  0.85760844979E+03  0.91275583932E+02 0.  0.
         11    1    3    3    0    0  0.10415862855E+03  0.65541324612E+02  0.31874685520E+03  0.34167856654E+03  0.00000000000E+00 0. -1.
        -11    1    3    3    0    0  0.14099095388E+03  0.20588171396E+03  0.45157271309E+03  0.51592988325E+03  0.00000000000E+00 0.  1.
         22    1    1    2    0    0 -0.24514958243E+03 -0.27142303857E+03  0.20583893281E+03  0.41968851532E+03  0.00000000000E+00 0.  1.
<mgrwt>
<rscale>  0 0.82377310E+03</rscale>
<asrwt>0</asrwt>
<pdfrwt beam="1">  1        2 0.23164498E-01 0.82377310E+03</pdfrwt>
<pdfrwt beam="2">  1       -2 0.17334272E+00 0.82377310E+03</pdfrwt>
<totfact> 0.48741096E+01</totfact>
</mgrwt>
</event>
<event>
 6    1  0.1878398E-004  0.2253210E+04  0.7818608E-02  0.8496602E-01
          2   -1    0    0  501    0  0.00000000000E+00  0.00000000000E+00  0.23763224848E+04  0.23763224848E+04  0.00000000000E+00 0.  1.
         -2   -1    0    0    0  501 -0.00000000000E+00 -0.00000000000E+00 -0.53411883465E+03  0.53411883465E+03  0.00000000000E+00 0. -1.
         23    2    1    2    0    0  0.52723358746E+03  0.93082062445E+03  0.47414660195E+03  0.11737829253E+04  0.92461154229E+02 0.  0.
         13    1    3    3    0    0  0.40886923262E+03  0.71870763997E+03  0.32315269419E+03  0.88777383657E+03  0.00000000000E+00 0.  1.
        -13    1    3    3    0    0  0.11836435484E+03  0.21211298448E+03  0.15099390776E+03  0.28600908878E+03  0.00000000000E+00 0. -1.
         22    1    1    2    0    0 -0.52723358746E+03 -0.93082062445E+03  0.13680570482E+04  0.17366583941E+04  0.00000000000E+00 0. -1.
<mgrwt>
<rscale>  0 0.22532098E+04</rscale>
<asrwt>0</asrwt>
<pdfrwt beam="1">  1        2 0.36558807E+00 0.22532098E+04</pdfrwt>
<pdfrwt beam="2">  1       -2 0.82172130E-01 0.22532098E+04</pdfrwt>
<totfact> 0.48565848E+00</totfact>
</mgrwt>
</event>
<event>
 6    1  0.1878398E-004  0.2600659E+04  0.7818608E-02  0.8367977E-01
          2   -1    0    0  501    0  0.00000000000E+00  0.00000000000E+00  0.23191156793E+04  0.23191156793E+04  0.00000000000E+00 0.  1.
         -2   -1    0    0    0  501 -0.00000000000E+00 -0.00000000000E+00 -0.72909567298E+03  0.72909567298E+03  0.00000000000E+00 0. -1.
         23    2    1    2    0    0  0.11426469755E+04  0.61543969091E+03  0.73886429457E+03  0.14961565306E+04  0.90309438173E+02 0.  0.
         11    1    3    3    0    0  0.35999835172E+03  0.21861204766E+03  0.19838939472E+03  0.46556244754E+03  0.00000000000E+00 0. -1.
        -11    1    3    3    0    0  0.78264862377E+03  0.39682764325E+03  0.54047489985E+03  0.10305940831E+04  0.00000000000E+00 0.  1.
         22    1    1    2    0    0 -0.11426469755E+04 -0.61543969091E+03  0.85115571174E+03  0.15520548216E+04  0.00000000000E+00 0. -1.
<mgrwt>
<rscale>  0 0.26006593E+04</rscale>
<asrwt>0</asrwt>
<pdfrwt beam="1">  1        2 0.35678702E+00 0.26006593E+04</pdfrwt>
<pdfrwt beam="2">  1       -2 0.11216857E+00 0.26006593E+04</pdfrwt>
<totfact> 0.24502199E+00</totfact>
</mgrwt>
</event>
<event>
 6    1  0.1878398E-004  0.7988631E+03  0.7818608E-02  0.9561664E-01
          1   -1    0    0  501    0  0.00000000000E+00  0.00000000000E+00  0.29755971797E+03  0.29755971797E+03  0.00000000000E+00 0.  1.
         -1   -1    0    0    0  501 -0.00000000000E+00 -0.00000000000E+00 -0.53618002823E+03  0.53618002823E+03  0.00000000000E+00 0. -1.
         23    2    1    2    0    0  0.15053790710E+03  0.23647949226E+03  0.16848804047E+03  0.33945094301E+03  0.90854340539E+02 0.  0.
         13    1    3    3    0    0  0.85950941434E+02  0.13296958278E+03  0.42208795264E+02  0.16385986902E+03  0.00000000000E+00 0. -1.
        -13    1    3    3    0    0  0.64586965661E+02  0.10350990948E+03  0.12627924520E+03  0.17559107399E+03  0.00000000000E+00 0.  1.
         22    1    1    2    0    0 -0.15053790710E+03 -0.23647949226E+03 -0.40710835073E+03  0.49428880320E+03  0.00000000000E+00 0. -1.
<mgrwt>
<rscale>  0 0.79886314E+03</rscale>
<asrwt>0</asrwt>
<pdfrwt beam="1">  1        1 0.45778418E-01 0.79886314E+03</pdfrwt>
<pdfrwt beam="2">  1       -1 0.82489235E-01 0.79886314E+03</pdfrwt>
<totfact> 0.13107909E+02</totfact>
</mgrwt>
</event>
<event>
 6    1  0.1878398E-004  0.1668928E+04  0.7818608E-02  0.8779287E-01
          2   -1    0    0  501    0  0.00000000000E+00  0.00000000000E+00  0.29650002260E+04  0.29650002260E+04  0.00000000000E+00 0.  1.
         -2   -1    0    0    0  501 -0.00000000000E+00 -0.00000000000E+00 -0.23485003763E+03  0.23485003763E+03  0.00000000000E+00 0. -1.
         23    2    1    2    0    0  0.25807126502E+03  0.70636186315E+03  0.69955904219E+03  0.10344754087E+04  0.12332338820E+03 0.  0.
         13    1    3    3    0    0  0.20020594049E+03  0.50676078446E+03  0.57513531614E+03  0.79225598334E+03  0.00000000000E+00 0.  1.
        -13    1    3    3    0    0  0.57865324532E+02  0.19960107869E+03  0.12442372605E+03  0.24221942532E+03  0.00000000000E+00 0. -1.
         22    1    1    2    0    0 -0.25807126502E+03 -0.70636186315E+03  0.20305911461E+04  0.21653748549E+04  0.00000000000E+00 0.  1.
<mgrwt>
<rscale>  0 0.16689283E+04</rscale>
<asrwt>0</asrwt>
<pdfrwt beam="1">  1        2 0.45615385E+00 0.16689283E+04</pdfrwt>
<pdfrwt beam="2">  1       -2 0.36130777E-01 0.16689283E+04</pdfrwt>
<totfact> 0.12649521E+01</totfact>
</mgrwt>
</event>
<event>
 6    1  0.1878398E-004  0.1248490E+04  0.7818608E-02  0.9071441E-01
          2   -1    0    0  501    0  0.00000000000E+00  0.00000000000E+00  0.10496893223E+04  0.10496893223E+04  0.00000000000E+00 0.  1.
         -2   -1    0    0    0  501 -0.00000000000E+00 -0.00000000000E+00 -0.37123557806E+03  0.37123557806E+03  0.00000000000E+00 0. -1.
         23    2    1    2    0    0 -0.13640557240E+03 -0.52524786438E+03  0.68428016674E+03  0.87822263721E+03  0.92432974110E+02 0.  0.
         13    1    3    3    0    0 -0.58570322826E+02 -0.38333356835E+03  0.46014337309E+03  0.60175329757E+03  0.00000000000E+00 0.  1.
        -13    1    3    3    0    0 -0.77835249579E+02 -0.14191429603E+03  0.22413679364E+03  0.27646933964E+03  0.00000000000E+00 0. -1.
         22    1    1    2    0    0  0.13640557240E+03  0.52524786438E+03 -0.58264225012E+01  0.54270226314E+03  0.00000000000E+00 0. -1.
<mgrwt>
<rscale>  0 0.12484903E+04</rscale>
<asrwt>0</asrwt>
<pdfrwt beam="1">  1        2 0.16149066E+00 0.12484903E+04</pdfrwt>
<pdfrwt beam="2">  1       -2 0.57113166E-01 0.12484903E+04</pdfrwt>
<totfact> 0.66190914E+01</totfact>
</mgrwt>
</event>
<event>
 6    1  0.1878398E-004  0.1090285E+04  0.7818608E-02  0.9214712E-01
          2   -1    0    0  501    0  0.00000000000E+00  0.00000000000E+00  0.60408075561E+03  0.60408075561E+03  0.00000000000E+00 0.  1.
         -2   -1    0    0    0  501 -0.00000000000E+00 -0.00000000000E+00 -0.49195497748E+03  0.49195497748E+03  0.00000000000E+00 0. -1.
         23    2    1    2    0    0 -0.26095452162E+03 -0.33516065985E+03  0.39395912244E+03  0.58627111659E+03  0.89889386066E+02 0.  0.
         13    1    3    3    0    0 -0.91966430663E+02 -0.94583377268E+02  0.72065213049E+02  0.15032376577E+03  0.00000000000E+00 0.  1.
        -13    1    3    3    0    0 -0.16898809095E+03 -0.24057728258E+03  0.32189390940E+03  0.43594735082E+03  0.00000000000E+00 0. -1.
         22    1    1    2    0    0  0.26095452162E+03  0.33516065985E+03 -0.28183334431E+03  0.50976461649E+03  0.00000000000E+00 0. -1.
<mgrwt>
<rscale>  0 0.10902853E+04</rscale>
<asrwt>0</asrwt>
<pdfrwt beam="1">  1        2 0.92935500E-01 0.10902853E+04</pdfrwt>
<pdfrwt beam="2">  1       -2 0.75685382E-01 0.10902853E+04</pdfrwt>
<totfact> 0.76520432E+01</totfact>
</mgrwt>
</event>
<event>
 6    1  0.1878398E-004  0.1667292E+04  0.7818608E-02  0.8780242E-01
          2   -1    0    0  501    0  0.00000000000E+00  0.00000000000E+00  0.31569069789E+04  0.31569069789E+04  0.00000000000E+00 0.  1.
         -2   -1    0    0    0  501 -0.00000000000E+00 -0.00000000000E+00 -0.22014132851E+03  0.22014132851E+03  0.00000000000E+00 0. -1.
         23    2    1    2    0    0 -0.77902023226E+03  0.26851525797E+03  0.16913792681E+04  0.18837431788E+04  0.93549820982E+02 0.  0.
         13    1    3    3    0    0 -0.20527412664E+03  0.37847994322E+02  0.48836943698E+03  0.53110699931E+03  0.00000000000E+00 0.  1.
        -13    1    3    3    0    0 -0.57374610561E+03  0.23066726365E+03  0.12030098311E+04  0.13526361795E+04  0.00000000000E+00 0. -1.
         22    1    1    2    0    0  0.77902023226E+03 -0.26851525797E+03  0.12453863823E+04  0.14933051287E+04  0.00000000000E+00 0. -1.
<mgrwt>
<rscale>  0 0.16672921E+04</rscale>
<asrwt>0</asrwt>
<pdfrwt beam="1">  1        2 0.48567796E+00 0.16672921E+04</pdfrwt>
<pdfrwt beam="2">  1       -2 0.33867899E-01 0.16672921E+04</pdfrwt>
<totfact> 0.10835844E+01</totfact>
</mgrwt>
</event>
<event>
 6    1  0.1878398E-004  0.3239243E+04  0.7818608E-02  0.8178529E-01
          2   -1    0    0  501    0  0.00000000000E+00  0.00000000000E+00  0.37840402059E+04  0.37840402059E+04  0.00000000000E+00 0.  1.
         -2   -1    0    0    0  501 -0.00000000000E+00 -0.00000000000E+00 -0.69322024564E+03  0.69322024564E+03  0.00000000000E+00 0. -1.
         23    2    1    2    0    0  0.77895499851E+03 -0.11893971540E+04  0.47776380712E+03  0.15024497115E+04  0.87523713501E+02 0.  0.
         13    1    3    3    0    0  0.26285902930E+03 -0.47591342098E+03  0.19484351980E+03  0.57753999927E+03  0.00000000000E+00 0.  1.
        -13    1    3    3    0    0  0.51609596922E+03 -0.71348373304E+03  0.28292028732E+03  0.92490971221E+03  0.00000000000E+00 0. -1.
         22    1    1    2    0    0 -0.77895499851E+03  0.11893971540E+04  0.26130561532E+04  0.29748107401E+04  0.00000000000E+00 0.  1.
<mgrwt>
<rscale>  0 0.32392427E+04</rscale>
<asrwt>0</asrwt>
<pdfrwt beam="1">  1        2 0.58216002E+00 0.32392427E+04</pdfrwt>
<pdfrwt beam="2">  1       -2 0.10664927E+00 0.32392427E+04</pdfrwt>
<totfact> 0.29962372E-01</totfact>
</mgrwt>
</event>
<event>
 6    1  0.1878398E-004  0.1932249E+04  0.7818608E-02  0.8638969E-01
         -2   -1    0    0    0  501 -0.00000000000E+00  0.00000000000E+00  0.95347858743E+03  0.95347858743E+03  0.00000000000E+00 0. -1.
          2   -1    0    0  501    0  0.00000000000E+00 -0.00000000000E+00 -0.97893783794E+03  0.97893783794E+03  0.00000000000E+00 0.  1.
         23    2    1    2    0    0 -0.37948992019E+03  0.61702367228E+03  0.62341168667E+03  0.95991228410E+03  0.89769986078E+02 0.  0.
         13    1    3    3    0    0 -0.24250531460E+03  0.42847178066E+03  0.47163140396E+03  0.68178667898E+03  0.00000000000E+00 0.  1.
        -13    1    3    3    0    0 -0.13698460559E+03  0.18855189162E+03  0.15178028271E+03  0.27812560512E+03  0.00000000000E+00 0. -1.
         22    1    1    2    0    0  0.37948992019E+03 -0.61702367228E+03 -0.64887093717E+03  0.97250414127E+03  0.00000000000E+00 0.  1.
<mgrwt>
<rscale>  0 0.19322487E+04</rscale>
<asrwt>0</asrwt>
<pdfrwt beam="1">  1        2 0.15060582E+00 0.19322487E+04</pdfrwt>
<pdfrwt beam="2">  1       -2 0.14668901E+00 0.19322487E+04</pdfrwt>
<totfact> 0.77160981E+00</totfact>
</mgrwt>
</event>
<event>
 6    1  0.1878398E-004  0.9873045E+03  0.7818608E-02  0.9322580E-01
          2   -1    0    0  501    0  0.00000000000E+00  0.00000000000E+00  0.54714032416E+03  0.54714032416E+03  0.00000000000E+00 0.  1.
         -2   -1    0    0    0  501 -0.00000000000E+00 -0.00000000000E+00 -0.44539308950E+03  0.44539308950E+03  0.00000000000E+00 0. -1.
         23    2    1    2    0    0  0.56736538809E+01 -0.13671321651E+03 -0.42104762039E+03  0.45212879268E+03  0.91742316367E+02 0.  0.
         13    1    3    3    0    0  0.22923740632E+02 -0.11700540124E+03 -0.22781441131E+03  0.25712869891E+03  0.00000000000E+00 0.  1.
        -13    1    3    3    0    0 -0.17250086751E+02 -0.19707815269E+02 -0.19323320908E+03  0.19500009376E+03  0.00000000000E+00 0. -1.
         22    1    1    2    0    0 -0.56736538809E+01  0.13671321651E+03  0.52279485505E+03  0.54040462099E+03  0.00000000000E+00 0.  1.
<mgrwt>
<rscale>  0 0.98730445E+03</rscale>
<asrwt>0</asrwt>
<pdfrwt beam="1">  1        2 0.84175434E-01 0.98730445E+03</pdfrwt>
<pdfrwt beam="2">  1       -2 0.68522014E-01 0.98730445E+03</pdfrwt>
<totfact> 0.10786003E+02</totfact>
</mgrwt>
</event>
<event>
 6    1  0.1878398E-004  0.1633421E+04  0.7818608E-02  0.8800275E-01
          4   -1    0    0  501    0  0.00000000000E+00  0.00000000000E+00  0.80173853254E+03  0.80173853254E+03  0.00000000000E+00 0.  1.
         -4   -1    0    0    0  501 -0.00000000000E+00 -0.00000000000E+00 -0.83196189069E+03  0.83196189069E+03  0.00000000000E+00 0. -1.
         23    2    1    2    0    0  0.22817806235E+03  0.71830876558E+03 -0.32273901258E+03  0.82524626934E+03  0.94011828884E+02 0.  0.
         13    1    3    3    0    0  0.19669987065E+03  0.58242168106E+03 -0.29957646239E+03  0.68385079550E+03  0.00000000000E+00 0.  1.
        -13    1    3    3    0    0  0.31478191698E+02  0.13588708452E+03 -0.23162550193E+02  0.14139547385E+03  0.00000000000E+00 0. -1.
         22    1    1    2    0    0 -0.22817806235E+03 -0.71830876558E+03  0.29251565442E+03  0.80845415389E+03  0.00000000000E+00 0.  1.
<mgrwt>
<rscale>  0 0.16334208E+04</rscale>
<asrwt>0</asrwt>
<pdfrwt beam="1">  1        4 0.12334439E+00 0.16334208E+04</pdfrwt>
<pdfrwt beam="2">  1       -4 0.12799414E+00 0.16334208E+04</pdfrwt>
<totfact> 0.42547729E-01</totfact>
</mgrwt>
</event>
<event>
 6    1  0.1878398E-004  0.2730941E+04  0.7818608E-02  0.8325035E-01
          2   -1    0    0  501    0  0.00000000000E+00  0.00000000000E+00  0.17496062762E+04  0.17496062762E+04  0.00000000000E+00 0.  1.
         -2   -1    0    0    0  501 -0.00000000000E+00 -0.00000000000E+00 -0.10656735946E+04  0.10656735946E+04  0.00000000000E+00 0. -1.
         23    2    1    2    0    0 -0.77378724422E+03 -0.12124363498E+03 -0.80874514390E+03  0.11295949034E+04  0.92028363934E+02 0.  0.
         13    1    3    3    0    0 -0.64147567365E+03 -0.90944783586E+02 -0.71356044472E+03  0.96381040761E+03  0.00000000000E+00 0. -1.
        -13    1    3    3    0    0 -0.13231157057E+03 -0.30298851390E+02 -0.95184699187E+02  0.16578449584E+03  0.00000000000E+00 0.  1.
         22    1    1    2    0    0  0.77378724422E+03  0.12124363498E+03  0.14926778255E+04  0.16856849673E+04  0.00000000000E+00 0.  1.
<mgrwt>
<rscale>  0 0.27309407E+04</rscale>
<asrwt>0</asrwt>
<pdfrwt beam="1">  1        2 0.26917020E+00 0.27309407E+04</pdfrwt>
<pdfrwt beam="2">  1       -2 0.16394978E+00 0.27309407E+04</pdfrwt>
<totfact> 0.18979147E+00</totfact>
</mgrwt>
</event>
<event>
 6    1  0.1878398E-004  0.2399206E+04  0.7818608E-02  0.8439801E-01
          2   -1    0    0  501    0  0.00000000000E+00  0.00000000000E+00  0.99867167483E+03  0.99867167483E+03  0.00000000000E+00 0.  1.
         -2   -1    0    0    0  501 -0.00000000000E+00 -0.00000000000E+00 -0.14409609897E+04  0.14409609897E+04  0.00000000000E+00 0. -1.
         23    2    1    2    0    0 -0.10679246228E+04  0.32871205547E+03  0.21713630776E+03  0.11421902700E+04  0.94529474043E+02 0.  0.
         13    1    3    3    0    0 -0.81093964283E+03  0.27436839627E+03  0.19884617657E+03  0.87888618326E+03  0.00000000000E+00 0.  1.
        -13    1    3    3    0    0 -0.25698497992E+03  0.54343659200E+02  0.18290131192E+02  0.26330408675E+03  0.00000000000E+00 0. -1.
         22    1    1    2    0    0  0.10679246228E+04 -0.32871205547E+03 -0.65942562260E+03  0.12974423945E+04  0.00000000000E+00 0. -1.
<mgrwt>
<rscale>  0 0.23992056E+04</rscale>
<asrwt>0</asrwt>
<pdfrwt beam="1">  1        2 0.15364180E+00 0.23992056E+04</pdfrwt>
<pdfrwt beam="2">  1       -2 0.22168631E+00 0.23992056E+04</pdfrwt>
<totfact> 0.21882919E+00</totfact>
</mgrwt>
</event>
<event>
 6    1  0.1878398E-004  0.2529928E+04  0.7818608E-02  0.8392401E-01
         -2   -1    0    0    0  501 -0.00000000000E+00  0.00000000000E+00  0.10205564892E+04  0.10205564892E+04  0.00000000000E+00 0. -1.
          2   -1    0    0  501    0  0.00000000000E+00 -0.00000000000E+00 -0.15679028878E+04  0.15679028878E+04  0.00000000000E+00 0.  1.
         23    2    1    2    0    0  0.94045849819E+03 -0.56343105194E+02  0.58709680565E+03  0.11138075143E+04  0.90817329430E+02 0.  0.
         11    1    3    3    0    0  0.35104282727E+03  0.21430025449E+02  0.20491899210E+03  0.40704066860E+03  0.00000000000E+00 0. -1.
        -11    1    3    3    0    0  0.58941567092E+03 -0.77773130643E+02  0.38217781356E+03  0.70676684568E+03  0.00000000000E+00 0.  1.
         22    1    1    2    0    0 -0.94045849819E+03  0.56343105194E+02 -0.11344432043E+04  0.14746518626E+04  0.00000000000E+00 0.  1.
<mgrwt>
<rscale>  0 0.25299276E+04</rscale>
<asrwt>0</asrwt>
<pdfrwt beam="1">  1        2 0.24121583E+00 0.25299276E+04</pdfrwt>
<pdfrwt beam="2">  1       -2 0.15700869E+00 0.25299276E+04</pdfrwt>
<totfact> 0.27424261E+00</totfact>
</mgrwt>
</event>
<event>
 6    1  0.1878398E-004  0.5086056E+04  0.7818608E-02  0.7815368E-01
          2   -1    0    0  501    0  0.00000000000E+00  0.00000000000E+00  0.41295107272E+04  0.41295107272E+04  0.00000000000E+00 0.  1.
         -2   -1    0    0    0  501 -0.00000000000E+00 -0.00000000000E+00 -0.15660429178E+04  0.15660429178E+04  0.00000000000E+00 0. -1.
         23    2    1    2    0    0 -0.17961905074E+04  0.82399008291E+03 -0.50876450969E+03  0.20426272267E+04  0.90689941468E+02 0.  0.
         11    1    3    3    0    0 -0.10681885875E+04  0.50284618880E+03 -0.25951191276E+03  0.12088124673E+04  0.00000000000E+00 0. -1.
        -11    1    3    3    0    0 -0.72800191982E+03  0.32114389411E+03 -0.24925259694E+03  0.83381475944E+03  0.00000000000E+00 0.  1.
         22    1    1    2    0    0  0.17961905074E+04 -0.82399008291E+03  0.30722323190E+04  0.36529264183E+04  0.00000000000E+00 0.  1.
<mgrwt>
<rscale>  0 0.50860559E+04</rscale>
<asrwt>0</asrwt>
<pdfrwt beam="1">  1        2 0.63530934E+00 0.50860559E+04</pdfrwt>
<pdfrwt beam="2">  1       -2 0.24092968E+00 0.50860559E+04</pdfrwt>
<totfact> 0.14044742E-02</totfact>
</mgrwt>
</event>
<event>
 6    1  0.1878398E-004  0.1805491E+04  0.7818608E-02  0.8703385E-01
         -1   -1    0    0    0  501 -0.00000000000E+00  0.00000000000E+00  0.51811777769E+03  0.51811777769E+03  0.00000000000E+00 0. -1.
          1   -1    0    0  501    0  0.00000000000E+00 -0.00000000000E+00 -0.15729037505E+04  0.15729037505E+04  0.00000000000E+00 0.  1.
         23    2    1    2    0    0 -0.26840163632E+03 -0.60283928208E+03  0.18052321714E+03  0.69050611121E+03  0.93570397525E+02 0.  0.
         13    1    3    3    0    0 -0.16166103529E+03 -0.40608869002E+03  0.76710044943E+02  0.44376429046E+03  0.00000000000E+00 0. -1.
        -13    1    3    3    0    0 -0.10674060103E+03 -0.19675059206E+03  0.10381317220E+03  0.24674182075E+03  0.00000000000E+00 0.  1.
         22    1    1    2    0    0  0.26840163632E+03  0.60283928208E+03 -0.12353091899E+04  0.14005154170E+04  0.00000000000E+00 0.  1.
<mgrwt>
<rscale>  0 0.18054910E+04</rscale>
<asrwt>0</asrwt>
<pdfrwt beam="1">  1        1 0.24198519E+00 0.18054910E+04</pdfrwt>
<pdfrwt beam="2">  1       -1 0.79710430E-01 0.18054910E+04</pdfrwt>
<totfact> 0.86358083E+00</totfact>
</mgrwt>
</event>
<event>
 6    1  0.1878398E-004  0.1033102E+04  0.7818608E-02  0.9272966E-01
          1   -1    0    0  501    0  0.00000000000E+00  0.00000000000E+00  0.46002110537E+03  0.46002110537E+03  0.00000000000E+00 0. -1.
         -1   -1    0    0    0  501 -0.00000000000E+00 -0.00000000000E+00 -0.58002762403E+03  0.58002762403E+03  0.00000000000E+00 0.  1.
         23    2    1    2    0    0  0.38455046017E+03  0.26264194323E+03  0.15600922771E+03  0.49871284568E+03  0.86693578489E+02 0.  0.
         13    1    3    3    0    0  0.11553548995E+03  0.77274295137E+02  0.57390870621E+01  0.13911399372E+03  0.00000000000E+00 0.  1.
        -13    1    3    3    0    0  0.26901497022E+03  0.18536764809E+03  0.15027014064E+03  0.35959885196E+03  0.00000000000E+00 0. -1.
         22    1    1    2    0    0 -0.38455046017E+03 -0.26264194323E+03 -0.27601574636E+03  0.54133588372E+03  0.00000000000E+00 0.  1.
<mgrwt>
<rscale>  0 0.10331020E+04</rscale>
<asrwt>0</asrwt>
<pdfrwt beam="1">  1        1 0.70772478E-01 0.10331020E+04</pdfrwt>
<pdfrwt beam="2">  1       -1 0.89235019E-01 0.10331020E+04</pdfrwt>
<totfact> 0.61247641E+01</totfact>
</mgrwt>
</event>
<event>
 6    1  0.1878398E-004  0.5197262E+03  0.7818608E-02  0.1008755E+00
         -2   -1    0    0    0  501 -0.00000000000E+00  0.00000000000E+00  0.76952305022E+02  0.76952305022E+02  0.00000000000E+00 0. -1.
          2   -1    0    0  501    0  0.00000000000E+00 -0.00000000000E+00 -0.87754142134E+03  0.87754142134E+03  0.00000000000E+00 0.  1.
         23    2    1    2    0    0  0.11114999401E+03 -0.12905036856E+03 -0.75315291952E+03  0.77769295837E+03  0.92513234367E+02 0.  0.
         11    1    3    3    0    0  0.40353795227E+02 -0.11014174541E+03 -0.52965974906E+03  0.54249339410E+03  0.00000000000E+00 0.  1.
        -11    1    3    3    0    0  0.70796198787E+02 -0.18908623144E+02 -0.22349317046E+03  0.23519956427E+03  0.00000000000E+00 0. -1.
         22    1    1    2    0    0 -0.11114999401E+03  0.12905036856E+03 -0.47436196802E+02  0.17680076799E+03  0.00000000000E+00 0. -1.
<mgrwt>
<rscale>  0 0.51972622E+03</rscale>
<asrwt>0</asrwt>
<pdfrwt beam="1">  1        2 0.13500637E+00 0.51972622E+03</pdfrwt>
<pdfrwt beam="2">  1       -2 0.11838817E-01 0.51972622E+03</pdfrwt>
<totfact> 0.15880653E+03</totfact>
</mgrwt>
</event>
<event>
 6    1  0.1878398E-004  0.1575788E+04  0.7818608E-02  0.8835562E-01
         -1   -1    0    0    0  501 -0.00000000000E+00  0.00000000000E+00  0.13178344323E+04  0.13178344323E+04  0.00000000000E+00 0. -1.
          1   -1    0    0  501    0  0.00000000000E+00 -0.00000000000E+00 -0.47105865233E+03  0.47105865233E+03  0.00000000000E+00 0.  1.
         23    2    1    2    0    0 -0.50454126257E+03  0.57077017686E+03  0.20868170011E+03  0.79516045701E+03  0.91605785841E+02 0.  0.
         11    1    3    3    0    0 -0.13867694501E+03  0.21047939496E+03  0.43660319407E+02  0.25581066098E+03  0.00000000000E+00 0. -1.
        -11    1    3    3    0    0 -0.36586431756E+03  0.36029078190E+03  0.16502138070E+03  0.53934979603E+03  0.00000000000E+00 0.  1.
         22    1    1    2    0    0  0.50454126257E+03 -0.57077017686E+03  0.63809407987E+03  0.99373262762E+03  0.00000000000E+00 0. -1.
<mgrwt>
<rscale>  0 0.15757885E+04</rscale>
<asrwt>0</asrwt>
<pdfrwt beam="1">  1        1 0.72470562E-01 0.15757885E+04</pdfrwt>
<pdfrwt beam="2">  1       -1 0.20274376E+00 0.15757885E+04</pdfrwt>
<totfact> 0.66640279E+00</totfact>
</mgrwt>
</event>
<event>
 6    1  0.1878398E-004  0.1763299E+04  0.7818608E-02  0.8726064E-01
         -2   -1    0    0    0  501 -0.00000000000E+00  0.00000000000E+00  0.74265705035E+03  0.74265705035E+03  0.00000000000E+00 0. -1.
          2   -1    0    0  501    0  0.00000000000E+00 -0.00000000000E+00 -0.10466557609E+04  0.10466557609E+04  0.00000000000E+00 0.  1.
         23    2    1    2    0    0  0.51325130847E+03 -0.44489061610E+03 -0.71904873181E+03  0.99330961650E+03  0.90985436078E+02 0.  0.
         13    1    3    3    0    0  0.97996657077E+02 -0.13581420203E+03 -0.18527637136E+03  0.24975222933E+03  0.00000000000E+00 0. -1.
        -13    1    3    3    0    0  0.41525465139E+03 -0.30907641407E+03 -0.53377236045E+03  0.74355738717E+03  0.00000000000E+00 0.  1.
         22    1    1    2    0    0 -0.51325130847E+03  0.44489061610E+03  0.41505002125E+03  0.79600319477E+03  0.00000000000E+00 0. -1.
<mgrwt>
<rscale>  0 0.17632995E+04</rscale>
<asrwt>0</asrwt>
<pdfrwt beam="1">  1        2 0.16102396E+00 0.17632995E+04</pdfrwt>
<pdfrwt beam="2">  1       -2 0.11425493E+00 0.17632995E+04</pdfrwt>
<totfact> 0.13344123E+01</totfact>
</mgrwt>
</event>
<event>
 6    1  0.1878398E-004  0.1192481E+04  0.7818608E-02  0.9119464E-01
          2   -1    0    0  501    0  0.00000000000E+00  0.00000000000E+00  0.96901538924E+03  0.96901538924E+03  0.00000000000E+00 0.  1.
         -2   -1    0    0    0  501 -0.00000000000E+00 -0.00000000000E+00 -0.36686992556E+03  0.36686992556E+03  0.00000000000E+00 0. -1.
         23    2    1    2    0    0  0.20010463916E+03 -0.48020208054E+03  0.62079503510E+03  0.81532435652E+03  0.93442099525E+02 0.  0.
         13    1    3    3    0    0  0.96581135939E+02 -0.27699827530E+03  0.41451603079E+03  0.50781837316E+03  0.00000000000E+00 0.  1.
        -13    1    3    3    0    0  0.10352350322E+03 -0.20320380523E+03  0.20627900431E+03  0.30750598336E+03  0.00000000000E+00 0. -1.
         22    1    1    2    0    0 -0.20010463916E+03  0.48020208054E+03 -0.18649571419E+02  0.52056095828E+03  0.00000000000E+00 0. -1.
<mgrwt>
<rscale>  0 0.11924808E+04</rscale>
<asrwt>0</asrwt>
<pdfrwt beam="1">  1        2 0.14907929E+00 0.11924808E+04</pdfrwt>
<pdfrwt beam="2">  1       -2 0.56441527E-01 0.11924808E+04</pdfrwt>
<totfact> 0.76718178E+01</totfact>
</mgrwt>
</event>
<event>
 6    1  0.1878398E-004  0.2739188E+04  0.7818608E-02  0.8322401E-01
          2   -1    0    0  501    0  0.00000000000E+00  0.00000000000E+00  0.92482283337E+03  0.92482283337E+03  0.00000000000E+00 0.  1.
         -2   -1    0    0    0  501 -0.00000000000E+00 -0.00000000000E+00 -0.20282675299E+04  0.20282675299E+04  0.00000000000E+00 0. -1.
         23    2    1    2    0    0  0.37559099052E+03 -0.13801870857E+03 -0.19627645697E+04  0.20051724341E+04  0.90299380928E+02 0.  0.
         13    1    3    3    0    0  0.13630584940E+03 -0.15576650553E+02 -0.53386648913E+03  0.55121261310E+03  0.00000000000E+00 0.  1.
        -13    1    3    3    0    0  0.23928514112E+03 -0.12244205802E+03 -0.14288980806E+04  0.14539598210E+04  0.00000000000E+00 0. -1.
         22    1    1    2    0    0 -0.37559099052E+03  0.13801870857E+03  0.85931987317E+03  0.94791792920E+03  0.00000000000E+00 0.  1.
<mgrwt>
<rscale>  0 0.27391883E+04</rscale>
<asrwt>0</asrwt>
<pdfrwt beam="1">  1        2 0.14228044E+00 0.27391883E+04</pdfrwt>
<pdfrwt beam="2">  1       -2 0.31204115E+00 0.27391883E+04</pdfrwt>
<totfact> 0.66149720E-01</totfact>
</mgrwt>
</event>
<event>
 6    1  0.1878398E-004  0.8969632E+03  0.7818608E-02  0.9429386E-01
         -1   -1    0    0    0  501 -0.00000000000E+00  0.00000000000E+00  0.26967417066E+03  0.26967417066E+03  0.00000000000E+00 0. -1.
          1   -1    0    0  501    0  0.00000000000E+00 -0.00000000000E+00 -0.74584724825E+03  0.74584724825E+03  0.00000000000E+00 0.  1.
         23    2    1    2    0    0 -0.12085846514E+03 -0.18558489232E+03 -0.67554836010E+03  0.71752976780E+03  0.97133207518E+02 0.  0.
         11    1    3    3    0    0 -0.46295559839E+02 -0.82109639375E+01 -0.17706844159E+03  0.18320461729E+03  0.00000000000E+00 0. -1.
        -11    1    3    3    0    0 -0.74562905303E+02 -0.17737392838E+03 -0.49847991850E+03  0.53432515051E+03  0.00000000000E+00 0.  1.
         22    1    1    2    0    0  0.12085846514E+03  0.18558489232E+03  0.19937528250E+03  0.29799165110E+03  0.00000000000E+00 0. -1.
<mgrwt>
<rscale>  0 0.89696318E+03</rscale>
<asrwt>0</asrwt>
<pdfrwt beam="1">  1        1 0.11474573E+00 0.89696318E+03</pdfrwt>
<pdfrwt beam="2">  1       -1 0.41488334E-01 0.89696318E+03</pdfrwt>
<totfact> 0.14169043E+02</totfact>
</mgrwt>
</event>
<event>
 6    1  0.1878398E-004  0.1396052E+04  0.7818608E-02  0.8956681E-01
          2   -1    0    0  501    0  0.00000000000E+00  0.00000000000E+00  0.27819412233E+03  0.27819412233E+03  0.00000000000E+00 0.  1.
         -2   -1    0    0    0  501 -0.00000000000E+00 -0.00000000000E+00 -0.17514409256E+04  0.17514409256E+04  0.00000000000E+00 0. -1.
         23    2    1    2    0    0 -0.35314812792E+03 -0.47327058770E+03 -0.12728518580E+04  0.14060512255E+04  0.90164001002E+02 0.  0.
         13    1    3    3    0    0 -0.16115521754E+03 -0.25436986984E+03 -0.55564325454E+03  0.63199245339E+03  0.00000000000E+00 0. -1.
        -13    1    3    3    0    0 -0.19199291038E+03 -0.21890071785E+03 -0.71720860342E+03  0.77405877214E+03  0.00000000000E+00 0.  1.
         22    1    1    2    0    0  0.35314812792E+03  0.47327058770E+03 -0.20039494530E+03  0.62358382238E+03  0.00000000000E+00 0.  1.
<mgrwt>
<rscale>  0 0.13960524E+04</rscale>
<asrwt>0</asrwt>
<pdfrwt beam="1">  1        2 0.42799096E-01 0.13960524E+04</pdfrwt>
<pdfrwt beam="2">  1       -2 0.26945245E+00 0.13960524E+04</pdfrwt>
<totfact> 0.56935190E+00</totfact>
</mgrwt>
</event>
<event>
 6    1  0.1878398E-004  0.1778434E+04  0.7818608E-02  0.8717853E-01
         -1   -1    0    0    0  501 -0.00000000000E+00  0.00000000000E+00  0.62066802791E+03  0.62066802791E+03  0.00000000000E+00 0. -1.
          1   -1    0    0  501    0  0.00000000000E+00 -0.00000000000E+00 -0.12739605297E+04  0.12739605297E+04  0.00000000000E+00 0.  1.
         23    2    1    2    0    0 -0.21536444993E+03  0.73455815469E+03 -0.80489936273E+03  0.11142810907E+04  0.88328002107E+02 0.  0.
         13    1    3    3    0    0 -0.18161006163E+03  0.61689945943E+03 -0.62552879796E+03  0.89712509418E+03  0.00000000000E+00 0. -1.
        -13    1    3    3    0    0 -0.33754388301E+02  0.11765869526E+03 -0.17937056477E+03  0.21715599648E+03  0.00000000000E+00 0.  1.
         22    1    1    2    0    0  0.21536444993E+03 -0.73455815469E+03  0.15160686093E+03  0.78034746697E+03  0.00000000000E+00 0. -1.
<mgrwt>
<rscale>  0 0.17784337E+04</rscale>
<asrwt>0</asrwt>
<pdfrwt beam="1">  1        1 0.19599393E+00 0.17784337E+04</pdfrwt>
<pdfrwt beam="2">  1       -1 0.95487390E-01 0.17784337E+04</pdfrwt>
<totfact> 0.94499963E+00</totfact>
</mgrwt>
</event>
<event>
 6    1  0.1878398E-004  0.1583501E+04  0.7818608E-02  0.8830749E-01
          2   -1    0    0  501    0  0.00000000000E+00  0.00000000000E+00  0.61956971335E+03  0.61956971335E+03  0.00000000000E+00 0.  1.
         -2   -1    0    0    0  501 -0.00000000000E+00 -0.00000000000E+00 -0.10117808231E+04  0.10117808231E+04  0.00000000000E+00 0. -1.
         23    2    1    2    0    0  0.15237033769E+03  0.70178604249E+03  0.14008276337E+03  0.73745057750E+03  0.92140134710E+02 0.  0.
         11    1    3    3    0    0  0.11174321863E+03  0.36364409903E+03  0.40265185166E+02  0.38255047093E+03  0.00000000000E+00 0.  1.
        -11    1    3    3    0    0  0.40627119063E+02  0.33814194346E+03  0.99817578206E+02  0.35490010658E+03  0.00000000000E+00 0. -1.
         22    1    1    2    0    0 -0.15237033769E+03 -0.70178604249E+03 -0.53229387315E+03  0.89389995896E+03  0.00000000000E+00 0. -1.
<mgrwt>
<rscale>  0 0.15835009E+04</rscale>
<asrwt>0</asrwt>
<pdfrwt beam="1">  1        2 0.95318419E-01 0.15835009E+04</pdfrwt>
<pdfrwt beam="2">  1       -2 0.15565859E+00 0.15835009E+04</pdfrwt>
<totfact> 0.12419482E+01</totfact>
</mgrwt>
</event>
<event>
 6    1  0.1878398E-004  0.1809179E+04  0.7818608E-02  0.8701433E-01
         -2   -1    0    0    0  501 -0.00000000000E+00  0.00000000000E+00  0.79343106693E+03  0.79343106693E+03  0.00000000000E+00 0. -1.
          2   -1    0    0  501    0  0.00000000000E+00 -0.00000000000E+00 -0.10313215885E+04  0.10313215885E+04  0.00000000000E+00 0.  1.
         23    2    1    2    0    0 -0.56635798398E+03  0.41900781203E+03  0.44940369070E+03  0.84052593015E+03  0.90505521856E+02 0.  0.
         13    1    3    3    0    0 -0.25041397970E+03  0.20644073664E+03  0.25646263056E+03  0.41363996403E+03  0.00000000000E+00 0.  1.
        -13    1    3    3    0    0 -0.31594400428E+03  0.21256707539E+03  0.19294106013E+03  0.42688596612E+03  0.00000000000E+00 0. -1.
         22    1    1    2    0    0  0.56635798398E+03 -0.41900781203E+03 -0.68729421230E+03  0.98422672531E+03  0.00000000000E+00 0.  1.
<mgrwt>
<rscale>  0 0.18091795E+04</rscale>
<asrwt>0</asrwt>
<pdfrwt beam="1">  1        2 0.15866486E+00 0.18091795E+04</pdfrwt>
<pdfrwt beam="2">  1       -2 0.12206632E+00 0.18091795E+04</pdfrwt>
<totfact> 0.11548110E+01</totfact>
</mgrwt>
</event>
<event>
 6    1  0.1878398E-004  0.1849603E+04  0.7818608E-02  0.8680357E-01
          1   -1    0    0  501    0  0.00000000000E+00  0.00000000000E+00  0.97706413760E+03  0.97706413760E+03  0.00000000000E+00 0.  1.
         -1   -1    0    0    0  501 -0.00000000000E+00 -0.00000000000E+00 -0.87533405555E+03  0.87533405555E+03  0.00000000000E+00 0. -1.
         23    2    1    2    0    0  0.72347579644E+03  0.52396744202E+03  0.28537559057E+03  0.94043066022E+03  0.70791882665E+02 0.  0.
         13    1    3    3    0    0  0.23817175565E+03  0.21417976286E+03  0.10541782395E+03  0.33721161548E+03  0.00000000000E+00 0.  1.
        -13    1    3    3    0    0  0.48530404080E+03  0.30978767916E+03  0.17995776662E+03  0.60321904474E+03  0.00000000000E+00 0. -1.
         22    1    1    2    0    0 -0.72347579644E+03 -0.52396744202E+03 -0.18364550852E+03  0.91196753294E+03  0.00000000000E+00 0. -1.
<mgrwt>
<rscale>  0 0.18496027E+04</rscale>
<asrwt>0</asrwt>
<pdfrwt beam="1">  1        1 0.15031756E+00 0.18496027E+04</pdfrwt>
<pdfrwt beam="2">  1       -1 0.13466678E+00 0.18496027E+04</pdfrwt>
<totfact> 0.68713856E+00</totfact>
</mgrwt>
</event>
<event>
 6    1  0.1878398E-004  0.1144958E+04  0.7818608E-02  0.9162448E-01
          1   -1    0    0  501    0  0.00000000000E+00  0.00000000000E+00  0.17614274815E+04  0.17614274815E+04  0.00000000000E+00 0. -1.
         -1   -1    0    0    0  501 -0.00000000000E+00 -0.00000000000E+00 -0.18606042313E+03  0.18606042313E+03  0.00000000000E+00 0.  1.
         23    2    1    2    0    0  0.21169008873E+03 -0.41841672360E+03  0.24521304666E+03  0.53709968037E+03  0.91985760541E+02 0.  0.
         13    1    3    3    0    0  0.60453723244E+02 -0.63549916568E+02  0.18434422151E+02  0.89627409144E+02  0.00000000000E+00 0.  1.
        -13    1    3    3    0    0  0.15123636549E+03 -0.35486680703E+03  0.22677862451E+03  0.44747227122E+03  0.00000000000E+00 0. -1.
         22    1    1    2    0    0 -0.21169008873E+03  0.41841672360E+03  0.13301540117E+04  0.14103882243E+04  0.00000000000E+00 0. -1.
<mgrwt>
<rscale>  0 0.11449575E+04</rscale>
<asrwt>0</asrwt>
<pdfrwt beam="1">  1        1 0.27098883E+00 0.11449575E+04</pdfrwt>
<pdfrwt beam="2">  1       -1 0.28624682E-01 0.11449575E+04</pdfrwt>
<totfact> 0.47673453E+01</totfact>
</mgrwt>
</event>
<event>
 6    1  0.1878398E-004  0.2813802E+04  0.7818608E-02  0.8298996E-01
         -1   -1    0    0    0  501 -0.00000000000E+00  0.00000000000E+00  0.18822699390E+04  0.18822699390E+04  0.00000000000E+00 0. -1.
          1   -1    0    0  501    0  0.00000000000E+00 -0.00000000000E+00 -0.10515867091E+04  0.10515867091E+04  0.00000000000E+00 0.  1.
         23    2    1    2    0    0 -0.73492962926E+03 -0.49796136722E+03 -0.72016974470E+03  0.11468949720E+04  0.92932945698E+02 0.  0.
         11    1    3    3    0    0 -0.55186449329E+03 -0.38478328207E+03 -0.49377013964E+03  0.83451874989E+03  0.00000000000E+00 0. -1.
        -11    1    3    3    0    0 -0.18306513597E+03 -0.11317808515E+03 -0.22639960506E+03  0.31237622211E+03  0.00000000000E+00 0.  1.
         22    1    1    2    0    0  0.73492962926E+03  0.49796136722E+03  0.15508529745E+04  0.17869616761E+04  0.00000000000E+00 0. -1.
<mgrwt>
<rscale>  0 0.28138017E+04</rscale>
<asrwt>0</asrwt>
<pdfrwt beam="1">  1        1 0.16178257E+00 0.28138017E+04</pdfrwt>
<pdfrwt beam="2">  1       -1 0.28957999E+00 0.28138017E+04</pdfrwt>
<totfact> 0.46037255E-01</totfact>
</mgrwt>
</event>
<event>
 6    1  0.1878398E-004  0.2036996E+04  0.7818608E-02  0.8589517E-01
         -2   -1    0    0    0  501 -0.00000000000E+00  0.00000000000E+00  0.71239898705E+03  0.71239898705E+03  0.00000000000E+00 0. -1.
          2   -1    0    0  501    0  0.00000000000E+00 -0.00000000000E+00 -0.14561189802E+04  0.14561189802E+04  0.00000000000E+00 0.  1.
         23    2    1    2    0    0 -0.90341805916E+03 -0.18776582924E+03  0.81276144985E+02  0.93076240812E+03  0.91064001531E+02 0.  0.
         11    1    3    3    0    0 -0.44076305349E+03 -0.13735206241E+03  0.32242758921E+02  0.46279288443E+03  0.00000000000E+00 0.  1.
        -11    1    3    3    0    0 -0.46265500567E+03 -0.50413766828E+02  0.49033386064E+02  0.46796952369E+03  0.00000000000E+00 0. -1.
         22    1    1    2    0    0  0.90341805916E+03  0.18776582924E+03 -0.82499613813E+03  0.12377555591E+04  0.00000000000E+00 0.  1.
<mgrwt>
<rscale>  0 0.20369955E+04</rscale>
<asrwt>0</asrwt>
<pdfrwt beam="1">  1        2 0.22401830E+00 0.20369955E+04</pdfrwt>
<pdfrwt beam="2">  1       -2 0.10959984E+00 0.20369955E+04</pdfrwt>
<totfact> 0.82544023E+00</totfact>
</mgrwt>
</event>
<event>
 6    1  0.1878398E-004  0.1458780E+04  0.7818608E-02  0.8912336E-01
         -2   -1    0    0    0  501 -0.00000000000E+00  0.00000000000E+00  0.75334957845E+03  0.75334957845E+03  0.00000000000E+00 0. -1.
          2   -1    0    0  501    0  0.00000000000E+00 -0.00000000000E+00 -0.70619231630E+03  0.70619231630E+03  0.00000000000E+00 0.  1.
         23    2    1    2    0    0 -0.33381374661E+03  0.22025006642E+03  0.63066227397E+03  0.75213832676E+03  0.89640669313E+02 0.  0.
         13    1    3    3    0    0 -0.21500100417E+03  0.91487107211E+02  0.33433933482E+03  0.40789473322E+03  0.00000000000E+00 0.  1.
        -13    1    3    3    0    0 -0.11881274244E+03  0.12876295920E+03  0.29632293915E+03  0.34424359355E+03  0.00000000000E+00 0. -1.
         22    1    1    2    0    0  0.33381374661E+03 -0.22025006642E+03 -0.58350501182E+03  0.70740356799E+03  0.00000000000E+00 0.  1.
<mgrwt>
<rscale>  0 0.14587799E+04</rscale>
<asrwt>0</asrwt>
<pdfrwt beam="1">  1        2 0.10864497E+00 0.14587799E+04</pdfrwt>
<pdfrwt beam="2">  1       -2 0.11589994E+00 0.14587799E+04</pdfrwt>
<totfact> 0.22715499E+01</totfact>
</mgrwt>
</event>
<event>
 6    1  0.1878398E-004  0.2762679E+04  0.7818608E-02  0.8314949E-01
         -2   -1    0    0    0  501 -0.00000000000E+00  0.00000000000E+00  0.45189612984E+03  0.45189612984E+03  0.00000000000E+00 0. -1.
          2   -1    0    0  501    0  0.00000000000E+00 -0.00000000000E+00 -0.42224286371E+04  0.42224286371E+04  0.00000000000E+00 0.  1.
         23    2    1    2    0    0 -0.33472854522E+03  0.62892754595E+03  0.11202511370E+03  0.72693996975E+03  0.91099047662E+02 0.  0.
         11    1    3    3    0    0 -0.92448693769E+02  0.19645063847E+03  0.75537193136E+02  0.22988145180E+03  0.00000000000E+00 0. -1.
        -11    1    3    3    0    0 -0.24227985145E+03  0.43247690748E+03  0.36487920568E+02  0.49705851795E+03  0.00000000000E+00 0.  1.
         22    1    1    2    0    0  0.33472854522E+03 -0.62892754595E+03 -0.38825576210E+04  0.39473847972E+04  0.00000000000E+00 0.  1.
<mgrwt>
<rscale>  0 0.27626793E+04</rscale>
<asrwt>0</asrwt>
<pdfrwt beam="1">  1        2 0.64960440E+00 0.27626793E+04</pdfrwt>
<pdfrwt beam="2">  1       -2 0.69522482E-01 0.27626793E+04</pdfrwt>
<totfact> 0.36663105E-01</totfact>
</mgrwt>
</event>
<event>
 6    1  0.1878398E-004  0.1687626E+04  0.7818608E-02  0.8768454E-01
         -2   -1    0    0    0  501 -0.00000000000E+00  0.00000000000E+00  0.95350071260E+03  0.95350071260E+03  0.00000000000E+00 0. -1.
          2   -1    0    0  501    0  0.00000000000E+00 -0.00000000000E+00 -0.74674299407E+03  0.74674299407E+03  0.00000000000E+00 0.  1.
         23    2    1    2    0    0  0.82349215716E+03 -0.16912424133E+03  0.12966607874E+03  0.85603670431E+03  0.96141589578E+02 0.  0.
         13    1    3    3    0    0  0.51654667561E+03 -0.85878221184E+02  0.12321224070E+03  0.53793753654E+03  0.00000000000E+00 0. -1.
        -13    1    3    3    0    0  0.30694548155E+03 -0.83246020150E+02  0.64538380376E+01  0.31809916777E+03  0.00000000000E+00 0.  1.
         22    1    1    2    0    0 -0.82349215716E+03  0.16912424133E+03  0.77091639791E+02  0.84420700236E+03  0.00000000000E+00 0. -1.
<mgrwt>
<rscale>  0 0.16876255E+04</rscale>
<asrwt>0</asrwt>
<pdfrwt beam="1">  1        2 0.11488354E+00 0.16876255E+04</pdfrwt>
<pdfrwt beam="2">  1       -2 0.14669242E+00 0.16876255E+04</pdfrwt>
<totfact> 0.11411012E+01</totfact>
</mgrwt>
</event>
<event>
 6    1  0.1878398E-004  0.1175540E+04  0.7818608E-02  0.9134540E-01
         -2   -1    0    0    0  501 -0.00000000000E+00  0.00000000000E+00  0.27047374172E+03  0.27047374172E+03  0.00000000000E+00 0. -1.
          2   -1    0    0  501    0  0.00000000000E+00 -0.00000000000E+00 -0.12772914893E+04  0.12772914893E+04  0.00000000000E+00 0.  1.
         23    2    1    2    0    0  0.29622691408E+03 -0.35006205479E+03 -0.98302089676E+03  0.10885701560E+04  0.91438909918E+02 0.  0.
         11    1    3    3    0    0  0.28208351430E+03 -0.30229331537E+03 -0.82379139978E+03  0.92172915106E+03  0.00000000000E+00 0.  1.
        -11    1    3    3    0    0  0.14143399779E+02 -0.47768739418E+02 -0.15922949698E+03  0.16684100494E+03  0.00000000000E+00 0. -1.
         22    1    1    2    0    0 -0.29622691408E+03  0.35006205479E+03 -0.23796850853E+02  0.45919507504E+03  0.00000000000E+00 0. -1.
<mgrwt>
<rscale>  0 0.11755404E+04</rscale>
<asrwt>0</asrwt>
<pdfrwt beam="1">  1        2 0.19650638E+00 0.11755404E+04</pdfrwt>
<pdfrwt beam="2">  1       -2 0.41611345E-01 0.11755404E+04</pdfrwt>
<totfact> 0.92123853E+01</totfact>
</mgrwt>
</event>
<event>
 6    1  0.1878398E-004  0.1174489E+04  0.7818608E-02  0.9135484E-01
          2   -1    0    0  501    0  0.00000000000E+00  0.00000000000E+00  0.74500852010E+03  0.74500852010E+03  0.00000000000E+00 0.  1.
         -2   -1    0    0    0  501 -0.00000000000E+00 -0.00000000000E+00 -0.46288873676E+03  0.46288873676E+03  0.00000000000E+00 0. -1.
         23    2    1    2    0    0 -0.93153694406E+02  0.21133907562E+03  0.69350046914E+03  0.73611776990E+03  0.87089923633E+02 0.  0.
         11    1    3    3    0    0  0.12320011211E+02  0.48310383930E+01  0.21625098786E+02  0.25352840190E+02  0.00000000000E+00 0.  1.
        -11    1    3    3    0    0 -0.10547370562E+03  0.20650803723E+03  0.67187537035E+03  0.71076492971E+03  0.00000000000E+00 0. -1.
         22    1    1    2    0    0  0.93153694406E+02 -0.21133907562E+03 -0.41138068580E+03  0.47177948696E+03  0.00000000000E+00 0. -1.
<mgrwt>
<rscale>  0 0.11744889E+04</rscale>
<asrwt>0</asrwt>
<pdfrwt beam="1">  1        2 0.11461670E+00 0.11744889E+04</pdfrwt>
<pdfrwt beam="2">  1       -2 0.71213651E-01 0.11744889E+04</pdfrwt>
<totfact> 0.66963002E+01</totfact>
</mgrwt>
</event>
<event>
 6    1  0.1878398E-004  0.3123475E+04  0.7818608E-02  0.8209325E-01
          2   -1    0    0  501    0  0.00000000000E+00  0.00000000000E+00  0.22422997340E+04  0.22422997340E+04  0.00000000000E+00 0.  1.
         -2   -1    0    0    0  501 -0.00000000000E+00 -0.00000000000E+00 -0.10877335560E+04  0.10877335560E+04  0.00000000000E+00 0. -1.
         23    2    1    2    0    0 -0.14781546507E+04 -0.34890432394E+03  0.19603573788E+03  0.15340778331E+04  0.91046079788E+02 0.  0.
         11    1    3    3    0    0 -0.98567179158E+03 -0.18945210179E+03  0.13899171696E+03  0.10132915064E+04  0.00000000000E+00 0.  1.
        -11    1    3    3    0    0 -0.49248285917E+03 -0.15945222216E+03  0.57044020915E+02  0.52078632667E+03  0.00000000000E+00 0. -1.
         22    1    1    2    0    0  0.14781546507E+04  0.34890432394E+03  0.95853044006E+03  0.17959554569E+04  0.00000000000E+00 0.  1.
<mgrwt>
<rscale>  0 0.31234754E+04</rscale>
<asrwt>0</asrwt>
<pdfrwt beam="1">  1        2 0.34496919E+00 0.31234754E+04</pdfrwt>
<pdfrwt beam="2">  1       -2 0.16734362E+00 0.31234754E+04</pdfrwt>
<totfact> 0.92223701E-01</totfact>
</mgrwt>
</event>
<event>
 6    1  0.1878398E-004  0.2337148E+04  0.7818608E-02  0.8463416E-01
         -2   -1    0    0    0  501 -0.00000000000E+00  0.00000000000E+00  0.10582572466E+04  0.10582572466E+04  0.00000000000E+00 0. -1.
          2   -1    0    0  501    0  0.00000000000E+00 -0.00000000000E+00 -0.12903907863E+04  0.12903907863E+04  0.00000000000E+00 0.  1.
         23    2    1    2    0    0 -0.40286484471E+03 -0.32404332995E+03 -0.11673822472E+04  0.12800066956E+04  0.91277965476E+02 0.  0.
         11    1    3    3    0    0 -0.31770309192E+03 -0.25628205536E+03 -0.82003882372E+03  0.91601278316E+03  0.00000000000E+00 0.  1.
        -11    1    3    3    0    0 -0.85161752791E+02 -0.67761274583E+02 -0.34734342350E+03  0.36399391248E+03  0.00000000000E+00 0. -1.
         22    1    1    2    0    0  0.40286484471E+03  0.32404332995E+03  0.93524870754E+03  0.10686413373E+04  0.00000000000E+00 0. -1.
<mgrwt>
<rscale>  0 0.23371482E+04</rscale>
<asrwt>0</asrwt>
<pdfrwt beam="1">  1        2 0.19852166E+00 0.23371482E+04</pdfrwt>
<pdfrwt beam="2">  1       -2 0.16280881E+00 0.23371482E+04</pdfrwt>
<totfact> 0.36359924E+00</totfact>
</mgrwt>
</event>
<event>
 6    1  0.1878398E-004  0.2169977E+04  0.7818608E-02  0.8531029E-01
         -2   -1    0    0    0  501 -0.00000000000E+00  0.00000000000E+00  0.14061449511E+04  0.14061449511E+04  0.00000000000E+00 0. -1.
          2   -1    0    0  501    0  0.00000000000E+00 -0.00000000000E+00 -0.83718253208E+03  0.83718253208E+03  0.00000000000E+00 0.  1.
         23    2    1    2    0    0 -0.55898431636E+03 -0.36655929301E+03  0.11659599008E+04  0.13470935994E+04  0.91484938509E+02 0.  0.
         13    1    3    3    0    0 -0.41633749736E+03 -0.29525334345E+03  0.95258086894E+03  0.10807042891E+04  0.00000000000E+00 0. -1.
        -13    1    3    3    0    0 -0.14264681899E+03 -0.71305949556E+02  0.21337903191E+03  0.26638931035E+03  0.00000000000E+00 0.  1.
         22    1    1    2    0    0  0.55898431636E+03  0.36655929301E+03 -0.59699748178E+03  0.89623388380E+03  0.00000000000E+00 0.  1.
<mgrwt>
<rscale>  0 0.21699769E+04</rscale>
<asrwt>0</asrwt>
<pdfrwt beam="1">  1        2 0.12879731E+00 0.21699769E+04</pdfrwt>
<pdfrwt beam="2">  1       -2 0.21632999E+00 0.21699769E+04</pdfrwt>
<totfact> 0.30952864E+00</totfact>
</mgrwt>
</event>
<event>
 6    1  0.1878398E-004  0.1272969E+04  0.7818608E-02  0.9051280E-01
         -1   -1    0    0    0  501 -0.00000000000E+00  0.00000000000E+00  0.96283258873E+02  0.96283258873E+02  0.00000000000E+00 0.  1.
          1   -1    0    0  501    0  0.00000000000E+00 -0.00000000000E+00 -0.42075058316E+04  0.42075058316E+04  0.00000000000E+00 0. -1.
         23    2    1    2    0    0  0.24802232012E+03 -0.53175345955E+03 -0.28722290567E+04  0.29328836431E+04  0.88486702186E+02 0.  0.
         11    1    3    3    0    0  0.10481965207E+03 -0.22861308111E+03 -0.10193132709E+04  0.10498812526E+04  0.00000000000E+00 0.  1.
        -11    1    3    3    0    0  0.14320266806E+03 -0.30314037845E+03 -0.18529157858E+04  0.18830023905E+04  0.00000000000E+00 0. -1.
         22    1    1    2    0    0 -0.24802232012E+03  0.53175345955E+03 -0.12389935160E+04  0.13709054474E+04  0.00000000000E+00 0.  1.
<mgrwt>
<rscale>  0 0.12729688E+04</rscale>
<asrwt>0</asrwt>
<pdfrwt beam="1">  1        1 0.64730848E+00 0.12729688E+04</pdfrwt>
<pdfrwt beam="2">  1       -1 0.14812812E-01 0.12729688E+04</pdfrwt>
<totfact> 0.21316094E+00</totfact>
</mgrwt>
</event>
<event>
 6    1  0.1878398E-004  0.1911647E+04  0.7818608E-02  0.8649080E-01
         -2   -1    0    0    0  501 -0.00000000000E+00  0.00000000000E+00  0.26519738675E+04  0.26519738675E+04  0.00000000000E+00 0. -1.
          2   -1    0    0  501    0  0.00000000000E+00 -0.00000000000E+00 -0.34449763198E+03  0.34449763198E+03  0.00000000000E+00 0.  1.
         23    2    1    2    0    0 -0.34474973989E+03 -0.72790830151E+03  0.35571030564E+03  0.88505180564E+03  0.89911059182E+02 0.  0.
         13    1    3    3    0    0 -0.13414258807E+03 -0.37533516758E+03  0.19878497948E+03  0.44540564660E+03  0.00000000000E+00 0. -1.
        -13    1    3    3    0    0 -0.21060715182E+03 -0.35257313392E+03  0.15692532617E+03  0.43964615904E+03  0.00000000000E+00 0.  1.
         22    1    1    2    0    0  0.34474973989E+03  0.72790830151E+03  0.19517659298E+04  0.21114196938E+04  0.00000000000E+00 0. -1.
<mgrwt>
<rscale>  0 0.19116472E+04</rscale>
<asrwt>0</asrwt>
<pdfrwt beam="1">  1        2 0.52999637E-01 0.19116472E+04</pdfrwt>
<pdfrwt beam="2">  1       -2 0.40799597E+00 0.19116472E+04</pdfrwt>
<totfact> 0.58109876E-01</totfact>
</mgrwt>
</event>
<event>
 6    1  0.1878398E-004  0.1812216E+04  0.7818608E-02  0.8699830E-01
          2   -1    0    0  501    0  0.00000000000E+00  0.00000000000E+00  0.61380659476E+03  0.61380659476E+03  0.00000000000E+00 0.  1.
         -2   -1    0    0    0  501 -0.00000000000E+00 -0.00000000000E+00 -0.13376071906E+04  0.13376071906E+04  0.00000000000E+00 0. -1.
         23    2    1    2    0    0  0.35539931358E+03 -0.80807943322E+03 -0.15418458980E+03  0.90081232103E+03  0.91590979311E+02 0.  0.
         13    1    3    3    0    0  0.11379521674E+03 -0.16419275436E+03 -0.31894688894E+02  0.20230146593E+03  0.00000000000E+00 0. -1.
        -13    1    3    3    0    0  0.24160409684E+03 -0.64388667886E+03 -0.12228990091E+03  0.69851085510E+03  0.00000000000E+00 0.  1.
         22    1    1    2    0    0 -0.35539931358E+03  0.80807943322E+03 -0.56961600600E+03  0.10506014643E+04  0.00000000000E+00 0.  1.
<mgrwt>
<rscale>  0 0.18122164E+04</rscale>
<asrwt>0</asrwt>
<pdfrwt beam="1">  1        2 0.94431786E-01 0.18122164E+04</pdfrwt>
<pdfrwt beam="2">  1       -2 0.20578572E+00 0.18122164E+04</pdfrwt>
<totfact> 0.55430276E+00</totfact>
</mgrwt>
</event>
<event>
 6    1  0.1878398E-004  0.2810870E+04  0.7818608E-02  0.8299902E-01
          2   -1    0    0  501    0  0.00000000000E+00  0.00000000000E+00  0.14674813887E+04  0.14674813887E+04  0.00000000000E+00 0.  1.
         -2   -1    0    0    0  501 -0.00000000000E+00 -0.00000000000E+00 -0.13460121796E+04  0.13460121796E+04  0.00000000000E+00 0. -1.
         23    2    1    2    0    0  0.12656473239E+04  0.62426345858E+02 -0.54427223321E+03  0.13820705473E+04  0.90147305993E+02 0.  0.
         13    1    3    3    0    0  0.29157602814E+03  0.30956574113E+02 -0.16372901202E+03  0.33583043197E+03  0.00000000000E+00 0. -1.
        -13    1    3    3    0    0  0.97407129575E+03  0.31469771745E+02 -0.38054322119E+03  0.10462401153E+04  0.00000000000E+00 0.  1.
         22    1    1    2    0    0 -0.12656473239E+04 -0.62426345858E+02  0.66574144230E+03  0.14314230210E+04  0.00000000000E+00 0.  1.
<mgrwt>
<rscale>  0 0.28108702E+04</rscale>
<asrwt>0</asrwt>
<pdfrwt beam="1">  1        2 0.22576637E+00 0.28108702E+04</pdfrwt>
<pdfrwt beam="2">  1       -2 0.20707880E+00 0.28108702E+04</pdfrwt>
<totfact> 0.13770548E+00</totfact>
</mgrwt>
</event>
<event>
 6    1  0.1878398E-004  0.1669240E+04  0.7818608E-02  0.8779105E-01
         -2   -1    0    0    0  501 -0.00000000000E+00  0.00000000000E+00  0.65395168937E+03  0.65395168937E+03  0.00000000000E+00 0. -1.
          2   -1    0    0  501    0  0.00000000000E+00 -0.00000000000E+00 -0.10652015520E+04  0.10652015520E+04  0.00000000000E+00 0.  1.
         23    2    1    2    0    0 -0.57304737387E+03 -0.51668875229E+03  0.11466742355E+03  0.78537620623E+03  0.91195437615E+02 0.  0.
         13    1    3    3    0    0 -0.40721550185E+03 -0.40835150529E+03  0.11088061540E+03  0.58725627088E+03  0.00000000000E+00 0. -1.
        -13    1    3    3    0    0 -0.16583187202E+03 -0.10833724701E+03  0.37868081486E+01  0.19811993535E+03  0.00000000000E+00 0.  1.
         22    1    1    2    0    0  0.57304737387E+03  0.51668875229E+03 -0.52591728618E+03  0.93377703513E+03  0.00000000000E+00 0.  1.
<mgrwt>
<rscale>  0 0.16692398E+04</rscale>
<asrwt>0</asrwt>
<pdfrwt beam="1">  1        2 0.16387716E+00 0.16692398E+04</pdfrwt>
<pdfrwt beam="2">  1       -2 0.10060795E+00 0.16692398E+04</pdfrwt>
<totfact> 0.17787014E+01</totfact>
</mgrwt>
</event>
<event>
 6    1  0.1878398E-004  0.1532572E+04  0.7818608E-02  0.8863077E-01
         -2   -1    0    0    0  501 -0.00000000000E+00  0.00000000000E+00  0.34708027235E+03  0.34708027235E+03  0.00000000000E+00 0. -1.
          2   -1    0    0  501    0  0.00000000000E+00 -0.00000000000E+00 -0.16918109455E+04  0.16918109455E+04  0.00000000000E+00 0.  1.
         23    2    1    2    0    0 -0.19642069825E+03  0.47951968141E+03 -0.14208263986E+04  0.15151443563E+04  0.91621777231E+02 0.  0.
         11    1    3    3    0    0 -0.88206748574E+02  0.16527935535E+03 -0.40269444891E+03  0.44414019744E+03  0.00000000000E+00 0.  1.
        -11    1    3    3    0    0 -0.10821394968E+03  0.31424032606E+03 -0.10181319496E+04  0.10710041589E+04  0.00000000000E+00 0. -1.
         22    1    1    2    0    0  0.19642069825E+03 -0.47951968141E+03  0.76095725390E+02  0.52374686155E+03  0.00000000000E+00 0. -1.
<mgrwt>
<rscale>  0 0.15325720E+04</rscale>
<asrwt>0</asrwt>
<pdfrwt beam="1">  1        2 0.26027860E+00 0.15325720E+04</pdfrwt>
<pdfrwt beam="2">  1       -2 0.53396966E-01 0.15325720E+04</pdfrwt>
<totfact> 0.31573143E+01</totfact>
</mgrwt>
</event>
<event>
 6    1  0.1878398E-004  0.3517059E+04  0.7818608E-02  0.8109759E-01
         -2   -1    0    0    0  501 -0.00000000000E+00  0.00000000000E+00  0.21328482812E+04  0.21328482812E+04  0.00000000000E+00 0. -1.
          2   -1    0    0  501    0  0.00000000000E+00 -0.00000000000E+00 -0.14499043078E+04  0.14499043078E+04  0.00000000000E+00 0.  1.
         23    2    1    2    0    0  0.23947501152E+03  0.11643716688E+04 -0.97673843683E+03  0.15412689699E+04  0.91555444588E+02 0.  0.
         11    1    3    3    0    0  0.19806743117E+03  0.89343520482E+03 -0.70379950896E+03  0.11544656432E+04  0.00000000000E+00 0.  1.
        -11    1    3    3    0    0  0.41407580343E+02  0.27093646396E+03 -0.27293892787E+03  0.38680332672E+03  0.00000000000E+00 0. -1.
         22    1    1    2    0    0 -0.23947501152E+03 -0.11643716688E+04  0.16596824103E+04  0.20414836191E+04  0.00000000000E+00 0. -1.
<mgrwt>
<rscale>  0 0.35170589E+04</rscale>
<asrwt>0</asrwt>
<pdfrwt beam="1">  1        2 0.22306220E+00 0.35170589E+04</pdfrwt>
<pdfrwt beam="2">  1       -2 0.32813050E+00 0.35170589E+04</pdfrwt>
<totfact> 0.23703737E-01</totfact>
</mgrwt>
</event>
<event>
 6    1  0.1878398E-004  0.2842248E+04  0.7818608E-02  0.8290271E-01
          2   -1    0    0  501    0  0.00000000000E+00  0.00000000000E+00  0.15474125390E+04  0.15474125390E+04  0.00000000000E+00 0.  1.
         -2   -1    0    0    0  501 -0.00000000000E+00 -0.00000000000E+00 -0.13051420122E+04  0.13051420122E+04  0.00000000000E+00 0. -1.
         23    2    1    2    0    0 -0.56874729122E+03 -0.12830454465E+04  0.33629881655E+03  0.14459556679E+04  0.89508660364E+02 0.  0.
         11    1    3    3    0    0 -0.51826161935E+03 -0.11467055200E+04  0.27447327437E+03  0.12879690346E+04  0.00000000000E+00 0.  1.
        -11    1    3    3    0    0 -0.50485671870E+02 -0.13633992651E+03  0.61825542182E+02  0.15798663326E+03  0.00000000000E+00 0. -1.
         22    1    1    2    0    0  0.56874729122E+03  0.12830454465E+04 -0.94028289752E+02  0.14065988833E+04  0.00000000000E+00 0. -1.
<mgrwt>
<rscale>  0 0.28422478E+04</rscale>
<asrwt>0</asrwt>
<pdfrwt beam="1">  1        2 0.23806347E+00 0.28422478E+04</pdfrwt>
<pdfrwt beam="2">  1       -2 0.20079108E+00 0.28422478E+04</pdfrwt>
<totfact> 0.13603818E+00</totfact>
</mgrwt>
</event>
<event>
 6    1  0.1878398E-004  0.1032048E+04  0.7818608E-02  0.9274077E-01
         -1   -1    0    0    0  501 -0.00000000000E+00  0.00000000000E+00  0.19729656562E+03  0.19729656562E+03  0.00000000000E+00 0.  1.
          1   -1    0    0  501    0  0.00000000000E+00 -0.00000000000E+00 -0.13496470313E+04  0.13496470313E+04  0.00000000000E+00 0. -1.
         23    2    1    2    0    0 -0.22224340390E+03  0.27832011470E+03 -0.29741995949E+02  0.36918980554E+03  0.92532747542E+02 0.  0.
         13    1    3    3    0    0 -0.10565180453E+03  0.92358476582E+02 -0.49522426188E+02  0.14881150054E+03  0.00000000000E+00 0. -1.
        -13    1    3    3    0    0 -0.11659159938E+03  0.18596163812E+03  0.19780430238E+02  0.22037830500E+03  0.00000000000E+00 0.  1.
         22    1    1    2    0    0  0.22224340390E+03 -0.27832011470E+03 -0.11226084697E+04  0.11777537914E+04  0.00000000000E+00 0. -1.
<mgrwt>
<rscale>  0 0.10320479E+04</rscale>
<asrwt>0</asrwt>
<pdfrwt beam="1">  1        1 0.20763801E+00 0.10320479E+04</pdfrwt>
<pdfrwt beam="2">  1       -1 0.30353317E-01 0.10320479E+04</pdfrwt>
<totfact> 0.83348405E+01</totfact>
</mgrwt>
</event>
<event>
 6    1  0.1878398E-004  0.8565066E+03  0.7818608E-02  0.9481645E-01
          2   -1    0    0  501    0  0.00000000000E+00  0.00000000000E+00  0.17545910725E+04  0.17545910725E+04  0.00000000000E+00 0.  1.
         -2   -1    0    0    0  501 -0.00000000000E+00 -0.00000000000E+00 -0.10452627852E+03  0.10452627852E+03  0.00000000000E+00 0. -1.
         23    2    1    2    0    0 -0.16910922745E+03 -0.21025583963E+03  0.12600612694E+03  0.31135759269E+03  0.90887609665E+02 0.  0.
         13    1    3    3    0    0 -0.69005612007E+02 -0.66027281533E+02  0.91842740296E+02  0.13250081260E+03  0.00000000000E+00 0. -1.
        -13    1    3    3    0    0 -0.10010361545E+03 -0.14422855809E+03  0.34163386640E+02  0.17885678008E+03  0.00000000000E+00 0.  1.
         22    1    1    2    0    0  0.16910922745E+03  0.21025583963E+03  0.15240586671E+04  0.15477597583E+04  0.00000000000E+00 0.  1.
<mgrwt>
<rscale>  0 0.85650657E+03</rscale>
<asrwt>0</asrwt>
<pdfrwt beam="1">  1        2 0.26993707E+00 0.85650657E+03</pdfrwt>
<pdfrwt beam="2">  1       -2 0.16080967E-01 0.85650657E+03</pdfrwt>
<totfact> 0.28761959E+02</totfact>
</mgrwt>
</event>
<event>
 6    1  0.1878398E-004  0.2586318E+04  0.7818608E-02  0.8372864E-01
         -2   -1    0    0    0  501 -0.00000000000E+00  0.00000000000E+00  0.89023567096E+03  0.89023567096E+03  0.00000000000E+00 0. -1.
          2   -1    0    0  501    0  0.00000000000E+00 -0.00000000000E+00 -0.18784464885E+04  0.18784464885E+04  0.00000000000E+00 0.  1.
         23    2    1    2    0    0 -0.45966260159E+03 -0.97545521504E+03  0.26584877877E+03  0.11147571143E+04  0.95944082247E+02 0.  0.
         11    1    3    3    0    0 -0.28310547844E+03 -0.49505117474E+03  0.15680738811E+03  0.59144985797E+03  0.00000000000E+00 0. -1.
        -11    1    3    3    0    0 -0.17655712315E+03 -0.48040404030E+03  0.10904139066E+03  0.52330725635E+03  0.00000000000E+00 0.  1.
         22    1    1    2    0    0  0.45966260159E+03  0.97545521504E+03 -0.12540595963E+04  0.16539250451E+04  0.00000000000E+00 0.  1.
<mgrwt>
<rscale>  0 0.25863179E+04</rscale>
<asrwt>0</asrwt>
<pdfrwt beam="1">  1        2 0.28899177E+00 0.25863179E+04</pdfrwt>
<pdfrwt beam="2">  1       -2 0.13695934E+00 0.25863179E+04</pdfrwt>
<totfact> 0.26283293E+00</totfact>
</mgrwt>
</event>
<event>
 6    1  0.1878398E-004  0.3965892E+04  0.7818608E-02  0.8011463E-01
         -2   -1    0    0    0  501 -0.00000000000E+00  0.00000000000E+00  0.13273348982E+04  0.13273348982E+04  0.00000000000E+00 0. -1.
          2   -1    0    0  501    0  0.00000000000E+00 -0.00000000000E+00 -0.29623834956E+04  0.29623834956E+04  0.00000000000E+00 0.  1.
         23    2    1    2    0    0  0.13705922035E+04  0.79264931789E+03  0.47135123515E+03  0.16546213967E+04  0.93723263203E+02 0.  0.
         13    1    3    3    0    0  0.10463023557E+04  0.63220064912E+03  0.39638062431E+03  0.12851240717E+04  0.00000000000E+00 0.  1.
        -13    1    3    3    0    0  0.32428984786E+03  0.16044866876E+03  0.74970610842E+02  0.36949732505E+03  0.00000000000E+00 0. -1.
         22    1    1    2    0    0 -0.13705922035E+04 -0.79264931789E+03 -0.21063998325E+04  0.26350969970E+04  0.00000000000E+00 0.  1.
<mgrwt>
<rscale>  0 0.39658921E+04</rscale>
<asrwt>0</asrwt>
<pdfrwt beam="1">  1        2 0.45575131E+00 0.39658921E+04</pdfrwt>
<pdfrwt beam="2">  1       -2 0.20420537E+00 0.39658921E+04</pdfrwt>
<totfact> 0.18141237E-01</totfact>
</mgrwt>
</event>
<event>
 6    1  0.1878398E-004  0.1599826E+04  0.7818608E-02  0.8820655E-01
         -2   -1    0    0    0  501 -0.00000000000E+00  0.00000000000E+00  0.35980409546E+03  0.35980409546E+03  0.00000000000E+00 0. -1.
          2   -1    0    0  501    0  0.00000000000E+00 -0.00000000000E+00 -0.17783592227E+04  0.17783592227E+04  0.00000000000E+00 0.  1.
         23    2    1    2    0    0  0.46906249332E+03  0.56653053728E+03 -0.30061881209E+03  0.79997122545E+03  0.92767553840E+02 0.  0.
         11    1    3    3    0    0  0.12483604260E+03  0.21834952697E+03 -0.11101307286E+03  0.27492627340E+03  0.00000000000E+00 0.  1.
        -11    1    3    3    0    0  0.34422645073E+03  0.34818101031E+03 -0.18960573922E+03  0.52504495204E+03  0.00000000000E+00 0. -1.
         22    1    1    2    0    0 -0.46906249332E+03 -0.56653053728E+03 -0.11179363152E+04  0.13381920928E+04  0.00000000000E+00 0.  1.
<mgrwt>
<rscale>  0 0.15998262E+04</rscale>
<asrwt>0</asrwt>
<pdfrwt beam="1">  1        2 0.27359373E+00 0.15998262E+04</pdfrwt>
<pdfrwt beam="2">  1       -2 0.55354476E-01 0.15998262E+04</pdfrwt>
<totfact> 0.26093567E+01</totfact>
</mgrwt>
</event>
<event>
 6    1  0.1878398E-004  0.1517902E+04  0.7818608E-02  0.8872635E-01
         -2   -1    0    0    0  501 -0.00000000000E+00  0.00000000000E+00  0.54726884970E+03  0.54726884970E+03  0.00000000000E+00 0. -1.
          2   -1    0    0  501    0  0.00000000000E+00 -0.00000000000E+00 -0.10525106861E+04  0.10525106861E+04  0.00000000000E+00 0.  1.
         23    2    1    2    0    0  0.24628626495E+03 -0.52369151586E+03 -0.76668589264E+03  0.96474983365E+03  0.89583790178E+02 0.  0.
         13    1    3    3    0    0  0.87622452254E+02 -0.23721487024E+03 -0.27104938567E+03  0.37069712471E+03  0.00000000000E+00 0.  1.
        -13    1    3    3    0    0  0.15866381270E+03 -0.28647664562E+03 -0.49563650697E+03  0.59405270893E+03  0.00000000000E+00 0. -1.
         22    1    1    2    0    0 -0.24628626495E+03  0.52369151586E+03  0.26144405623E+03  0.63502970216E+03  0.00000000000E+00 0. -1.
<mgrwt>
<rscale>  0 0.15179016E+04</rscale>
<asrwt>0</asrwt>
<pdfrwt beam="1">  1        2 0.16192472E+00 0.15179016E+04</pdfrwt>
<pdfrwt beam="2">  1       -2 0.84195208E-01 0.15179016E+04</pdfrwt>
<totfact> 0.27715955E+01</totfact>
</mgrwt>
</event>
<event>
 6    1  0.1878398E-004  0.3207031E+04  0.7818608E-02  0.8186963E-01
          2   -1    0    0  501    0  0.00000000000E+00  0.00000000000E+00  0.23348855376E+04  0.23348855376E+04  0.00000000000E+00 0.  1.
         -2   -1    0    0    0  501 -0.00000000000E+00 -0.00000000000E+00 -0.11012371415E+04  0.11012371415E+04  0.00000000000E+00 0. -1.
         23    2    1    2    0    0  0.13459697921E+04  0.76094256504E+03  0.16710885078E+03  0.15577790284E+04  0.89899191546E+02 0.  0.
         11    1    3    3    0    0  0.11679445119E+04  0.67996318639E+03  0.12118938878E+03  0.13568828932E+04  0.00000000000E+00 0. -1.
        -11    1    3    3    0    0  0.17802528020E+03  0.80979378645E+02  0.45919462005E+02  0.20089613522E+03  0.00000000000E+00 0.  1.
         22    1    1    2    0    0 -0.13459697921E+04 -0.76094256504E+03  0.10665395452E+04  0.18783436507E+04  0.00000000000E+00 0.  1.
<mgrwt>
<rscale>  0 0.32070314E+04</rscale>
<asrwt>0</asrwt>
<pdfrwt beam="1">  1        2 0.35921316E+00 0.32070314E+04</pdfrwt>
<pdfrwt beam="2">  1       -2 0.16942110E+00 0.32070314E+04</pdfrwt>
<totfact> 0.78423051E-01</totfact>
</mgrwt>
</event>
<event>
 6    1  0.1878398E-004  0.2733916E+04  0.7818608E-02  0.8324084E-01
          2   -1    0    0  501    0  0.00000000000E+00  0.00000000000E+00  0.15463754276E+04  0.15463754276E+04  0.00000000000E+00 0.  1.
         -2   -1    0    0    0  501 -0.00000000000E+00 -0.00000000000E+00 -0.12083575410E+04  0.12083575410E+04  0.00000000000E+00 0. -1.
         23    2    1    2    0    0  0.10153102153E+04 -0.85180224252E+03 -0.16170044131E+03  0.13383501457E+04  0.92801864908E+02 0.  0.
         11    1    3    3    0    0  0.45029671552E+03 -0.43695194789E+03 -0.86011867729E+02  0.63331838609E+03  0.00000000000E+00 0. -1.
        -11    1    3    3    0    0  0.56501349979E+03 -0.41485029463E+03 -0.75688573579E+02  0.70503175961E+03  0.00000000000E+00 0.  1.
         22    1    1    2    0    0 -0.10153102153E+04  0.85180224252E+03  0.49971832799E+03  0.14163828229E+04  0.00000000000E+00 0.  1.
<mgrwt>
<rscale>  0 0.27339162E+04</rscale>
<asrwt>0</asrwt>
<pdfrwt beam="1">  1        2 0.23790391E+00 0.27339162E+04</pdfrwt>
<pdfrwt beam="2">  1       -2 0.18590116E+00 0.27339162E+04</pdfrwt>
<totfact> 0.17276934E+00</totfact>
</mgrwt>
</event>
<event>
 6    1  0.1878398E-004  0.3317571E+04  0.7818608E-02  0.8158439E-01
         -2   -1    0    0    0  501 -0.00000000000E+00  0.00000000000E+00  0.12865979491E+04  0.12865979491E+04  0.00000000000E+00 0. -1.
          2   -1    0    0  501    0  0.00000000000E+00 -0.00000000000E+00 -0.21386394519E+04  0.21386394519E+04  0.00000000000E+00 0.  1.
         23    2    1    2    0    0 -0.60611771263E+03  0.86466635603E+03  0.89241102954E+03  0.13860853158E+04  0.99037710902E+02 0.  0.
         11    1    3    3    0    0 -0.13296289307E+03  0.24631663641E+03  0.27491562405E+03  0.39233865047E+03  0.00000000000E+00 0. -1.
        -11    1    3    3    0    0 -0.47315481956E+03  0.61834971962E+03  0.61749540548E+03  0.99374666531E+03  0.00000000000E+00 0.  1.
         22    1    1    2    0    0  0.60611771263E+03 -0.86466635603E+03 -0.17444525324E+04  0.20391520852E+04  0.00000000000E+00 0.  1.
<mgrwt>
<rscale>  0 0.33175709E+04</rscale>
<asrwt>0</asrwt>
<pdfrwt beam="1">  1        2 0.32902145E+00 0.33175709E+04</pdfrwt>
<pdfrwt beam="2">  1       -2 0.19793815E+00 0.33175709E+04</pdfrwt>
<totfact> 0.63982907E-01</totfact>
</mgrwt>
</event>
<event>
 6    1  0.1878398E-004  0.1706527E+04  0.7818608E-02  0.8757651E-01
          2   -1    0    0  501    0  0.00000000000E+00  0.00000000000E+00  0.13453574561E+04  0.13453574561E+04  0.00000000000E+00 0.  1.
         -2   -1    0    0    0  501 -0.00000000000E+00 -0.00000000000E+00 -0.54116368953E+03  0.54116368953E+03  0.00000000000E+00 0. -1.
         23    2    1    2    0    0  0.44714175371E+03  0.33645812685E+03 -0.30481768189E+03  0.64432703363E+03  0.95413248754E+02 0.  0.
         11    1    3    3    0    0  0.98053658317E+02  0.12046724805E+03 -0.61021132216E+02  0.16688455992E+03  0.00000000000E+00 0.  1.
        -11    1    3    3    0    0  0.34908809540E+03  0.21599087880E+03 -0.24379654967E+03  0.47744247371E+03  0.00000000000E+00 0. -1.
         22    1    1    2    0    0 -0.44714175371E+03 -0.33645812685E+03  0.11090114484E+04  0.12421941120E+04  0.00000000000E+00 0.  1.
<mgrwt>
<rscale>  0 0.17065270E+04</rscale>
<asrwt>0</asrwt>
<pdfrwt beam="1">  1        2 0.20697807E+00 0.17065270E+04</pdfrwt>
<pdfrwt beam="2">  1       -2 0.83255952E-01 0.17065270E+04</pdfrwt>
<totfact> 0.18690462E+01</totfact>
</mgrwt>
</event>
<event>
 6    1  0.1878398E-004  0.3418600E+04  0.7818608E-02  0.8133356E-01
          2   -1    0    0  501    0  0.00000000000E+00  0.00000000000E+00  0.14777678613E+04  0.14777678613E+04  0.00000000000E+00 0.  1.
         -2   -1    0    0    0  501 -0.00000000000E+00 -0.00000000000E+00 -0.19771079120E+04  0.19771079120E+04  0.00000000000E+00 0. -1.
         23    2    1    2    0    0 -0.68475800208E+03 -0.72947492349E+03 -0.16490742559E+04  0.19307642524E+04  0.85892443065E+02 0.  0.
         13    1    3    3    0    0 -0.80190607866E+01 -0.22999148214E+02 -0.59087744325E+02  0.63911092025E+02  0.00000000000E+00 0. -1.
        -13    1    3    3    0    0 -0.67673894129E+03 -0.70647577527E+03 -0.15899865115E+04  0.18668531604E+04  0.00000000000E+00 0.  1.
         22    1    1    2    0    0  0.68475800208E+03  0.72947492349E+03  0.11497342052E+04  0.15241115209E+04  0.00000000000E+00 0.  1.
<mgrwt>
<rscale>  0 0.34186000E+04</rscale>
<asrwt>0</asrwt>
<pdfrwt beam="1">  1        2 0.22734890E+00 0.34186000E+04</pdfrwt>
<pdfrwt beam="2">  1       -2 0.30417045E+00 0.34186000E+04</pdfrwt>
<totfact> 0.32386557E-01</totfact>
</mgrwt>
</event>
<event>
 6    1  0.1878398E-004  0.2266228E+04  0.7818608E-02  0.8491357E-01
          2   -1    0    0  501    0  0.00000000000E+00  0.00000000000E+00  0.10980740703E+04  0.10980740703E+04  0.00000000000E+00 0.  1.
         -2   -1    0    0    0  501 -0.00000000000E+00 -0.00000000000E+00 -0.11692724872E+04  0.11692724872E+04  0.00000000000E+00 0. -1.
         23    2    1    2    0    0  0.20589389132E+03  0.64533494613E+03  0.87098181616E+03  0.11069358204E+04  0.88589498208E+02 0.  0.
         11    1    3    3    0    0  0.20422284094E+03  0.53787826467E+03  0.72088384923E+03  0.92233048331E+03  0.00000000000E+00 0.  1.
        -11    1    3    3    0    0  0.16710503829E+01  0.10745668145E+03  0.15009796694E+03  0.18460533708E+03  0.00000000000E+00 0. -1.
         22    1    1    2    0    0 -0.20589389132E+03 -0.64533494613E+03 -0.94218023312E+03  0.11604107371E+04  0.00000000000E+00 0. -1.
<mgrwt>
<rscale>  0 0.22662284E+04</rscale>
<asrwt>0</asrwt>
<pdfrwt beam="1">  1        2 0.16893447E+00 0.22662284E+04</pdfrwt>
<pdfrwt beam="2">  1       -2 0.17988807E+00 0.22662284E+04</pdfrwt>
<totfact> 0.36073482E+00</totfact>
</mgrwt>
</event>
<event>
 6    1  0.1878398E-004  0.2117228E+04  0.7818608E-02  0.8553692E-01
         -2   -1    0    0    0  501 -0.00000000000E+00  0.00000000000E+00  0.50592420941E+03  0.50592420941E+03  0.00000000000E+00 0. -1.
          2   -1    0    0  501    0  0.00000000000E+00 -0.00000000000E+00 -0.22150811786E+04  0.22150811786E+04  0.00000000000E+00 0.  1.
         23    2    1    2    0    0 -0.63126583125E+02 -0.14946424506E+03 -0.21980672818E+04  0.22058764529E+04  0.89814386798E+02 0.  0.
         11    1    3    3    0    0 -0.44837136571E+02 -0.35929967698E+02 -0.11674768827E+04  0.11688899020E+04  0.00000000000E+00 0. -1.
        -11    1    3    3    0    0 -0.18289446554E+02 -0.11353427736E+03 -0.10305903990E+04  0.10369865508E+04  0.00000000000E+00 0.  1.
         22    1    1    2    0    0  0.63126583125E+02  0.14946424506E+03  0.48891031259E+03  0.51512893513E+03  0.00000000000E+00 0. -1.
<mgrwt>
<rscale>  0 0.21172276E+04</rscale>
<asrwt>0</asrwt>
<pdfrwt beam="1">  1        2 0.34078172E+00 0.21172276E+04</pdfrwt>
<pdfrwt beam="2">  1       -2 0.77834493E-01 0.21172276E+04</pdfrwt>
<totfact> 0.68502590E+00</totfact>
</mgrwt>
</event>
<event>
 6    1  0.1878398E-004  0.1469136E+04  0.7818608E-02  0.8905240E-01
          2   -1    0    0  501    0  0.00000000000E+00  0.00000000000E+00  0.44381965691E+03  0.44381965691E+03  0.00000000000E+00 0.  1.
         -2   -1    0    0    0  501 -0.00000000000E+00 -0.00000000000E+00 -0.12157875444E+04  0.12157875444E+04  0.00000000000E+00 0. -1.
         23    2    1    2    0    0  0.81445261226E+02 -0.57000758405E+03  0.12249084888E+03  0.59584105807E+03  0.92090075323E+02 0.  0.
         11    1    3    3    0    0  0.66917940473E+01 -0.13062516608E+03  0.66227917147E+02  0.14660781402E+03  0.00000000000E+00 0. -1.
        -11    1    3    3    0    0  0.74753467178E+02 -0.43938241797E+03  0.56262931728E+02  0.44923324405E+03  0.00000000000E+00 0.  1.
         22    1    1    2    0    0 -0.81445261226E+02  0.57000758405E+03 -0.89445873640E+03  0.10637661433E+04  0.00000000000E+00 0. -1.
<mgrwt>
<rscale>  0 0.14691364E+04</rscale>
<asrwt>0</asrwt>
<pdfrwt beam="1">  1        2 0.68279948E-01 0.14691364E+04</pdfrwt>
<pdfrwt beam="2">  1       -2 0.18704424E+00 0.14691364E+04</pdfrwt>
<totfact> 0.11091695E+01</totfact>
</mgrwt>
</event>
<event>
 6    1  0.1878398E-004  0.3925443E+04  0.7818608E-02  0.8019758E-01
          2   -1    0    0  501    0  0.00000000000E+00  0.00000000000E+00  0.18023535635E+04  0.18023535635E+04  0.00000000000E+00 0.  1.
         -2   -1    0    0    0  501 -0.00000000000E+00 -0.00000000000E+00 -0.21373587271E+04  0.21373587271E+04  0.00000000000E+00 0. -1.
         23    2    1    2    0    0  0.26375124586E+03  0.11761057135E+04  0.13857024332E+04  0.18388496101E+04  0.91691254125E+02 0.  0.
         13    1    3    3    0    0  0.40069484586E+02  0.92754911026E+02  0.14338404178E+03  0.17540815418E+03  0.00000000000E+00 0.  1.
        -13    1    3    3    0    0  0.22368176127E+03  0.10833508024E+04  0.12423183914E+04  0.16634414559E+04  0.00000000000E+00 0. -1.
         22    1    1    2    0    0 -0.26375124586E+03 -0.11761057135E+04 -0.17207075967E+04  0.21008626805E+04  0.00000000000E+00 0. -1.
<mgrwt>
<rscale>  0 0.39254432E+04</rscale>
<asrwt>0</asrwt>
<pdfrwt beam="1">  1        2 0.27728516E+00 0.39254432E+04</pdfrwt>
<pdfrwt beam="2">  1       -2 0.32882442E+00 0.39254432E+04</pdfrwt>
<totfact> 0.14411536E-01</totfact>
</mgrwt>
</event>
<event>
 6    1  0.1878398E-004  0.2822264E+04  0.7818608E-02  0.8296389E-01
          2   -1    0    0  501    0  0.00000000000E+00  0.00000000000E+00  0.21232363706E+04  0.21232363706E+04  0.00000000000E+00 0.  1.
         -2   -1    0    0    0  501 -0.00000000000E+00 -0.00000000000E+00 -0.93785774438E+03  0.93785774438E+03  0.00000000000E+00 0. -1.
         23    2    1    2    0    0  0.80242301603E+03  0.10807330535E+04  0.13899256389E+03  0.13561629078E+04  0.89399497810E+02 0.  0.
         11    1    3    3    0    0  0.39820148059E+03  0.54831910913E+03  0.11432374018E+03  0.68723226216E+03  0.00000000000E+00 0.  1.
        -11    1    3    3    0    0  0.40422153543E+03  0.53241394437E+03  0.24668823706E+02  0.66893064568E+03  0.00000000000E+00 0. -1.
         22    1    1    2    0    0 -0.80242301603E+03 -0.10807330535E+04  0.10463860623E+04  0.17049312071E+04  0.00000000000E+00 0.  1.
<mgrwt>
<rscale>  0 0.28222641E+04</rscale>
<asrwt>0</asrwt>
<pdfrwt beam="1">  1        2 0.32665175E+00 0.28222641E+04</pdfrwt>
<pdfrwt beam="2">  1       -2 0.14428581E+00 0.28222641E+04</pdfrwt>
<totfact> 0.16441953E+00</totfact>
</mgrwt>
</event>
<event>
 6    1  0.1878398E-004  0.9011732E+03  0.7818608E-02  0.9424116E-01
          2   -1    0    0  501    0  0.00000000000E+00  0.00000000000E+00  0.93710930275E+03  0.93710930275E+03  0.00000000000E+00 0.  1.
         -2   -1    0    0    0  501 -0.00000000000E+00 -0.00000000000E+00 -0.21665379966E+03  0.21665379966E+03  0.00000000000E+00 0. -1.
         23    2    1    2    0    0 -0.29294661055E+03 -0.27341728242E+03  0.11236767137E+03  0.42551483564E+03  0.88665973306E+02 0.  0.
         13    1    3    3    0    0 -0.38356341320E+02 -0.74851154322E+02  0.14325267436E+01  0.84118703958E+02  0.00000000000E+00 0. -1.
        -13    1    3    3    0    0 -0.25459026923E+03 -0.19856612810E+03  0.11093514462E+03  0.34139613168E+03  0.00000000000E+00 0.  1.
         22    1    1    2    0    0  0.29294661055E+03  0.27341728242E+03  0.60808783173E+03  0.72824826677E+03  0.00000000000E+00 0.  1.
<mgrwt>
<rscale>  0 0.90117322E+03</rscale>
<asrwt>0</asrwt>
<pdfrwt beam="1">  1        2 0.14417066E+00 0.90117322E+03</pdfrwt>
<pdfrwt beam="2">  1       -2 0.33331354E-01 0.90117322E+03</pdfrwt>
<totfact> 0.23315765E+02</totfact>
</mgrwt>
</event>
<event>
 6    1  0.1878398E-004  0.3918734E+03  0.7818608E-02  0.1046631E+00
         -1   -1    0    0    0  501 -0.00000000000E+00  0.00000000000E+00  0.43605578114E+02  0.43605578114E+02  0.00000000000E+00 0. -1.
          1   -1    0    0  501    0  0.00000000000E+00 -0.00000000000E+00 -0.88041907117E+03  0.88041907117E+03  0.00000000000E+00 0.  1.
         23    2    1    2    0    0 -0.21562266510E+02 -0.41661111536E+02 -0.86394180402E+03  0.86983493803E+03  0.89536579846E+02 0.  0.
         11    1    3    3    0    0 -0.56543816065E+02 -0.20221882575E+02 -0.51104053585E+03  0.51455666059E+03  0.00000000000E+00 0.  1.
        -11    1    3    3    0    0  0.34981549555E+02 -0.21439228960E+02 -0.35290126816E+03  0.35527827744E+03  0.00000000000E+00 0. -1.
         22    1    1    2    0    0  0.21562266510E+02  0.41661111536E+02  0.27128310956E+02  0.54189711263E+02  0.00000000000E+00 0. -1.
<mgrwt>
<rscale>  0 0.39187336E+03</rscale>
<asrwt>0</asrwt>
<pdfrwt beam="1">  1        1 0.13544909E+00 0.39187336E+03</pdfrwt>
<pdfrwt beam="2">  1       -1 0.67085502E-02 0.39187336E+03</pdfrwt>
<totfact> 0.22370196E+03</totfact>
</mgrwt>
</event>
<event>
 6    1  0.1878398E-004  0.5172610E+04  0.7818608E-02  0.7802418E-01
          1   -1    0    0  501    0  0.00000000000E+00  0.00000000000E+00  0.46100165137E+04  0.46100165137E+04  0.00000000000E+00 0. -1.
         -1   -1    0    0    0  501 -0.00000000000E+00 -0.00000000000E+00 -0.14509653038E+04  0.14509653038E+04  0.00000000000E+00 0.  1.
         23    2    1    2    0    0  0.23881866749E+03 -0.14433927134E+04  0.40778990435E+04  0.43333538997E+04  0.90986426645E+02 0.  0.
         11    1    3    3    0    0  0.18810518888E+02 -0.27987216946E+03  0.85209088958E+03  0.89707365972E+03  0.00000000000E+00 0. -1.
        -11    1    3    3    0    0  0.22000814860E+03 -0.11635205440E+04  0.32258081539E+04  0.34362802400E+04  0.00000000000E+00 0.  1.
         22    1    1    2    0    0 -0.23881866749E+03  0.14433927134E+04 -0.91884783355E+03  0.17276279178E+04  0.00000000000E+00 0.  1.
<mgrwt>
<rscale>  0 0.51726102E+04</rscale>
<asrwt>0</asrwt>
<pdfrwt beam="1">  1        1 0.70923330E+00 0.51726102E+04</pdfrwt>
<pdfrwt beam="2">  1       -1 0.22322543E+00 0.51726102E+04</pdfrwt>
<totfact> 0.18250864E-03</totfact>
</mgrwt>
</event>
<event>
 6    1  0.1878398E-004  0.1250714E+04  0.7818608E-02  0.9069590E-01
          1   -1    0    0  501    0  0.00000000000E+00  0.00000000000E+00  0.11816841768E+04  0.11816841768E+04  0.00000000000E+00 0.  1.
         -1   -1    0    0    0  501 -0.00000000000E+00 -0.00000000000E+00 -0.33094382410E+03  0.33094382410E+03  0.00000000000E+00 0. -1.
         23    2    1    2    0    0  0.52683291090E+03 -0.28015480375E+03  0.64005095745E+03  0.87983289082E+03  0.91657283234E+02 0.  0.
         13    1    3    3    0    0  0.12007500547E+03 -0.53417441164E+02  0.90803832037E+02  0.15973968158E+03  0.00000000000E+00 0. -1.
        -13    1    3    3    0    0  0.40675790543E+03 -0.22673736258E+03  0.54924712541E+03  0.72009320924E+03  0.00000000000E+00 0.  1.
         22    1    1    2    0    0 -0.52683291090E+03  0.28015480375E+03  0.21068939525E+03  0.63279511008E+03  0.00000000000E+00 0. -1.
<mgrwt>
<rscale>  0 0.12507135E+04</rscale>
<asrwt>0</asrwt>
<pdfrwt beam="1">  1        1 0.18179756E+00 0.12507135E+04</pdfrwt>
<pdfrwt beam="2">  1       -1 0.50914435E-01 0.12507135E+04</pdfrwt>
<totfact> 0.42130523E+01</totfact>
</mgrwt>
</event>
<event>
 6    1  0.1878398E-004  0.1024853E+04  0.7818608E-02  0.9281698E-01
          1   -1    0    0  501    0  0.00000000000E+00  0.00000000000E+00  0.49510561625E+03  0.49510561625E+03  0.00000000000E+00 0. -1.
         -1   -1    0    0    0  501 -0.00000000000E+00 -0.00000000000E+00 -0.53035367268E+03  0.53035367268E+03  0.00000000000E+00 0.  1.
         23    2    1    2    0    0  0.14705978280E+03 -0.36259192091E+03 -0.34238142577E+03  0.52803553859E+03  0.92179219298E+02 0.  0.
         13    1    3    3    0    0  0.97338158850E+02 -0.12808283990E+03 -0.15928557038E+03  0.22638865691E+03  0.00000000000E+00 0. -1.
        -13    1    3    3    0    0  0.49721623953E+02 -0.23450908102E+03 -0.18309585539E+03  0.30164688168E+03  0.00000000000E+00 0.  1.
         22    1    1    2    0    0 -0.14705978280E+03  0.36259192091E+03  0.30713336935E+03  0.49742375033E+03  0.00000000000E+00 0. -1.
<mgrwt>
<rscale>  0 0.10248533E+04</rscale>
<asrwt>0</asrwt>
<pdfrwt beam="1">  1        1 0.76170095E-01 0.10248533E+04</pdfrwt>
<pdfrwt beam="2">  1       -1 0.81592872E-01 0.10248533E+04</pdfrwt>
<totfact> 0.67309422E+01</totfact>
</mgrwt>
</event>
<event>
 6    1  0.1878398E-004  0.4279024E+04  0.7818608E-02  0.7950508E-01
          1   -1    0    0  501    0  0.00000000000E+00  0.00000000000E+00  0.16753598160E+04  0.16753598160E+04  0.00000000000E+00 0.  1.
         -1   -1    0    0    0  501 -0.00000000000E+00 -0.00000000000E+00 -0.27322558694E+04  0.27322558694E+04  0.00000000000E+00 0. -1.
         23    2    1    2    0    0 -0.63709246763E+03 -0.20294889822E+04 -0.75587199246E+03  0.22592842802E+04  0.91162760176E+02 0.  0.
         11    1    3    3    0    0 -0.48239048516E+03 -0.14006744381E+04 -0.53651215276E+03  0.15755744196E+04  0.00000000000E+00 0. -1.
        -11    1    3    3    0    0 -0.15470198247E+03 -0.62881454404E+03 -0.21935983970E+03  0.68370986058E+03  0.00000000000E+00 0.  1.
         22    1    1    2    0    0  0.63709246763E+03  0.20294889822E+04 -0.30102406099E+03  0.21483314051E+04  0.00000000000E+00 0.  1.
<mgrwt>
<rscale>  0 0.42790240E+04</rscale>
<asrwt>0</asrwt>
<pdfrwt beam="1">  1        1 0.25774767E+00 0.42790240E+04</pdfrwt>
<pdfrwt beam="2">  1       -1 0.42034705E+00 0.42790240E+04</pdfrwt>
<totfact> 0.19648635E-02</totfact>
</mgrwt>
</event>
<event>
 6    1  0.1878398E-004  0.8520081E+03  0.7818608E-02  0.9487646E-01
          1   -1    0    0  501    0  0.00000000000E+00  0.00000000000E+00  0.10789759501E+04  0.10789759501E+04  0.00000000000E+00 0.  1.
         -1   -1    0    0    0  501 -0.00000000000E+00 -0.00000000000E+00 -0.16819602557E+03  0.16819602557E+03  0.00000000000E+00 0. -1.
         23    2    1    2    0    0  0.34420521293E+02  0.36488386628E+03  0.14960953887E+03  0.40236113047E+03  0.72017060729E+02 0.  0.
         11    1    3    3    0    0  0.55986593699E+02  0.27263111794E+03  0.10291001280E+03  0.29673674508E+03  0.00000000000E+00 0.  1.
        -11    1    3    3    0    0 -0.21566072405E+02  0.92252748338E+02  0.46699526069E+02  0.10562438539E+03  0.00000000000E+00 0. -1.
         22    1    1    2    0    0 -0.34420521293E+02 -0.36488386628E+03  0.76117038567E+03  0.84481084521E+03  0.00000000000E+00 0.  1.
<mgrwt>
<rscale>  0 0.85200814E+03</rscale>
<asrwt>0</asrwt>
<pdfrwt beam="1">  1        1 0.16599630E+00 0.85200814E+03</pdfrwt>
<pdfrwt beam="2">  1       -1 0.25876312E-01 0.85200814E+03</pdfrwt>
<totfact> 0.17504288E+02</totfact>
</mgrwt>
</event>
<event>
 6    1  0.1878398E-004  0.2751288E+04  0.7818608E-02  0.8318553E-01
         -2   -1    0    0    0  501 -0.00000000000E+00  0.00000000000E+00  0.12876979798E+04  0.12876979798E+04  0.00000000000E+00 0. -1.
          2   -1    0    0  501    0  0.00000000000E+00 -0.00000000000E+00 -0.14695967414E+04  0.14695967414E+04  0.00000000000E+00 0.  1.
         23    2    1    2    0    0  0.11388029596E+04  0.63868222451E+03 -0.52031907112E+03  0.14084746921E+04  0.91004713062E+02 0.  0.
         13    1    3    3    0    0  0.55143989386E+03  0.28794626264E+03 -0.29248615570E+03  0.68742065577E+03  0.00000000000E+00 0.  1.
        -13    1    3    3    0    0  0.58736306578E+03  0.35073596187E+03 -0.22783291542E+03  0.72105403636E+03  0.00000000000E+00 0. -1.
         22    1    1    2    0    0 -0.11388029596E+04 -0.63868222451E+03  0.33842030957E+03  0.13488200290E+04  0.00000000000E+00 0. -1.
<mgrwt>
<rscale>  0 0.27512882E+04</rscale>
<asrwt>0</asrwt>
<pdfrwt beam="1">  1        2 0.22609181E+00 0.27512882E+04</pdfrwt>
<pdfrwt beam="2">  1       -2 0.19810738E+00 0.27512882E+04</pdfrwt>
<totfact> 0.15794270E+00</totfact>
</mgrwt>
</event>
<event>
 6    1  0.1878398E-004  0.1393095E+04  0.7818608E-02  0.8958832E-01
         -2   -1    0    0    0  501 -0.00000000000E+00  0.00000000000E+00  0.38861903842E+03  0.38861903842E+03  0.00000000000E+00 0. -1.
          2   -1    0    0  501    0  0.00000000000E+00 -0.00000000000E+00 -0.12484677789E+04  0.12484677789E+04  0.00000000000E+00 0.  1.
         23    2    1    2    0    0  0.48468205648E+03  0.42953324924E+03 -0.72371564210E+03  0.97531062510E+03  0.89727235159E+02 0.  0.
         11    1    3    3    0    0  0.30877698899E+03  0.31889740403E+03 -0.45556153313E+03  0.63606217754E+03  0.00000000000E+00 0. -1.
        -11    1    3    3    0    0  0.17590506749E+03  0.11063584522E+03 -0.26815410897E+03  0.33924844756E+03  0.00000000000E+00 0.  1.
         22    1    1    2    0    0 -0.48468205648E+03 -0.42953324924E+03 -0.13613309835E+03  0.66177619218E+03  0.00000000000E+00 0. -1.
<mgrwt>
<rscale>  0 0.13930949E+04</rscale>
<asrwt>0</asrwt>
<pdfrwt beam="1">  1        2 0.19207197E+00 0.13930949E+04</pdfrwt>
<pdfrwt beam="2">  1       -2 0.59787543E-01 0.13930949E+04</pdfrwt>
<totfact> 0.45037450E+01</totfact>
</mgrwt>
</event>
<event>
 6    1  0.1878398E-004  0.5031194E+04  0.7818608E-02  0.7823713E-01
          2   -1    0    0  501    0  0.00000000000E+00  0.00000000000E+00  0.26668443004E+04  0.26668443004E+04  0.00000000000E+00 0.  1.
         -2   -1    0    0    0  501 -0.00000000000E+00 -0.00000000000E+00 -0.23729275112E+04  0.23729275112E+04  0.00000000000E+00 0. -1.
         23    2    1    2    0    0  0.14954363745E+04 -0.46084176289E+03 -0.18249495571E+04  0.24057065742E+04  0.90984365342E+02 0.  0.
         11    1    3    3    0    0  0.77728431004E+03 -0.25702956121E+03 -0.10192758927E+04  0.13073478647E+04  0.00000000000E+00 0.  1.
        -11    1    3    3    0    0  0.71815206442E+03 -0.20381220168E+03 -0.80567366448E+03  0.10983587095E+04  0.00000000000E+00 0. -1.
         22    1    1    2    0    0 -0.14954363745E+04  0.46084176289E+03  0.21188663464E+04  0.26340652373E+04  0.00000000000E+00 0.  1.
<mgrwt>
<rscale>  0 0.50311940E+04</rscale>
<asrwt>0</asrwt>
<pdfrwt beam="1">  1        2 0.41028374E+00 0.50311940E+04</pdfrwt>
<pdfrwt beam="2">  1       -2 0.36506577E+00 0.50311940E+04</pdfrwt>
<totfact> 0.25198270E-02</totfact>
</mgrwt>
</event>
<event>
 6    1  0.1878398E-004  0.9061705E+03  0.7818608E-02  0.9417901E-01
          1   -1    0    0  501    0  0.00000000000E+00  0.00000000000E+00  0.37554929003E+03  0.37554929003E+03  0.00000000000E+00 0.  1.
         -1   -1    0    0    0  501 -0.00000000000E+00 -0.00000000000E+00 -0.54662928202E+03  0.54662928202E+03  0.00000000000E+00 0. -1.
         23    2    1    2    0    0  0.27739603327E+03 -0.76836680143E+01  0.27220921575E+03  0.39919394539E+03  0.90831442073E+02 0.  0.
         13    1    3    3    0    0  0.14053803094E+03 -0.34440386053E+02  0.18443112762E+03  0.23441825690E+03  0.00000000000E+00 0. -1.
        -13    1    3    3    0    0  0.13685800233E+03  0.26756718038E+02  0.87778088128E+02  0.16477568849E+03  0.00000000000E+00 0.  1.
         22    1    1    2    0    0 -0.27739603327E+03  0.76836680143E+01 -0.44328920774E+03  0.52298462666E+03  0.00000000000E+00 0. -1.
<mgrwt>
<rscale>  0 0.90617049E+03</rscale>
<asrwt>0</asrwt>
<pdfrwt beam="1">  1        1 0.57776814E-01 0.90617049E+03</pdfrwt>
<pdfrwt beam="2">  1       -1 0.84096812E-01 0.90617049E+03</pdfrwt>
<totfact> 0.92176696E+01</totfact>
</mgrwt>
</event>
<event>
 6    1  0.1878398E-004  0.2601844E+04  0.7818608E-02  0.8367575E-01
         -1   -1    0    0    0  501 -0.00000000000E+00  0.00000000000E+00  0.18643618553E+04  0.18643618553E+04  0.00000000000E+00 0. -1.
          1   -1    0    0  501    0  0.00000000000E+00 -0.00000000000E+00 -0.90776236365E+03  0.90776236365E+03  0.00000000000E+00 0.  1.
         23    2    1    2    0    0 -0.25482598375E+03  0.10620115679E+04  0.12288561924E+04  0.16465450065E+04  0.90653541102E+02 0.  0.
         11    1    3    3    0    0 -0.20305491687E+03  0.67699670367E+03  0.76588322238E+03  0.10421770226E+04  0.00000000000E+00 0. -1.
        -11    1    3    3    0    0 -0.51771066882E+02  0.38501486419E+03  0.46297297004E+03  0.60436798393E+03  0.00000000000E+00 0.  1.
         22    1    1    2    0    0  0.25482598375E+03 -0.10620115679E+04 -0.27225670082E+03  0.11255792124E+04  0.00000000000E+00 0.  1.
<mgrwt>
<rscale>  0 0.26018436E+04</rscale>
<asrwt>0</asrwt>
<pdfrwt beam="1">  1        1 0.13965575E+00 0.26018436E+04</pdfrwt>
<pdfrwt beam="2">  1       -1 0.28682490E+00 0.26018436E+04</pdfrwt>
<totfact> 0.63479245E-01</totfact>
</mgrwt>
</event>
<event>
 6    1  0.1878398E-004  0.1822168E+04  0.7818608E-02  0.8694599E-01
          1   -1    0    0  501    0  0.00000000000E+00  0.00000000000E+00  0.67390926594E+03  0.67390926594E+03  0.00000000000E+00 0.  1.
         -1   -1    0    0    0  501 -0.00000000000E+00 -0.00000000000E+00 -0.12317300669E+04  0.12317300669E+04  0.00000000000E+00 0. -1.
         23    2    1    2    0    0 -0.55658535750E+03  0.71135843549E+03 -0.17539937507E+03  0.92479060298E+03  0.93030288951E+02 0.  0.
         13    1    3    3    0    0 -0.38283516198E+03  0.50071357408E+03 -0.79067949073E+02  0.63523899840E+03  0.00000000000E+00 0. -1.
        -13    1    3    3    0    0 -0.17375019552E+03  0.21064486142E+03 -0.96331426002E+02  0.28955160459E+03  0.00000000000E+00 0.  1.
         22    1    1    2    0    0  0.55658535750E+03 -0.71135843549E+03 -0.38242142592E+03  0.98084872989E+03  0.00000000000E+00 0.  1.
<mgrwt>
<rscale>  0 0.18221683E+04</rscale>
<asrwt>0</asrwt>
<pdfrwt beam="1">  1        1 0.10367835E+00 0.18221683E+04</pdfrwt>
<pdfrwt beam="2">  1       -1 0.18949693E+00 0.18221683E+04</pdfrwt>
<totfact> 0.48408158E+00</totfact>
</mgrwt>
</event>
<event>
 6    1  0.1878398E-004  0.2207326E+04  0.7818608E-02  0.8515385E-01
         -1   -1    0    0    0  501 -0.00000000000E+00  0.00000000000E+00  0.17240308040E+04  0.17240308040E+04  0.00000000000E+00 0. -1.
          1   -1    0    0  501    0  0.00000000000E+00 -0.00000000000E+00 -0.70652590648E+03  0.70652590648E+03  0.00000000000E+00 0.  1.
         23    2    1    2    0    0 -0.43494157878E+02  0.25342115569E+03  0.16894636437E+04  0.17110828886E+04  0.86041990944E+02 0.  0.
         13    1    3    3    0    0 -0.33881100781E+02  0.31750382255E+02  0.39781063296E+03  0.40051131752E+03  0.00000000000E+00 0. -1.
        -13    1    3    3    0    0 -0.96130570970E+01  0.22167077343E+03  0.12916530107E+04  0.13105715710E+04  0.00000000000E+00 0.  1.
         22    1    1    2    0    0  0.43494157878E+02 -0.25342115569E+03 -0.67195874616E+03  0.71947382194E+03  0.00000000000E+00 0.  1.
<mgrwt>
<rscale>  0 0.22073264E+04</rscale>
<asrwt>0</asrwt>
<pdfrwt beam="1">  1        1 0.10869629E+00 0.22073264E+04</pdfrwt>
<pdfrwt beam="2">  1       -1 0.26523551E+00 0.22073264E+04</pdfrwt>
<totfact> 0.13579415E+00</totfact>
</mgrwt>
</event>
<event>
 6    1  0.1878398E-004  0.2093067E+04  0.7818608E-02  0.8564304E-01
         -1   -1    0    0    0  501 -0.00000000000E+00  0.00000000000E+00  0.54964310926E+03  0.54964310926E+03  0.00000000000E+00 0. -1.
          1   -1    0    0  501    0  0.00000000000E+00 -0.00000000000E+00 -0.19926240066E+04  0.19926240066E+04  0.00000000000E+00 0.  1.
         23    2    1    2    0    0 -0.78913822844E+02 -0.56461781498E+03  0.34016852797E+03  0.67019806228E+03  0.91815831066E+02 0.  0.
         11    1    3    3    0    0 -0.90402114638E+02 -0.34082674819E+03  0.19120216511E+03  0.40111554763E+03  0.00000000000E+00 0.  1.
        -11    1    3    3    0    0  0.11488291794E+02 -0.22379106679E+03  0.14896636286E+03  0.26908251465E+03  0.00000000000E+00 0. -1.
         22    1    1    2    0    0  0.78913822844E+02  0.56461781498E+03 -0.17831494253E+04  0.18720690536E+04  0.00000000000E+00 0.  1.
<mgrwt>
<rscale>  0 0.20930667E+04</rscale>
<asrwt>0</asrwt>
<pdfrwt beam="1">  1        1 0.30655755E+00 0.20930667E+04</pdfrwt>
<pdfrwt beam="2">  1       -1 0.84560477E-01 0.20930667E+04</pdfrwt>
<totfact> 0.38404606E+00</totfact>
</mgrwt>
</event>
<event>
 6    1  0.1878398E-004  0.3592878E+04  0.7818608E-02  0.8092125E-01
          1   -1    0    0  501    0  0.00000000000E+00  0.00000000000E+00  0.27234951405E+04  0.27234951405E+04  0.00000000000E+00 0.  1.
         -1   -1    0    0    0  501 -0.00000000000E+00 -0.00000000000E+00 -0.11849456900E+04  0.11849456900E+04  0.00000000000E+00 0. -1.
         23    2    1    2    0    0  0.48538751963E+03  0.97352900881E+03  0.23233757928E+04  0.25670564104E+04  0.91344208410E+02 0.  0.
         13    1    3    3    0    0  0.16564581002E+03  0.41684644192E+03  0.89872569765E+03  0.10044438113E+04  0.00000000000E+00 0. -1.
        -13    1    3    3    0    0  0.31974170961E+03  0.55668256689E+03  0.14246500951E+04  0.15626125990E+04  0.00000000000E+00 0.  1.
         22    1    1    2    0    0 -0.48538751963E+03 -0.97352900881E+03 -0.78482634228E+03  0.13413844202E+04  0.00000000000E+00 0. -1.
<mgrwt>
<rscale>  0 0.35928784E+04</rscale>
<asrwt>0</asrwt>
<pdfrwt beam="1">  1        1 0.41899925E+00 0.35928784E+04</pdfrwt>
<pdfrwt beam="2">  1       -1 0.18229934E+00 0.35928784E+04</pdfrwt>
<totfact> 0.15314882E-01</totfact>
</mgrwt>
</event>
<event>
 6    1  0.1878398E-004  0.2929949E+04  0.7818608E-02  0.8264022E-01
          2   -1    0    0  501    0  0.00000000000E+00  0.00000000000E+00  0.35919641442E+04  0.35919641442E+04  0.00000000000E+00 0.  1.
         -2   -1    0    0    0  501 -0.00000000000E+00 -0.00000000000E+00 -0.59748655291E+03  0.59748655291E+03  0.00000000000E+00 0. -1.
         23    2    1    2    0    0  0.97168298304E+03 -0.39209357789E+03  0.29597283066E+04  0.31410649350E+04  0.91608315718E+02 0.  0.
         11    1    3    3    0    0  0.25579470549E+03 -0.60546525565E+02  0.74509786858E+03  0.79010609850E+03  0.00000000000E+00 0.  1.
        -11    1    3    3    0    0  0.71588827755E+03 -0.33154705233E+03  0.22146304380E+04  0.23509588365E+04  0.00000000000E+00 0. -1.
         22    1    1    2    0    0 -0.97168298304E+03  0.39209357789E+03  0.34749284648E+02  0.10483857621E+04  0.00000000000E+00 0. -1.
<mgrwt>
<rscale>  0 0.29299490E+04</rscale>
<asrwt>0</asrwt>
<pdfrwt beam="1">  1        2 0.55260985E+00 0.29299490E+04</pdfrwt>
<pdfrwt beam="2">  1       -2 0.91921011E-01 0.29299490E+04</pdfrwt>
<totfact> 0.60585485E-01</totfact>
</mgrwt>
</event>
<event>
 6    1  0.1878398E-004  0.2744643E+03  0.7818608E-02  0.1098751E+00
         -1   -1    0    0    0  501 -0.00000000000E+00  0.00000000000E+00  0.24087164714E+03  0.24087164714E+03  0.00000000000E+00 0.  1.
          1   -1    0    0  501    0  0.00000000000E+00 -0.00000000000E+00 -0.78185495571E+02  0.78185495571E+02  0.00000000000E+00 0. -1.
         23    2    1    2    0    0  0.95179262763E+02  0.68019643232E+02  0.10462830073E+03  0.18845669107E+03  0.10432199753E+03 0.  0.
         13    1    3    3    0    0  0.76154754482E+02  0.12755532327E+02  0.10875762845E+02  0.77977768965E+02  0.00000000000E+00 0. -1.
        -13    1    3    3    0    0  0.19024508280E+02  0.55264110905E+02  0.93752537885E+02  0.11047892210E+03  0.00000000000E+00 0.  1.
         22    1    1    2    0    0 -0.95179262763E+02 -0.68019643232E+02  0.58057850841E+02  0.13060045164E+03  0.00000000000E+00 0. -1.
<mgrwt>
<rscale>  0 0.27446434E+03</rscale>
<asrwt>0</asrwt>
<pdfrwt beam="1">  1        1 0.12028538E-01 0.27446434E+03</pdfrwt>
<pdfrwt beam="2">  1       -1 0.37057176E-01 0.27446434E+03</pdfrwt>
<totfact> 0.35201333E+03</totfact>
</mgrwt>
</event>
<event>
 6    1  0.1878398E-004  0.1675321E+04  0.7818608E-02  0.8775566E-01
          1   -1    0    0  501    0  0.00000000000E+00  0.00000000000E+00  0.13785470182E+04  0.13785470182E+04  0.00000000000E+00 0.  1.
         -1   -1    0    0    0  501 -0.00000000000E+00 -0.00000000000E+00 -0.50899642862E+03  0.50899642862E+03  0.00000000000E+00 0. -1.
         23    2    1    2    0    0 -0.42137787220E+03 -0.66208089905E+03  0.75793959364E+03  0.10948471352E+04  0.91144905363E+02 0.  0.
         13    1    3    3    0    0 -0.10213423675E+03 -0.22754826745E+03  0.20931032931E+03  0.32560778599E+03  0.00000000000E+00 0. -1.
        -13    1    3    3    0    0 -0.31924363545E+03 -0.43453263160E+03  0.54862926433E+03  0.76923934921E+03  0.00000000000E+00 0.  1.
         22    1    1    2    0    0  0.42137787220E+03  0.66208089905E+03  0.11161099596E+03  0.79269631164E+03  0.00000000000E+00 0.  1.
<mgrwt>
<rscale>  0 0.16753215E+04</rscale>
<asrwt>0</asrwt>
<pdfrwt beam="1">  1        1 0.21208416E+00 0.16753215E+04</pdfrwt>
<pdfrwt beam="2">  1       -1 0.78307143E-01 0.16753215E+04</pdfrwt>
<totfact> 0.12383356E+01</totfact>
</mgrwt>
</event>
<event>
 6    1  0.1878398E-004  0.5879230E+04  0.7818608E-02  0.7705559E-01
          2   -1    0    0  501    0  0.00000000000E+00  0.00000000000E+00  0.31828063344E+04  0.31828063344E+04  0.00000000000E+00 0. -1.
         -2   -1    0    0    0  501 -0.00000000000E+00 -0.00000000000E+00 -0.27150052755E+04  0.27150052755E+04  0.00000000000E+00 0.  1.
         23    2    1    2    0    0  0.75109361168E+03  0.55795691518E+03 -0.25608045919E+04  0.27279678092E+04  0.92901439349E+02 0.  0.
         11    1    3    3    0    0  0.50455111622E+03  0.33387334436E+03 -0.15629144224E+04  0.16759310042E+04  0.00000000000E+00 0. -1.
        -11    1    3    3    0    0  0.24654249546E+03  0.22408357082E+03 -0.99789016948E+03  0.10520368050E+04  0.00000000000E+00 0.  1.
         22    1    1    2    0    0 -0.75109361168E+03 -0.55795691518E+03  0.30286056508E+04  0.31698438007E+04  0.00000000000E+00 0. -1.
<mgrwt>
<rscale>  0 0.58792299E+04</rscale>
<asrwt>0</asrwt>
<pdfrwt beam="1">  1        2 0.48966251E+00 0.58792299E+04</pdfrwt>
<pdfrwt beam="2">  1       -2 0.41769312E+00 0.58792299E+04</pdfrwt>
<totfact> 0.51400145E-03</totfact>
</mgrwt>
</event>
<event>
 6    1  0.1878398E-004  0.2122023E+04  0.7818608E-02  0.8551604E-01
          2   -1    0    0  501    0  0.00000000000E+00  0.00000000000E+00  0.12916634396E+04  0.12916634396E+04  0.00000000000E+00 0.  1.
         -2   -1    0    0    0  501 -0.00000000000E+00 -0.00000000000E+00 -0.87154680381E+03  0.87154680381E+03  0.00000000000E+00 0. -1.
         23    2    1    2    0    0 -0.80398475044E+03 -0.37965568693E+03 -0.37604789776E+03  0.96972464064E+03  0.91782011869E+02 0.  0.
         11    1    3    3    0    0 -0.36701580718E+03 -0.12861054844E+03 -0.18652749255E+03  0.43131633562E+03  0.00000000000E+00 0.  1.
        -11    1    3    3    0    0 -0.43696894326E+03 -0.25104513849E+03 -0.18952040521E+03  0.53840830503E+03  0.00000000000E+00 0. -1.
         22    1    1    2    0    0  0.80398475044E+03  0.37965568693E+03  0.79616453356E+03  0.11934856028E+04  0.00000000000E+00 0.  1.
<mgrwt>
<rscale>  0 0.21220228E+04</rscale>
<asrwt>0</asrwt>
<pdfrwt beam="1">  1        2 0.19871745E+00 0.21220228E+04</pdfrwt>
<pdfrwt beam="2">  1       -2 0.13408412E+00 0.21220228E+04</pdfrwt>
<totfact> 0.61745980E+00</totfact>
</mgrwt>
</event>
<event>
 6    1  0.1878398E-004  0.2253822E+04  0.7818608E-02  0.8496354E-01
          2   -1    0    0  501    0  0.00000000000E+00  0.00000000000E+00  0.24894926896E+04  0.24894926896E+04  0.00000000000E+00 0.  1.
         -2   -1    0    0    0  501 -0.00000000000E+00 -0.00000000000E+00 -0.51011525049E+03  0.51011525049E+03  0.00000000000E+00 0. -1.
         23    2    1    2    0    0  0.98154796749E+03 -0.29952731539E+03  0.16050185847E+04  0.19072263323E+04  0.90964829963E+02 0.  0.
         13    1    3    3    0    0  0.28502430828E+03 -0.12899022373E+03  0.46635928594E+03  0.56157663565E+03  0.00000000000E+00 0.  1.
        -13    1    3    3    0    0  0.69652365921E+03 -0.17053709166E+03  0.11386592988E+04  0.13456496967E+04  0.00000000000E+00 0. -1.
         22    1    1    2    0    0 -0.98154796749E+03  0.29952731539E+03  0.37435885442E+03  0.10923816078E+04  0.00000000000E+00 0. -1.
<mgrwt>
<rscale>  0 0.22538218E+04</rscale>
<asrwt>0</asrwt>
<pdfrwt beam="1">  1        2 0.38299887E+00 0.22538218E+04</pdfrwt>
<pdfrwt beam="2">  1       -2 0.78479271E-01 0.22538218E+04</pdfrwt>
<totfact> 0.46365793E+00</totfact>
</mgrwt>
</event>
<event>
 6    1  0.1878398E-004  0.1398267E+04  0.7818608E-02  0.8955074E-01
         -2   -1    0    0    0  501 -0.00000000000E+00  0.00000000000E+00  0.21570748108E+03  0.21570748108E+03  0.00000000000E+00 0. -1.
          2   -1    0    0  501    0  0.00000000000E+00 -0.00000000000E+00 -0.22659736874E+04  0.22659736874E+04  0.00000000000E+00 0.  1.
         23    2    1    2    0    0 -0.43629732311E+03 -0.54106371893E+03 -0.96065023103E+03  0.11892538879E+04  0.91491208840E+02 0.  0.
         11    1    3    3    0    0 -0.34990526343E+03 -0.40022763086E+03 -0.67434256909E+03  0.85869304782E+03  0.00000000000E+00 0.  1.
        -11    1    3    3    0    0 -0.86392059672E+02 -0.14083608807E+03 -0.28630766194E+03  0.33056084003E+03  0.00000000000E+00 0. -1.
         22    1    1    2    0    0  0.43629732311E+03  0.54106371893E+03 -0.10896159753E+04  0.12924272806E+04  0.00000000000E+00 0. -1.
<mgrwt>
<rscale>  0 0.13982668E+04</rscale>
<asrwt>0</asrwt>
<pdfrwt beam="1">  1        2 0.34861133E+00 0.13982668E+04</pdfrwt>
<pdfrwt beam="2">  1       -2 0.33185767E-01 0.13982668E+04</pdfrwt>
<totfact> 0.39196289E+01</totfact>
</mgrwt>
</event>
<event>
 6    1  0.1878398E-004  0.2638388E+04  0.7818608E-02  0.8355277E-01
          1   -1    0    0  501    0  0.00000000000E+00  0.00000000000E+00  0.20857666179E+04  0.20857666179E+04  0.00000000000E+00 0. -1.
         -1   -1    0    0    0  501 -0.00000000000E+00 -0.00000000000E+00 -0.83435638615E+03  0.83435638615E+03  0.00000000000E+00 0.  1.
         23    2    1    2    0    0  0.91340419652E+03 -0.93732959845E+03  0.46044521984E+03  0.13909010933E+04  0.98498976532E+02 0.  0.
         13    1    3    3    0    0  0.62757431521E+03 -0.65409823683E+03  0.27079271541E+03  0.94605640384E+03  0.00000000000E+00 0.  1.
        -13    1    3    3    0    0  0.28582988132E+03 -0.28323136162E+03  0.18965250443E+03  0.44484468941E+03  0.00000000000E+00 0. -1.
         22    1    1    2    0    0 -0.91340419652E+03  0.93732959845E+03  0.79096501189E+03  0.15292219108E+04  0.00000000000E+00 0. -1.
<mgrwt>
<rscale>  0 0.26383879E+04</rscale>
<asrwt>0</asrwt>
<pdfrwt beam="1">  1        1 0.32088717E+00 0.26383879E+04</pdfrwt>
<pdfrwt beam="2">  1       -1 0.12836252E+00 0.26383879E+04</pdfrwt>
<totfact> 0.11975476E+00</totfact>
</mgrwt>
</event>
<event>
 6    1  0.1878398E-004  0.7902290E+03  0.7818608E-02  0.9574269E-01
         -2   -1    0    0    0  501 -0.00000000000E+00  0.00000000000E+00  0.27505509785E+03  0.27505509785E+03  0.00000000000E+00 0. -1.
          2   -1    0    0  501    0  0.00000000000E+00 -0.00000000000E+00 -0.56757884881E+03  0.56757884881E+03  0.00000000000E+00 0.  1.
         23    2    1    2    0    0  0.34029762118E+03  0.16715629473E+03 -0.50734395010E+02  0.39296096493E+03  0.90003573645E+02 0.  0.
         11    1    3    3    0    0  0.13175605436E+03  0.47164755940E+02 -0.59816509791E+02  0.15219128394E+03  0.00000000000E+00 0. -1.
        -11    1    3    3    0    0  0.20854156683E+03  0.11999153879E+03  0.90821147812E+01  0.24076968099E+03  0.00000000000E+00 0.  1.
         22    1    1    2    0    0 -0.34029762118E+03 -0.16715629473E+03 -0.24178935595E+03  0.44967298173E+03  0.00000000000E+00 0.  1.
<mgrwt>
<rscale>  0 0.79022897E+03</rscale>
<asrwt>0</asrwt>
<pdfrwt beam="1">  1        2 0.87319822E-01 0.79022897E+03</pdfrwt>
<pdfrwt beam="2">  1       -2 0.42316169E-01 0.79022897E+03</pdfrwt>
<totfact> 0.28251888E+02</totfact>
</mgrwt>
</event>
<event>
 6    1  0.1878398E-004  0.1902799E+04  0.7818608E-02  0.8653464E-01
         -2   -1    0    0    0  501 -0.00000000000E+00  0.00000000000E+00  0.79436915480E+03  0.79436915480E+03  0.00000000000E+00 0. -1.
          2   -1    0    0  501    0  0.00000000000E+00 -0.00000000000E+00 -0.11394713864E+04  0.11394713864E+04  0.00000000000E+00 0.  1.
         23    2    1    2    0    0  0.69407026077E+02 -0.83866731814E+03 -0.61922196159E+03  0.10487858355E+04  0.91299973386E+02 0.  0.
         13    1    3    3    0    0  0.82403542746E+02 -0.44420943776E+03 -0.33337033046E+03  0.56146963024E+03  0.00000000000E+00 0. -1.
        -13    1    3    3    0    0 -0.12996516669E+02 -0.39445788039E+03 -0.28585163113E+03  0.48731620522E+03  0.00000000000E+00 0.  1.
         22    1    1    2    0    0 -0.69407026077E+02  0.83866731814E+03  0.27411972999E+03  0.88505470574E+03  0.00000000000E+00 0. -1.
<mgrwt>
<rscale>  0 0.19027989E+04</rscale>
<asrwt>0</asrwt>
<pdfrwt beam="1">  1        2 0.17530329E+00 0.19027989E+04</pdfrwt>
<pdfrwt beam="2">  1       -2 0.12221064E+00 0.19027989E+04</pdfrwt>
<totfact> 0.97899715E+00</totfact>
</mgrwt>
</event>
<event>
 6    1  0.1878398E-004  0.1180735E+04  0.7818608E-02  0.9129888E-01
         -1   -1    0    0    0  501 -0.00000000000E+00  0.00000000000E+00  0.51609550038E+03  0.51609550038E+03  0.00000000000E+00 0. -1.
          1   -1    0    0  501    0  0.00000000000E+00 -0.00000000000E+00 -0.67532778890E+03  0.67532778890E+03  0.00000000000E+00 0.  1.
         23    2    1    2    0    0  0.20372026884E+03 -0.45359952890E+03 -0.39450980795E+03  0.64132330591E+03  0.91668498246E+02 0.  0.
         11    1    3    3    0    0  0.66827945570E+02 -0.15773703039E+03 -0.82749398681E+02  0.19024828001E+03  0.00000000000E+00 0. -1.
        -11    1    3    3    0    0  0.13689232327E+03 -0.29586249851E+03 -0.31176040927E+03  0.45107502589E+03  0.00000000000E+00 0.  1.
         22    1    1    2    0    0 -0.20372026884E+03  0.45359952890E+03  0.23527751943E+03  0.55009998337E+03  0.00000000000E+00 0.  1.
<mgrwt>
<rscale>  0 0.11807347E+04</rscale>
<asrwt>0</asrwt>
<pdfrwt beam="1">  1        1 0.10389658E+00 0.11807347E+04</pdfrwt>
<pdfrwt beam="2">  1       -1 0.79399307E-01 0.11807347E+04</pdfrwt>
<totfact> 0.45211901E+01</totfact>
</mgrwt>
</event>
<event>
 6    1  0.1878398E-004  0.6585622E+03  0.7818608E-02  0.9790844E-01
         -1   -1    0    0    0  501 -0.00000000000E+00  0.00000000000E+00  0.27780749738E+03  0.27780749738E+03  0.00000000000E+00 0. -1.
          1   -1    0    0  501    0  0.00000000000E+00 -0.00000000000E+00 -0.39029201435E+03  0.39029201435E+03  0.00000000000E+00 0.  1.
         23    2    1    2    0    0  0.10073749980E+03 -0.12795439800E+03 -0.34032293419E+03  0.38804466675E+03  0.90766690071E+02 0.  0.
         13    1    3    3    0    0  0.85071092142E+02 -0.10420968863E+03 -0.17729792109E+03  0.22255629118E+03  0.00000000000E+00 0. -1.
        -13    1    3    3    0    0  0.15666407657E+02 -0.23744709365E+02 -0.16302501310E+03  0.16548837557E+03  0.00000000000E+00 0.  1.
         22    1    1    2    0    0 -0.10073749980E+03  0.12795439800E+03  0.22783841722E+03  0.28005484497E+03  0.00000000000E+00 0. -1.
<mgrwt>
<rscale>  0 0.65856221E+03</rscale>
<asrwt>0</asrwt>
<pdfrwt beam="1">  1        1 0.60044925E-01 0.65856221E+03</pdfrwt>
<pdfrwt beam="2">  1       -1 0.42739615E-01 0.65856221E+03</pdfrwt>
<totfact> 0.33855913E+02</totfact>
</mgrwt>
</event>
<event>
 6    1  0.1878398E-004  0.9421489E+03  0.7818608E-02  0.9374375E-01
          1   -1    0    0  501    0  0.00000000000E+00  0.00000000000E+00  0.27439725222E+04  0.27439725222E+04  0.00000000000E+00 0.  1.
         -1   -1    0    0    0  501 -0.00000000000E+00 -0.00000000000E+00 -0.80872211771E+02  0.80872211771E+02  0.00000000000E+00 0. -1.
         23    2    1    2    0    0  0.22040909633E+03  0.58363728265E+01  0.25764128055E+04  0.25879292290E+04  0.10421380365E+03 0.  0.
         11    1    3    3    0    0  0.18150422269E+02  0.30709437166E+02  0.23863994143E+03  0.24129137781E+03  0.00000000000E+00 0.  1.
        -11    1    3    3    0    0  0.20225867406E+03 -0.24873064340E+02  0.23377728641E+04  0.23466378512E+04  0.00000000000E+00 0. -1.
         22    1    1    2    0    0 -0.22040909633E+03 -0.58363728265E+01  0.86687504916E+02  0.23691550498E+03  0.00000000000E+00 0. -1.
<mgrwt>
<rscale>  0 0.94214888E+03</rscale>
<asrwt>0</asrwt>
<pdfrwt beam="1">  1        1 0.42214955E+00 0.94214888E+03</pdfrwt>
<pdfrwt beam="2">  1       -1 0.12441881E-01 0.94214888E+03</pdfrwt>
<totfact> 0.41772670E+01</totfact>
</mgrwt>
</event>
<event>
 6    1  0.1878398E-004  0.5288996E+04  0.7818608E-02  0.7785410E-01
         -2   -1    0    0    0  501 -0.00000000000E+00  0.00000000000E+00  0.28842625340E+04  0.28842625340E+04  0.00000000000E+00 0. -1.
          2   -1    0    0  501    0  0.00000000000E+00 -0.00000000000E+00 -0.24246651618E+04  0.24246651618E+04  0.00000000000E+00 0.  1.
         23    2    1    2    0    0 -0.24574234615E+04 -0.96501922173E+03  0.91026788349E+02  0.26432126992E+04  0.89974047956E+02 0.  0.
         11    1    3    3    0    0 -0.12279270858E+04 -0.43624471535E+03  0.30982622568E+02  0.13034854439E+04  0.00000000000E+00 0.  1.
        -11    1    3    3    0    0 -0.12294963758E+04 -0.52877450638E+03  0.60044165781E+02  0.13397272552E+04  0.00000000000E+00 0. -1.
         22    1    1    2    0    0  0.24574234615E+04  0.96501922173E+03  0.36857058387E+03  0.26657149966E+04  0.00000000000E+00 0.  1.
<mgrwt>
<rscale>  0 0.52889965E+04</rscale>
<asrwt>0</asrwt>
<pdfrwt beam="1">  1        2 0.37302541E+00 0.52889965E+04</pdfrwt>
<pdfrwt beam="2">  1       -2 0.44373270E+00 0.52889965E+04</pdfrwt>
<totfact> 0.10487254E-02</totfact>
</mgrwt>
</event>
<event>
 6    1  0.1878398E-004  0.3750008E+04  0.7818608E-02  0.8056969E-01
         -2   -1    0    0    0  501 -0.00000000000E+00  0.00000000000E+00  0.10346221206E+04  0.10346221206E+04  0.00000000000E+00 0. -1.
          2   -1    0    0  501    0  0.00000000000E+00 -0.00000000000E+00 -0.33979949973E+04  0.33979949973E+04  0.00000000000E+00 0.  1.
         23    2    1    2    0    0  0.54234077127E+03  0.16230801131E+04 -0.20848761300E+04  0.26988111877E+04  0.91382621753E+02 0.  0.
         13    1    3    3    0    0  0.23752362397E+03  0.57236471417E+03 -0.75565860418E+03  0.97726084749E+03  0.00000000000E+00 0.  1.
        -13    1    3    3    0    0  0.30481714730E+03  0.10507153989E+04 -0.13292175258E+04  0.17215503402E+04  0.00000000000E+00 0. -1.
         22    1    1    2    0    0 -0.54234077127E+03 -0.16230801131E+04 -0.27849674676E+03  0.17338059302E+04  0.00000000000E+00 0. -1.
<mgrwt>
<rscale>  0 0.37500084E+04</rscale>
<asrwt>0</asrwt>
<pdfrwt beam="1">  1        2 0.52276846E+00 0.37500084E+04</pdfrwt>
<pdfrwt beam="2">  1       -2 0.15917264E+00 0.37500084E+04</pdfrwt>
<totfact> 0.19642278E-01</totfact>
</mgrwt>
</event>
<event>
 6    1  0.1878398E-004  0.1138826E+04  0.7818608E-02  0.9168154E-01
          1   -1    0    0  501    0  0.00000000000E+00  0.00000000000E+00  0.26919729716E+04  0.26919729716E+04  0.00000000000E+00 0.  1.
         -1   -1    0    0    0  501 -0.00000000000E+00 -0.00000000000E+00 -0.12044367533E+03  0.12044367533E+03  0.00000000000E+00 0. -1.
         23    2    1    2    0    0  0.10695530719E+03 -0.47856340210E+03  0.59916342916E+03  0.78000687494E+03  0.94612591930E+02 0.  0.
         11    1    3    3    0    0  0.63592579379E+02 -0.32521707010E+03  0.46893460904E+03  0.57420364540E+03  0.00000000000E+00 0. -1.
        -11    1    3    3    0    0  0.43362727808E+02 -0.15334633200E+03  0.13022882012E+03  0.20580322954E+03  0.00000000000E+00 0.  1.
         22    1    1    2    0    0 -0.10695530719E+03  0.47856340210E+03  0.19723658671E+04  0.20324097720E+04  0.00000000000E+00 0.  1.
<mgrwt>
<rscale>  0 0.11388259E+04</rscale>
<asrwt>0</asrwt>
<pdfrwt beam="1">  1        1 0.41414964E+00 0.11388259E+04</pdfrwt>
<pdfrwt beam="2">  1       -1 0.18529798E-01 0.11388259E+04</pdfrwt>
<totfact> 0.23204830E+01</totfact>
</mgrwt>
</event>
<event>
 6    1  0.1878398E-004  0.2056734E+04  0.7818608E-02  0.8580546E-01
         -2   -1    0    0    0  501 -0.00000000000E+00  0.00000000000E+00  0.62982568958E+03  0.62982568958E+03  0.00000000000E+00 0. -1.
          2   -1    0    0  501    0  0.00000000000E+00 -0.00000000000E+00 -0.16790967508E+04  0.16790967508E+04  0.00000000000E+00 0.  1.
         23    2    1    2    0    0 -0.14726774119E+03  0.10135556993E+04 -0.44543183954E+03  0.11199713275E+04  0.83326511204E+02 0.  0.
         11    1    3    3    0    0 -0.25109718309E+02  0.15566032838E+03 -0.36814900653E+02  0.16191347287E+03  0.00000000000E+00 0.  1.
        -11    1    3    3    0    0 -0.12215802288E+03  0.85789537095E+03 -0.40861693888E+03  0.95805785462E+03  0.00000000000E+00 0. -1.
         22    1    1    2    0    0  0.14726774119E+03 -0.10135556993E+04 -0.60383922173E+03  0.11889511129E+04  0.00000000000E+00 0. -1.
<mgrwt>
<rscale>  0 0.20567336E+04</rscale>
<asrwt>0</asrwt>
<pdfrwt beam="1">  1        2 0.25832258E+00 0.20567336E+04</pdfrwt>
<pdfrwt beam="2">  1       -2 0.96896259E-01 0.20567336E+04</pdfrwt>
<totfact> 0.82895695E+00</totfact>
</mgrwt>
</event>
<event>
 6    1  0.1878398E-004  0.4124212E+04  0.7818608E-02  0.7979947E-01
         -1   -1    0    0    0  501 -0.00000000000E+00  0.00000000000E+00  0.19803284612E+04  0.19803284612E+04  0.00000000000E+00 0.  1.
          1   -1    0    0  501    0  0.00000000000E+00 -0.00000000000E+00 -0.21472607137E+04  0.21472607137E+04  0.00000000000E+00 0. -1.
         23    2    1    2    0    0  0.12870631440E+04 -0.92601007097E+03 -0.14006122159E+04  0.21186112157E+04  0.11301643910E+03 0.  0.
         13    1    3    3    0    0  0.66533818783E+02 -0.60393446891E+02 -0.11432651226E+03  0.14541206578E+03  0.00000000000E+00 0.  1.
        -13    1    3    3    0    0  0.12205293253E+04 -0.86561662408E+03 -0.12862857036E+04  0.19731991499E+04  0.00000000000E+00 0. -1.
         22    1    1    2    0    0 -0.12870631440E+04  0.92601007097E+03  0.12336799634E+04  0.20089779592E+04  0.00000000000E+00 0.  1.
<mgrwt>
<rscale>  0 0.41242122E+04</rscale>
<asrwt>0</asrwt>
<pdfrwt beam="1">  1        1 0.33034780E+00 0.41242122E+04</pdfrwt>
<pdfrwt beam="2">  1       -1 0.30466592E+00 0.41242122E+04</pdfrwt>
<totfact> 0.56472239E-02</totfact>
</mgrwt>
</event>
<event>
 6    1  0.1878398E-004  0.4157789E+04  0.7818608E-02  0.7973451E-01
         -2   -1    0    0    0  501 -0.00000000000E+00  0.00000000000E+00  0.14584637305E+04  0.14584637305E+04  0.00000000000E+00 0. -1.
          2   -1    0    0  501    0  0.00000000000E+00 -0.00000000000E+00 -0.29632565495E+04  0.29632565495E+04  0.00000000000E+00 0.  1.
         23    2    1    2    0    0 -0.16540240216E+04  0.51672119409E+03 -0.19721133291E+04  0.26269543578E+04  0.94137975722E+02 0.  0.
         11    1    3    3    0    0 -0.13772584644E+04  0.43025235659E+03 -0.15869365278E+04  0.21448369429E+04  0.00000000000E+00 0.  1.
        -11    1    3    3    0    0 -0.27676555727E+03  0.86468837497E+02 -0.38517680127E+03  0.48211741493E+03  0.00000000000E+00 0. -1.
         22    1    1    2    0    0  0.16540240216E+04 -0.51672119409E+03  0.46732051006E+03  0.17947659222E+04  0.00000000000E+00 0.  1.
<mgrwt>
<rscale>  0 0.41577889E+04</rscale>
<asrwt>0</asrwt>
<pdfrwt beam="1">  1        2 0.45588562E+00 0.41577889E+04</pdfrwt>
<pdfrwt beam="2">  1       -2 0.22437904E+00 0.41577889E+04</pdfrwt>
<totfact> 0.13253146E-01</totfact>
</mgrwt>
</event>
<event>
 6    1  0.1878398E-004  0.2768835E+04  0.7818608E-02  0.8313010E-01
         -4   -1    0    0    0  501 -0.00000000000E+00  0.00000000000E+00  0.62436201973E+03  0.62436201973E+03  0.00000000000E+00 0. -1.
          4   -1    0    0  501    0  0.00000000000E+00 -0.00000000000E+00 -0.30697134238E+04  0.30697134238E+04  0.00000000000E+00 0.  1.
         23    2    1    2    0    0 -0.69564074242E+03 -0.67895471954E+03 -0.25363927788E+04  0.27177639739E+04  0.89761550893E+02 0.  0.
         13    1    3    3    0    0 -0.27992585848E+03 -0.28961422280E+03 -0.93368433711E+03  0.10168585574E+04  0.00000000000E+00 0. -1.
        -13    1    3    3    0    0 -0.41571488394E+03 -0.38934049674E+03 -0.16027084417E+04  0.17009054166E+04  0.00000000000E+00 0.  1.
         22    1    1    2    0    0  0.69564074242E+03  0.67895471954E+03  0.91041374741E+02  0.97631146957E+03  0.00000000000E+00 0. -1.
<mgrwt>
<rscale>  0 0.27688355E+04</rscale>
<asrwt>0</asrwt>
<pdfrwt beam="1">  1        4 0.47226360E+00 0.27688355E+04</pdfrwt>
<pdfrwt beam="2">  1       -4 0.96055695E-01 0.27688355E+04</pdfrwt>
<totfact> 0.31543767E-03</totfact>
</mgrwt>
</event>
<event>
 6    1  0.1878398E-004  0.1879617E+04  0.7818608E-02  0.8665070E-01
          2   -1    0    0  501    0  0.00000000000E+00  0.00000000000E+00  0.15738686917E+04  0.15738686917E+04  0.00000000000E+00 0.  1.
         -2   -1    0    0    0  501 -0.00000000000E+00 -0.00000000000E+00 -0.56119015842E+03  0.56119015842E+03  0.00000000000E+00 0. -1.
         23    2    1    2    0    0 -0.73738375446E+03  0.23114867855E+03  0.11106286634E+04  0.13561116498E+04  0.91532866989E+02 0.  0.
         13    1    3    3    0    0 -0.26433287274E+03  0.10569358447E+03  0.34306994134E+03  0.44580263129E+03  0.00000000000E+00 0. -1.
        -13    1    3    3    0    0 -0.47305088172E+03  0.12545509408E+03  0.76755872203E+03  0.91030901847E+03  0.00000000000E+00 0.  1.
         22    1    1    2    0    0  0.73738375446E+03 -0.23114867855E+03 -0.97950130108E+02  0.77894720035E+03  0.00000000000E+00 0. -1.
<mgrwt>
<rscale>  0 0.18796166E+04</rscale>
<asrwt>0</asrwt>
<pdfrwt beam="1">  1        2 0.24213364E+00 0.18796166E+04</pdfrwt>
<pdfrwt beam="2">  1       -2 0.86336948E-01 0.18796166E+04</pdfrwt>
<totfact> 0.12581144E+01</totfact>
</mgrwt>
</event>
<event>
 6    1  0.1878398E-004  0.4008990E+04  0.7818608E-02  0.8002736E-01
         -1   -1    0    0    0  501 -0.00000000000E+00  0.00000000000E+00  0.24092473440E+04  0.24092473440E+04  0.00000000000E+00 0. -1.
          1   -1    0    0  501    0  0.00000000000E+00 -0.00000000000E+00 -0.16677404371E+04  0.16677404371E+04  0.00000000000E+00 0.  1.
         23    2    1    2    0    0 -0.17193688107E+04 -0.11829694928E+03  0.14100475866E+04  0.22284289057E+04  0.86243352891E+02 0.  0.
         11    1    3    3    0    0 -0.13536796797E+04 -0.87270038503E+02  0.11537981107E+04  0.17808185801E+04  0.00000000000E+00 0. -1.
        -11    1    3    3    0    0 -0.36568913096E+03 -0.31026910779E+02  0.25624947584E+03  0.44761032558E+03  0.00000000000E+00 0.  1.
         22    1    1    2    0    0  0.17193688107E+04  0.11829694928E+03 -0.66854067966E+03  0.18485588754E+04  0.00000000000E+00 0.  1.
<mgrwt>
<rscale>  0 0.40089895E+04</rscale>
<asrwt>0</asrwt>
<pdfrwt beam="1">  1        1 0.25657545E+00 0.40089895E+04</pdfrwt>
<pdfrwt beam="2">  1       -1 0.37065344E+00 0.40089895E+04</pdfrwt>
<totfact> 0.44333238E-02</totfact>
</mgrwt>
</event>
<event>
 6    1  0.1878398E-004  0.7155182E+03  0.7818608E-02  0.9691056E-01
         -1   -1    0    0    0  501 -0.00000000000E+00  0.00000000000E+00  0.63413116452E+02  0.63413116452E+02  0.00000000000E+00 0. -1.
          1   -1    0    0  501    0  0.00000000000E+00 -0.00000000000E+00 -0.20183768467E+04  0.20183768467E+04  0.00000000000E+00 0.  1.
         23    2    1    2    0    0 -0.20427680744E+03  0.10712978485E+03 -0.17692327113E+04  0.17856450388E+04  0.71679932735E+02 0.  0.
         11    1    3    3    0    0 -0.16870119575E+03  0.10227944646E+03 -0.16284119361E+04  0.16403190580E+04  0.00000000000E+00 0.  1.
        -11    1    3    3    0    0 -0.35575611693E+02  0.48503383927E+01 -0.14082077525E+03  0.14532598072E+03  0.00000000000E+00 0. -1.
         22    1    1    2    0    0  0.20427680744E+03 -0.10712978485E+03 -0.18573101895E+03  0.29614492443E+03  0.00000000000E+00 0.  1.
<mgrwt>
<rscale>  0 0.71551818E+03</rscale>
<asrwt>0</asrwt>
<pdfrwt beam="1">  1        1 0.31051947E+00 0.71551818E+03</pdfrwt>
<pdfrwt beam="2">  1       -1 0.97558655E-02 0.71551818E+03</pdfrwt>
<totfact> 0.19623328E+02</totfact>
</mgrwt>
</event>
<event>
 6    1  0.1878398E-004  0.1817965E+04  0.7818608E-02  0.8696804E-01
          1   -1    0    0  501    0  0.00000000000E+00  0.00000000000E+00  0.74579695030E+03  0.74579695030E+03  0.00000000000E+00 0.  1.
         -1   -1    0    0    0  501 -0.00000000000E+00 -0.00000000000E+00 -0.11078746281E+04  0.11078746281E+04  0.00000000000E+00 0. -1.
         23    2    1    2    0    0  0.60171352294E+03  0.19111849624E+03  0.48238442475E+03  0.79929892799E+03  0.87169947478E+02 0.  0.
         13    1    3    3    0    0  0.29610566622E+03  0.73020074806E+02  0.28118129729E+03  0.41481733189E+03  0.00000000000E+00 0.  1.
        -13    1    3    3    0    0  0.30560785673E+03  0.11809842144E+03  0.20120312745E+03  0.38448159609E+03  0.00000000000E+00 0. -1.
         22    1    1    2    0    0 -0.60171352294E+03 -0.19111849624E+03 -0.84446210250E+03  0.10543726504E+04  0.00000000000E+00 0. -1.
<mgrwt>
<rscale>  0 0.18179654E+04</rscale>
<asrwt>0</asrwt>
<pdfrwt beam="1">  1        1 0.11473799E+00 0.18179654E+04</pdfrwt>
<pdfrwt beam="2">  1       -1 0.17044225E+00 0.18179654E+04</pdfrwt>
<totfact> 0.56852690E+00</totfact>
</mgrwt>
</event>
<event>
 6    1  0.1878398E-004  0.2675798E+04  0.7818608E-02  0.8342901E-01
         -2   -1    0    0    0  501 -0.00000000000E+00  0.00000000000E+00  0.13915399872E+04  0.13915399872E+04  0.00000000000E+00 0. -1.
          2   -1    0    0  501    0  0.00000000000E+00 -0.00000000000E+00 -0.12863258150E+04  0.12863258150E+04  0.00000000000E+00 0.  1.
         23    2    1    2    0    0  0.96472811985E+03  0.92137388358E+03 -0.25690443543E+02  0.13374307246E+04  0.91819200885E+02 0.  0.
         13    1    3    3    0    0  0.41207058478E+03  0.41598875105E+03 -0.53865832853E+02  0.58800538756E+03  0.00000000000E+00 0. -1.
        -13    1    3    3    0    0  0.55265753507E+03  0.50538513253E+03  0.28175389310E+02  0.74942533705E+03  0.00000000000E+00 0.  1.
         22    1    1    2    0    0 -0.96472811985E+03 -0.92137388358E+03  0.13090461575E+03  0.13404350775E+04  0.00000000000E+00 0. -1.
<mgrwt>
<rscale>  0 0.26757981E+04</rscale>
<asrwt>0</asrwt>
<pdfrwt beam="1">  1        2 0.19789628E+00 0.26757981E+04</pdfrwt>
<pdfrwt beam="2">  1       -2 0.21408308E+00 0.26757981E+04</pdfrwt>
<totfact> 0.15956275E+00</totfact>
</mgrwt>
</event>
<event>
 6    1  0.1878398E-004  0.1749408E+04  0.7818608E-02  0.8733676E-01
         -2   -1    0    0    0  501 -0.00000000000E+00  0.00000000000E+00  0.63258062524E+03  0.63258062524E+03  0.00000000000E+00 0. -1.
          2   -1    0    0  501    0  0.00000000000E+00 -0.00000000000E+00 -0.12095010543E+04  0.12095010543E+04  0.00000000000E+00 0.  1.
         23    2    1    2    0    0  0.79413382317E+03  0.25304279423E+02 -0.67037239833E+03  0.10420678633E+04  0.72231873990E+02 0.  0.
         13    1    3    3    0    0  0.61063443554E+03  0.42658278424E+02 -0.54039789566E+03  0.81653170680E+03  0.00000000000E+00 0. -1.
        -13    1    3    3    0    0  0.18349938764E+03 -0.17353999001E+02 -0.12997450268E+03  0.22553615650E+03  0.00000000000E+00 0.  1.
         22    1    1    2    0    0 -0.79413382317E+03 -0.25304279423E+02  0.93451969242E+02  0.80001381627E+03  0.00000000000E+00 0. -1.
<mgrwt>
<rscale>  0 0.17494078E+04</rscale>
<asrwt>0</asrwt>
<pdfrwt beam="1">  1        2 0.18607708E+00 0.17494078E+04</pdfrwt>
<pdfrwt beam="2">  1       -2 0.97320097E-01 0.17494078E+04</pdfrwt>
<totfact> 0.15609040E+01</totfact>
</mgrwt>
</event>
<event>
 6    1  0.2277702E-004  0.3352417E+04  0.7818608E-02  0.8149685E-01
          1   -1    0    0  501    0  0.00000000000E+00  0.00000000000E+00  0.29062219008E+04  0.29062219008E+04  0.00000000000E+00 0.  1.
         -1   -1    0    0    0  501 -0.00000000000E+00 -0.00000000000E+00 -0.96677893636E+03  0.96677893636E+03  0.00000000000E+00 0. -1.
         23    2    1    2    0    0  0.72123985427E+03  0.43016434853E+03 -0.70382184673E+03  0.10995414168E+04  0.91639736401E+02 0.  0.
         11    1    3    3    0    0  0.33989864777E+03  0.25087044257E+03 -0.32666420432E+03  0.53401926191E+03  0.00000000000E+00 0.  1.
        -11    1    3    3    0    0  0.38134120650E+03  0.17929390596E+03 -0.37715764241E+03  0.56552215493E+03  0.00000000000E+00 0. -1.
         22    1    1    2    0    0 -0.72123985427E+03 -0.43016434853E+03  0.26432648112E+04  0.27734594203E+04  0.00000000000E+00 0.  1.
<mgrwt>
<rscale>  0 0.33524165E+04</rscale>
<asrwt>0</asrwt>
<pdfrwt beam="1">  1        1 0.44711106E+00 0.33524165E+04</pdfrwt>
<pdfrwt beam="2">  1       -1 0.14873522E+00 0.33524165E+04</pdfrwt>
<totfact> 0.20601123E-01</totfact>
</mgrwt>
</event>
<event>
 6    1  0.1878398E-004  0.9625095E+03  0.7818608E-02  0.9350647E-01
          3   -1    0    0  501    0  0.00000000000E+00  0.00000000000E+00  0.26910606455E+03  0.26910606455E+03  0.00000000000E+00 0.  1.
         -3   -1    0    0    0  501 -0.00000000000E+00 -0.00000000000E+00 -0.86065006746E+03  0.86065006746E+03  0.00000000000E+00 0. -1.
         23    2    1    2    0    0  0.45347799614E+03 -0.32629452887E+02 -0.12930608834E+03  0.48139599764E+03  0.91186994048E+02 0.  0.
         11    1    3    3    0    0  0.24864684616E+03 -0.62303829754E+02 -0.61573814912E+02  0.26362540847E+03  0.00000000000E+00 0.  1.
        -11    1    3    3    0    0  0.20483114998E+03  0.29674376866E+02 -0.67732273432E+02  0.21777058917E+03  0.00000000000E+00 0. -1.
         22    1    1    2    0    0 -0.45347799614E+03  0.32629452887E+02 -0.46223791457E+03  0.64836013437E+03  0.00000000000E+00 0. -1.
<mgrwt>
<rscale>  0 0.96250954E+03</rscale>
<asrwt>0</asrwt>
<pdfrwt beam="1">  1        3 0.41400933E-01 0.96250954E+03</pdfrwt>
<pdfrwt beam="2">  1       -3 0.13240770E+00 0.96250954E+03</pdfrwt>
<totfact> 0.67434223E+00</totfact>
</mgrwt>
</event>
<event>
 6    1  0.1878398E-004  0.3526300E+04  0.7818608E-02  0.8107585E-01
          2   -1    0    0  501    0  0.00000000000E+00  0.00000000000E+00  0.29827967964E+04  0.29827967964E+04  0.00000000000E+00 0.  1.
         -2   -1    0    0    0  501 -0.00000000000E+00 -0.00000000000E+00 -0.10422088145E+04  0.10422088145E+04  0.00000000000E+00 0. -1.
         23    2    1    2    0    0  0.27052238903E+03  0.15760489038E+04  0.18154233197E+04  0.24210172372E+04  0.91924552598E+02 0.  0.
         11    1    3    3    0    0  0.21223212214E+03  0.10103690723E+04  0.12032554697E+04  0.15854689720E+04  0.00000000000E+00 0.  1.
        -11    1    3    3    0    0  0.58290266891E+02  0.56567983149E+03  0.61216784997E+03  0.83554826522E+03  0.00000000000E+00 0. -1.
         22    1    1    2    0    0 -0.27052238903E+03 -0.15760489038E+04  0.12516466223E+03  0.16039883736E+04  0.00000000000E+00 0.  1.
<mgrwt>
<rscale>  0 0.35262995E+04</rscale>
<asrwt>0</asrwt>
<pdfrwt beam="1">  1        2 0.45889181E+00 0.35262995E+04</pdfrwt>
<pdfrwt beam="2">  1       -2 0.16033982E+00 0.35262995E+04</pdfrwt>
<totfact> 0.36627326E-01</totfact>
</mgrwt>
</event>
<event>
 6    1  0.1878398E-004  0.2837410E+04  0.7818608E-02  0.8291747E-01
          2   -1    0    0  501    0  0.00000000000E+00  0.00000000000E+00  0.14801574823E+04  0.14801574823E+04  0.00000000000E+00 0. -1.
         -2   -1    0    0    0  501 -0.00000000000E+00 -0.00000000000E+00 -0.13598038025E+04  0.13598038025E+04  0.00000000000E+00 0.  1.
         23    2    1    2    0    0  0.11985349402E+04  0.25022822153E+03 -0.65414076092E+03  0.13911887684E+04  0.91683632243E+02 0.  0.
         13    1    3    3    0    0  0.60751405295E+03  0.10734482638E+03 -0.37665761761E+03  0.72281892421E+03  0.00000000000E+00 0. -1.
        -13    1    3    3    0    0  0.59102088725E+03  0.14288339515E+03 -0.27748314331E+03  0.66836984417E+03  0.00000000000E+00 0.  1.
         22    1    1    2    0    0 -0.11985349402E+04 -0.25022822153E+03  0.77449444070E+03  0.14487725164E+04  0.00000000000E+00 0. -1.
<mgrwt>
<rscale>  0 0.28374099E+04</rscale>
<asrwt>0</asrwt>
<pdfrwt beam="1">  1        2 0.22771654E+00 0.28374099E+04</pdfrwt>
<pdfrwt beam="2">  1       -2 0.20920058E+00 0.28374099E+04</pdfrwt>
<totfact> 0.13095340E+00</totfact>
</mgrwt>
</event>
<event>
 6    1  0.1878398E-004  0.1426007E+04  0.7818608E-02  0.8935205E-01
          2   -1    0    0  501    0  0.00000000000E+00  0.00000000000E+00  0.86302310668E+03  0.86302310668E+03  0.00000000000E+00 0.  1.
         -2   -1    0    0    0  501 -0.00000000000E+00 -0.00000000000E+00 -0.58906208130E+03  0.58906208130E+03  0.00000000000E+00 0. -1.
         23    2    1    2    0    0  0.30692837598E+03 -0.19346548234E+03 -0.48423173676E+03  0.61155548274E+03  0.88802098814E+02 0.  0.
         13    1    3    3    0    0 -0.26092084689E+01 -0.14517783213E+02 -0.30509026769E+02  0.33887677888E+02  0.00000000000E+00 0.  1.
        -13    1    3    3    0    0  0.30953758445E+03 -0.17894769913E+03 -0.45372270999E+03  0.57766780486E+03  0.00000000000E+00 0. -1.
         22    1    1    2    0    0 -0.30692837598E+03  0.19346548234E+03  0.75819276213E+03  0.84052970524E+03  0.00000000000E+00 0.  1.
<mgrwt>
<rscale>  0 0.14260073E+04</rscale>
<asrwt>0</asrwt>
<pdfrwt beam="1">  1        2 0.13277279E+00 0.14260073E+04</pdfrwt>
<pdfrwt beam="2">  1       -2 0.90624935E-01 0.14260073E+04</pdfrwt>
<totfact> 0.31415132E+01</totfact>
</mgrwt>
</event>
<event>
 6    1  0.1878398E-004  0.5400565E+04  0.7818608E-02  0.7769522E-01
         -1   -1    0    0    0  501 -0.00000000000E+00  0.00000000000E+00  0.27916042043E+04  0.27916042043E+04  0.00000000000E+00 0. -1.
          1   -1    0    0  501    0  0.00000000000E+00 -0.00000000000E+00 -0.26119485407E+04  0.26119485407E+04  0.00000000000E+00 0.  1.
         23    2    1    2    0    0  0.15176736752E+04  0.51550178212E+03 -0.20834993929E+04  0.26302972066E+04  0.91750766990E+02 0.  0.
         13    1    3    3    0    0  0.84730047921E+03  0.25598454698E+03 -0.12056883511E+04  0.14957040450E+04  0.00000000000E+00 0. -1.
        -13    1    3    3    0    0  0.67037319598E+03  0.25951723515E+03 -0.87781104182E+03  0.11345931616E+04  0.00000000000E+00 0.  1.
         22    1    1    2    0    0 -0.15176736752E+04 -0.51550178212E+03  0.22631550565E+04  0.27732555384E+04  0.00000000000E+00 0. -1.
<mgrwt>
<rscale>  0 0.54005654E+04</rscale>
<asrwt>0</asrwt>
<pdfrwt beam="1">  1        1 0.40183824E+00 0.54005654E+04</pdfrwt>
<pdfrwt beam="2">  1       -1 0.42947757E+00 0.54005654E+04</pdfrwt>
<totfact> 0.35577671E-03</totfact>
</mgrwt>
</event>
<event>
 6    1  0.1878398E-004  0.1286535E+04  0.7818608E-02  0.9040312E-01
          1   -1    0    0  501    0  0.00000000000E+00  0.00000000000E+00  0.14127043190E+04  0.14127043190E+04  0.00000000000E+00 0.  1.
         -1   -1    0    0    0  501 -0.00000000000E+00 -0.00000000000E+00 -0.29290834699E+03  0.29290834699E+03  0.00000000000E+00 0. -1.
         23    2    1    2    0    0  0.20716384029E+03  0.37403260665E+03 -0.68842734766E+02  0.44241069371E+03  0.90391660103E+02 0.  0.
         11    1    3    3    0    0  0.70921346016E+02  0.22088581750E+03 -0.33160106966E+02  0.23435011071E+03  0.00000000000E+00 0. -1.
        -11    1    3    3    0    0  0.13624249427E+03  0.15314678915E+03 -0.35682627800E+02  0.20806058300E+03  0.00000000000E+00 0.  1.
         22    1    1    2    0    0 -0.20716384029E+03 -0.37403260665E+03  0.11886387068E+04  0.12632019723E+04  0.00000000000E+00 0.  1.
<mgrwt>
<rscale>  0 0.12865347E+04</rscale>
<asrwt>0</asrwt>
<pdfrwt beam="1">  1        1 0.21733912E+00 0.12865347E+04</pdfrwt>
<pdfrwt beam="2">  1       -1 0.45062823E-01 0.12865347E+04</pdfrwt>
<totfact> 0.36150337E+01</totfact>
</mgrwt>
</event>
<event>
 6    1  0.1878398E-004  0.5080437E+04  0.7818608E-02  0.7816218E-01
          1   -1    0    0  501    0  0.00000000000E+00  0.00000000000E+00  0.23341637166E+04  0.23341637166E+04  0.00000000000E+00 0. -1.
         -1   -1    0    0    0  501 -0.00000000000E+00 -0.00000000000E+00 -0.27644628323E+04  0.27644628323E+04  0.00000000000E+00 0.  1.
         23    2    1    2    0    0 -0.11322651645E+04 -0.18315411919E+04  0.11356985600E+04  0.24361246689E+04  0.91239480349E+02 0.  0.
         13    1    3    3    0    0 -0.68369526422E+03 -0.10954129385E+04  0.63069912606E+03  0.14370630145E+04  0.00000000000E+00 0.  1.
        -13    1    3    3    0    0 -0.44856990025E+03 -0.73612825345E+03  0.50499943394E+03  0.99906165437E+03  0.00000000000E+00 0. -1.
         22    1    1    2    0    0  0.11322651645E+04  0.18315411919E+04 -0.15659976758E+04  0.26625018800E+04  0.00000000000E+00 0. -1.
<mgrwt>
<rscale>  0 0.50804365E+04</rscale>
<asrwt>0</asrwt>
<pdfrwt beam="1">  1        1 0.35910211E+00 0.50804365E+04</pdfrwt>
<pdfrwt beam="2">  1       -1 0.42530197E+00 0.50804365E+04</pdfrwt>
<totfact> 0.60702667E-03</totfact>
</mgrwt>
</event>
<event>
 6    1  0.1878398E-004  0.2093124E+04  0.7818608E-02  0.8564278E-01
         -2   -1    0    0    0  501 -0.00000000000E+00  0.00000000000E+00  0.36937556781E+03  0.36937556781E+03  0.00000000000E+00 0. -1.
          2   -1    0    0  501    0  0.00000000000E+00 -0.00000000000E+00 -0.29652527454E+04  0.29652527454E+04  0.00000000000E+00 0.  1.
         23    2    1    2    0    0 -0.46566737281E+03  0.34134570639E+03 -0.26871139984E+04  0.27500881941E+04  0.95081235474E+02 0.  0.
         13    1    3    3    0    0 -0.32385564055E+03  0.18330071382E+03 -0.16462646167E+04  0.16877999928E+04  0.00000000000E+00 0. -1.
        -13    1    3    3    0    0 -0.14181173226E+03  0.15804499258E+03 -0.10408493817E+04  0.10622882013E+04  0.00000000000E+00 0.  1.
         22    1    1    2    0    0  0.46566737281E+03 -0.34134570639E+03  0.91236820857E+02  0.58454011911E+03  0.00000000000E+00 0. -1.
<mgrwt>
<rscale>  0 0.20931239E+04</rscale>
<asrwt>0</asrwt>
<pdfrwt beam="1">  1        2 0.45619271E+00 0.20931239E+04</pdfrwt>
<pdfrwt beam="2">  1       -2 0.56827013E-01 0.20931239E+04</pdfrwt>
<totfact> 0.49094773E+00</totfact>
</mgrwt>
</event>
<event>
 6    1  0.1878398E-004  0.2487254E+04  0.7818608E-02  0.8407541E-01
          2   -1    0    0  501    0  0.00000000000E+00  0.00000000000E+00  0.20824667181E+04  0.20824667181E+04  0.00000000000E+00 0.  1.
         -2   -1    0    0    0  501 -0.00000000000E+00 -0.00000000000E+00 -0.74268076583E+03  0.74268076583E+03  0.00000000000E+00 0. -1.
         23    2    1    2    0    0  0.12001278539E+04 -0.22676074375E+03  0.92622862752E+03  0.15356681466E+04  0.93004759799E+02 0.  0.
         13    1    3    3    0    0  0.57734828551E+03 -0.63213380633E+02  0.42526009512E+03  0.71984242913E+03  0.00000000000E+00 0.  1.
        -13    1    3    3    0    0  0.62277956838E+03 -0.16354736312E+03  0.50096853240E+03  0.81582571744E+03  0.00000000000E+00 0. -1.
         22    1    1    2    0    0 -0.12001278539E+04  0.22676074375E+03  0.41355732473E+03  0.12894793373E+04  0.00000000000E+00 0. -1.
<mgrwt>
<rscale>  0 0.24872539E+04</rscale>
<asrwt>0</asrwt>
<pdfrwt beam="1">  1        2 0.32037949E+00 0.24872539E+04</pdfrwt>
<pdfrwt beam="2">  1       -2 0.11425858E+00 0.24872539E+04</pdfrwt>
<totfact> 0.32141298E+00</totfact>
</mgrwt>
</event>
<event>
 6    1  0.1878398E-004  0.9056838E+03  0.7818608E-02  0.9418504E-01
          2   -1    0    0  501    0  0.00000000000E+00  0.00000000000E+00  0.19976387133E+04  0.19976387133E+04  0.00000000000E+00 0.  1.
         -2   -1    0    0    0  501 -0.00000000000E+00 -0.00000000000E+00 -0.10265408324E+03  0.10265408324E+03  0.00000000000E+00 0. -1.
         23    2    1    2    0    0 -0.41091140670E+03  0.36401590290E+01  0.13733460585E+04  0.14362384055E+04  0.88543357643E+02 0.  0.
         13    1    3    3    0    0 -0.18687280275E+02  0.14663072675E+01  0.15942951417E+03  0.16052767515E+03  0.00000000000E+00 0.  1.
        -13    1    3    3    0    0 -0.39222412643E+03  0.21738517615E+01  0.12139165443E+04  0.12757107303E+04  0.00000000000E+00 0. -1.
         22    1    1    2    0    0  0.41091140670E+03 -0.36401590290E+01  0.52163857162E+03  0.66405439108E+03  0.00000000000E+00 0. -1.
<mgrwt>
<rscale>  0 0.90568377E+03</rscale>
<asrwt>0</asrwt>
<pdfrwt beam="1">  1        2 0.30732900E+00 0.90568377E+03</pdfrwt>
<pdfrwt beam="2">  1       -2 0.15792937E-01 0.90568377E+03</pdfrwt>
<totfact> 0.21753887E+02</totfact>
</mgrwt>
</event>
<event>
 6    1  0.1878398E-004  0.1337196E+04  0.7818608E-02  0.9000577E-01
          2   -1    0    0  501    0  0.00000000000E+00  0.00000000000E+00  0.22194507824E+04  0.22194507824E+04  0.00000000000E+00 0.  1.
         -2   -1    0    0    0  501 -0.00000000000E+00 -0.00000000000E+00 -0.20141180185E+03  0.20141180185E+03  0.00000000000E+00 0. -1.
         23    2    1    2    0    0 -0.33186694261E+03 -0.51272574299E+02  0.20537832084E+04  0.20831612453E+04  0.93652349713E+02 0.  0.
         13    1    3    3    0    0 -0.58344001098E+02  0.87777064391E+00  0.19200916801E+03  0.20067962912E+03  0.00000000000E+00 0.  1.
        -13    1    3    3    0    0 -0.27352294151E+03 -0.52150344943E+02  0.18617740404E+04  0.18824816162E+04  0.00000000000E+00 0. -1.
         22    1    1    2    0    0  0.33186694261E+03  0.51272574299E+02 -0.35744227834E+02  0.33770133890E+03  0.00000000000E+00 0. -1.
<mgrwt>
<rscale>  0 0.13371964E+04</rscale>
<asrwt>0</asrwt>
<pdfrwt beam="1">  1        2 0.34145395E+00 0.13371964E+04</pdfrwt>
<pdfrwt beam="2">  1       -2 0.30986433E-01 0.13371964E+04</pdfrwt>
<totfact> 0.47606741E+01</totfact>
</mgrwt>
</event>
<event>
 6    1  0.1878398E-004  0.6960689E+03  0.7818608E-02  0.9723979E-01
          1   -1    0    0  501    0  0.00000000000E+00  0.00000000000E+00  0.11371939365E+04  0.11371939365E+04  0.00000000000E+00 0. -1.
         -1   -1    0    0    0  501 -0.00000000000E+00 -0.00000000000E+00 -0.10651479251E+03  0.10651479251E+03  0.00000000000E+00 0.  1.
         23    2    1    2    0    0  0.24206659560E+03  0.17860178946E+03  0.23327233170E+03  0.39144558878E+03  0.91207633106E+02 0.  0.
         11    1    3    3    0    0  0.19689199540E+03  0.17603082933E+03  0.22148770706E+03  0.34468843193E+03  0.00000000000E+00 0. -1.
        -11    1    3    3    0    0  0.45174600199E+02  0.25709601337E+01  0.11784624639E+02  0.46757156854E+02  0.00000000000E+00 0.  1.
         22    1    1    2    0    0 -0.24206659560E+03 -0.17860178946E+03  0.79740681226E+03  0.85226314020E+03  0.00000000000E+00 0. -1.
<mgrwt>
<rscale>  0 0.69606889E+03</rscale>
<asrwt>0</asrwt>
<pdfrwt beam="1">  1        1 0.17495291E+00 0.69606889E+03</pdfrwt>
<pdfrwt beam="2">  1       -1 0.16386892E-01 0.69606889E+03</pdfrwt>
<totfact> 0.34337590E+02</totfact>
</mgrwt>
</event>
<event>
 6    1  0.1878398E-004  0.1104490E+04  0.7818608E-02  0.9200827E-01
          2   -1    0    0  501    0  0.00000000000E+00  0.00000000000E+00  0.10906846525E+04  0.10906846525E+04  0.00000000000E+00 0.  1.
         -2   -1    0    0    0  501 -0.00000000000E+00 -0.00000000000E+00 -0.27961750224E+03  0.27961750224E+03  0.00000000000E+00 0. -1.
         23    2    1    2    0    0  0.38179524289E+03  0.21437728952E+03 -0.34083215748E+01  0.44558840230E+03  0.82535918543E+02 0.  0.
         13    1    3    3    0    0  0.27714367897E+03  0.12611274873E+03  0.25883413535E+02  0.30558631396E+03  0.00000000000E+00 0. -1.
        -13    1    3    3    0    0  0.10465156392E+03  0.88264540795E+02 -0.29291735110E+02  0.14000208834E+03  0.00000000000E+00 0.  1.
         22    1    1    2    0    0 -0.38179524289E+03 -0.21437728952E+03  0.81447547188E+03  0.92471375249E+03  0.00000000000E+00 0.  1.
<mgrwt>
<rscale>  0 0.11044900E+04</rscale>
<asrwt>0</asrwt>
<pdfrwt beam="1">  1        2 0.16779764E+00 0.11044900E+04</pdfrwt>
<pdfrwt beam="2">  1       -2 0.43018078E-01 0.11044900E+04</pdfrwt>
<totfact> 0.11220625E+02</totfact>
</mgrwt>
</event>
<event>
 6    1  0.1878398E-004  0.1071406E+04  0.7818608E-02  0.9233518E-01
          1   -1    0    0  501    0  0.00000000000E+00  0.00000000000E+00  0.75726298309E+03  0.75726298309E+03  0.00000000000E+00 0.  1.
         -1   -1    0    0    0  501 -0.00000000000E+00 -0.00000000000E+00 -0.37896706390E+03  0.37896706390E+03  0.00000000000E+00 0. -1.
         23    2    1    2    0    0 -0.25131725525E+02 -0.46473203391E+03 -0.82460977231E+02  0.48132212631E+03  0.90904947852E+02 0.  0.
         13    1    3    3    0    0  0.10445823761E+02 -0.27082283131E+01 -0.11720954629E+01  0.10854655334E+02  0.00000000000E+00 0. -1.
        -13    1    3    3    0    0 -0.35577549286E+02 -0.46202380559E+03 -0.81288881768E+02  0.47046747098E+03  0.00000000000E+00 0.  1.
         22    1    1    2    0    0  0.25131725525E+02  0.46473203391E+03  0.46075689642E+03  0.65490792068E+03  0.00000000000E+00 0.  1.
<mgrwt>
<rscale>  0 0.10714060E+04</rscale>
<asrwt>0</asrwt>
<pdfrwt beam="1">  1        1 0.11650200E+00 0.10714060E+04</pdfrwt>
<pdfrwt beam="2">  1       -1 0.58302625E-01 0.10714060E+04</pdfrwt>
<totfact> 0.71795951E+01</totfact>
</mgrwt>
</event>
<event>
 6    1  0.1878398E-004  0.1049038E+04  0.7818608E-02  0.9256338E-01
          2   -1    0    0  501    0  0.00000000000E+00  0.00000000000E+00  0.32933946470E+04  0.32933946470E+04  0.00000000000E+00 0.  1.
         -2   -1    0    0    0  501 -0.00000000000E+00 -0.00000000000E+00 -0.83537004416E+02  0.83537004416E+02  0.00000000000E+00 0. -1.
         23    2    1    2    0    0  0.17325475680E+03  0.59382618255E+02  0.31856839451E+04  0.31921943412E+04  0.89325295398E+02 0.  0.
         13    1    3    3    0    0  0.13632917373E+03  0.30161933351E+01  0.21548705945E+04  0.21591808678E+04  0.00000000000E+00 0. -1.
        -13    1    3    3    0    0  0.36925583067E+02  0.56366424920E+02  0.10308133506E+04  0.10330134734E+04  0.00000000000E+00 0.  1.
         22    1    1    2    0    0 -0.17325475680E+03 -0.59382618255E+02  0.24173697487E+02  0.18473731013E+03  0.00000000000E+00 0. -1.
<mgrwt>
<rscale>  0 0.10490383E+04</rscale>
<asrwt>0</asrwt>
<pdfrwt beam="1">  1        2 0.50667600E+00 0.10490383E+04</pdfrwt>
<pdfrwt beam="2">  1       -2 0.12851849E-01 0.10490383E+04</pdfrwt>
<totfact> 0.52522536E+01</totfact>
</mgrwt>
</event>
<event>
 6    1  0.1878398E-004  0.9750760E+03  0.7818608E-02  0.9336311E-01
         -2   -1    0    0    0  501 -0.00000000000E+00  0.00000000000E+00  0.63397556084E+03  0.63397556084E+03  0.00000000000E+00 0. -1.
          2   -1    0    0  501    0  0.00000000000E+00 -0.00000000000E+00 -0.37492499132E+03  0.37492499132E+03  0.00000000000E+00 0.  1.
         23    2    1    2    0    0 -0.28394763568E+03  0.38662780267E+02 -0.27176755870E+03  0.40566846115E+03  0.92672671386E+02 0.  0.
         11    1    3    3    0    0 -0.18525941040E+03 -0.20014002043E+02 -0.17084385384E+03  0.25280275279E+03  0.00000000000E+00 0.  1.
        -11    1    3    3    0    0 -0.98688225279E+02  0.58676782310E+02 -0.10092370485E+03  0.15286570836E+03  0.00000000000E+00 0. -1.
         22    1    1    2    0    0  0.28394763568E+03 -0.38662780267E+02  0.53081812821E+03  0.60323209101E+03  0.00000000000E+00 0. -1.
<mgrwt>
<rscale>  0 0.97507596E+03</rscale>
<asrwt>0</asrwt>
<pdfrwt beam="1">  1        2 0.57680768E-01 0.97507596E+03</pdfrwt>
<pdfrwt beam="2">  1       -2 0.97534702E-01 0.97507596E+03</pdfrwt>
<totfact> 0.74944491E+01</totfact>
</mgrwt>
</event>
<event>
 6    1  0.1878398E-004  0.3835758E+04  0.7818608E-02  0.8038525E-01
         -1   -1    0    0    0  501 -0.00000000000E+00  0.00000000000E+00  0.13605133313E+04  0.13605133313E+04  0.00000000000E+00 0. -1.
          1   -1    0    0  501    0  0.00000000000E+00 -0.00000000000E+00 -0.27035823768E+04  0.27035823768E+04  0.00000000000E+00 0.  1.
         23    2    1    2    0    0  0.37440445339E+03 -0.15552806135E+03 -0.26568699229E+04  0.26891628306E+04  0.90946520454E+02 0.  0.
         13    1    3    3    0    0  0.21859806479E+03 -0.88357264510E+02 -0.12445022633E+04  0.12666404397E+04  0.00000000000E+00 0. -1.
        -13    1    3    3    0    0  0.15580638860E+03 -0.67170796844E+02 -0.14123676596E+04  0.14225223909E+04  0.00000000000E+00 0.  1.
         22    1    1    2    0    0 -0.37440445339E+03  0.15552806135E+03  0.13138008773E+04  0.13749328776E+04  0.00000000000E+00 0. -1.
<mgrwt>
<rscale>  0 0.38357580E+04</rscale>
<asrwt>0</asrwt>
<pdfrwt beam="1">  1        1 0.41593575E+00 0.38357580E+04</pdfrwt>
<pdfrwt beam="2">  1       -1 0.20930974E+00 0.38357580E+04</pdfrwt>
<totfact> 0.10056637E-01</totfact>
</mgrwt>
</event>
<event>
 6    1  0.1878398E-004  0.4841097E+04  0.7818608E-02  0.7853498E-01
          2   -1    0    0  501    0  0.00000000000E+00  0.00000000000E+00  0.34114719678E+04  0.34114719678E+04  0.00000000000E+00 0.  1.
         -2   -1    0    0    0  501 -0.00000000000E+00 -0.00000000000E+00 -0.17174565462E+04  0.17174565462E+04  0.00000000000E+00 0. -1.
         23    2    1    2    0    0 -0.19841314664E+04 -0.15433840283E+03  0.23054292090E+04  0.30470003601E+04  0.92786520770E+02 0.  0.
         11    1    3    3    0    0 -0.19111443182E+04 -0.16600390811E+03  0.22165439080E+04  0.29313984374E+04  0.00000000000E+00 0. -1.
        -11    1    3    3    0    0 -0.72987148235E+02  0.11665505275E+02  0.88885300966E+02  0.11560192277E+03  0.00000000000E+00 0.  1.
         22    1    1    2    0    0  0.19841314664E+04  0.15433840283E+03 -0.61141378741E+03  0.20819281539E+04  0.00000000000E+00 0.  1.
<mgrwt>
<rscale>  0 0.48410969E+04</rscale>
<asrwt>0</asrwt>
<pdfrwt beam="1">  1        2 0.52484184E+00 0.48410969E+04</pdfrwt>
<pdfrwt beam="2">  1       -2 0.26422409E+00 0.48410969E+04</pdfrwt>
<totfact> 0.36230999E-02</totfact>
</mgrwt>
</event>
<event>
 6    1  0.1878398E-004  0.1695130E+04  0.7818608E-02  0.8764147E-01
         -2   -1    0    0    0  501 -0.00000000000E+00  0.00000000000E+00  0.65760537691E+03  0.65760537691E+03  0.00000000000E+00 0. -1.
          2   -1    0    0  501    0  0.00000000000E+00 -0.00000000000E+00 -0.10923975513E+04  0.10923975513E+04  0.00000000000E+00 0.  1.
         23    2    1    2    0    0  0.31241024991E+03 -0.54430795275E+03 -0.80258716194E+03  0.10225797607E+04  0.87475155447E+02 0.  0.
         13    1    3    3    0    0  0.50080019413E+02 -0.13958739445E+03 -0.23341689426E+03  0.27654311700E+03  0.00000000000E+00 0.  1.
        -13    1    3    3    0    0  0.26233023050E+03 -0.40472055830E+03 -0.56917026768E+03  0.74603664371E+03  0.00000000000E+00 0. -1.
         22    1    1    2    0    0 -0.31241024991E+03  0.54430795275E+03  0.36779498758E+03  0.72742316747E+03  0.00000000000E+00 0. -1.
<mgrwt>
<rscale>  0 0.16951301E+04</rscale>
<asrwt>0</asrwt>
<pdfrwt beam="1">  1        2 0.16806116E+00 0.16951301E+04</pdfrwt>
<pdfrwt beam="2">  1       -2 0.10117006E+00 0.16951301E+04</pdfrwt>
<totfact> 0.16846986E+01</totfact>
</mgrwt>
</event>
<event>
 6    1  0.1878398E-004  0.5450541E+04  0.7818608E-02  0.7762532E-01
          2   -1    0    0  501    0  0.00000000000E+00  0.00000000000E+00  0.31400570470E+04  0.31400570470E+04  0.00000000000E+00 0.  1.
         -2   -1    0    0    0  501 -0.00000000000E+00 -0.00000000000E+00 -0.23652754740E+04  0.23652754740E+04  0.00000000000E+00 0. -1.
         23    2    1    2    0    0  0.26782047541E+04  0.49948619457E+03  0.35706295251E+03  0.27491111928E+04  0.88607194384E+02 0.  0.
         13    1    3    3    0    0  0.16956092409E+04  0.28619551189E+03  0.25647663328E+03  0.17386140550E+04  0.00000000000E+00 0. -1.
        -13    1    3    3    0    0  0.98259551327E+03  0.21329068268E+03  0.10058631923E+03  0.10104971379E+04  0.00000000000E+00 0.  1.
         22    1    1    2    0    0 -0.26782047541E+04 -0.49948619457E+03  0.41771862052E+03  0.27562213281E+04  0.00000000000E+00 0.  1.
<mgrwt>
<rscale>  0 0.54505412E+04</rscale>
<asrwt>0</asrwt>
<pdfrwt beam="1">  1        2 0.48308570E+00 0.54505412E+04</pdfrwt>
<pdfrwt beam="2">  1       -2 0.36388853E+00 0.54505412E+04</pdfrwt>
<totfact> 0.12650011E-02</totfact>
</mgrwt>
</event>
<event>
 6    1  0.1878398E-004  0.3466603E+04  0.7818608E-02  0.8121751E-01
          2   -1    0    0  501    0  0.00000000000E+00  0.00000000000E+00  0.21676988087E+04  0.21676988087E+04  0.00000000000E+00 0.  1.
         -2   -1    0    0    0  501 -0.00000000000E+00 -0.00000000000E+00 -0.13859552568E+04  0.13859552568E+04  0.00000000000E+00 0. -1.
         23    2    1    2    0    0 -0.53490488785E+02  0.15284422868E+04 -0.44243062589E+03  0.15946748736E+04  0.90807694568E+02 0.  0.
         13    1    3    3    0    0 -0.69164688244E+02  0.14328896640E+04 -0.42589478803E+03  0.14964434215E+04  0.00000000000E+00 0. -1.
        -13    1    3    3    0    0  0.15674199459E+02  0.95552622768E+02 -0.16535837856E+02  0.98231452092E+02  0.00000000000E+00 0.  1.
         22    1    1    2    0    0  0.53490488785E+02 -0.15284422868E+04  0.12241741779E+04  0.19589791919E+04  0.00000000000E+00 0.  1.
<mgrwt>
<rscale>  0 0.34666027E+04</rscale>
<asrwt>0</asrwt>
<pdfrwt beam="1">  1        2 0.33349213E+00 0.34666027E+04</pdfrwt>
<pdfrwt beam="2">  1       -2 0.21322388E+00 0.34666027E+04</pdfrwt>
<totfact> 0.48435686E-01</totfact>
</mgrwt>
</event>
<event>
 6    1  0.1878398E-004  0.3376846E+04  0.7818608E-02  0.8143613E-01
         -1   -1    0    0    0  501 -0.00000000000E+00  0.00000000000E+00  0.11995644399E+04  0.11995644399E+04  0.00000000000E+00 0. -1.
          1   -1    0    0  501    0  0.00000000000E+00 -0.00000000000E+00 -0.23765058979E+04  0.23765058979E+04  0.00000000000E+00 0.  1.
         23    2    1    2    0    0 -0.30030560839E+03  0.23159957983E+03 -0.23299773159E+04  0.23622690717E+04  0.87744236491E+02 0.  0.
         13    1    3    3    0    0 -0.23754387189E+03  0.22316717000E+03 -0.19493070072E+04  0.19763674975E+04  0.00000000000E+00 0. -1.
        -13    1    3    3    0    0 -0.62761736503E+02  0.84324098360E+01 -0.38067030864E+03  0.38590157422E+03  0.00000000000E+00 0.  1.
         22    1    1    2    0    0  0.30030560839E+03 -0.23159957983E+03  0.11530358579E+04  0.12138012660E+04  0.00000000000E+00 0. -1.
<mgrwt>
<rscale>  0 0.33768458E+04</rscale>
<asrwt>0</asrwt>
<pdfrwt beam="1">  1        1 0.36561629E+00 0.33768458E+04</pdfrwt>
<pdfrwt beam="2">  1       -1 0.18454838E+00 0.33768458E+04</pdfrwt>
<totfact> 0.26243805E-01</totfact>
</mgrwt>
</event>
<event>
 6    1  0.1878398E-004  0.2674447E+04  0.7818608E-02  0.8343344E-01
          2   -1    0    0  501    0  0.00000000000E+00  0.00000000000E+00  0.12885306539E+04  0.12885306539E+04  0.00000000000E+00 0.  1.
         -2   -1    0    0    0  501 -0.00000000000E+00 -0.00000000000E+00 -0.13877566163E+04  0.13877566163E+04  0.00000000000E+00 0. -1.
         23    2    1    2    0    0  0.28959347107E+03  0.13031076143E+04 -0.92882296575E+02  0.13413737617E+04  0.93287805434E+02 0.  0.
         11    1    3    3    0    0  0.23152028399E+03  0.85781850425E+03 -0.43008260299E+02  0.88955266206E+03  0.00000000000E+00 0. -1.
        -11    1    3    3    0    0  0.58073187087E+02  0.44528911007E+03 -0.49874036276E+02  0.45182109967E+03  0.00000000000E+00 0.  1.
         22    1    1    2    0    0 -0.28959347107E+03 -0.13031076143E+04 -0.63436657911E+01  0.13349135085E+04  0.00000000000E+00 0.  1.
<mgrwt>
<rscale>  0 0.26744472E+04</rscale>
<asrwt>0</asrwt>
<pdfrwt beam="1">  1        2 0.19823548E+00 0.26744472E+04</pdfrwt>
<pdfrwt beam="2">  1       -2 0.21350102E+00 0.26744472E+04</pdfrwt>
<totfact> 0.16047904E+00</totfact>
</mgrwt>
</event>
<event>
 6    1  0.1878398E-004  0.3357841E+04  0.7818608E-02  0.8148332E-01
         -2   -1    0    0    0  501 -0.00000000000E+00  0.00000000000E+00  0.15876514943E+04  0.15876514943E+04  0.00000000000E+00 0. -1.
          2   -1    0    0  501    0  0.00000000000E+00 -0.00000000000E+00 -0.17754358784E+04  0.17754358784E+04  0.00000000000E+00 0.  1.
         23    2    1    2    0    0  0.11795734744E+04 -0.14992263833E+03 -0.12780697495E+04  0.17498321056E+04  0.12074656903E+03 0.  0.
         13    1    3    3    0    0  0.10036477323E+04 -0.16326112587E+03 -0.10525332139E+04  0.14634852689E+04  0.00000000000E+00 0. -1.
        -13    1    3    3    0    0  0.17592574210E+03  0.13338487548E+02 -0.22553653556E+03  0.28634683665E+03  0.00000000000E+00 0.  1.
         22    1    1    2    0    0 -0.11795734744E+04  0.14992263833E+03  0.10902853654E+04  0.16132552672E+04  0.00000000000E+00 0. -1.
<mgrwt>
<rscale>  0 0.33578406E+04</rscale>
<asrwt>0</asrwt>
<pdfrwt beam="1">  1        2 0.27314398E+00 0.33578406E+04</pdfrwt>
<pdfrwt beam="2">  1       -2 0.24425408E+00 0.33578406E+04</pdfrwt>
<totfact> 0.51610026E-01</totfact>
</mgrwt>
</event>
<event>
 6    1  0.1878398E-004  0.3796209E+04  0.7818608E-02  0.8046969E-01
          2   -1    0    0  501    0  0.00000000000E+00  0.00000000000E+00  0.18243356793E+04  0.18243356793E+04  0.00000000000E+00 0.  1.
         -2   -1    0    0    0  501 -0.00000000000E+00 -0.00000000000E+00 -0.19748564743E+04  0.19748564743E+04  0.00000000000E+00 0. -1.
         23    2    1    2    0    0  0.10212177664E+04  0.24805084653E+03 -0.16558425140E+04  0.19633249398E+04  0.91735702399E+02 0.  0.
         11    1    3    3    0    0  0.66084783050E+03  0.14525854730E+03 -0.98705370660E+03  0.11967016839E+04  0.00000000000E+00 0. -1.
        -11    1    3    3    0    0  0.36036993594E+03  0.10279229923E+03 -0.66878880738E+03  0.76662325583E+03  0.00000000000E+00 0.  1.
         22    1    1    2    0    0 -0.10212177664E+04 -0.24805084653E+03  0.15053217190E+04  0.18358672138E+04  0.00000000000E+00 0.  1.
<mgrwt>
<rscale>  0 0.37962092E+04</rscale>
<asrwt>0</asrwt>
<pdfrwt beam="1">  1        2 0.28066703E+00 0.37962092E+04</pdfrwt>
<pdfrwt beam="2">  1       -2 0.30382408E+00 0.37962092E+04</pdfrwt>
<totfact> 0.20202216E-01</totfact>
</mgrwt>
</event>
<event>
 6    1  0.1878398E-004  0.1747231E+04  0.7818608E-02  0.8734876E-01
         -2   -1    0    0    0  501 -0.00000000000E+00  0.00000000000E+00  0.17842977769E+04  0.17842977769E+04  0.00000000000E+00 0. -1.
          2   -1    0    0  501    0  0.00000000000E+00 -0.00000000000E+00 -0.42773340775E+03  0.42773340775E+03  0.00000000000E+00 0.  1.
         23    2    1    2    0    0  0.22829560302E+03 -0.83006242892E+03  0.50966833387E+03  0.10044073140E+04  0.89161223076E+02 0.  0.
         13    1    3    3    0    0  0.18356208053E+03 -0.58194316683E+03  0.32083281312E+03  0.68941031382E+03  0.00000000000E+00 0. -1.
        -13    1    3    3    0    0  0.44733522485E+02 -0.24811926209E+03  0.18883552075E+03  0.31499700023E+03  0.00000000000E+00 0.  1.
         22    1    1    2    0    0 -0.22829560302E+03  0.83006242892E+03  0.84689603528E+03  0.12076238706E+04  0.00000000000E+00 0.  1.
<mgrwt>
<rscale>  0 0.17472307E+04</rscale>
<asrwt>0</asrwt>
<pdfrwt beam="1">  1        2 0.65805141E-01 0.17472307E+04</pdfrwt>
<pdfrwt beam="2">  1       -2 0.27450735E+00 0.17472307E+04</pdfrwt>
<totfact> 0.31811079E+00</totfact>
</mgrwt>
</event>
<event>
 6    1  0.1878398E-004  0.3148043E+04  0.7818608E-02  0.8202675E-01
          2   -1    0    0  501    0  0.00000000000E+00  0.00000000000E+00  0.34639265640E+04  0.34639265640E+04  0.00000000000E+00 0.  1.
         -2   -1    0    0    0  501 -0.00000000000E+00 -0.00000000000E+00 -0.71524145870E+03  0.71524145870E+03  0.00000000000E+00 0. -1.
         23    2    1    2    0    0  0.85441738491E+02 -0.11683626658E+04 -0.17498662605E+02  0.11751466767E+04  0.91059865232E+02 0.  0.
         13    1    3    3    0    0  0.97767017095E+02 -0.10907863708E+04 -0.24120794566E+01  0.10951616841E+04  0.00000000000E+00 0. -1.
        -13    1    3    3    0    0 -0.12325278604E+02 -0.77576295033E+02 -0.15086583149E+02  0.79984992560E+02  0.00000000000E+00 0.  1.
         22    1    1    2    0    0 -0.85441738491E+02  0.11683626658E+04  0.27661837679E+04  0.30040213460E+04  0.00000000000E+00 0.  1.
<mgrwt>
<rscale>  0 0.31480431E+04</rscale>
<asrwt>0</asrwt>
<pdfrwt beam="1">  1        2 0.53291177E+00 0.31480431E+04</pdfrwt>
<pdfrwt beam="2">  1       -2 0.11003715E+00 0.31480431E+04</pdfrwt>
<totfact> 0.47771054E-01</totfact>
</mgrwt>
</event>
<event>
 6    1  0.1878398E-004  0.2252095E+04  0.7818608E-02  0.8497053E-01
         -1   -1    0    0    0  501 -0.00000000000E+00  0.00000000000E+00  0.62759161012E+03  0.62759161012E+03  0.00000000000E+00 0. -1.
          1   -1    0    0  501    0  0.00000000000E+00 -0.00000000000E+00 -0.20203950487E+04  0.20203950487E+04  0.00000000000E+00 0.  1.
         23    2    1    2    0    0 -0.33325757181E+03 -0.22788878616E+03 -0.19312233630E+04  0.19750156913E+04  0.89829812901E+02 0.  0.
         11    1    3    3    0    0 -0.24937389215E+03 -0.20384980196E+03 -0.13920266547E+04  0.14288037959E+04  0.00000000000E+00 0. -1.
        -11    1    3    3    0    0 -0.83883679658E+02 -0.24038984199E+02 -0.53919670826E+03  0.54621189540E+03  0.00000000000E+00 0.  1.
         22    1    1    2    0    0  0.33325757181E+03  0.22788878616E+03  0.53841992442E+03  0.67297096745E+03  0.00000000000E+00 0. -1.
<mgrwt>
<rscale>  0 0.22520950E+04</rscale>
<asrwt>0</asrwt>
<pdfrwt beam="1">  1        1 0.31083000E+00 0.22520950E+04</pdfrwt>
<pdfrwt beam="2">  1       -1 0.96552556E-01 0.22520950E+04</pdfrwt>
<totfact> 0.27040001E+00</totfact>
</mgrwt>
</event>
<event>
 6    1  0.1878398E-004  0.1972211E+04  0.7818608E-02  0.8619724E-01
          2   -1    0    0  501    0  0.00000000000E+00  0.00000000000E+00  0.82281634989E+03  0.82281634989E+03  0.00000000000E+00 0.  1.
         -2   -1    0    0    0  501 -0.00000000000E+00 -0.00000000000E+00 -0.11817990332E+04  0.11817990332E+04  0.00000000000E+00 0. -1.
         23    2    1    2    0    0  0.48073828027E+03  0.35001655399E+03  0.61662690874E+03  0.86205905700E+03  0.96416756803E+02 0.  0.
         13    1    3    3    0    0  0.21782733541E+03  0.21757666684E+03  0.32526748988E+03  0.44786972881E+03  0.00000000000E+00 0. -1.
        -13    1    3    3    0    0  0.26291094486E+03  0.13243988715E+03  0.29135941885E+03  0.41418932819E+03  0.00000000000E+00 0.  1.
         22    1    1    2    0    0 -0.48073828027E+03 -0.35001655399E+03 -0.97560959205E+03  0.11425563261E+04  0.00000000000E+00 0. -1.
<mgrwt>
<rscale>  0 0.19722105E+04</rscale>
<asrwt>0</asrwt>
<pdfrwt beam="1">  1        2 0.12658713E+00 0.19722105E+04</pdfrwt>
<pdfrwt beam="2">  1       -2 0.18181523E+00 0.19722105E+04</pdfrwt>
<totfact> 0.54389885E+00</totfact>
</mgrwt>
</event>
<event>
 6    1  0.1878398E-004  0.3800340E+04  0.7818608E-02  0.8046082E-01
          2   -1    0    0  501    0  0.00000000000E+00  0.00000000000E+00  0.15973150752E+04  0.15973150752E+04  0.00000000000E+00 0.  1.
         -2   -1    0    0    0  501 -0.00000000000E+00 -0.00000000000E+00 -0.22604474548E+04  0.22604474548E+04  0.00000000000E+00 0. -1.
         23    2    1    2    0    0 -0.10496639761E+04 -0.13242251104E+04 -0.12113997679E+04  0.20812592976E+04  0.93724384440E+02 0.  0.
         11    1    3    3    0    0 -0.57997574975E+03 -0.76565839146E+03 -0.73902596948E+03  0.12119257511E+04  0.00000000000E+00 0. -1.
        -11    1    3    3    0    0 -0.46968822636E+03 -0.55856671895E+03 -0.47237379840E+03  0.86933354641E+03  0.00000000000E+00 0.  1.
         22    1    1    2    0    0  0.10496639761E+04  0.13242251104E+04  0.54826738836E+03  0.17765032325E+04  0.00000000000E+00 0.  1.
<mgrwt>
<rscale>  0 0.38003404E+04</rscale>
<asrwt>0</asrwt>
<pdfrwt beam="1">  1        2 0.24574078E+00 0.38003404E+04</pdfrwt>
<pdfrwt beam="2">  1       -2 0.34776114E+00 0.38003404E+04</pdfrwt>
<totfact> 0.14415821E-01</totfact>
</mgrwt>
</event>
<event>
 6    1  0.1878398E-004  0.1642421E+04  0.7818608E-02  0.8794902E-01
         -2   -1    0    0    0  501 -0.00000000000E+00  0.00000000000E+00  0.11029441873E+04  0.11029441873E+04  0.00000000000E+00 0. -1.
          2   -1    0    0  501    0  0.00000000000E+00 -0.00000000000E+00 -0.61144261677E+03  0.61144261677E+03  0.00000000000E+00 0.  1.
         23    2    1    2    0    0  0.22174260463E+03  0.78623412579E+03  0.19065487347E+03  0.84384523790E+03  0.91605793896E+02 0.  0.
         13    1    3    3    0    0 -0.57136654591E+01  0.75515232607E+02  0.20652075027E+02  0.78496525602E+02  0.00000000000E+00 0. -1.
        -13    1    3    3    0    0  0.22745627009E+03  0.71071889319E+03  0.17000279844E+03  0.76534871230E+03  0.00000000000E+00 0.  1.
         22    1    1    2    0    0 -0.22174260463E+03 -0.78623412579E+03  0.30084669703E+03  0.87054156614E+03  0.00000000000E+00 0.  1.
<mgrwt>
<rscale>  0 0.16424215E+04</rscale>
<asrwt>0</asrwt>
<pdfrwt beam="1">  1        2 0.94068095E-01 0.16424215E+04</pdfrwt>
<pdfrwt beam="2">  1       -2 0.16968372E+00 0.16424215E+04</pdfrwt>
<totfact> 0.99169873E+00</totfact>
</mgrwt>
</event>
<event>
 6    1  0.1878398E-004  0.3776969E+04  0.7818608E-02  0.8051115E-01
          1   -1    0    0  501    0  0.00000000000E+00  0.00000000000E+00  0.23461778961E+04  0.23461778961E+04  0.00000000000E+00 0.  1.
         -1   -1    0    0    0  501 -0.00000000000E+00 -0.00000000000E+00 -0.15200783667E+04  0.15200783667E+04  0.00000000000E+00 0. -1.
         23    2    1    2    0    0  0.53324322765E+03  0.18103276834E+04  0.37681094852E+03  0.19262833532E+04  0.83345093483E+02 0.  0.
         13    1    3    3    0    0  0.40164561303E+03  0.13641942236E+04  0.24711668484E+03  0.14434028315E+04  0.00000000000E+00 0.  1.
        -13    1    3    3    0    0  0.13159761462E+03  0.44613345984E+03  0.12969426369E+03  0.48288052165E+03  0.00000000000E+00 0. -1.
         22    1    1    2    0    0 -0.53324322765E+03 -0.18103276834E+04  0.44928858089E+03  0.19399729096E+04  0.00000000000E+00 0.  1.
<mgrwt>
<rscale>  0 0.37769693E+04</rscale>
<asrwt>0</asrwt>
<pdfrwt beam="1">  1        1 0.36095045E+00 0.37769693E+04</pdfrwt>
<pdfrwt beam="2">  1       -1 0.23385821E+00 0.37769693E+04</pdfrwt>
<totfact> 0.12275803E-01</totfact>
</mgrwt>
</event>
<event>
 6    1  0.1878398E-004  0.1841128E+04  0.7818608E-02  0.8684729E-01
         -1   -1    0    0    0  501 -0.00000000000E+00  0.00000000000E+00  0.22760140698E+03  0.22760140698E+03  0.00000000000E+00 0. -1.
          1   -1    0    0  501    0  0.00000000000E+00 -0.00000000000E+00 -0.37233430793E+04  0.37233430793E+04  0.00000000000E+00 0.  1.
         23    2    1    2    0    0  0.61518973879E+03 -0.14831486378E+03 -0.32553774219E+03  0.71819818132E+03  0.96840552134E+02 0.  0.
         13    1    3    3    0    0  0.26270108209E+03 -0.83264388976E+02 -0.19118580351E+03  0.33540546874E+03  0.00000000000E+00 0.  1.
        -13    1    3    3    0    0  0.35248865670E+03 -0.65050474804E+02 -0.13435193868E+03  0.38279271258E+03  0.00000000000E+00 0. -1.
         22    1    1    2    0    0 -0.61518973879E+03  0.14831486378E+03 -0.31702039301E+04  0.32327463049E+04  0.00000000000E+00 0.  1.
<mgrwt>
<rscale>  0 0.18411280E+04</rscale>
<asrwt>0</asrwt>
<pdfrwt beam="1">  1        1 0.57282193E+00 0.18411280E+04</pdfrwt>
<pdfrwt beam="2">  1       -1 0.35015606E-01 0.18411280E+04</pdfrwt>
<totfact> 0.12130528E+00</totfact>
</mgrwt>
</event>
<event>
 6    1  0.1878398E-004  0.2602686E+04  0.7818608E-02  0.8367290E-01
         -2   -1    0    0    0  501 -0.00000000000E+00  0.00000000000E+00  0.96347479277E+03  0.96347479277E+03  0.00000000000E+00 0. -1.
          2   -1    0    0  501    0  0.00000000000E+00 -0.00000000000E+00 -0.17576932834E+04  0.17576932834E+04  0.00000000000E+00 0.  1.
         23    2    1    2    0    0 -0.59750335968E+03 -0.10992393107E+04 -0.76585710695E+03  0.14697122460E+04  0.90441421343E+02 0.  0.
         13    1    3    3    0    0 -0.46223973698E+03 -0.76495956509E+03 -0.54918676359E+03  0.10490161162E+04  0.00000000000E+00 0.  1.
        -13    1    3    3    0    0 -0.13526362270E+03 -0.33427974558E+03 -0.21667034336E+03  0.42069612980E+03  0.00000000000E+00 0. -1.
         22    1    1    2    0    0  0.59750335968E+03  0.10992393107E+04 -0.28361383716E+02  0.12514558302E+04  0.00000000000E+00 0. -1.
<mgrwt>
<rscale>  0 0.26026857E+04</rscale>
<asrwt>0</asrwt>
<pdfrwt beam="1">  1        2 0.27041435E+00 0.26026857E+04</pdfrwt>
<pdfrwt beam="2">  1       -2 0.14822689E+00 0.26026857E+04</pdfrwt>
<totfact> 0.24911028E+00</totfact>
</mgrwt>
</event>
<event>
 6    1  0.1878398E-004  0.1936462E+04  0.7818608E-02  0.8636917E-01
         -2   -1    0    0    0  501 -0.00000000000E+00  0.00000000000E+00  0.11259924365E+04  0.11259924365E+04  0.00000000000E+00 0. -1.
          2   -1    0    0  501    0  0.00000000000E+00 -0.00000000000E+00 -0.83257332382E+03  0.83257332382E+03  0.00000000000E+00 0.  1.
         23    2    1    2    0    0  0.90277904577E+03 -0.31634900480E+02  0.49317657801E+03  0.10334096561E+04  0.93282408571E+02 0.  0.
         13    1    3    3    0    0  0.61416282125E+02 -0.19835269160E+02  0.54539023402E+02  0.84497944865E+02  0.00000000000E+00 0. -1.
        -13    1    3    3    0    0  0.84136276364E+03 -0.11799631320E+02  0.43863755461E+03  0.94891171120E+03  0.00000000000E+00 0.  1.
         22    1    1    2    0    0 -0.90277904577E+03  0.31634900480E+02 -0.19975746528E+03  0.92515610431E+03  0.00000000000E+00 0.  1.
<mgrwt>
<rscale>  0 0.19364620E+04</rscale>
<asrwt>0</asrwt>
<pdfrwt beam="1">  1        2 0.12808820E+00 0.19364620E+04</pdfrwt>
<pdfrwt beam="2">  1       -2 0.17322961E+00 0.19364620E+04</pdfrwt>
<totfact> 0.61616430E+00</totfact>
</mgrwt>
</event>
<event>
 6    1  0.1878398E-004  0.3621777E+04  0.7818608E-02  0.8085522E-01
          2   -1    0    0  501    0  0.00000000000E+00  0.00000000000E+00  0.35357820370E+04  0.35357820370E+04  0.00000000000E+00 0. -1.
         -2   -1    0    0    0  501 -0.00000000000E+00 -0.00000000000E+00 -0.92746580276E+03  0.92746580276E+03  0.00000000000E+00 0.  1.
         23    2    1    2    0    0  0.59993971544E+03 -0.12326508694E+03  0.34036293651E+04  0.34594326575E+04  0.88653893748E+02 0.  0.
         13    1    3    3    0    0  0.28889265507E+03 -0.10456507908E+03  0.16789527686E+04  0.17068319253E+04  0.00000000000E+00 0.  1.
        -13    1    3    3    0    0  0.31104706037E+03 -0.18700007866E+02  0.17246765965E+04  0.17526007323E+04  0.00000000000E+00 0. -1.
         22    1    1    2    0    0 -0.59993971544E+03  0.12326508694E+03 -0.79531313093E+03  0.10038151822E+04  0.00000000000E+00 0.  1.
<mgrwt>
<rscale>  0 0.36217769E+04</rscale>
<asrwt>0</asrwt>
<pdfrwt beam="1">  1        2 0.54396646E+00 0.36217769E+04</pdfrwt>
<pdfrwt beam="2">  1       -2 0.14268705E+00 0.36217769E+04</pdfrwt>
<totfact> 0.21295045E-01</totfact>
</mgrwt>
</event>
<event>
 6    1  0.1878398E-004  0.3444576E+04  0.7818608E-02  0.8127052E-01
         -2   -1    0    0    0  501 -0.00000000000E+00  0.00000000000E+00  0.17027590557E+04  0.17027590557E+04  0.00000000000E+00 0.  1.
          2   -1    0    0  501    0  0.00000000000E+00 -0.00000000000E+00 -0.17420408856E+04  0.17420408856E+04  0.00000000000E+00 0. -1.
         23    2    1    2    0    0 -0.12509336634E+04  0.22956960871E+03  0.11399145950E+04  0.17104293224E+04  0.92875978403E+02 0.  0.
         11    1    3    3    0    0 -0.46271692078E+03  0.13046996668E+03  0.43544001164E+03  0.64864270961E+03  0.00000000000E+00 0. -1.
        -11    1    3    3    0    0 -0.78821674261E+03  0.99099642030E+02  0.70447458340E+03  0.10617866128E+04  0.00000000000E+00 0.  1.
         22    1    1    2    0    0  0.12509336634E+04 -0.22956960871E+03 -0.11791964248E+04  0.17343706189E+04  0.00000000000E+00 0. -1.
<mgrwt>
<rscale>  0 0.34445760E+04</rscale>
<asrwt>0</asrwt>
<pdfrwt beam="1">  1        2 0.26800629E+00 0.34445760E+04</pdfrwt>
<pdfrwt beam="2">  1       -2 0.26196293E+00 0.34445760E+04</pdfrwt>
<totfact> 0.41630290E-01</totfact>
</mgrwt>
</event>
<event>
 6    1  0.1878398E-004  0.2652964E+04  0.7818608E-02  0.8350430E-01
         -1   -1    0    0    0  501 -0.00000000000E+00  0.00000000000E+00  0.11796611886E+04  0.11796611886E+04  0.00000000000E+00 0. -1.
          1   -1    0    0  501    0  0.00000000000E+00 -0.00000000000E+00 -0.14915759373E+04  0.14915759373E+04  0.00000000000E+00 0.  1.
         23    2    1    2    0    0  0.82879206909E+03  0.14609093527E+03  0.87422199821E+03  0.12168784227E+04  0.91050196740E+02 0.  0.
         13    1    3    3    0    0  0.18690848991E+03  0.51696780958E+01  0.15746831026E+03  0.24445404048E+03  0.00000000000E+00 0.  1.
        -13    1    3    3    0    0  0.64188357919E+03  0.14092125718E+03  0.71675368795E+03  0.97242438222E+03  0.00000000000E+00 0. -1.
         22    1    1    2    0    0 -0.82879206909E+03 -0.14609093527E+03 -0.11861367470E+04  0.14543587032E+04  0.00000000000E+00 0.  1.
<mgrwt>
<rscale>  0 0.26529638E+04</rscale>
<asrwt>0</asrwt>
<pdfrwt beam="1">  1        1 0.22947322E+00 0.26529638E+04</pdfrwt>
<pdfrwt beam="2">  1       -1 0.18148634E+00 0.26529638E+04</pdfrwt>
<totfact> 0.11804328E+00</totfact>
</mgrwt>
</event>
<event>
 6    1  0.1878398E-004  0.3083877E+04  0.7818608E-02  0.8220177E-01
         -2   -1    0    0    0  501 -0.00000000000E+00  0.00000000000E+00  0.90669753853E+03  0.90669753853E+03  0.00000000000E+00 0. -1.
          2   -1    0    0  501    0  0.00000000000E+00 -0.00000000000E+00 -0.26222353141E+04  0.26222353141E+04  0.00000000000E+00 0.  1.
         23    2    1    2    0    0  0.47245086911E+03 -0.66973628862E+03  0.63409363127E+03  0.10404545489E+04  0.93351031888E+02 0.  0.
         13    1    3    3    0    0  0.28759213849E+03 -0.33179785478E+03  0.31757664651E+03  0.54189849693E+03  0.00000000000E+00 0. -1.
        -13    1    3    3    0    0  0.18485873062E+03 -0.33793843383E+03  0.31651698476E+03  0.49855605200E+03  0.00000000000E+00 0.  1.
         22    1    1    2    0    0 -0.47245086911E+03  0.66973628862E+03 -0.23496314069E+04  0.24884783037E+04  0.00000000000E+00 0.  1.
<mgrwt>
<rscale>  0 0.30838770E+04</rscale>
<asrwt>0</asrwt>
<pdfrwt beam="1">  1        2 0.40342081E+00 0.30838770E+04</pdfrwt>
<pdfrwt beam="2">  1       -2 0.13949193E+00 0.30838770E+04</pdfrwt>
<totfact> 0.90991418E-01</totfact>
</mgrwt>
</event>
<event>
 6    1  0.1878398E-004  0.8655676E+03  0.7818608E-02  0.9469678E-01
         -2   -1    0    0    0  501 -0.00000000000E+00  0.00000000000E+00  0.15156279164E+03  0.15156279164E+03  0.00000000000E+00 0. -1.
          2   -1    0    0  501    0  0.00000000000E+00 -0.00000000000E+00 -0.12358034448E+04  0.12358034448E+04  0.00000000000E+00 0.  1.
         23    2    1    2    0    0  0.23374638873E+03  0.15780699605E+03 -0.10643703108E+04  0.11046380051E+04  0.88320675034E+02 0.  0.
         13    1    3    3    0    0  0.47008375813E+02  0.80804213938E+02 -0.32643610851E+03  0.33955800878E+03  0.00000000000E+00 0. -1.
        -13    1    3    3    0    0  0.18673801292E+03  0.77002782116E+02 -0.73793420229E+03  0.76507999637E+03  0.00000000000E+00 0.  1.
         22    1    1    2    0    0 -0.23374638873E+03 -0.15780699605E+03 -0.19870342326E+02  0.28272823126E+03  0.00000000000E+00 0. -1.
<mgrwt>
<rscale>  0 0.86556761E+03</rscale>
<asrwt>0</asrwt>
<pdfrwt beam="1">  1        2 0.19012361E+00 0.86556761E+03</pdfrwt>
<pdfrwt beam="2">  1       -2 0.23317353E-01 0.86556761E+03</pdfrwt>
<totfact> 0.29412099E+02</totfact>
</mgrwt>
</event>
<event>
 6    1  0.1878398E-004  0.1048775E+04  0.7818608E-02  0.9256609E-01
         -4   -1    0    0    0  501 -0.00000000000E+00  0.00000000000E+00  0.55484395647E+03  0.55484395647E+03  0.00000000000E+00 0. -1.
          4   -1    0    0  501    0  0.00000000000E+00 -0.00000000000E+00 -0.49560308023E+03  0.49560308023E+03  0.00000000000E+00 0.  1.
         23    2    1    2    0    0 -0.18023499018E+03  0.47675189908E+03  0.13682842805E+03  0.53489213841E+03  0.87238500939E+02 0.  0.
         11    1    3    3    0    0 -0.45035398811E+02  0.22926371598E+03  0.42169872180E+02  0.23742016918E+03  0.00000000000E+00 0. -1.
        -11    1    3    3    0    0 -0.13519959137E+03  0.24748818310E+03  0.94658555865E+02  0.29747196923E+03  0.00000000000E+00 0.  1.
         22    1    1    2    0    0  0.18023499018E+03 -0.47675189908E+03 -0.77587551804E+02  0.51555489830E+03  0.00000000000E+00 0. -1.
<mgrwt>
<rscale>  0 0.10487752E+04</rscale>
<asrwt>0</asrwt>
<pdfrwt beam="1">  1        4 0.76246628E-01 0.10487752E+04</pdfrwt>
<pdfrwt beam="2">  1       -4 0.85360608E-01 0.10487752E+04</pdfrwt>
<totfact> 0.36658704E+00</totfact>
</mgrwt>
</event>
<event>
 6    1  0.1878398E-004  0.2042418E+04  0.7818608E-02  0.8587042E-01
         -1   -1    0    0    0  501 -0.00000000000E+00  0.00000000000E+00  0.13241610327E+04  0.13241610327E+04  0.00000000000E+00 0. -1.
          1   -1    0    0  501    0  0.00000000000E+00 -0.00000000000E+00 -0.78756890697E+03  0.78756890697E+03  0.00000000000E+00 0.  1.
         23    2    1    2    0    0  0.56831637538E+03  0.52673264784E+03 -0.41570685712E+03  0.88400678783E+03  0.90691923835E+02 0.  0.
         13    1    3    3    0    0  0.27597012154E+03  0.23088940584E+03 -0.23988071483E+03  0.43244905256E+03  0.00000000000E+00 0. -1.
        -13    1    3    3    0    0  0.29234625384E+03  0.29584324200E+03 -0.17582614229E+03  0.45155773527E+03  0.00000000000E+00 0.  1.
         22    1    1    2    0    0 -0.56831637538E+03 -0.52673264784E+03  0.95229898285E+03  0.12277231518E+04  0.00000000000E+00 0. -1.
<mgrwt>
<rscale>  0 0.20424182E+04</rscale>
<asrwt>0</asrwt>
<pdfrwt beam="1">  1        1 0.12116445E+00 0.20424182E+04</pdfrwt>
<pdfrwt beam="2">  1       -1 0.20371708E+00 0.20424182E+04</pdfrwt>
<totfact> 0.29730455E+00</totfact>
</mgrwt>
</event>
<event>
 6    1  0.1878398E-004  0.8195509E+03  0.7818608E-02  0.9532141E-01
          1   -1    0    0  501    0  0.00000000000E+00  0.00000000000E+00  0.16187963655E+03  0.16187963655E+03  0.00000000000E+00 0.  1.
         -1   -1    0    0    0  501 -0.00000000000E+00 -0.00000000000E+00 -0.10372886675E+04  0.10372886675E+04  0.00000000000E+00 0. -1.
         23    2    1    2    0    0 -0.28547964122E+03  0.28611085071E+03 -0.40973499586E+03  0.58255630984E+03  0.90172295353E+02 0.  0.
         11    1    3    3    0    0 -0.89295260939E+02  0.38289548504E+02 -0.11289355658E+03  0.14894525259E+03  0.00000000000E+00 0.  1.
        -11    1    3    3    0    0 -0.19618438028E+03  0.24782130220E+03 -0.29684143928E+03  0.43361105725E+03  0.00000000000E+00 0. -1.
         22    1    1    2    0    0  0.28547964122E+03 -0.28611085071E+03 -0.46567403505E+03  0.61661199418E+03  0.00000000000E+00 0.  1.
<mgrwt>
<rscale>  0 0.81955088E+03</rscale>
<asrwt>0</asrwt>
<pdfrwt beam="1">  1        1 0.24904560E-01 0.81955088E+03</pdfrwt>
<pdfrwt beam="2">  1       -1 0.15958287E+00 0.81955088E+03</pdfrwt>
<totfact> 0.58592978E+01</totfact>
</mgrwt>
</event>
<event>
 6    1  0.1878398E-004  0.3503615E+04  0.7818608E-02  0.8112934E-01
          2   -1    0    0  501    0  0.00000000000E+00  0.00000000000E+00  0.19555574031E+04  0.19555574031E+04  0.00000000000E+00 0.  1.
         -2   -1    0    0    0  501 -0.00000000000E+00 -0.00000000000E+00 -0.15692861203E+04  0.15692861203E+04  0.00000000000E+00 0. -1.
         23    2    1    2    0    0 -0.90229784605E+03  0.14963635483E+04  0.86151417743E+02  0.17519032523E+04  0.92182790759E+02 0.  0.
         13    1    3    3    0    0 -0.52523770604E+03  0.84045897699E+03  0.91750805709E+02  0.99532112918E+03  0.00000000000E+00 0.  1.
        -13    1    3    3    0    0 -0.37706014001E+03  0.65590457128E+03 -0.55993879657E+01  0.75658212308E+03  0.00000000000E+00 0. -1.
         22    1    1    2    0    0  0.90229784605E+03 -0.14963635483E+04  0.30011986513E+03  0.17729402711E+04  0.00000000000E+00 0. -1.
<mgrwt>
<rscale>  0 0.35036148E+04</rscale>
<asrwt>0</asrwt>
<pdfrwt beam="1">  1        2 0.30085498E+00 0.35036148E+04</pdfrwt>
<pdfrwt beam="2">  1       -2 0.24142864E+00 0.35036148E+04</pdfrwt>
<totfact> 0.42171989E-01</totfact>
</mgrwt>
</event>
<event>
 6    1  0.1878398E-004  0.1939761E+04  0.7818608E-02  0.8635314E-01
         -2   -1    0    0    0  501 -0.00000000000E+00  0.00000000000E+00  0.40743984013E+03  0.40743984013E+03  0.00000000000E+00 0.  1.
          2   -1    0    0  501    0  0.00000000000E+00 -0.00000000000E+00 -0.23087290662E+04  0.23087290662E+04  0.00000000000E+00 0. -1.
         23    2    1    2    0    0  0.12988399736E+03 -0.35698388347E+03 -0.21990520187E+04  0.22334992196E+04  0.91551280379E+02 0.  0.
         11    1    3    3    0    0  0.54713488182E+02 -0.48262981286E+02 -0.42551458760E+03  0.43172392267E+03  0.00000000000E+00 0. -1.
        -11    1    3    3    0    0  0.75170509181E+02 -0.30872090218E+03 -0.17735374311E+04  0.18017752969E+04  0.00000000000E+00 0.  1.
         22    1    1    2    0    0 -0.12988399736E+03  0.35698388347E+03  0.29776279266E+03  0.48266968676E+03  0.00000000000E+00 0.  1.
<mgrwt>
<rscale>  0 0.19397610E+04</rscale>
<asrwt>0</asrwt>
<pdfrwt beam="1">  1        2 0.35518908E+00 0.19397610E+04</pdfrwt>
<pdfrwt beam="2">  1       -2 0.62683053E-01 0.19397610E+04</pdfrwt>
<totfact> 0.98772960E+00</totfact>
</mgrwt>
</event>
<event>
 6    1  0.1878398E-004  0.2826582E+04  0.7818608E-02  0.8295063E-01
          1   -1    0    0  501    0  0.00000000000E+00  0.00000000000E+00  0.19261611107E+04  0.19261611107E+04  0.00000000000E+00 0.  1.
         -1   -1    0    0    0  501 -0.00000000000E+00 -0.00000000000E+00 -0.10369804086E+04  0.10369804086E+04  0.00000000000E+00 0. -1.
         23    2    1    2    0    0  0.72955036642E+03  0.11440775500E+03 -0.81648317298E+03  0.11044801391E+04  0.88874824336E+02 0.  0.
         11    1    3    3    0    0  0.34154968768E+03  0.33959117479E+02 -0.32010646021E+03  0.46933735913E+03  0.00000000000E+00 0. -1.
        -11    1    3    3    0    0  0.38800067874E+03  0.80448637517E+02 -0.49637671277E+03  0.63514277998E+03  0.00000000000E+00 0.  1.
         22    1    1    2    0    0 -0.72955036642E+03 -0.11440775500E+03  0.17056638751E+04  0.18586613802E+04  0.00000000000E+00 0.  1.
<mgrwt>
<rscale>  0 0.28265819E+04</rscale>
<asrwt>0</asrwt>
<pdfrwt beam="1">  1        1 0.29633248E+00 0.28265819E+04</pdfrwt>
<pdfrwt beam="2">  1       -1 0.15953545E+00 0.28265819E+04</pdfrwt>
<totfact> 0.85108805E-01</totfact>
</mgrwt>
</event>
<event>
 6    1  0.1878398E-004  0.9345073E+03  0.7818608E-02  0.9383445E-01
          2   -1    0    0  501    0  0.00000000000E+00  0.00000000000E+00  0.13583900671E+04  0.13583900671E+04  0.00000000000E+00 0.  1.
         -2   -1    0    0    0  501 -0.00000000000E+00 -0.00000000000E+00 -0.16072407105E+03  0.16072407105E+03  0.00000000000E+00 0. -1.
         23    2    1    2    0    0 -0.79590334601E+02  0.27921080946E+03  0.24485946817E+02  0.31054278098E+03  0.10744282083E+03 0.  0.
         13    1    3    3    0    0 -0.80480637445E+01  0.10559586992E+03  0.56538147403E+02  0.12004924484E+03  0.00000000000E+00 0.  1.
        -13    1    3    3    0    0 -0.71542270856E+02  0.17361493953E+03 -0.32052200585E+02  0.19049353614E+03  0.00000000000E+00 0. -1.
         22    1    1    2    0    0  0.79590334601E+02 -0.27921080946E+03  0.11731800492E+04  0.12085713572E+04  0.00000000000E+00 0.  1.
<mgrwt>
<rscale>  0 0.93450732E+03</rscale>
<asrwt>0</asrwt>
<pdfrwt beam="1">  1        2 0.20898308E+00 0.93450732E+03</pdfrwt>
<pdfrwt beam="2">  1       -2 0.24726781E-01 0.93450732E+03</pdfrwt>
<totfact> 0.22380186E+02</totfact>
</mgrwt>
</event>
<event>
 6    1  0.1878398E-004  0.1893110E+04  0.7818608E-02  0.8658293E-01
          1   -1    0    0  501    0  0.00000000000E+00  0.00000000000E+00  0.10826601442E+04  0.10826601442E+04  0.00000000000E+00 0.  1.
         -1   -1    0    0    0  501 -0.00000000000E+00 -0.00000000000E+00 -0.82756048347E+03  0.82756048347E+03  0.00000000000E+00 0. -1.
         23    2    1    2    0    0 -0.82081292542E+03 -0.34234765199E+03 -0.19278404132E+03  0.91446182958E+03  0.90216283483E+02 0.  0.
         13    1    3    3    0    0 -0.21564438881E+03 -0.11028747970E+03 -0.89130440978E+02  0.25808925998E+03  0.00000000000E+00 0.  1.
        -13    1    3    3    0    0 -0.60516853661E+03 -0.23206017229E+03 -0.10365360034E+03  0.65637256960E+03  0.00000000000E+00 0. -1.
         22    1    1    2    0    0  0.82081292542E+03  0.34234765199E+03  0.44788370200E+03  0.99575879804E+03  0.00000000000E+00 0.  1.
<mgrwt>
<rscale>  0 0.18931104E+04</rscale>
<asrwt>0</asrwt>
<pdfrwt beam="1">  1        1 0.16656310E+00 0.18931104E+04</pdfrwt>
<pdfrwt beam="2">  1       -1 0.12731700E+00 0.18931104E+04</pdfrwt>
<totfact> 0.65395939E+00</totfact>
</mgrwt>
</event>
<event>
 6    1  0.1878398E-004  0.4677897E+04  0.7818608E-02  0.7880212E-01
         -2   -1    0    0    0  501 -0.00000000000E+00  0.00000000000E+00  0.24306407590E+04  0.24306407590E+04  0.00000000000E+00 0.  1.
          2   -1    0    0  501    0  0.00000000000E+00 -0.00000000000E+00 -0.22507147525E+04  0.22507147525E+04  0.00000000000E+00 0. -1.
         23    2    1    2    0    0  0.92673749256E+03 -0.22972997269E+03 -0.20457440189E+04  0.22595327883E+04  0.93816790392E+02 0.  0.
         13    1    3    3    0    0  0.53192301283E+03 -0.99777058781E+02 -0.12377191827E+04  0.13508687310E+04  0.00000000000E+00 0. -1.
        -13    1    3    3    0    0  0.39481447973E+03 -0.12995291391E+03 -0.80802483618E+03  0.90866405735E+03  0.00000000000E+00 0.  1.
         22    1    1    2    0    0 -0.92673749256E+03  0.22972997269E+03  0.22256700254E+04  0.24218227232E+04  0.00000000000E+00 0.  1.
<mgrwt>
<rscale>  0 0.46778965E+04</rscale>
<asrwt>0</asrwt>
<pdfrwt beam="1">  1        2 0.34626381E+00 0.46778965E+04</pdfrwt>
<pdfrwt beam="2">  1       -2 0.37394473E+00 0.46778965E+04</pdfrwt>
<totfact> 0.39555469E-02</totfact>
</mgrwt>
</event>
<event>
 6    1  0.1878398E-004  0.1873445E+04  0.7818608E-02  0.8668189E-01
         -2   -1    0    0    0  501 -0.00000000000E+00  0.00000000000E+00  0.45725643821E+03  0.45725643821E+03  0.00000000000E+00 0. -1.
          2   -1    0    0  501    0  0.00000000000E+00 -0.00000000000E+00 -0.19189422111E+04  0.19189422111E+04  0.00000000000E+00 0.  1.
         23    2    1    2    0    0 -0.55906092221E+03  0.23955818462E+03 -0.16324189296E+04  0.17444652804E+04  0.91816742846E+02 0.  0.
         13    1    3    3    0    0 -0.34215313572E+03  0.17394839189E+03 -0.91952082843E+03  0.99641626103E+03  0.00000000000E+00 0. -1.
        -13    1    3    3    0    0 -0.21690778649E+03  0.65609792734E+02 -0.71289810118E+03  0.74804901939E+03  0.00000000000E+00 0.  1.
         22    1    1    2    0    0  0.55906092221E+03 -0.23955818462E+03  0.17073315672E+03  0.63173336888E+03  0.00000000000E+00 0. -1.
<mgrwt>
<rscale>  0 0.18734446E+04</rscale>
<asrwt>0</asrwt>
<pdfrwt beam="1">  1        2 0.29522188E+00 0.18734446E+04</pdfrwt>
<pdfrwt beam="2">  1       -2 0.70347143E-01 0.18734446E+04</pdfrwt>
<totfact> 0.12790864E+01</totfact>
</mgrwt>
</event>
<event>
 6    1  0.1878398E-004  0.4999599E+04  0.7818608E-02  0.7828569E-01
          2   -1    0    0  501    0  0.00000000000E+00  0.00000000000E+00  0.19221893439E+04  0.19221893439E+04  0.00000000000E+00 0.  1.
         -2   -1    0    0    0  501 -0.00000000000E+00 -0.00000000000E+00 -0.32509788246E+04  0.32509788246E+04  0.00000000000E+00 0. -1.
         23    2    1    2    0    0 -0.23037667541E+04  0.93149600296E+03 -0.39076580591E+03  0.25170592710E+04  0.88675800130E+02 0.  0.
         11    1    3    3    0    0 -0.16288964018E+04  0.62353730096E+03 -0.24957521677E+03  0.17619279334E+04  0.00000000000E+00 0.  1.
        -11    1    3    3    0    0 -0.67487035229E+03  0.30795870201E+03 -0.14119058914E+03  0.75513133759E+03  0.00000000000E+00 0. -1.
         22    1    1    2    0    0  0.23037667541E+04 -0.93149600296E+03 -0.93802367478E+03  0.26561088975E+04  0.00000000000E+00 0. -1.
<mgrwt>
<rscale>  0 0.49995987E+04</rscale>
<asrwt>0</asrwt>
<pdfrwt beam="1">  1        2 0.29572144E+00 0.49995987E+04</pdfrwt>
<pdfrwt beam="2">  1       -2 0.50015058E+00 0.49995987E+04</pdfrwt>
<totfact> 0.89053246E-03</totfact>
</mgrwt>
</event>
<event>
 6    1  0.1878398E-004  0.3393405E+04  0.7818608E-02  0.8139527E-01
          1   -1    0    0  501    0  0.00000000000E+00  0.00000000000E+00  0.14403153455E+04  0.14403153455E+04  0.00000000000E+00 0.  1.
         -1   -1    0    0    0  501 -0.00000000000E+00 -0.00000000000E+00 -0.19987282402E+04  0.19987282402E+04  0.00000000000E+00 0. -1.
         23    2    1    2    0    0 -0.14160319877E+04  0.16976686855E+02  0.66544782352E+03  0.15673411906E+04  0.91119723885E+02 0.  0.
         13    1    3    3    0    0 -0.49941849071E+03  0.19330760509E+02  0.18938818489E+03  0.53447206825E+03  0.00000000000E+00 0.  1.
        -13    1    3    3    0    0 -0.91661349695E+03 -0.23540736540E+01  0.47605963863E+03  0.10328691224E+04  0.00000000000E+00 0. -1.
         22    1    1    2    0    0  0.14160319877E+04 -0.16976686855E+02 -0.12238607183E+04  0.18717023951E+04  0.00000000000E+00 0. -1.
<mgrwt>
<rscale>  0 0.33934048E+04</rscale>
<asrwt>0</asrwt>
<pdfrwt beam="1">  1        1 0.22158698E+00 0.33934048E+04</pdfrwt>
<pdfrwt beam="2">  1       -1 0.30749665E+00 0.33934048E+04</pdfrwt>
<totfact> 0.17491095E-01</totfact>
</mgrwt>
</event>
<event>
 6    1  0.1878398E-004  0.4241687E+04  0.7818608E-02  0.7957490E-01
         -2   -1    0    0    0  501 -0.00000000000E+00  0.00000000000E+00  0.18807634654E+04  0.18807634654E+04  0.00000000000E+00 0. -1.
          2   -1    0    0  501    0  0.00000000000E+00 -0.00000000000E+00 -0.23915697194E+04  0.23915697194E+04  0.00000000000E+00 0.  1.
         23    2    1    2    0    0  0.11888007623E+04  0.12366300278E+04 -0.15100154057E+04  0.22871581279E+04  0.91895040985E+02 0.  0.
         11    1    3    3    0    0  0.10443581965E+03  0.13080863975E+03 -0.11843704656E+03  0.20504895673E+03  0.00000000000E+00 0. -1.
        -11    1    3    3    0    0  0.10843649426E+04  0.11058213880E+04 -0.13915783591E+04  0.20821091712E+04  0.00000000000E+00 0.  1.
         22    1    1    2    0    0 -0.11888007623E+04 -0.12366300278E+04  0.99920915168E+03  0.19851750570E+04  0.00000000000E+00 0. -1.
<mgrwt>
<rscale>  0 0.42416869E+04</rscale>
<asrwt>0</asrwt>
<pdfrwt beam="1">  1        2 0.36793380E+00 0.42416869E+04</pdfrwt>
<pdfrwt beam="2">  1       -2 0.28934823E+00 0.42416869E+04</pdfrwt>
<totfact> 0.11485058E-01</totfact>
</mgrwt>
</event>
<event>
 6    1  0.1878398E-004  0.3314527E+04  0.7818608E-02  0.8159209E-01
         -2   -1    0    0    0  501 -0.00000000000E+00  0.00000000000E+00  0.75458244521E+03  0.75458244521E+03  0.00000000000E+00 0. -1.
          2   -1    0    0  501    0  0.00000000000E+00 -0.00000000000E+00 -0.36397906920E+04  0.36397906920E+04  0.00000000000E+00 0.  1.
         23    2    1    2    0    0 -0.11103108594E+04  0.80686019059E+03 -0.21519719829E+03  0.13922451302E+04  0.90681292108E+02 0.  0.
         13    1    3    3    0    0 -0.24239084958E+03  0.16621122812E+03 -0.95330687157E+01  0.29405845629E+03  0.00000000000E+00 0.  1.
        -13    1    3    3    0    0 -0.86792000978E+03  0.64064896246E+03 -0.20566412957E+03  0.10981866739E+04  0.00000000000E+00 0. -1.
         22    1    1    2    0    0  0.11103108594E+04 -0.80686019059E+03 -0.26700110486E+04  0.30021280071E+04  0.00000000000E+00 0.  1.
<mgrwt>
<rscale>  0 0.33145269E+04</rscale>
<asrwt>0</asrwt>
<pdfrwt beam="1">  1        2 0.55996779E+00 0.33145269E+04</pdfrwt>
<pdfrwt beam="2">  1       -2 0.11608961E+00 0.33145269E+04</pdfrwt>
<totfact> 0.31008085E-01</totfact>
</mgrwt>
</event>
<event>
 6    1  0.1878398E-004  0.2501586E+04  0.7818608E-02  0.8402421E-01
         -2   -1    0    0    0  501 -0.00000000000E+00  0.00000000000E+00  0.24506683849E+04  0.24506683849E+04  0.00000000000E+00 0. -1.
          2   -1    0    0  501    0  0.00000000000E+00 -0.00000000000E+00 -0.63839029343E+03  0.63839029343E+03  0.00000000000E+00 0.  1.
         23    2    1    2    0    0  0.12145934483E+04  0.18506277906E+03  0.62858118581E+03  0.13830036260E+04  0.89995808542E+02 0.  0.
         11    1    3    3    0    0  0.45218150859E+03  0.96580089934E+02  0.19847168730E+03  0.50317674940E+03  0.00000000000E+00 0.  1.
        -11    1    3    3    0    0  0.76241193975E+03  0.88482689125E+02  0.43010949851E+03  0.87982687665E+03  0.00000000000E+00 0. -1.
         22    1    1    2    0    0 -0.12145934483E+04 -0.18506277906E+03  0.11836969056E+04  0.17060550523E+04  0.00000000000E+00 0.  1.
<mgrwt>
<rscale>  0 0.25015858E+04</rscale>
<asrwt>0</asrwt>
<pdfrwt beam="1">  1        2 0.98213892E-01 0.25015858E+04</pdfrwt>
<pdfrwt beam="2">  1       -2 0.37702590E+00 0.25015858E+04</pdfrwt>
<totfact> 0.42923756E-01</totfact>
</mgrwt>
</event>
<event>
 6    1  0.1878398E-004  0.5751200E+03  0.7818608E-02  0.9958412E-01
         -2   -1    0    0    0  501 -0.00000000000E+00  0.00000000000E+00  0.71445621519E+03  0.71445621519E+03  0.00000000000E+00 0. -1.
          2   -1    0    0  501    0  0.00000000000E+00 -0.00000000000E+00 -0.11573940957E+03  0.11573940957E+03  0.00000000000E+00 0.  1.
         23    2    1    2    0    0  0.21710467971E+03  0.12276846316E+03  0.12148882374E+03  0.29172270604E+03  0.90200140924E+02 0.  0.
         11    1    3    3    0    0  0.25464178581E+02 -0.12501490073E+02  0.19147429225E+01  0.28431987009E+02  0.00000000000E+00 0. -1.
        -11    1    3    3    0    0  0.19164050113E+03  0.13526995324E+03  0.11957408081E+03  0.26329071903E+03  0.00000000000E+00 0.  1.
         22    1    1    2    0    0 -0.21710467971E+03 -0.12276846316E+03  0.47722798189E+03  0.53847291872E+03  0.00000000000E+00 0. -1.
<mgrwt>
<rscale>  0 0.57511995E+03</rscale>
<asrwt>0</asrwt>
<pdfrwt beam="1">  1        2 0.17806064E-01 0.57511995E+03</pdfrwt>
<pdfrwt beam="2">  1       -2 0.10991634E+00 0.57511995E+03</pdfrwt>
<totfact> 0.21745722E+02</totfact>
</mgrwt>
</event>
<event>
 6    1  0.1878398E-004  0.2437058E+04  0.7818608E-02  0.8425759E-01
         -2   -1    0    0    0  501 -0.00000000000E+00  0.00000000000E+00  0.52109187443E+03  0.52109187443E+03  0.00000000000E+00 0. -1.
          2   -1    0    0  501    0  0.00000000000E+00 -0.00000000000E+00 -0.28494259593E+04  0.28494259593E+04  0.00000000000E+00 0.  1.
         23    2    1    2    0    0 -0.29160734433E+03 -0.41912044770E+03 -0.26933783713E+04  0.27428601851E+04  0.91094187961E+02 0.  0.
         13    1    3    3    0    0 -0.12933826449E+03 -0.26487177889E+03 -0.15296524520E+04  0.15577939754E+04  0.00000000000E+00 0. -1.
        -13    1    3    3    0    0 -0.16226907985E+03 -0.15424866881E+03 -0.11637259192E+04  0.11850662096E+04  0.00000000000E+00 0.  1.
         22    1    1    2    0    0  0.29160734433E+03  0.41912044770E+03  0.36504428637E+03  0.62765764869E+03  0.00000000000E+00 0. -1.
<mgrwt>
<rscale>  0 0.24370578E+04</rscale>
<asrwt>0</asrwt>
<pdfrwt beam="1">  1        2 0.43837323E+00 0.24370578E+04</pdfrwt>
<pdfrwt beam="2">  1       -2 0.80167980E-01 0.24370578E+04</pdfrwt>
<totfact> 0.26617397E+00</totfact>
</mgrwt>
</event>
<event>
 6    1  0.1878398E-004  0.1589991E+04  0.7818608E-02  0.8826721E-01
         -2   -1    0    0    0  501 -0.00000000000E+00  0.00000000000E+00  0.28201417721E+03  0.28201417721E+03  0.00000000000E+00 0.  1.
          2   -1    0    0  501    0  0.00000000000E+00 -0.00000000000E+00 -0.22410857501E+04  0.22410857501E+04  0.00000000000E+00 0. -1.
         23    2    1    2    0    0 -0.76380489295E+03 -0.12415353818E+03 -0.71069478474E+03  0.10543396948E+04  0.87938042671E+02 0.  0.
         11    1    3    3    0    0 -0.59159450479E+03 -0.12941990062E+03 -0.53136411678E+03  0.80565587777E+03  0.00000000000E+00 0. -1.
        -11    1    3    3    0    0 -0.17221038816E+03  0.52663624444E+01 -0.17933066796E+03  0.24868381699E+03  0.00000000000E+00 0.  1.
         22    1    1    2    0    0  0.76380489295E+03  0.12415353818E+03 -0.12483767882E+04  0.14687602326E+04  0.00000000000E+00 0.  1.
<mgrwt>
<rscale>  0 0.15899911E+04</rscale>
<asrwt>0</asrwt>
<pdfrwt beam="1">  1        2 0.34478243E+00 0.15899911E+04</pdfrwt>
<pdfrwt beam="2">  1       -2 0.43386796E-01 0.15899911E+04</pdfrwt>
<totfact> 0.23687863E+01</totfact>
</mgrwt>
</event>
<event>
 6    1  0.1878398E-004  0.2956077E+04  0.7818608E-02  0.8256386E-01
         -2   -1    0    0    0  501 -0.00000000000E+00  0.00000000000E+00  0.12747783280E+04  0.12747783280E+04  0.00000000000E+00 0. -1.
          2   -1    0    0  501    0  0.00000000000E+00 -0.00000000000E+00 -0.17137078163E+04  0.17137078163E+04  0.00000000000E+00 0.  1.
         23    2    1    2    0    0 -0.12802315907E+04 -0.40060074644E+03 -0.84363278439E+03  0.15873228269E+04  0.91671140770E+02 0.  0.
         13    1    3    3    0    0 -0.95736253014E+03 -0.29867896681E+03 -0.58269894978E+03  0.11598664602E+04  0.00000000000E+00 0. -1.
        -13    1    3    3    0    0 -0.32286906059E+03 -0.10192177963E+03 -0.26093383461E+03  0.42745636677E+03  0.00000000000E+00 0.  1.
         22    1    1    2    0    0  0.12802315907E+04  0.40060074644E+03  0.40470329608E+03  0.14011633173E+04  0.00000000000E+00 0. -1.
<mgrwt>
<rscale>  0 0.29560768E+04</rscale>
<asrwt>0</asrwt>
<pdfrwt beam="1">  1        2 0.26364735E+00 0.29560768E+04</pdfrwt>
<pdfrwt beam="2">  1       -2 0.19611974E+00 0.29560768E+04</pdfrwt>
<totfact> 0.11680791E+00</totfact>
</mgrwt>
</event>
<event>
 6    1  0.1878398E-004  0.4241892E+04  0.7818608E-02  0.7957451E-01
          1   -1    0    0  501    0  0.00000000000E+00  0.00000000000E+00  0.16438880348E+04  0.16438880348E+04  0.00000000000E+00 0.  1.
         -1   -1    0    0    0  501 -0.00000000000E+00 -0.00000000000E+00 -0.27364469090E+04  0.27364469090E+04  0.00000000000E+00 0. -1.
         23    2    1    2    0    0 -0.12405292694E+04 -0.36630811145E+03  0.11880553146E+04  0.17584471546E+04  0.86985425295E+02 0.  0.
         13    1    3    3    0    0 -0.61379746698E+03 -0.13601777277E+03  0.58010332403E+03  0.85543441100E+03  0.00000000000E+00 0.  1.
        -13    1    3    3    0    0 -0.62673180241E+03 -0.23029033868E+03  0.60795199061E+03  0.90301274362E+03  0.00000000000E+00 0. -1.
         22    1    1    2    0    0  0.12405292694E+04  0.36630811145E+03 -0.22806141888E+04  0.26218877892E+04  0.00000000000E+00 0. -1.
<mgrwt>
<rscale>  0 0.42418922E+04</rscale>
<asrwt>0</asrwt>
<pdfrwt beam="1">  1        1 0.25290585E+00 0.42418922E+04</pdfrwt>
<pdfrwt beam="2">  1       -1 0.42099183E+00 0.42418922E+04</pdfrwt>
<totfact> 0.20498348E-02</totfact>
</mgrwt>
</event>
<event>
 6    1  0.1878398E-004  0.3582499E+04  0.7818608E-02  0.8094512E-01
          2   -1    0    0  501    0  0.00000000000E+00  0.00000000000E+00  0.24661891356E+04  0.24661891356E+04  0.00000000000E+00 0.  1.
         -2   -1    0    0    0  501 -0.00000000000E+00 -0.00000000000E+00 -0.13010257861E+04  0.13010257861E+04  0.00000000000E+00 0. -1.
         23    2    1    2    0    0 -0.16362004589E+04  0.50481940828E+03  0.11322278155E+04  0.20545914003E+04  0.86089600934E+02 0.  0.
         13    1    3    3    0    0 -0.79818206360E+03  0.28816880138E+03  0.57943603074E+03  0.10275611799E+04  0.00000000000E+00 0. -1.
        -13    1    3    3    0    0 -0.83801839530E+03  0.21665060690E+03  0.55279178481E+03  0.10270302204E+04  0.00000000000E+00 0.  1.
         22    1    1    2    0    0  0.16362004589E+04 -0.50481940828E+03  0.32935533979E+02  0.17126235214E+04  0.00000000000E+00 0. -1.
<mgrwt>
<rscale>  0 0.35824995E+04</rscale>
<asrwt>0</asrwt>
<pdfrwt beam="1">  1        2 0.37941371E+00 0.35824995E+04</pdfrwt>
<pdfrwt beam="2">  1       -2 0.20015781E+00 0.35824995E+04</pdfrwt>
<totfact> 0.39434112E-01</totfact>
</mgrwt>
</event>
<event>
 6    1  0.1878398E-004  0.1622555E+04  0.7818608E-02  0.8806810E-01
          1   -1    0    0  501    0  0.00000000000E+00  0.00000000000E+00  0.10768576036E+04  0.10768576036E+04  0.00000000000E+00 0.  1.
         -1   -1    0    0    0  501 -0.00000000000E+00 -0.00000000000E+00 -0.61119574859E+03  0.61119574859E+03  0.00000000000E+00 0. -1.
         23    2    1    2    0    0  0.45517405171E+03 -0.55495151149E+03 -0.15419330297E+03  0.73969950771E+03  0.90692830843E+02 0.  0.
         11    1    3    3    0    0  0.23390727203E+03 -0.26586164749E+03 -0.31409385829E+02  0.35550186642E+03  0.00000000000E+00 0. -1.
        -11    1    3    3    0    0  0.22126677969E+03 -0.28908986400E+03 -0.12278391714E+03  0.38419764129E+03  0.00000000000E+00 0.  1.
         22    1    1    2    0    0 -0.45517405171E+03  0.55495151149E+03  0.61985515799E+03  0.94835384448E+03  0.00000000000E+00 0.  1.
<mgrwt>
<rscale>  0 0.16225545E+04</rscale>
<asrwt>0</asrwt>
<pdfrwt beam="1">  1        1 0.16567040E+00 0.16225545E+04</pdfrwt>
<pdfrwt beam="2">  1       -1 0.94030115E-01 0.16225545E+04</pdfrwt>
<totfact> 0.13855801E+01</totfact>
</mgrwt>
</event>
<event>
 6    1  0.1878398E-004  0.3167751E+04  0.7818608E-02  0.8197386E-01
         -1   -1    0    0    0  501 -0.00000000000E+00  0.00000000000E+00  0.12047194574E+04  0.12047194574E+04  0.00000000000E+00 0.  1.
          1   -1    0    0  501    0  0.00000000000E+00 -0.00000000000E+00 -0.20823613343E+04  0.20823613343E+04  0.00000000000E+00 0. -1.
         23    2    1    2    0    0  0.38200151769E+03 -0.15211767139E+04 -0.66354968500E+03  0.17041281009E+04  0.62053568766E+02 0.  0.
         11    1    3    3    0    0  0.13314796828E+03 -0.63699759225E+03 -0.25774494974E+03  0.69994769312E+03  0.00000000000E+00 0.  1.
        -11    1    3    3    0    0  0.24885354941E+03 -0.88417912169E+03 -0.40580473526E+03  0.10041804078E+04  0.00000000000E+00 0. -1.
         22    1    1    2    0    0 -0.38200151769E+03  0.15211767139E+04 -0.21409219187E+03  0.15829526908E+04  0.00000000000E+00 0. -1.
<mgrwt>
<rscale>  0 0.31677508E+04</rscale>
<asrwt>0</asrwt>
<pdfrwt beam="1">  1        1 0.32036328E+00 0.31677508E+04</pdfrwt>
<pdfrwt beam="2">  1       -1 0.18534146E+00 0.31677508E+04</pdfrwt>
<totfact> 0.41892843E-01</totfact>
</mgrwt>
</event>
<event>
 6    1  0.1878398E-004  0.2098736E+04  0.7818608E-02  0.8561800E-01
         -2   -1    0    0    0  501 -0.00000000000E+00  0.00000000000E+00  0.17817298324E+04  0.17817298324E+04  0.00000000000E+00 0. -1.
          2   -1    0    0  501    0  0.00000000000E+00 -0.00000000000E+00 -0.61803622181E+03  0.61803622181E+03  0.00000000000E+00 0.  1.
         23    2    1    2    0    0  0.20189311337E+02  0.10426328002E+04  0.47119788359E+03  0.11479509336E+04  0.90956781837E+02 0.  0.
         13    1    3    3    0    0  0.36055178055E+02  0.75056533012E+03  0.37670603119E+03  0.84056869117E+03  0.00000000000E+00 0. -1.
        -13    1    3    3    0    0 -0.15865866718E+02  0.29206747006E+03  0.94491852402E+02  0.30738224243E+03  0.00000000000E+00 0.  1.
         22    1    1    2    0    0 -0.20189311337E+02 -0.10426328002E+04  0.69249572702E+03  0.12518151206E+04  0.00000000000E+00 0.  1.
<mgrwt>
<rscale>  0 0.20987364E+04</rscale>
<asrwt>0</asrwt>
<pdfrwt beam="1">  1        2 0.95082497E-01 0.20987364E+04</pdfrwt>
<pdfrwt beam="2">  1       -2 0.27411228E+00 0.20987364E+04</pdfrwt>
<totfact> 0.20173658E+00</totfact>
</mgrwt>
</event>
<event>
 6    1  0.1878398E-004  0.2336532E+04  0.7818608E-02  0.8463655E-01
         -2   -1    0    0    0  501 -0.00000000000E+00  0.00000000000E+00  0.55258599546E+03  0.55258599546E+03  0.00000000000E+00 0. -1.
          2   -1    0    0  501    0  0.00000000000E+00 -0.00000000000E+00 -0.24699233535E+04  0.24699233535E+04  0.00000000000E+00 0.  1.
         23    2    1    2    0    0 -0.83718111331E+02  0.11515139602E+04 -0.11758342004E+04  0.16503504458E+04  0.89874381136E+02 0.  0.
         11    1    3    3    0    0  0.16340904826E+02  0.20774841391E+03 -0.23252517703E+03  0.31224091116E+03  0.00000000000E+00 0.  1.
        -11    1    3    3    0    0 -0.10005901616E+03  0.94376554631E+03 -0.94330902339E+03  0.13381095347E+04  0.00000000000E+00 0. -1.
         22    1    1    2    0    0  0.83718111331E+02 -0.11515139602E+04 -0.74150315766E+03  0.13721589032E+04  0.00000000000E+00 0.  1.
<mgrwt>
<rscale>  0 0.23365317E+04</rscale>
<asrwt>0</asrwt>
<pdfrwt beam="1">  1        2 0.37998821E+00 0.23365317E+04</pdfrwt>
<pdfrwt beam="2">  1       -2 0.85013229E-01 0.23365317E+04</pdfrwt>
<totfact> 0.39448293E+00</totfact>
</mgrwt>
</event>
<event>
 6    1  0.1878398E-004  0.3225635E+04  0.7818608E-02  0.8182080E-01
          1   -1    0    0  501    0  0.00000000000E+00  0.00000000000E+00  0.11595733841E+04  0.11595733841E+04  0.00000000000E+00 0.  1.
         -1   -1    0    0    0  501 -0.00000000000E+00 -0.00000000000E+00 -0.22432217866E+04  0.22432217866E+04  0.00000000000E+00 0. -1.
         23    2    1    2    0    0 -0.33698970976E+03  0.13424247952E+04 -0.14131646340E+04  0.19800347052E+04  0.88525452117E+02 0.  0.
         11    1    3    3    0    0 -0.15160078276E+03  0.54795642662E+03 -0.63989657295E+03  0.85598286599E+03  0.00000000000E+00 0.  1.
        -11    1    3    3    0    0 -0.18538892700E+03  0.79446836860E+03 -0.77326806108E+03  0.11240518392E+04  0.00000000000E+00 0. -1.
         22    1    1    2    0    0  0.33698970976E+03 -0.13424247952E+04  0.32951623155E+03  0.14227604655E+04  0.00000000000E+00 0.  1.
<mgrwt>
<rscale>  0 0.32256350E+04</rscale>
<asrwt>0</asrwt>
<pdfrwt beam="1">  1        1 0.17839591E+00 0.32256350E+04</pdfrwt>
<pdfrwt beam="2">  1       -1 0.34511104E+00 0.32256350E+04</pdfrwt>
<totfact> 0.15986970E-01</totfact>
</mgrwt>
</event>
<event>
 6    1  0.1878398E-004  0.1477361E+04  0.7818608E-02  0.8899649E-01
          2   -1    0    0  501    0  0.00000000000E+00  0.00000000000E+00  0.77116802004E+03  0.77116802004E+03  0.00000000000E+00 0.  1.
         -2   -1    0    0    0  501 -0.00000000000E+00 -0.00000000000E+00 -0.70756167169E+03  0.70756167169E+03  0.00000000000E+00 0. -1.
         23    2    1    2    0    0  0.25366765248E+03  0.63482872944E+03  0.30489399732E+03  0.75376450416E+03  0.88576433060E+02 0.  0.
         13    1    3    3    0    0  0.19195767930E+03  0.54685521535E+03  0.27901937957E+03  0.64323416527E+03  0.00000000000E+00 0.  1.
        -13    1    3    3    0    0  0.61709973180E+02  0.87973514096E+02  0.25874617751E+02  0.11053033889E+03  0.00000000000E+00 0. -1.
         22    1    1    2    0    0 -0.25366765248E+03 -0.63482872944E+03 -0.24128764897E+03  0.72496518757E+03  0.00000000000E+00 0. -1.
<mgrwt>
<rscale>  0 0.14773611E+04</rscale>
<asrwt>0</asrwt>
<pdfrwt beam="1">  1        2 0.11864123E+00 0.14773611E+04</pdfrwt>
<pdfrwt beam="2">  1       -2 0.10885564E+00 0.14773611E+04</pdfrwt>
<totfact> 0.23585954E+01</totfact>
</mgrwt>
</event>
<event>
 6    1  0.1878398E-004  0.3516784E+04  0.7818608E-02  0.8109824E-01
          2   -1    0    0  501    0  0.00000000000E+00  0.00000000000E+00  0.24847582444E+04  0.24847582444E+04  0.00000000000E+00 0.  1.
         -2   -1    0    0    0  501 -0.00000000000E+00 -0.00000000000E+00 -0.12443634480E+04  0.12443634480E+04  0.00000000000E+00 0. -1.
         23    2    1    2    0    0 -0.15804830847E+04  0.19376935045E+03  0.14085907626E+04  0.21279461163E+04  0.92484566633E+02 0.  0.
         11    1    3    3    0    0 -0.98496909341E+03  0.16173660272E+03  0.90654345877E+03  0.13483856593E+04  0.00000000000E+00 0.  1.
        -11    1    3    3    0    0 -0.59551399131E+03  0.32032747731E+02  0.50204730387E+03  0.77956045699E+03  0.00000000000E+00 0. -1.
         22    1    1    2    0    0  0.15804830847E+04 -0.19376935045E+03 -0.16819596625E+03  0.16011755760E+04  0.00000000000E+00 0. -1.
<mgrwt>
<rscale>  0 0.35167839E+04</rscale>
<asrwt>0</asrwt>
<pdfrwt beam="1">  1        2 0.38227050E+00 0.35167839E+04</pdfrwt>
<pdfrwt beam="2">  1       -2 0.19144053E+00 0.35167839E+04</pdfrwt>
<totfact> 0.44188751E-01</totfact>
</mgrwt>
</event>
<event>
 6    1  0.1878398E-004  0.1286018E+04  0.7818608E-02  0.9040727E-01
          2   -1    0    0  501    0  0.00000000000E+00  0.00000000000E+00  0.51272530649E+03  0.51272530649E+03  0.00000000000E+00 0.  1.
         -2   -1    0    0    0  501 -0.00000000000E+00 -0.00000000000E+00 -0.80639723247E+03  0.80639723247E+03  0.00000000000E+00 0. -1.
         23    2    1    2    0    0 -0.50141175258E+03  0.23317216855E+03  0.18677630217E+03  0.58658345759E+03  0.58410271832E+02 0.  0.
         13    1    3    3    0    0 -0.69433362754E+02  0.27883627820E+02  0.52158817649E+01  0.75004626433E+02  0.00000000000E+00 0. -1.
        -13    1    3    3    0    0 -0.43197838983E+03  0.20528854073E+03  0.18156042040E+03  0.51157883116E+03  0.00000000000E+00 0.  1.
         22    1    1    2    0    0  0.50141175258E+03 -0.23317216855E+03 -0.48044822814E+03  0.73253908137E+03  0.00000000000E+00 0. -1.
<mgrwt>
<rscale>  0 0.12860175E+04</rscale>
<asrwt>0</asrwt>
<pdfrwt beam="1">  1        2 0.78880816E-01 0.12860175E+04</pdfrwt>
<pdfrwt beam="2">  1       -2 0.12406111E+00 0.12860175E+04</pdfrwt>
<totfact> 0.28657408E+01</totfact>
</mgrwt>
</event>
<event>
 6    1  0.1878398E-004  0.3246611E+04  0.7818608E-02  0.8176615E-01
          1   -1    0    0  501    0  0.00000000000E+00  0.00000000000E+00  0.27785378731E+04  0.27785378731E+04  0.00000000000E+00 0. -1.
         -1   -1    0    0    0  501 -0.00000000000E+00 -0.00000000000E+00 -0.94838384627E+03  0.94838384627E+03  0.00000000000E+00 0.  1.
         23    2    1    2    0    0  0.15579705497E+04 -0.10447384912E+03  0.41154888366E+03  0.16172706650E+04  0.89470114397E+02 0.  0.
         11    1    3    3    0    0  0.83065778968E+03 -0.31618243347E+02  0.25786073935E+03  0.87033570406E+03  0.00000000000E+00 0.  1.
        -11    1    3    3    0    0  0.72731276002E+03 -0.72855605774E+02  0.15368814431E+03  0.74693496094E+03  0.00000000000E+00 0. -1.
         22    1    1    2    0    0 -0.15579705497E+04  0.10447384912E+03  0.14186051431E+04  0.21096510543E+04  0.00000000000E+00 0. -1.
<mgrwt>
<rscale>  0 0.32466108E+04</rscale>
<asrwt>0</asrwt>
<pdfrwt beam="1">  1        1 0.42746736E+00 0.32466108E+04</pdfrwt>
<pdfrwt beam="2">  1       -1 0.14590521E+00 0.32466108E+04</pdfrwt>
<totfact> 0.27018905E-01</totfact>
</mgrwt>
</event>
<event>
 6    1  0.2146939E-004  0.1677261E+04  0.7818608E-02  0.8774440E-01
         -2   -1    0    0    0  501 -0.00000000000E+00  0.00000000000E+00  0.42054743702E+03  0.42054743702E+03  0.00000000000E+00 0. -1.
          2   -1    0    0  501    0  0.00000000000E+00 -0.00000000000E+00 -0.16723468559E+04  0.16723468559E+04  0.00000000000E+00 0.  1.
         23    2    1    2    0    0  0.26111358531E+03  0.44696272727E+03  0.19154842796E+03  0.55952904257E+03  0.91793056476E+02 0.  0.
         13    1    3    3    0    0  0.51781832617E+02  0.17176975275E+03  0.77678554740E+02  0.19549978009E+03  0.00000000000E+00 0.  1.
        -13    1    3    3    0    0  0.20933175269E+03  0.27519297453E+03  0.11386987322E+03  0.36402926248E+03  0.00000000000E+00 0. -1.
         22    1    1    2    0    0 -0.26111358531E+03 -0.44696272727E+03 -0.14433478469E+04  0.15333652504E+04  0.00000000000E+00 0.  1.
<mgrwt>
<rscale>  0 0.16772611E+04</rscale>
<asrwt>0</asrwt>
<pdfrwt beam="1">  1        2 0.25728413E+00 0.16772611E+04</pdfrwt>
<pdfrwt beam="2">  1       -2 0.64699606E-01 0.16772611E+04</pdfrwt>
<totfact> 0.21355072E+01</totfact>
</mgrwt>
</event>
<event>
 6    1  0.1878398E-004  0.2630885E+04  0.7818608E-02  0.8357785E-01
          1   -1    0    0  501    0  0.00000000000E+00  0.00000000000E+00  0.23343600771E+04  0.23343600771E+04  0.00000000000E+00 0.  1.
         -1   -1    0    0    0  501 -0.00000000000E+00 -0.00000000000E+00 -0.74126935216E+03  0.74126935216E+03  0.00000000000E+00 0. -1.
         23    2    1    2    0    0 -0.83140853914E+03  0.37818928681E+03  0.19016560129E+04  0.21115340852E+04  0.89517069550E+02 0.  0.
         13    1    3    3    0    0 -0.41872934599E+03  0.20935550151E+03  0.87875846171E+03  0.99568088525E+03  0.00000000000E+00 0.  1.
        -13    1    3    3    0    0 -0.41267919315E+03  0.16883378529E+03  0.10228975512E+04  0.11158531999E+04  0.00000000000E+00 0. -1.
         22    1    1    2    0    0  0.83140853914E+03 -0.37818928681E+03 -0.30856528795E+03  0.96409534411E+03  0.00000000000E+00 0. -1.
<mgrwt>
<rscale>  0 0.26308855E+04</rscale>
<asrwt>0</asrwt>
<pdfrwt beam="1">  1        1 0.35913232E+00 0.26308855E+04</pdfrwt>
<pdfrwt beam="2">  1       -1 0.11404144E+00 0.26308855E+04</pdfrwt>
<totfact> 0.10840389E+00</totfact>
</mgrwt>
</event>
<event>
 6    1  0.1878398E-004  0.1120608E+04  0.7818608E-02  0.9185336E-01
         -2   -1    0    0    0  501 -0.00000000000E+00  0.00000000000E+00  0.11580198911E+03  0.11580198911E+03  0.00000000000E+00 0. -1.
          2   -1    0    0  501    0  0.00000000000E+00 -0.00000000000E+00 -0.27110107631E+04  0.27110107631E+04  0.00000000000E+00 0.  1.
         23    2    1    2    0    0  0.45367257931E+03 -0.24578769626E+03 -0.18330350480E+04  0.19064111065E+04  0.90307358008E+02 0.  0.
         11    1    3    3    0    0  0.63410888058E+02 -0.40566546765E+02 -0.40196244699E+03  0.40895035668E+03  0.00000000000E+00 0. -1.
        -11    1    3    3    0    0  0.39026169126E+03 -0.20522114949E+03 -0.14310726010E+04  0.14974607498E+04  0.00000000000E+00 0.  1.
         22    1    1    2    0    0 -0.45367257931E+03  0.24578769626E+03 -0.76217372597E+03  0.92040164571E+03  0.00000000000E+00 0. -1.
<mgrwt>
<rscale>  0 0.11206078E+04</rscale>
<asrwt>0</asrwt>
<pdfrwt beam="1">  1        2 0.41707855E+00 0.11206078E+04</pdfrwt>
<pdfrwt beam="2">  1       -2 0.17815692E-01 0.11206078E+04</pdfrwt>
<totfact> 0.68651512E+01</totfact>
</mgrwt>
</event>
<event>
 6    1  0.2170698E-004  0.2920805E+04  0.7818608E-02  0.8266714E-01
         -2   -1    0    0    0  501 -0.00000000000E+00  0.00000000000E+00  0.84424993485E+03  0.84424993485E+03  0.00000000000E+00 0. -1.
          2   -1    0    0  501    0  0.00000000000E+00 -0.00000000000E+00 -0.25262370568E+04  0.25262370568E+04  0.00000000000E+00 0.  1.
         23    2    1    2    0    0 -0.10005407394E+04 -0.10508035470E+04 -0.66401552869E+03  0.15980491139E+04  0.87031502822E+02 0.  0.
         11    1    3    3    0    0 -0.61031280084E+03 -0.69332869162E+03 -0.39873664188E+03  0.10060702257E+04  0.00000000000E+00 0. -1.
        -11    1    3    3    0    0 -0.39022793859E+03 -0.35747485541E+03 -0.26527888680E+03  0.59197888821E+03  0.00000000000E+00 0.  1.
         22    1    1    2    0    0  0.10005407394E+04  0.10508035470E+04 -0.10179715933E+04  0.17724378777E+04  0.00000000000E+00 0. -1.
<mgrwt>
<rscale>  0 0.29208050E+04</rscale>
<asrwt>0</asrwt>
<pdfrwt beam="1">  1        2 0.38865185E+00 0.29208050E+04</pdfrwt>
<pdfrwt beam="2">  1       -2 0.12988461E+00 0.29208050E+04</pdfrwt>
<totfact> 0.12602018E+00</totfact>
</mgrwt>
</event>
<event>
 6    1  0.1878398E-004  0.2457828E+04  0.7818608E-02  0.8418165E-01
          2   -1    0    0  501    0  0.00000000000E+00  0.00000000000E+00  0.92349171349E+03  0.92349171349E+03  0.00000000000E+00 0.  1.
         -2   -1    0    0    0  501 -0.00000000000E+00 -0.00000000000E+00 -0.16353478022E+04  0.16353478022E+04  0.00000000000E+00 0. -1.
         23    2    1    2    0    0 -0.10785333846E+02  0.12206303686E+04 -0.22228072582E+03  0.12436441477E+04  0.84777501556E+02 0.  0.
         11    1    3    3    0    0  0.13602416904E+02  0.31757219869E+03 -0.92010390210E+02  0.33091243409E+03  0.00000000000E+00 0.  1.
        -11    1    3    3    0    0 -0.24387750750E+02  0.90305816990E+03 -0.13027033561E+03  0.91273171357E+03  0.00000000000E+00 0. -1.
         22    1    1    2    0    0  0.10785333846E+02 -0.12206303686E+04 -0.48957536290E+03  0.13151953680E+04  0.00000000000E+00 0. -1.
<mgrwt>
<rscale>  0 0.24578284E+04</rscale>
<asrwt>0</asrwt>
<pdfrwt beam="1">  1        2 0.14207565E+00 0.24578284E+04</pdfrwt>
<pdfrwt beam="2">  1       -2 0.25159197E+00 0.24578284E+04</pdfrwt>
<totfact> 0.15895862E+00</totfact>
</mgrwt>
</event>
<event>
 6    1  0.1878398E-004  0.2569203E+04  0.7818608E-02  0.8378738E-01
         -2   -1    0    0    0  501 -0.00000000000E+00  0.00000000000E+00  0.15466356097E+04  0.15466356097E+04  0.00000000000E+00 0. -1.
          2   -1    0    0  501    0  0.00000000000E+00 -0.00000000000E+00 -0.10669616607E+04  0.10669616607E+04  0.00000000000E+00 0.  1.
         23    2    1    2    0    0 -0.37415725906E+03 -0.56173614105E+03  0.13499597643E+04  0.15122623773E+04  0.94894604101E+02 0.  0.
         13    1    3    3    0    0 -0.26726351083E+02 -0.61531405447E+02  0.20053749902E+03  0.21146087159E+03  0.00000000000E+00 0. -1.
        -13    1    3    3    0    0 -0.34743090797E+03 -0.50020473560E+03  0.11494222653E+04  0.13008015057E+04  0.00000000000E+00 0.  1.
         22    1    1    2    0    0  0.37415725906E+03  0.56173614105E+03 -0.87028581529E+03  0.11013348932E+04  0.00000000000E+00 0.  1.
<mgrwt>
<rscale>  0 0.25692029E+04</rscale>
<asrwt>0</asrwt>
<pdfrwt beam="1">  1        2 0.16414795E+00 0.25692029E+04</pdfrwt>
<pdfrwt beam="2">  1       -2 0.23794394E+00 0.25692029E+04</pdfrwt>
<totfact> 0.15450295E+00</totfact>
</mgrwt>
</event>
<event>
 6    1  0.1878398E-004  0.1275116E+04  0.7818608E-02  0.9049535E-01
         -1   -1    0    0    0  501 -0.00000000000E+00  0.00000000000E+00  0.65317420185E+03  0.65317420185E+03  0.00000000000E+00 0. -1.
          1   -1    0    0  501    0  0.00000000000E+00 -0.00000000000E+00 -0.62231475300E+03  0.62231475300E+03  0.00000000000E+00 0.  1.
         23    2    1    2    0    0 -0.31172534378E+03  0.16222501646E+03  0.54387065210E+03  0.65366089133E+03  0.89373534739E+02 0.  0.
         11    1    3    3    0    0 -0.11549501500E+03  0.36623760732E+02  0.25675581913E+03  0.28390834612E+03  0.00000000000E+00 0.  1.
        -11    1    3    3    0    0 -0.19623032878E+03  0.12560125573E+03  0.28711483297E+03  0.36975254520E+03  0.00000000000E+00 0. -1.
         22    1    1    2    0    0  0.31172534378E+03 -0.16222501646E+03 -0.51301120326E+03  0.62182806352E+03  0.00000000000E+00 0.  1.
<mgrwt>
<rscale>  0 0.12751156E+04</rscale>
<asrwt>0</asrwt>
<pdfrwt beam="1">  1        1 0.95740731E-01 0.12751156E+04</pdfrwt>
<pdfrwt beam="2">  1       -1 0.10048834E+00 0.12751156E+04</pdfrwt>
<totfact> 0.30144676E+01</totfact>
</mgrwt>
</event>
<event>
 6    1  0.1878398E-004  0.1111197E+04  0.7818608E-02  0.9194347E-01
          1   -1    0    0  501    0  0.00000000000E+00  0.00000000000E+00  0.78680463235E+03  0.78680463235E+03  0.00000000000E+00 0.  1.
         -1   -1    0    0    0  501 -0.00000000000E+00 -0.00000000000E+00 -0.39233338077E+03  0.39233338077E+03  0.00000000000E+00 0. -1.
         23    2    1    2    0    0  0.24220014036E+03  0.45296828465E+03 -0.17444257094E+02  0.52071902708E+03  0.83682902498E+02 0.  0.
         13    1    3    3    0    0  0.13600738567E+03  0.18265305647E+03 -0.31803809777E+02  0.22993831849E+03  0.00000000000E+00 0.  1.
        -13    1    3    3    0    0  0.10619275469E+03  0.27031522818E+03  0.14359552683E+02  0.29078070859E+03  0.00000000000E+00 0. -1.
         22    1    1    2    0    0 -0.24220014036E+03 -0.45296828465E+03  0.41191550867E+03  0.65841898603E+03  0.00000000000E+00 0.  1.
<mgrwt>
<rscale>  0 0.11111971E+04</rscale>
<asrwt>0</asrwt>
<pdfrwt beam="1">  1        1 0.12104687E+00 0.11111971E+04</pdfrwt>
<pdfrwt beam="2">  1       -1 0.60358982E-01 0.11111971E+04</pdfrwt>
<totfact> 0.62939505E+01</totfact>
</mgrwt>
</event>
<event>
 6    1  0.1878398E-004  0.6909642E+03  0.7818608E-02  0.9732811E-01
          2   -1    0    0  501    0  0.00000000000E+00  0.00000000000E+00  0.13836110061E+04  0.13836110061E+04  0.00000000000E+00 0.  1.
         -2   -1    0    0    0  501 -0.00000000000E+00 -0.00000000000E+00 -0.86265492458E+02  0.86265492458E+02  0.00000000000E+00 0. -1.
         23    2    1    2    0    0  0.21477840571E+03 -0.11207087919E+03  0.15658474975E+03  0.30367550132E+03  0.94923025280E+02 0.  0.
         11    1    3    3    0    0  0.11390338432E+03 -0.21331421511E+02  0.11119573453E+03  0.16060355500E+03  0.00000000000E+00 0. -1.
        -11    1    3    3    0    0  0.10087502139E+03 -0.90739457679E+02  0.45389015222E+02  0.14307194632E+03  0.00000000000E+00 0.  1.
         22    1    1    2    0    0 -0.21477840571E+03  0.11207087919E+03  0.11407607639E+04  0.11662009973E+04  0.00000000000E+00 0.  1.
<mgrwt>
<rscale>  0 0.69096421E+03</rscale>
<asrwt>0</asrwt>
<pdfrwt beam="1">  1        2 0.21286322E+00 0.69096421E+03</pdfrwt>
<pdfrwt beam="2">  1       -2 0.13271615E-01 0.69096421E+03</pdfrwt>
<totfact> 0.64480971E+02</totfact>
</mgrwt>
</event>
<event>
 6    1  0.1878398E-004  0.2892054E+04  0.7818608E-02  0.8275246E-01
          1   -1    0    0  501    0  0.00000000000E+00  0.00000000000E+00  0.11170844382E+04  0.11170844382E+04  0.00000000000E+00 0.  1.
         -1   -1    0    0    0  501 -0.00000000000E+00 -0.00000000000E+00 -0.18718317894E+04  0.18718317894E+04  0.00000000000E+00 0. -1.
         23    2    1    2    0    0 -0.71673322813E+03  0.85342880836E+03 -0.13276519892E+04  0.17358132887E+04  0.91327527915E+02 0.  0.
         13    1    3    3    0    0 -0.22979389293E+03  0.22551311412E+03 -0.42628530503E+03  0.53421021999E+03  0.00000000000E+00 0.  1.
        -13    1    3    3    0    0 -0.48693933520E+03  0.62791569425E+03 -0.90136668419E+03  0.12016030687E+04  0.00000000000E+00 0. -1.
         22    1    1    2    0    0  0.71673322813E+03 -0.85342880836E+03  0.57290463805E+03  0.12531029389E+04  0.00000000000E+00 0.  1.
<mgrwt>
<rscale>  0 0.28920541E+04</rscale>
<asrwt>0</asrwt>
<pdfrwt beam="1">  1        1 0.17185915E+00 0.28920541E+04</pdfrwt>
<pdfrwt beam="2">  1       -1 0.28797412E+00 0.28920541E+04</pdfrwt>
<totfact> 0.41777179E-01</totfact>
</mgrwt>
</event>
<event>
 6    1  0.1878398E-004  0.2677296E+04  0.7818608E-02  0.8342410E-01
          1   -1    0    0  501    0  0.00000000000E+00  0.00000000000E+00  0.96175154150E+03  0.96175154150E+03  0.00000000000E+00 0. -1.
         -1   -1    0    0    0  501 -0.00000000000E+00 -0.00000000000E+00 -0.18632441262E+04  0.18632441262E+04  0.00000000000E+00 0.  1.
         23    2    1    2    0    0  0.25442964063E+03 -0.19901465425E+03  0.91805321934E+03  0.97699994053E+03  0.85824796029E+02 0.  0.
         13    1    3    3    0    0  0.20532152511E+03 -0.11637356354E+03  0.60042684167E+03  0.64514504351E+03  0.00000000000E+00 0. -1.
        -13    1    3    3    0    0  0.49108115513E+02 -0.82641090715E+02  0.31762637767E+03  0.33185489702E+03  0.00000000000E+00 0.  1.
         22    1    1    2    0    0 -0.25442964063E+03  0.19901465425E+03 -0.18195458041E+04  0.18479957272E+04  0.00000000000E+00 0.  1.
<mgrwt>
<rscale>  0 0.26772956E+04</rscale>
<asrwt>0</asrwt>
<pdfrwt beam="1">  1        1 0.14796178E+00 0.26772956E+04</pdfrwt>
<pdfrwt beam="2">  1       -1 0.28665294E+00 0.26772956E+04</pdfrwt>
<totfact> 0.57190787E-01</totfact>
</mgrwt>
</event>
<event>
 6    1  0.1878398E-004  0.9552096E+03  0.7818608E-02  0.9359082E-01
          1   -1    0    0  501    0  0.00000000000E+00  0.00000000000E+00  0.39696018130E+03  0.39696018130E+03  0.00000000000E+00 0.  1.
         -1   -1    0    0    0  501 -0.00000000000E+00 -0.00000000000E+00 -0.57463280134E+03  0.57463280134E+03  0.00000000000E+00 0. -1.
         23    2    1    2    0    0 -0.22498830830E+03 -0.14271687955E+03  0.30783630879E+03  0.41778185369E+03  0.93758400602E+02 0.  0.
         11    1    3    3    0    0 -0.13000406299E+03 -0.27477869331E+02  0.13643223867E+03  0.19044643721E+03  0.00000000000E+00 0. -1.
        -11    1    3    3    0    0 -0.94984245309E+02 -0.11523901022E+03  0.17140407012E+03  0.22733541648E+03  0.00000000000E+00 0.  1.
         22    1    1    2    0    0  0.22498830830E+03  0.14271687955E+03 -0.48550892883E+03  0.55381112895E+03  0.00000000000E+00 0. -1.
<mgrwt>
<rscale>  0 0.95520959E+03</rscale>
<asrwt>0</asrwt>
<pdfrwt beam="1">  1        1 0.61070797E-01 0.95520959E+03</pdfrwt>
<pdfrwt beam="2">  1       -1 0.88405047E-01 0.95520959E+03</pdfrwt>
<totfact> 0.76594846E+01</totfact>
</mgrwt>
</event>
<event>
 6    1  0.1878398E-004  0.4488169E+04  0.7818608E-02  0.7912711E-01
         -2   -1    0    0    0  501 -0.00000000000E+00  0.00000000000E+00  0.12500923856E+04  0.12500923856E+04  0.00000000000E+00 0. -1.
          2   -1    0    0  501    0  0.00000000000E+00 -0.00000000000E+00 -0.40284351461E+04  0.40284351461E+04  0.00000000000E+00 0.  1.
         23    2    1    2    0    0  0.11736111357E+03  0.12247914132E+04 -0.35956248381E+04  0.38014230563E+04  0.91714990812E+02 0.  0.
         13    1    3    3    0    0  0.11748612248E+03  0.92503417705E+03 -0.28014323514E+04  0.29525437231E+04  0.00000000000E+00 0. -1.
        -13    1    3    3    0    0 -0.12500890498E+00  0.29975723619E+03 -0.79419248676E+03  0.84887933318E+03  0.00000000000E+00 0.  1.
         22    1    1    2    0    0 -0.11736111357E+03 -0.12247914132E+04  0.81728207754E+03  0.14771044754E+04  0.00000000000E+00 0. -1.
<mgrwt>
<rscale>  0 0.44881694E+04</rscale>
<asrwt>0</asrwt>
<pdfrwt beam="1">  1        2 0.61975926E+00 0.44881694E+04</pdfrwt>
<pdfrwt beam="2">  1       -2 0.19232190E+00 0.44881694E+04</pdfrwt>
<totfact> 0.36628477E-02</totfact>
</mgrwt>
</event>
<event>
 6    1  0.1878398E-004  0.1914569E+04  0.7818608E-02  0.8647638E-01
          2   -1    0    0  501    0  0.00000000000E+00  0.00000000000E+00  0.25007652335E+04  0.25007652335E+04  0.00000000000E+00 0.  1.
         -2   -1    0    0    0  501 -0.00000000000E+00 -0.00000000000E+00 -0.36644512911E+03  0.36644512911E+03  0.00000000000E+00 0. -1.
         23    2    1    2    0    0  0.18569018546E+02  0.66605134276E+03  0.44622151592E+02  0.67385523096E+03  0.90114017998E+02 0.  0.
         13    1    3    3    0    0 -0.14312780500E+02  0.55460588637E+02 -0.15758176294E+02  0.59405830503E+02  0.00000000000E+00 0. -1.
        -13    1    3    3    0    0  0.32881799046E+02  0.61059075412E+03  0.60380327886E+02  0.61444940045E+03  0.00000000000E+00 0.  1.
         22    1    1    2    0    0 -0.18569018546E+02 -0.66605134276E+03  0.20896979527E+04  0.21933551316E+04  0.00000000000E+00 0.  1.
<mgrwt>
<rscale>  0 0.19145686E+04</rscale>
<asrwt>0</asrwt>
<pdfrwt beam="1">  1        2 0.38473310E+00 0.19145686E+04</pdfrwt>
<pdfrwt beam="2">  1       -2 0.56376175E-01 0.19145686E+04</pdfrwt>
<totfact> 0.96132240E+00</totfact>
</mgrwt>
</event>
<event>
 6    1  0.1878398E-004  0.2979312E+04  0.7818608E-02  0.8249663E-01
         -2   -1    0    0    0  501 -0.00000000000E+00  0.00000000000E+00  0.70418391309E+03  0.70418391309E+03  0.00000000000E+00 0. -1.
          2   -1    0    0  501    0  0.00000000000E+00 -0.00000000000E+00 -0.31512723704E+04  0.31512723704E+04  0.00000000000E+00 0.  1.
         23    2    1    2    0    0  0.96932860062E+03  0.68554571434E+03 -0.63338730263E+02  0.11924065987E+04  0.90834131721E+02 0.  0.
         13    1    3    3    0    0  0.33130399443E+03  0.18527280038E+03 -0.64789574497E+01  0.37964499757E+03  0.00000000000E+00 0.  1.
        -13    1    3    3    0    0  0.63802460618E+03  0.50027291396E+03 -0.56859772813E+02  0.81276160115E+03  0.00000000000E+00 0. -1.
         22    1    1    2    0    0 -0.96932860062E+03 -0.68554571434E+03 -0.23837497271E+04  0.26630496848E+04  0.00000000000E+00 0.  1.
<mgrwt>
<rscale>  0 0.29793122E+04</rscale>
<asrwt>0</asrwt>
<pdfrwt beam="1">  1        2 0.48481112E+00 0.29793122E+04</pdfrwt>
<pdfrwt beam="2">  1       -2 0.10833599E+00 0.29793122E+04</pdfrwt>
<totfact> 0.81479960E-01</totfact>
</mgrwt>
</event>
<event>
 6    1  0.1878398E-004  0.2923182E+04  0.7818608E-02  0.8266013E-01
         -1   -1    0    0    0  501 -0.00000000000E+00  0.00000000000E+00  0.81620762511E+03  0.81620762511E+03  0.00000000000E+00 0.  1.
          1   -1    0    0  501    0  0.00000000000E+00 -0.00000000000E+00 -0.26172860131E+04  0.26172860131E+04  0.00000000000E+00 0. -1.
         23    2    1    2    0    0  0.11959371075E+04 -0.70691098556E+03 -0.14295458009E+04  0.19954306459E+04  0.90297059547E+02 0.  0.
         11    1    3    3    0    0  0.95993723780E+03 -0.60678774806E+03 -0.11539023157E+04  0.16190001315E+04  0.00000000000E+00 0. -1.
        -11    1    3    3    0    0  0.23599986970E+03 -0.10012323750E+03 -0.27564348522E+03  0.37643051434E+03  0.00000000000E+00 0.  1.
         22    1    1    2    0    0 -0.11959371075E+04  0.70691098556E+03 -0.37153258704E+03  0.14380629923E+04  0.00000000000E+00 0.  1.
<mgrwt>
<rscale>  0 0.29231824E+04</rscale>
<asrwt>0</asrwt>
<pdfrwt beam="1">  1        1 0.40265938E+00 0.29231824E+04</pdfrwt>
<pdfrwt beam="2">  1       -1 0.12557041E+00 0.29231824E+04</pdfrwt>
<totfact> 0.53161577E-01</totfact>
</mgrwt>
</event>
<event>
 6    1  0.1878398E-004  0.2651800E+04  0.7818608E-02  0.8350816E-01
         -1   -1    0    0    0  501 -0.00000000000E+00  0.00000000000E+00  0.11234402741E+04  0.11234402741E+04  0.00000000000E+00 0. -1.
          1   -1    0    0  501    0  0.00000000000E+00 -0.00000000000E+00 -0.15648457095E+04  0.15648457095E+04  0.00000000000E+00 0.  1.
         23    2    1    2    0    0  0.15255730283E+03 -0.32680062885E+03 -0.15126876294E+04  0.15579241296E+04  0.93975250374E+02 0.  0.
         11    1    3    3    0    0  0.46269229566E+01 -0.65922480855E+02 -0.17578399172E+03  0.18779561668E+03  0.00000000000E+00 0.  1.
        -11    1    3    3    0    0  0.14793037987E+03 -0.26087814799E+03 -0.13369036377E+04  0.13701285129E+04  0.00000000000E+00 0. -1.
         22    1    1    2    0    0 -0.15255730283E+03  0.32680062885E+03  0.10712821941E+04  0.11303618540E+04  0.00000000000E+00 0. -1.
<mgrwt>
<rscale>  0 0.26517999E+04</rscale>
<asrwt>0</asrwt>
<pdfrwt beam="1">  1        1 0.24074549E+00 0.26517999E+04</pdfrwt>
<pdfrwt beam="2">  1       -1 0.17283697E+00 0.26517999E+04</pdfrwt>
<totfact> 0.12134182E+00</totfact>
</mgrwt>
</event>
<event>
 6    1  0.1878398E-004  0.1229808E+04  0.7818608E-02  0.9087158E-01
         -1   -1    0    0    0  501 -0.00000000000E+00  0.00000000000E+00  0.47357386279E+03  0.47357386279E+03  0.00000000000E+00 0. -1.
          1   -1    0    0  501    0  0.00000000000E+00 -0.00000000000E+00 -0.79841182939E+03  0.79841182939E+03  0.00000000000E+00 0.  1.
         23    2    1    2    0    0 -0.30042706995E+03 -0.34808296454E+03 -0.58023228716E+03  0.74601569917E+03  0.91933355139E+02 0.  0.
         13    1    3    3    0    0 -0.28866807136E+03 -0.31500043486E+03 -0.49536239417E+03  0.65417003214E+03  0.00000000000E+00 0.  1.
        -13    1    3    3    0    0 -0.11758998592E+02 -0.33082529680E+02 -0.84869892983E+02  0.91845667034E+02  0.00000000000E+00 0. -1.
         22    1    1    2    0    0  0.30042706995E+03  0.34808296454E+03  0.25539432056E+03  0.52596999300E+03  0.00000000000E+00 0. -1.
<mgrwt>
<rscale>  0 0.12298081E+04</rscale>
<asrwt>0</asrwt>
<pdfrwt beam="1">  1        1 0.12283259E+00 0.12298081E+04</pdfrwt>
<pdfrwt beam="2">  1       -1 0.72857518E-01 0.12298081E+04</pdfrwt>
<totfact> 0.41621205E+01</totfact>
</mgrwt>
</event>
<event>
 6    1  0.1878398E-004  0.2146816E+04  0.7818608E-02  0.8540896E-01
          1   -1    0    0  501    0  0.00000000000E+00  0.00000000000E+00  0.83418125963E+03  0.83418125963E+03  0.00000000000E+00 0.  1.
         -1   -1    0    0    0  501 -0.00000000000E+00 -0.00000000000E+00 -0.13812406788E+04  0.13812406788E+04  0.00000000000E+00 0. -1.
         23    2    1    2    0    0 -0.31289280634E+01 -0.42647591626E+03 -0.12883583262E+04  0.13601935673E+04  0.91476043895E+02 0.  0.
         11    1    3    3    0    0 -0.33492647031E+02 -0.27845033745E+03 -0.92748859184E+03  0.96896410450E+03  0.00000000000E+00 0.  1.
        -11    1    3    3    0    0  0.30363718968E+02 -0.14802557881E+03 -0.36086973434E+03  0.39122946281E+03  0.00000000000E+00 0. -1.
         22    1    1    2    0    0  0.31289280634E+01  0.42647591626E+03  0.74129890697E+03  0.85522837115E+03  0.00000000000E+00 0.  1.
<mgrwt>
<rscale>  0 0.21468163E+04</rscale>
<asrwt>0</asrwt>
<pdfrwt beam="1">  1        1 0.12833558E+00 0.21468163E+04</pdfrwt>
<pdfrwt beam="2">  1       -1 0.21249856E+00 0.21468163E+04</pdfrwt>
<totfact> 0.23390933E+00</totfact>
</mgrwt>
</event>
<event>
 6    1  0.1878398E-004  0.1831609E+04  0.7818608E-02  0.8689668E-01
         -2   -1    0    0    0  501 -0.00000000000E+00  0.00000000000E+00  0.70524310585E+03  0.70524310585E+03  0.00000000000E+00 0. -1.
          2   -1    0    0  501    0  0.00000000000E+00 -0.00000000000E+00 -0.11892325359E+04  0.11892325359E+04  0.00000000000E+00 0.  1.
         23    2    1    2    0    0  0.38990350734E+03  0.41520586973E+03 -0.98139397738E+03  0.11382799376E+04  0.90146648608E+02 0.  0.
         11    1    3    3    0    0  0.36344084976E+02  0.84750977019E+01 -0.75041284397E+02  0.83808795229E+02  0.00000000000E+00 0. -1.
        -11    1    3    3    0    0  0.35355942236E+03  0.40673077203E+03 -0.90635269298E+03  0.10544711424E+04  0.00000000000E+00 0.  1.
         22    1    1    2    0    0 -0.38990350734E+03 -0.41520586973E+03  0.49740454731E+03  0.75619570415E+03  0.00000000000E+00 0. -1.
<mgrwt>
<rscale>  0 0.18316092E+04</rscale>
<asrwt>0</asrwt>
<pdfrwt beam="1">  1        2 0.18295885E+00 0.18316092E+04</pdfrwt>
<pdfrwt beam="2">  1       -2 0.10849894E+00 0.18316092E+04</pdfrwt>
<totfact> 0.12298752E+01</totfact>
</mgrwt>
</event>
<event>
 6    1  0.1878398E-004  0.1158290E+04  0.7818608E-02  0.9150169E-01
         -1   -1    0    0    0  501 -0.00000000000E+00  0.00000000000E+00  0.25048820383E+03  0.25048820383E+03  0.00000000000E+00 0. -1.
          1   -1    0    0  501    0  0.00000000000E+00 -0.00000000000E+00 -0.13390212172E+04  0.13390212172E+04  0.00000000000E+00 0.  1.
         23    2    1    2    0    0 -0.47612143740E+02 -0.32142308204E+03 -0.11996484114E+04  0.12461053651E+04  0.89680300199E+02 0.  0.
         13    1    3    3    0    0 -0.56008314642E+02 -0.25753238985E+03 -0.82864600267E+03  0.86954819353E+03  0.00000000000E+00 0.  1.
        -13    1    3    3    0    0  0.83961709023E+01 -0.63890692192E+02 -0.37100240869E+03  0.37655717161E+03  0.00000000000E+00 0. -1.
         22    1    1    2    0    0  0.47612143740E+02  0.32142308204E+03  0.11111539802E+03  0.34340405586E+03  0.00000000000E+00 0. -1.
<mgrwt>
<rscale>  0 0.11582902E+04</rscale>
<asrwt>0</asrwt>
<pdfrwt beam="1">  1        1 0.20600326E+00 0.11582902E+04</pdfrwt>
<pdfrwt beam="2">  1       -1 0.38536647E-01 0.11582902E+04</pdfrwt>
<totfact> 0.54882711E+01</totfact>
</mgrwt>
</event>
<event>
 6    1  0.1878398E-004  0.1931107E+04  0.7818608E-02  0.8639525E-01
          2   -1    0    0  501    0  0.00000000000E+00  0.00000000000E+00  0.15528664052E+04  0.15528664052E+04  0.00000000000E+00 0.  1.
         -2   -1    0    0    0  501 -0.00000000000E+00 -0.00000000000E+00 -0.60036951984E+03  0.60036951984E+03  0.00000000000E+00 0. -1.
         23    2    1    2    0    0  0.78553835387E+03 -0.20445746608E+03 -0.10112490748E+03  0.82320124761E+03  0.92523977034E+02 0.  0.
         11    1    3    3    0    0  0.58006368998E+03 -0.13507077972E+03 -0.35601628474E+02  0.59664518428E+03  0.00000000000E+00 0.  1.
        -11    1    3    3    0    0  0.20547466388E+03 -0.69386686357E+02 -0.65523279010E+02  0.22655606334E+03  0.00000000000E+00 0. -1.
         22    1    1    2    0    0 -0.78553835387E+03  0.20445746608E+03  0.10536217928E+04  0.13300346774E+04  0.00000000000E+00 0.  1.
<mgrwt>
<rscale>  0 0.19311071E+04</rscale>
<asrwt>0</asrwt>
<pdfrwt beam="1">  1        2 0.23890252E+00 0.19311071E+04</pdfrwt>
<pdfrwt beam="2">  1       -2 0.92364542E-01 0.19311071E+04</pdfrwt>
<totfact> 0.11019827E+01</totfact>
</mgrwt>
</event>
<event>
 6    1  0.1878398E-004  0.1563542E+04  0.7818608E-02  0.8843264E-01
         -1   -1    0    0    0  501 -0.00000000000E+00  0.00000000000E+00  0.38403069387E+03  0.38403069387E+03  0.00000000000E+00 0. -1.
          1   -1    0    0  501    0  0.00000000000E+00 -0.00000000000E+00 -0.15914516515E+04  0.15914516515E+04  0.00000000000E+00 0.  1.
         23    2    1    2    0    0  0.10064259204E+03  0.64987130282E+03 -0.77088799871E+02  0.66776967493E+03  0.86671876198E+02 0.  0.
         11    1    3    3    0    0  0.26322353836E+02  0.34409191723E+02 -0.30297390483E+01  0.43428540215E+02  0.00000000000E+00 0. -1.
        -11    1    3    3    0    0  0.74320238207E+02  0.61546211110E+03 -0.74059060822E+02  0.62434113472E+03  0.00000000000E+00 0.  1.
         22    1    1    2    0    0 -0.10064259204E+03 -0.64987130282E+03 -0.11303321578E+04  0.13077126705E+04  0.00000000000E+00 0.  1.
<mgrwt>
<rscale>  0 0.15635425E+04</rscale>
<asrwt>0</asrwt>
<pdfrwt beam="1">  1        1 0.24483871E+00 0.15635425E+04</pdfrwt>
<pdfrwt beam="2">  1       -1 0.59081646E-01 0.15635425E+04</pdfrwt>
<totfact> 0.15806263E+01</totfact>
</mgrwt>
</event>
<event>
 6    1  0.1878398E-004  0.5649463E+03  0.7818608E-02  0.9980924E-01
          1   -1    0    0  501    0  0.00000000000E+00  0.00000000000E+00  0.83613437188E+03  0.83613437188E+03  0.00000000000E+00 0.  1.
         -1   -1    0    0    0  501 -0.00000000000E+00 -0.00000000000E+00 -0.95428547197E+02  0.95428547197E+02  0.00000000000E+00 0. -1.
         23    2    1    2    0    0  0.22418646198E+02 -0.25503733135E+03  0.21458021999E+03  0.34645199969E+03  0.91856851665E+02 0.  0.
         11    1    3    3    0    0 -0.10204511541E+02 -0.15377573896E+03  0.76256794458E+02  0.17194827318E+03  0.00000000000E+00 0.  1.
        -11    1    3    3    0    0  0.32623157740E+02 -0.10126159239E+03  0.13832342554E+03  0.17450372651E+03  0.00000000000E+00 0. -1.
         22    1    1    2    0    0 -0.22418646198E+02  0.25503733135E+03  0.52612560469E+03  0.58511091938E+03  0.00000000000E+00 0.  1.
<mgrwt>
<rscale>  0 0.56494633E+03</rscale>
<asrwt>0</asrwt>
<pdfrwt beam="1">  1        1 0.12863605E+00 0.56494633E+03</pdfrwt>
<pdfrwt beam="2">  1       -1 0.14681315E-01 0.56494633E+03</pdfrwt>
<totfact> 0.70905634E+02</totfact>
</mgrwt>
</event>
<event>
 6    1  0.1878398E-004  0.1267654E+04  0.7818608E-02  0.9055616E-01
         -1   -1    0    0    0  501 -0.00000000000E+00  0.00000000000E+00  0.18806191042E+03  0.18806191042E+03  0.00000000000E+00 0. -1.
          1   -1    0    0  501    0  0.00000000000E+00 -0.00000000000E+00 -0.21361939855E+04  0.21361939855E+04  0.00000000000E+00 0.  1.
         23    2    1    2    0    0  0.59929617617E+03 -0.18835672600E+03 -0.10827776896E+04  0.12549232182E+04  0.88264351027E+02 0.  0.
         13    1    3    3    0    0  0.15968275871E+03 -0.88436288241E+02 -0.34481328069E+03  0.39014838081E+03  0.00000000000E+00 0.  1.
        -13    1    3    3    0    0  0.43961341746E+03 -0.99920437764E+02 -0.73796440886E+03  0.86477483743E+03  0.00000000000E+00 0. -1.
         22    1    1    2    0    0 -0.59929617617E+03  0.18835672600E+03 -0.86535438552E+03  0.10693326777E+04  0.00000000000E+00 0. -1.
<mgrwt>
<rscale>  0 0.12676541E+04</rscale>
<asrwt>0</asrwt>
<pdfrwt beam="1">  1        1 0.32864524E+00 0.12676541E+04</pdfrwt>
<pdfrwt beam="2">  1       -1 0.28932601E-01 0.12676541E+04</pdfrwt>
<totfact> 0.25844037E+01</totfact>
</mgrwt>
</event>
<event>
 6    1  0.1878398E-004  0.1504038E+04  0.7818608E-02  0.8881772E-01
         -2   -1    0    0    0  501 -0.00000000000E+00  0.00000000000E+00  0.28594117212E+03  0.28594117212E+03  0.00000000000E+00 0. -1.
          2   -1    0    0  501    0  0.00000000000E+00 -0.00000000000E+00 -0.19777932841E+04  0.19777932841E+04  0.00000000000E+00 0.  1.
         23    2    1    2    0    0 -0.54486281017E+03 -0.30580110650E+03 -0.14714151390E+04  0.16011770944E+04  0.91190885831E+02 0.  0.
         11    1    3    3    0    0 -0.85498973345E+02 -0.29843688774E+02 -0.29218443227E+03  0.30589616321E+03  0.00000000000E+00 0. -1.
        -11    1    3    3    0    0 -0.45936383683E+03 -0.27595741773E+03 -0.11792307067E+04  0.12952809312E+04  0.00000000000E+00 0.  1.
         22    1    1    2    0    0  0.54486281017E+03  0.30580110650E+03 -0.22043697295E+03  0.66255736181E+03  0.00000000000E+00 0. -1.
<mgrwt>
<rscale>  0 0.15040379E+04</rscale>
<asrwt>0</asrwt>
<pdfrwt beam="1">  1        2 0.30427589E+00 0.15040379E+04</pdfrwt>
<pdfrwt beam="2">  1       -2 0.43990949E-01 0.15040379E+04</pdfrwt>
<totfact> 0.32546647E+01</totfact>
</mgrwt>
</event>
<event>
 6    1  0.1878398E-004  0.1252672E+04  0.7818608E-02  0.9067962E-01
         -2   -1    0    0    0  501 -0.00000000000E+00  0.00000000000E+00  0.10330693886E+04  0.10330693886E+04  0.00000000000E+00 0. -1.
          2   -1    0    0  501    0  0.00000000000E+00 -0.00000000000E+00 -0.37973899867E+03  0.37973899867E+03  0.00000000000E+00 0.  1.
         23    2    1    2    0    0 -0.24348765291E+03  0.47591654194E+02  0.97242709365E+03  0.10086130026E+04  0.10067042250E+03 0.  0.
         13    1    3    3    0    0 -0.20196742010E+03  0.77544492877E+02  0.77043532973E+03  0.80023408103E+03  0.00000000000E+00 0.  1.
        -13    1    3    3    0    0 -0.41520232815E+02 -0.29952838683E+02  0.20199176393E+03  0.20837892161E+03  0.00000000000E+00 0. -1.
         22    1    1    2    0    0  0.24348765291E+03 -0.47591654194E+02 -0.31909670369E+03  0.40419538465E+03  0.00000000000E+00 0.  1.
<mgrwt>
<rscale>  0 0.12526719E+04</rscale>
<asrwt>0</asrwt>
<pdfrwt beam="1">  1        2 0.58421385E-01 0.12526719E+04</pdfrwt>
<pdfrwt beam="2">  1       -2 0.15893375E+00 0.12526719E+04</pdfrwt>
<totfact> 0.21244336E+01</totfact>
</mgrwt>
</event>
<event>
 6    1  0.1878398E-004  0.2641906E+04  0.7818608E-02  0.8354104E-01
         -2   -1    0    0    0  501 -0.00000000000E+00  0.00000000000E+00  0.51438979307E+03  0.51438979307E+03  0.00000000000E+00 0. -1.
          2   -1    0    0  501    0  0.00000000000E+00 -0.00000000000E+00 -0.33922071701E+04  0.33922071701E+04  0.00000000000E+00 0.  1.
         23    2    1    2    0    0  0.85983991239E+03  0.58396517283E+03 -0.23875347995E+03  0.10702263508E+04  0.89672847929E+02 0.  0.
         13    1    3    3    0    0  0.73932140028E+03  0.53763260839E+03 -0.20971138986E+03  0.93788262674E+03  0.00000000000E+00 0.  1.
        -13    1    3    3    0    0  0.12051851211E+03  0.46332564440E+02 -0.29042090084E+02  0.13234372402E+03  0.00000000000E+00 0. -1.
         22    1    1    2    0    0 -0.85983991239E+03 -0.58396517283E+03 -0.26390638970E+04  0.28363706124E+04  0.00000000000E+00 0.  1.
<mgrwt>
<rscale>  0 0.26419059E+04</rscale>
<asrwt>0</asrwt>
<pdfrwt beam="1">  1        2 0.52187803E+00 0.26419059E+04</pdfrwt>
<pdfrwt beam="2">  1       -2 0.79136890E-01 0.26419059E+04</pdfrwt>
<totfact> 0.12054226E+00</totfact>
</mgrwt>
</event>
<event>
 6    1  0.1878398E-004  0.1379327E+04  0.7818608E-02  0.8968920E-01
          2   -1    0    0  501    0  0.00000000000E+00  0.00000000000E+00  0.17401608259E+04  0.17401608259E+04  0.00000000000E+00 0.  1.
         -2   -1    0    0    0  501 -0.00000000000E+00 -0.00000000000E+00 -0.27332868810E+03  0.27332868810E+03  0.00000000000E+00 0. -1.
         23    2    1    2    0    0 -0.60986431335E+03  0.31215213043E+03  0.67117804595E+03  0.96351862532E+03  0.92275341984E+02 0.  0.
         11    1    3    3    0    0 -0.21253748949E+03  0.79646610642E+02  0.17442545902E+03  0.28625165114E+03  0.00000000000E+00 0.  1.
        -11    1    3    3    0    0 -0.39732682386E+03  0.23250551979E+03  0.49675258693E+03  0.67726697418E+03  0.00000000000E+00 0. -1.
         22    1    1    2    0    0  0.60986431335E+03 -0.31215213043E+03  0.79565409189E+03  0.10499708887E+04  0.00000000000E+00 0. -1.
<mgrwt>
<rscale>  0 0.13793272E+04</rscale>
<asrwt>0</asrwt>
<pdfrwt beam="1">  1        2 0.26771704E+00 0.13793272E+04</pdfrwt>
<pdfrwt beam="2">  1       -2 0.42050569E-01 0.13793272E+04</pdfrwt>
<totfact> 0.48662696E+01</totfact>
</mgrwt>
</event>
<event>
 6    1  0.1878398E-004  0.2210472E+04  0.7818608E-02  0.8514082E-01
          1   -1    0    0  501    0  0.00000000000E+00  0.00000000000E+00  0.12744256777E+04  0.12744256777E+04  0.00000000000E+00 0.  1.
         -1   -1    0    0    0  501 -0.00000000000E+00 -0.00000000000E+00 -0.95850740975E+03  0.95850740975E+03  0.00000000000E+00 0. -1.
         23    2    1    2    0    0 -0.91980683030E+03 -0.59986759311E+03  0.26668677821E+03  0.11337017770E+04  0.90951345188E+02 0.  0.
         11    1    3    3    0    0 -0.89486004582E+03 -0.58297190627E+03  0.27421768753E+03  0.11026450405E+04  0.00000000000E+00 0. -1.
        -11    1    3    3    0    0 -0.24946784478E+02 -0.16895686839E+02 -0.75309093192E+01  0.31056736544E+02  0.00000000000E+00 0.  1.
         22    1    1    2    0    0  0.91980683030E+03  0.59986759311E+03  0.49231489781E+02  0.10992313105E+04  0.00000000000E+00 0.  1.
<mgrwt>
<rscale>  0 0.22104719E+04</rscale>
<asrwt>0</asrwt>
<pdfrwt beam="1">  1        1 0.19606549E+00 0.22104719E+04</pdfrwt>
<pdfrwt beam="2">  1       -1 0.14746268E+00 0.22104719E+04</pdfrwt>
<totfact> 0.31399368E+00</totfact>
</mgrwt>
</event>
<event>
 6    1  0.1878398E-004  0.1594646E+04  0.7818608E-02  0.8823844E-01
          1   -1    0    0  501    0  0.00000000000E+00  0.00000000000E+00  0.12372463363E+04  0.12372463363E+04  0.00000000000E+00 0.  1.
         -1   -1    0    0    0  501 -0.00000000000E+00 -0.00000000000E+00 -0.51382178442E+03  0.51382178442E+03  0.00000000000E+00 0. -1.
         23    2    1    2    0    0 -0.71198556150E+03 -0.21545713940E+03  0.67138250572E+03  0.10053781092E+04  0.81764630949E+02 0.  0.
         11    1    3    3    0    0 -0.28135410997E+03 -0.12718861593E+03  0.27733400719E+03  0.41503160213E+03  0.00000000000E+00 0. -1.
        -11    1    3    3    0    0 -0.43063145152E+03 -0.88268523468E+02  0.39404849853E+03  0.59034650712E+03  0.00000000000E+00 0.  1.
         22    1    1    2    0    0  0.71198556150E+03  0.21545713940E+03  0.52042046213E+02  0.74569001151E+03  0.00000000000E+00 0. -1.
<mgrwt>
<rscale>  0 0.15946462E+04</rscale>
<asrwt>0</asrwt>
<pdfrwt beam="1">  1        1 0.19034559E+00 0.15946462E+04</pdfrwt>
<pdfrwt beam="2">  1       -1 0.79049506E-01 0.15946462E+04</pdfrwt>
<totfact> 0.15419909E+01</totfact>
</mgrwt>
</event>
<event>
 6    1  0.1878398E-004  0.1402269E+04  0.7818608E-02  0.8952177E-01
         -2   -1    0    0    0  501 -0.00000000000E+00  0.00000000000E+00  0.28860678047E+03  0.28860678047E+03  0.00000000000E+00 0. -1.
          2   -1    0    0  501    0  0.00000000000E+00 -0.00000000000E+00 -0.17033206752E+04  0.17033206752E+04  0.00000000000E+00 0.  1.
         23    2    1    2    0    0  0.39273678483E+03 -0.57704313863E+03 -0.69304120247E+03  0.98791926810E+03  0.91964155897E+02 0.  0.
         13    1    3    3    0    0  0.24596537081E+03 -0.33609478144E+03 -0.47223955372E+03  0.62965773389E+03  0.00000000000E+00 0. -1.
        -13    1    3    3    0    0  0.14677141402E+03 -0.24094835719E+03 -0.22080164875E+03  0.35826153421E+03  0.00000000000E+00 0.  1.
         22    1    1    2    0    0 -0.39273678483E+03  0.57704313863E+03 -0.72167269230E+03  0.10040081876E+04  0.00000000000E+00 0.  1.
<mgrwt>
<rscale>  0 0.14022694E+04</rscale>
<asrwt>0</asrwt>
<pdfrwt beam="1">  1        2 0.26204933E+00 0.14022694E+04</pdfrwt>
<pdfrwt beam="2">  1       -2 0.44401043E-01 0.14022694E+04</pdfrwt>
<totfact> 0.45707956E+01</totfact>
</mgrwt>
</event>
<event>
 6    1  0.1878398E-004  0.3557955E+04  0.7818608E-02  0.8100191E-01
          2   -1    0    0  501    0  0.00000000000E+00  0.00000000000E+00  0.28170568011E+04  0.28170568011E+04  0.00000000000E+00 0.  1.
         -2   -1    0    0    0  501 -0.00000000000E+00 -0.00000000000E+00 -0.11234280802E+04  0.11234280802E+04  0.00000000000E+00 0. -1.
         23    2    1    2    0    0  0.65566549236E+03  0.13356545344E+04 -0.23033674283E+03  0.15083020390E+04  0.89720413952E+02 0.  0.
         13    1    3    3    0    0  0.60683585863E+03  0.11758705967E+04 -0.21415620907E+03  0.13404418306E+04  0.00000000000E+00 0. -1.
        -13    1    3    3    0    0  0.48829633730E+02  0.15978393772E+03 -0.16180533760E+02  0.16786020837E+03  0.00000000000E+00 0.  1.
         22    1    1    2    0    0 -0.65566549236E+03 -0.13356545344E+04  0.19239654637E+04  0.24321828423E+04  0.00000000000E+00 0.  1.
<mgrwt>
<rscale>  0 0.35579549E+04</rscale>
<asrwt>0</asrwt>
<pdfrwt beam="1">  1        2 0.43339335E+00 0.35579549E+04</pdfrwt>
<pdfrwt beam="2">  1       -2 0.17283509E+00 0.35579549E+04</pdfrwt>
<totfact> 0.37563361E-01</totfact>
</mgrwt>
</event>
<event>
 6    1  0.1878398E-004  0.7475371E+04  0.7818608E-02  0.7530303E-01
         -1   -1    0    0    0  501 -0.00000000000E+00  0.00000000000E+00  0.48020371147E+04  0.48020371147E+04  0.00000000000E+00 0. -1.
          1   -1    0    0  501    0  0.00000000000E+00 -0.00000000000E+00 -0.29092428130E+04  0.29092428130E+04  0.00000000000E+00 0.  1.
         23    2    1    2    0    0 -0.43846745574E+03 -0.23977725055E+04 -0.19756248081E+04  0.31389464855E+04  0.91241212221E+02 0.  0.
         11    1    3    3    0    0 -0.18462201828E+03 -0.10561036954E+04 -0.92637337944E+03  0.14169008234E+04  0.00000000000E+00 0.  1.
        -11    1    3    3    0    0 -0.25384543746E+03 -0.13416688101E+04 -0.10492514286E+04  0.17220456622E+04  0.00000000000E+00 0. -1.
         22    1    1    2    0    0  0.43846745574E+03  0.23977725055E+04  0.38684191097E+04  0.45723334422E+04  0.00000000000E+00 0. -1.
<mgrwt>
<rscale>  0 0.74753708E+04</rscale>
<asrwt>0</asrwt>
<pdfrwt beam="1">  1        1 0.44757582E+00 0.74753708E+04</pdfrwt>
<pdfrwt beam="2">  1       -1 0.73877494E+00 0.74753708E+04</pdfrwt>
<totfact> 0.60685528E-05</totfact>
</mgrwt>
</event>
<event>
 6    1  0.1878398E-004  0.1780009E+04  0.7818608E-02  0.8717003E-01
         -2   -1    0    0    0  501 -0.00000000000E+00  0.00000000000E+00  0.34177299519E+03  0.34177299519E+03  0.00000000000E+00 0. -1.
          2   -1    0    0  501    0  0.00000000000E+00 -0.00000000000E+00 -0.23176430331E+04  0.23176430331E+04  0.00000000000E+00 0.  1.
         23    2    1    2    0    0 -0.74684957462E+03 -0.27498730857E+03 -0.15780417592E+04  0.17696578329E+04  0.89837323099E+02 0.  0.
         11    1    3    3    0    0 -0.52641760887E+03 -0.17827100428E+03 -0.11830386227E+04  0.13070870028E+04  0.00000000000E+00 0. -1.
        -11    1    3    3    0    0 -0.22043196575E+03 -0.96716304283E+02 -0.39500313646E+03  0.46257083009E+03  0.00000000000E+00 0.  1.
         22    1    1    2    0    0  0.74684957462E+03  0.27498730857E+03 -0.39782827871E+03  0.88975819542E+03  0.00000000000E+00 0. -1.
<mgrwt>
<rscale>  0 0.17800088E+04</rscale>
<asrwt>0</asrwt>
<pdfrwt beam="1">  1        2 0.35656048E+00 0.17800088E+04</pdfrwt>
<pdfrwt beam="2">  1       -2 0.52580458E-01 0.17800088E+04</pdfrwt>
<totfact> 0.14305311E+01</totfact>
</mgrwt>
</event>
<event>
 6    1  0.1878398E-004  0.2841440E+04  0.7818608E-02  0.8290517E-01
         -2   -1    0    0    0  501 -0.00000000000E+00  0.00000000000E+00  0.72622914021E+03  0.72622914021E+03  0.00000000000E+00 0. -1.
          2   -1    0    0  501    0  0.00000000000E+00 -0.00000000000E+00 -0.27793511084E+04  0.27793511084E+04  0.00000000000E+00 0.  1.
         23    2    1    2    0    0 -0.10216299419E+04 -0.86841366989E+03 -0.16013073406E+04  0.20906574599E+04  0.93772999160E+02 0.  0.
         13    1    3    3    0    0 -0.40259092717E+03 -0.37715277728E+03 -0.71735882310E+03  0.90494604984E+03  0.00000000000E+00 0. -1.
        -13    1    3    3    0    0 -0.61903901474E+03 -0.49126089262E+03 -0.88394851754E+03  0.11857114101E+04  0.00000000000E+00 0.  1.
         22    1    1    2    0    0  0.10216299419E+04  0.86841366989E+03 -0.45181462756E+03  0.14149227887E+04  0.00000000000E+00 0. -1.
<mgrwt>
<rscale>  0 0.28414403E+04</rscale>
<asrwt>0</asrwt>
<pdfrwt beam="1">  1        2 0.42759247E+00 0.28414403E+04</pdfrwt>
<pdfrwt beam="2">  1       -2 0.11172756E+00 0.28414403E+04</pdfrwt>
<totfact> 0.13051365E+00</totfact>
</mgrwt>
</event>
<event>
 6    1  0.1878398E-004  0.3621432E+04  0.7818608E-02  0.8085600E-01
         -2   -1    0    0    0  501 -0.00000000000E+00  0.00000000000E+00  0.22887463743E+04  0.22887463743E+04  0.00000000000E+00 0. -1.
          2   -1    0    0  501    0  0.00000000000E+00 -0.00000000000E+00 -0.14325274440E+04  0.14325274440E+04  0.00000000000E+00 0.  1.
         23    2    1    2    0    0  0.79324736245E+03 -0.89927981336E+03  0.18209663995E+04  0.21822211097E+04  0.90690587599E+02 0.  0.
         13    1    3    3    0    0  0.28482161953E+03 -0.33851102543E+03  0.75015139289E+03  0.87088471197E+03  0.00000000000E+00 0. -1.
        -13    1    3    3    0    0  0.50842574291E+03 -0.56076878793E+03  0.10708150066E+04  0.13113363977E+04  0.00000000000E+00 0.  1.
         22    1    1    2    0    0 -0.79324736245E+03  0.89927981336E+03 -0.96474746911E+03  0.15390527086E+04  0.00000000000E+00 0.  1.
<mgrwt>
<rscale>  0 0.36214318E+04</rscale>
<asrwt>0</asrwt>
<pdfrwt beam="1">  1        2 0.22038884E+00 0.36214318E+04</pdfrwt>
<pdfrwt beam="2">  1       -2 0.35211483E+00 0.36214318E+04</pdfrwt>
<totfact> 0.17011146E-01</totfact>
</mgrwt>
</event>
<event>
 6    1  0.1878398E-004  0.4862504E+04  0.7818608E-02  0.7850074E-01
         -2   -1    0    0    0  501 -0.00000000000E+00  0.00000000000E+00  0.24059730580E+04  0.24059730580E+04  0.00000000000E+00 0. -1.
          2   -1    0    0  501    0  0.00000000000E+00 -0.00000000000E+00 -0.24567965009E+04  0.24567965009E+04  0.00000000000E+00 0.  1.
         23    2    1    2    0    0  0.75647396155E+03  0.15868965067E+04  0.16526160041E+04  0.24148726397E+04  0.99884090685E+02 0.  0.
         13    1    3    3    0    0  0.26951489399E+03  0.67888933560E+03  0.67737430434E+03  0.99617516344E+03  0.00000000000E+00 0.  1.
        -13    1    3    3    0    0  0.48695906756E+03  0.90800717107E+03  0.97524169971E+03  0.14186974762E+04  0.00000000000E+00 0. -1.
         22    1    1    2    0    0 -0.75647396155E+03 -0.15868965067E+04 -0.17034394469E+04  0.24478969192E+04  0.00000000000E+00 0.  1.
<mgrwt>
<rscale>  0 0.48625040E+04</rscale>
<asrwt>0</asrwt>
<pdfrwt beam="1">  1        2 0.37796869E+00 0.48625040E+04</pdfrwt>
<pdfrwt beam="2">  1       -2 0.37014970E+00 0.48625040E+04</pdfrwt>
<totfact> 0.31444917E-02</totfact>
</mgrwt>
</event>
<event>
 6    1  0.1878398E-004  0.2238094E+04  0.7818608E-02  0.8502738E-01
          1   -1    0    0  501    0  0.00000000000E+00  0.00000000000E+00  0.13833821347E+04  0.13833821347E+04  0.00000000000E+00 0.  1.
         -1   -1    0    0    0  501 -0.00000000000E+00 -0.00000000000E+00 -0.90522065286E+03  0.90522065286E+03  0.00000000000E+00 0. -1.
         23    2    1    2    0    0 -0.20477821282E+02  0.11143781281E+04  0.16249084276E+03  0.11301961638E+04  0.93178008637E+02 0.  0.
         11    1    3    3    0    0 -0.34954856719E+02  0.29344044052E+03  0.14269095668E+02  0.29585932677E+03  0.00000000000E+00 0.  1.
        -11    1    3    3    0    0  0.14477035437E+02  0.82093768753E+03  0.14822174709E+03  0.83433683706E+03  0.00000000000E+00 0. -1.
         22    1    1    2    0    0  0.20477821282E+02 -0.11143781281E+04  0.31567063904E+03  0.11584066237E+04  0.00000000000E+00 0. -1.
<mgrwt>
<rscale>  0 0.22380939E+04</rscale>
<asrwt>0</asrwt>
<pdfrwt beam="1">  1        1 0.21282802E+00 0.22380939E+04</pdfrwt>
<pdfrwt beam="2">  1       -1 0.13926472E+00 0.22380939E+04</pdfrwt>
<totfact> 0.30481742E+00</totfact>
</mgrwt>
</event>
<event>
 6    1  0.1878398E-004  0.7593406E+03  0.7818608E-02  0.9620809E-01
         -2   -1    0    0    0  501 -0.00000000000E+00  0.00000000000E+00  0.29987512181E+03  0.29987512181E+03  0.00000000000E+00 0. -1.
          2   -1    0    0  501    0  0.00000000000E+00 -0.00000000000E+00 -0.48069855492E+03  0.48069855492E+03  0.00000000000E+00 0.  1.
         23    2    1    2    0    0 -0.27248931770E+03  0.13417025809E+03  0.13320738765E+03  0.34368989035E+03  0.90146803567E+02 0.  0.
         13    1    3    3    0    0 -0.14575318965E+03  0.94025507904E+02  0.31459959720E+02  0.17627965707E+03  0.00000000000E+00 0. -1.
        -13    1    3    3    0    0 -0.12673612805E+03  0.40144750185E+02  0.10174742793E+03  0.16741023329E+03  0.00000000000E+00 0.  1.
         22    1    1    2    0    0  0.27248931770E+03 -0.13417025809E+03 -0.31403082076E+03  0.43688378638E+03  0.00000000000E+00 0.  1.
<mgrwt>
<rscale>  0 0.75934060E+03</rscale>
<asrwt>0</asrwt>
<pdfrwt beam="1">  1        2 0.73953624E-01 0.75934060E+03</pdfrwt>
<pdfrwt beam="2">  1       -2 0.46134634E-01 0.75934060E+03</pdfrwt>
<totfact> 0.28939717E+02</totfact>
</mgrwt>
</event>
<event>
 6    1  0.1878398E-004  0.2161790E+04  0.7818608E-02  0.8534502E-01
         -2   -1    0    0    0  501 -0.00000000000E+00  0.00000000000E+00  0.60321086024E+03  0.60321086024E+03  0.00000000000E+00 0. -1.
          2   -1    0    0  501    0  0.00000000000E+00 -0.00000000000E+00 -0.19368586619E+04  0.19368586619E+04  0.00000000000E+00 0.  1.
         23    2    1    2    0    0  0.29763657756E+03 -0.84232573437E+03 -0.13789854449E+04  0.16455553093E+04  0.90284238222E+02 0.  0.
         11    1    3    3    0    0  0.16659066627E+03 -0.59667140885E+03 -0.95002019063E+03  0.11341550083E+04  0.00000000000E+00 0.  1.
        -11    1    3    3    0    0  0.13104591128E+03 -0.24565432551E+03 -0.42896525429E+03  0.51140030103E+03  0.00000000000E+00 0. -1.
         22    1    1    2    0    0 -0.29763657756E+03  0.84232573437E+03  0.45337643232E+02  0.89451421284E+03  0.00000000000E+00 0. -1.
<mgrwt>
<rscale>  0 0.21617902E+04</rscale>
<asrwt>0</asrwt>
<pdfrwt beam="1">  1        2 0.29797826E+00 0.21617902E+04</pdfrwt>
<pdfrwt beam="2">  1       -2 0.92801671E-01 0.21617902E+04</pdfrwt>
<totfact> 0.65373626E+00</totfact>
</mgrwt>
</event>
<event>
 6    1  0.1878398E-004  0.1530856E+04  0.7818608E-02  0.8864189E-01
         -1   -1    0    0    0  501 -0.00000000000E+00  0.00000000000E+00  0.70350897378E+03  0.70350897378E+03  0.00000000000E+00 0. -1.
          1   -1    0    0  501    0  0.00000000000E+00 -0.00000000000E+00 -0.83279688038E+03  0.83279688038E+03  0.00000000000E+00 0.  1.
         23    2    1    2    0    0  0.14469831784E+03 -0.68799330375E+03  0.23179683478E+03  0.74595493232E+03  0.91905382063E+02 0.  0.
         11    1    3    3    0    0  0.13392037524E+03 -0.49488723137E+03  0.13761245555E+03  0.53083446252E+03  0.00000000000E+00 0. -1.
        -11    1    3    3    0    0  0.10777942594E+02 -0.19310607238E+03  0.94184379225E+02  0.21512046980E+03  0.00000000000E+00 0.  1.
         22    1    1    2    0    0 -0.14469831784E+03  0.68799330375E+03 -0.36108474138E+03  0.79035092184E+03  0.00000000000E+00 0.  1.
<mgrwt>
<rscale>  0 0.15308561E+04</rscale>
<asrwt>0</asrwt>
<pdfrwt beam="1">  1        1 0.12812260E+00 0.15308561E+04</pdfrwt>
<pdfrwt beam="2">  1       -1 0.10823215E+00 0.15308561E+04</pdfrwt>
<totfact> 0.15854020E+01</totfact>
</mgrwt>
</event>
<event>
 6    1  0.1878398E-004  0.2917420E+04  0.7818608E-02  0.8267713E-01
          2   -1    0    0  501    0  0.00000000000E+00  0.00000000000E+00  0.13486922493E+04  0.13486922493E+04  0.00000000000E+00 0. -1.
         -2   -1    0    0    0  501 -0.00000000000E+00 -0.00000000000E+00 -0.15777027850E+04  0.15777027850E+04  0.00000000000E+00 0.  1.
         23    2    1    2    0    0 -0.54916342493E+03  0.50337837688E+03 -0.13708679282E+04  0.15630137368E+04  0.93609867439E+02 0.  0.
         13    1    3    3    0    0 -0.30391997479E+03  0.23206355640E+03 -0.63430976489E+03  0.74065492851E+03  0.00000000000E+00 0. -1.
        -13    1    3    3    0    0 -0.24524345014E+03  0.27131482048E+03 -0.73655816329E+03  0.82235880829E+03  0.00000000000E+00 0.  1.
         22    1    1    2    0    0  0.54916342493E+03 -0.50337837688E+03  0.11418573925E+04  0.13633812975E+04  0.00000000000E+00 0. -1.
<mgrwt>
<rscale>  0 0.29174204E+04</rscale>
<asrwt>0</asrwt>
<pdfrwt beam="1">  1        2 0.20749112E+00 0.29174204E+04</pdfrwt>
<pdfrwt beam="2">  1       -2 0.24272351E+00 0.29174204E+04</pdfrwt>
<totfact> 0.95119839E-01</totfact>
</mgrwt>
</event>
<event>
 6    1  0.1878398E-004  0.1137750E+04  0.7818608E-02  0.9169159E-01
          3   -1    0    0  501    0  0.00000000000E+00  0.00000000000E+00  0.22601750868E+04  0.22601750868E+04  0.00000000000E+00 0.  1.
         -3   -1    0    0    0  501 -0.00000000000E+00 -0.00000000000E+00 -0.14318311179E+03  0.14318311179E+03  0.00000000000E+00 0. -1.
         23    2    1    2    0    0  0.44669315182E+03 -0.28804359277E+03  0.14718069806E+04  0.15674350202E+04  0.90182432079E+02 0.  0.
         11    1    3    3    0    0  0.34255064542E+02 -0.97880372860E+01  0.17226709768E+03  0.17591238747E+03  0.00000000000E+00 0.  1.
        -11    1    3    3    0    0  0.41243808727E+03 -0.27825555549E+03  0.12995398829E+04  0.13915226327E+04  0.00000000000E+00 0. -1.
         22    1    1    2    0    0 -0.44669315182E+03  0.28804359277E+03  0.64518499442E+03  0.83592317843E+03  0.00000000000E+00 0. -1.
<mgrwt>
<rscale>  0 0.11377502E+04</rscale>
<asrwt>0</asrwt>
<pdfrwt beam="1">  1        3 0.34771922E+00 0.11377502E+04</pdfrwt>
<pdfrwt beam="2">  1       -3 0.22028173E-01 0.11377502E+04</pdfrwt>
<totfact> 0.10796657E+00</totfact>
</mgrwt>
</event>
<event>
 6    1  0.1878398E-004  0.2397299E+04  0.7818608E-02  0.8440515E-01
          1   -1    0    0  501    0  0.00000000000E+00  0.00000000000E+00  0.16330186294E+04  0.16330186294E+04  0.00000000000E+00 0. -1.
         -1   -1    0    0    0  501 -0.00000000000E+00 -0.00000000000E+00 -0.87981896386E+03  0.87981896386E+03  0.00000000000E+00 0.  1.
         23    2    1    2    0    0  0.99377195128E+03  0.65241814528E+03  0.23862770874E+03  0.12174548598E+04  0.10964043412E+03 0.  0.
         11    1    3    3    0    0  0.74662260425E+03  0.43512715690E+03  0.18983920503E+03  0.88477108882E+03  0.00000000000E+00 0.  1.
        -11    1    3    3    0    0  0.24714934704E+03  0.21729098838E+03  0.48788503711E+02  0.33268377097E+03  0.00000000000E+00 0. -1.
         22    1    1    2    0    0 -0.99377195128E+03 -0.65241814528E+03  0.51457195679E+03  0.12953827335E+04  0.00000000000E+00 0.  1.
<mgrwt>
<rscale>  0 0.23972991E+04</rscale>
<asrwt>0</asrwt>
<pdfrwt beam="1">  1        1 0.25123363E+00 0.23972991E+04</pdfrwt>
<pdfrwt beam="2">  1       -1 0.13535676E+00 0.23972991E+04</pdfrwt>
<totfact> 0.21719897E+00</totfact>
</mgrwt>
</event>
<event>
 6    1  0.1878398E-004  0.9272974E+03  0.7818608E-02  0.9392087E-01
          2   -1    0    0  501    0  0.00000000000E+00  0.00000000000E+00  0.12086840745E+04  0.12086840745E+04  0.00000000000E+00 0.  1.
         -2   -1    0    0    0  501 -0.00000000000E+00 -0.00000000000E+00 -0.17785466582E+03  0.17785466582E+03  0.00000000000E+00 0. -1.
         23    2    1    2    0    0  0.86263448875E+02 -0.44130758147E+03  0.37640815156E+03  0.59252303150E+03  0.84892180002E+02 0.  0.
         11    1    3    3    0    0  0.97860340371E+02 -0.31786476312E+03  0.29147688817E+03  0.44223684851E+03  0.00000000000E+00 0. -1.
        -11    1    3    3    0    0 -0.11596891496E+02 -0.12344281836E+03  0.84931263390E+02  0.15028618299E+03  0.00000000000E+00 0.  1.
         22    1    1    2    0    0 -0.86263448875E+02  0.44130758147E+03  0.65442125714E+03  0.79401570883E+03  0.00000000000E+00 0.  1.
<mgrwt>
<rscale>  0 0.92729737E+03</rscale>
<asrwt>0</asrwt>
<pdfrwt beam="1">  1        2 0.18595139E+00 0.92729737E+03</pdfrwt>
<pdfrwt beam="2">  1       -2 0.27362257E-01 0.92729737E+03</pdfrwt>
<totfact> 0.22765617E+02</totfact>
</mgrwt>
</event>
<event>
 6    1  0.1878398E-004  0.1782739E+04  0.7818608E-02  0.8715533E-01
         -2   -1    0    0    0  501 -0.00000000000E+00  0.00000000000E+00  0.44221005315E+03  0.44221005315E+03  0.00000000000E+00 0. -1.
          2   -1    0    0  501    0  0.00000000000E+00 -0.00000000000E+00 -0.17967477091E+04  0.17967477091E+04  0.00000000000E+00 0.  1.
         23    2    1    2    0    0 -0.79019869392E+03  0.38651650330E+03 -0.83994547368E+03  0.12198335808E+04  0.93148176508E+02 0.  0.
         13    1    3    3    0    0 -0.50470264150E+03  0.20562675565E+03 -0.55395040294E+03  0.77708954946E+03  0.00000000000E+00 0.  1.
        -13    1    3    3    0    0 -0.28549605243E+03  0.18088974765E+03 -0.28599507074E+03  0.44274403129E+03  0.00000000000E+00 0. -1.
         22    1    1    2    0    0  0.79019869392E+03 -0.38651650330E+03 -0.51459218224E+03  0.10191241815E+04  0.00000000000E+00 0. -1.
<mgrwt>
<rscale>  0 0.17827394E+04</rscale>
<asrwt>0</asrwt>
<pdfrwt beam="1">  1        2 0.27642272E+00 0.17827394E+04</pdfrwt>
<pdfrwt beam="2">  1       -2 0.68032317E-01 0.17827394E+04</pdfrwt>
<totfact> 0.16201869E+01</totfact>
</mgrwt>
</event>
<event>
 6    1  0.1878398E-004  0.2216243E+04  0.7818608E-02  0.8511698E-01
          2   -1    0    0  501    0  0.00000000000E+00  0.00000000000E+00  0.21665752432E+04  0.21665752432E+04  0.00000000000E+00 0.  1.
         -2   -1    0    0    0  501 -0.00000000000E+00 -0.00000000000E+00 -0.56676255873E+03  0.56676255873E+03  0.00000000000E+00 0. -1.
         23    2    1    2    0    0  0.65756686485E+03 -0.21875308286E+03 -0.26215688257E+03  0.74658724849E+03  0.91756174287E+02 0.  0.
         11    1    3    3    0    0  0.25591877425E+03 -0.40906555048E+02 -0.82177163875E+02  0.27188389346E+03  0.00000000000E+00 0. -1.
        -11    1    3    3    0    0  0.40164809060E+03 -0.17784652781E+03 -0.17997971870E+03  0.47470335503E+03  0.00000000000E+00 0.  1.
         22    1    1    2    0    0 -0.65756686485E+03  0.21875308286E+03  0.18619695670E+04  0.19867505534E+04  0.00000000000E+00 0.  1.
<mgrwt>
<rscale>  0 0.22162434E+04</rscale>
<asrwt>0</asrwt>
<pdfrwt beam="1">  1        2 0.33331926E+00 0.22162434E+04</pdfrwt>
<pdfrwt beam="2">  1       -2 0.87194241E-01 0.22162434E+04</pdfrwt>
<totfact> 0.55943050E+00</totfact>
</mgrwt>
</event>
<event>
 6    1  0.1878398E-004  0.1676865E+04  0.7818608E-02  0.8774670E-01
         -3   -1    0    0    0  501 -0.00000000000E+00  0.00000000000E+00  0.39284147593E+04  0.39284147593E+04  0.00000000000E+00 0. -1.
          3   -1    0    0  501    0  0.00000000000E+00 -0.00000000000E+00 -0.17894474205E+03  0.17894474205E+03  0.00000000000E+00 0.  1.
         23    2    1    2    0    0  0.76900736857E+03 -0.32294586579E+03  0.17264901253E+04  0.19191835467E+04  0.82649671054E+02 0.  0.
         13    1    3    3    0    0  0.32559024445E+03 -0.18124219351E+03  0.76401837209E+03  0.85004812386E+03  0.00000000000E+00 0.  1.
        -13    1    3    3    0    0  0.44341712412E+03 -0.14170367228E+03  0.96247175319E+03  0.10691354229E+04  0.00000000000E+00 0. -1.
         22    1    1    2    0    0 -0.76900736857E+03  0.32294586579E+03  0.20229798920E+04  0.21881759546E+04  0.00000000000E+00 0. -1.
<mgrwt>
<rscale>  0 0.16768651E+04</rscale>
<asrwt>0</asrwt>
<pdfrwt beam="1">  1        3 0.27529963E-01 0.16768651E+04</pdfrwt>
<pdfrwt beam="2">  1       -3 0.60437144E+00 0.16768651E+04</pdfrwt>
<totfact> 0.27792932E-02</totfact>
</mgrwt>
</event>
<event>
 6    1  0.1878398E-004  0.2242826E+04  0.7818608E-02  0.8500812E-01
          1   -1    0    0  501    0  0.00000000000E+00  0.00000000000E+00  0.63341829322E+03  0.63341829322E+03  0.00000000000E+00 0. -1.
         -1   -1    0    0    0  501 -0.00000000000E+00 -0.00000000000E+00 -0.19853658167E+04  0.19853658167E+04  0.00000000000E+00 0.  1.
         23    2    1    2    0    0 -0.21948962513E+03 -0.12684995362E+02 -0.19588293383E+04  0.19733058827E+04  0.92666744403E+02 0.  0.
         11    1    3    3    0    0 -0.11852946736E+03 -0.67966476474E+01 -0.14281338674E+04  0.14330602822E+04  0.00000000000E+00 0. -1.
        -11    1    3    3    0    0 -0.10096015778E+03 -0.58883477144E+01 -0.53069547082E+03  0.54024560049E+03  0.00000000000E+00 0.  1.
         22    1    1    2    0    0  0.21948962513E+03  0.12684995362E+02  0.60688181481E+03  0.64547822721E+03  0.00000000000E+00 0. -1.
<mgrwt>
<rscale>  0 0.22428259E+04</rscale>
<asrwt>0</asrwt>
<pdfrwt beam="1">  1        1 0.97448968E-01 0.22428259E+04</pdfrwt>
<pdfrwt beam="2">  1       -1 0.30544090E+00 0.22428259E+04</pdfrwt>
<totfact> 0.87539495E-01</totfact>
</mgrwt>
</event>
<event>
 6    1  0.1878398E-004  0.2458005E+04  0.7818608E-02  0.8418101E-01
          2   -1    0    0  501    0  0.00000000000E+00  0.00000000000E+00  0.17059880009E+04  0.17059880009E+04  0.00000000000E+00 0.  1.
         -2   -1    0    0    0  501 -0.00000000000E+00 -0.00000000000E+00 -0.88537996204E+03  0.88537996204E+03  0.00000000000E+00 0. -1.
         23    2    1    2    0    0 -0.55507170516E+03 -0.96823660005E+03  0.94903996291E+03  0.14679439688E+04  0.92714253310E+02 0.  0.
         11    1    3    3    0    0 -0.22446085364E+03 -0.31494464460E+03  0.35736506145E+03  0.52657629184E+03  0.00000000000E+00 0. -1.
        -11    1    3    3    0    0 -0.33061085152E+03 -0.65329195545E+03  0.59167490146E+03  0.94136767695E+03  0.00000000000E+00 0.  1.
         22    1    1    2    0    0  0.55507170516E+03  0.96823660005E+03 -0.12843192403E+03  0.11234239942E+04  0.00000000000E+00 0. -1.
<mgrwt>
<rscale>  0 0.24580054E+04</rscale>
<asrwt>0</asrwt>
<pdfrwt beam="1">  1        2 0.26245969E+00 0.24580054E+04</pdfrwt>
<pdfrwt beam="2">  1       -2 0.13621230E+00 0.24580054E+04</pdfrwt>
<totfact> 0.33588237E+00</totfact>
</mgrwt>
</event>
<event>
 6    1  0.1878398E-004  0.1566704E+04  0.7818608E-02  0.8841268E-01
         -4   -1    0    0    0  501 -0.00000000000E+00  0.00000000000E+00  0.64612376581E+03  0.64612376581E+03  0.00000000000E+00 0. -1.
          4   -1    0    0  501    0  0.00000000000E+00 -0.00000000000E+00 -0.94972578512E+03  0.94972578512E+03  0.00000000000E+00 0.  1.
         23    2    1    2    0    0 -0.59388156962E+03  0.57419553788E+02  0.36080410797E+03  0.70286140664E+03  0.88556358969E+02 0.  0.
         11    1    3    3    0    0 -0.10428192780E+03 -0.15000279792E+02  0.90750320385E+02  0.13905160736E+03  0.00000000000E+00 0.  1.
        -11    1    3    3    0    0 -0.48959964183E+03  0.72419833580E+02  0.27005378759E+03  0.56380979928E+03  0.00000000000E+00 0. -1.
         22    1    1    2    0    0  0.59388156962E+03 -0.57419553788E+02 -0.66440612728E+03  0.89298814430E+03  0.00000000000E+00 0.  1.
<mgrwt>
<rscale>  0 0.15667041E+04</rscale>
<asrwt>0</asrwt>
<pdfrwt beam="1">  1        4 0.14611166E+00 0.15667041E+04</pdfrwt>
<pdfrwt beam="2">  1       -4 0.99403656E-01 0.15667041E+04</pdfrwt>
<totfact> 0.51436672E-01</totfact>
</mgrwt>
</event>
<event>
 6    1  0.1878398E-004  0.1417295E+04  0.7818608E-02  0.8941394E-01
          2   -1    0    0  501    0  0.00000000000E+00  0.00000000000E+00  0.65123195721E+03  0.65123195721E+03  0.00000000000E+00 0.  1.
         -2   -1    0    0    0  501 -0.00000000000E+00 -0.00000000000E+00 -0.77112489925E+03  0.77112489925E+03  0.00000000000E+00 0. -1.
         23    2    1    2    0    0  0.44143125604E+03  0.44355680218E+03 -0.38711958801E+03  0.74190533660E+03  0.94645456726E+02 0.  0.
         13    1    3    3    0    0  0.44702251166E+02  0.76490663346E+02 -0.84653061892E+02  0.12253674439E+03  0.00000000000E+00 0.  1.
        -13    1    3    3    0    0  0.39672900488E+03  0.36706613884E+03 -0.30246652612E+03  0.61936859221E+03  0.00000000000E+00 0. -1.
         22    1    1    2    0    0 -0.44143125604E+03 -0.44355680218E+03  0.26722664597E+03  0.68045151987E+03  0.00000000000E+00 0.  1.
<mgrwt>
<rscale>  0 0.14172949E+04</rscale>
<asrwt>0</asrwt>
<pdfrwt beam="1">  1        2 0.10018953E+00 0.14172949E+04</pdfrwt>
<pdfrwt beam="2">  1       -2 0.11863460E+00 0.14172949E+04</pdfrwt>
<totfact> 0.23818760E+01</totfact>
</mgrwt>
</event>
<event>
 6    1  0.1878398E-004  0.2708051E+04  0.7818608E-02  0.8332398E-01
          2   -1    0    0  501    0  0.00000000000E+00  0.00000000000E+00  0.38414304319E+04  0.38414304319E+04  0.00000000000E+00 0.  1.
         -2   -1    0    0    0  501 -0.00000000000E+00 -0.00000000000E+00 -0.47726612369E+03  0.47726612369E+03  0.00000000000E+00 0. -1.
         23    2    1    2    0    0  0.70413049835E+03 -0.48641182040E+03  0.13584722493E+02  0.86054968509E+03  0.89246837995E+02 0.  0.
         11    1    3    3    0    0  0.21043882506E+03 -0.11923632722E+03  0.37812265966E+02  0.24480924876E+03  0.00000000000E+00 0. -1.
        -11    1    3    3    0    0  0.49369167329E+03 -0.36717549318E+03 -0.24227543473E+02  0.61574043633E+03  0.00000000000E+00 0.  1.
         22    1    1    2    0    0 -0.70413049835E+03  0.48641182040E+03  0.33505795858E+04  0.34581468705E+04  0.00000000000E+00 0.  1.
<mgrwt>
<rscale>  0 0.27080507E+04</rscale>
<asrwt>0</asrwt>
<pdfrwt beam="1">  1        2 0.59098928E+00 0.27080507E+04</pdfrwt>
<pdfrwt beam="2">  1       -2 0.73425560E-01 0.27080507E+04</pdfrwt>
<totfact> 0.67047728E-01</totfact>
</mgrwt>
</event>
<event>
 6    1  0.1878398E-004  0.2021647E+04  0.7818608E-02  0.8596567E-01
         -2   -1    0    0    0  501 -0.00000000000E+00  0.00000000000E+00  0.37137918476E+03  0.37137918476E+03  0.00000000000E+00 0. -1.
          2   -1    0    0  501    0  0.00000000000E+00 -0.00000000000E+00 -0.27512681290E+04  0.27512681290E+04  0.00000000000E+00 0.  1.
         23    2    1    2    0    0  0.83226042323E+03 -0.39768802819E+02 -0.31395981395E+03  0.89502478264E+03  0.90882490117E+02 0.  0.
         11    1    3    3    0    0  0.65180988114E+03 -0.59801402446E+02 -0.27114553008E+03  0.70848586957E+03  0.00000000000E+00 0. -1.
        -11    1    3    3    0    0  0.18045054209E+03  0.20032599627E+02 -0.42814283863E+02  0.18653891308E+03  0.00000000000E+00 0.  1.
         22    1    1    2    0    0 -0.83226042323E+03  0.39768802819E+02 -0.20659291303E+04  0.22276225311E+04  0.00000000000E+00 0.  1.
<mgrwt>
<rscale>  0 0.20216466E+04</rscale>
<asrwt>0</asrwt>
<pdfrwt beam="1">  1        2 0.42327203E+00 0.20216466E+04</pdfrwt>
<pdfrwt beam="2">  1       -2 0.57135257E-01 0.20216466E+04</pdfrwt>
<totfact> 0.65967756E+00</totfact>
</mgrwt>
</event>
<event>
 6    1  0.1878398E-004  0.1669689E+04  0.7818608E-02  0.8778843E-01
         -2   -1    0    0    0  501 -0.00000000000E+00  0.00000000000E+00  0.74810317321E+03  0.74810317321E+03  0.00000000000E+00 0. -1.
          2   -1    0    0  501    0  0.00000000000E+00 -0.00000000000E+00 -0.93164285199E+03  0.93164285199E+03  0.00000000000E+00 0.  1.
         23    2    1    2    0    0 -0.53400907734E+03  0.60844193554E+03 -0.28685493950E+03  0.86363247507E+03  0.90598079886E+02 0.  0.
         11    1    3    3    0    0 -0.17136045189E+03  0.13456177189E+03 -0.76166217729E+02  0.23080850862E+03  0.00000000000E+00 0. -1.
        -11    1    3    3    0    0 -0.36264862545E+03  0.47388016365E+03 -0.21068872177E+03  0.63282396646E+03  0.00000000000E+00 0.  1.
         22    1    1    2    0    0  0.53400907734E+03 -0.60844193554E+03  0.10331526072E+03  0.81611355013E+03  0.00000000000E+00 0.  1.
<mgrwt>
<rscale>  0 0.16696886E+04</rscale>
<asrwt>0</asrwt>
<pdfrwt beam="1">  1        2 0.14332967E+00 0.16696886E+04</pdfrwt>
<pdfrwt beam="2">  1       -2 0.11509280E+00 0.16696886E+04</pdfrwt>
<totfact> 0.15673168E+01</totfact>
</mgrwt>
</event>
<event>
 6    1  0.1878398E-004  0.4089029E+04  0.7818608E-02  0.7986824E-01
         -1   -1    0    0    0  501 -0.00000000000E+00  0.00000000000E+00  0.17836801501E+04  0.17836801501E+04  0.00000000000E+00 0. -1.
          1   -1    0    0  501    0  0.00000000000E+00 -0.00000000000E+00 -0.23434917105E+04  0.23434917105E+04  0.00000000000E+00 0.  1.
         23    2    1    2    0    0 -0.21597883434E+01  0.80188139867E+03 -0.21771407480E+04  0.23219649077E+04  0.92524341718E+02 0.  0.
         11    1    3    3    0    0  0.44230223260E+02  0.32076940920E+03 -0.85993980780E+03  0.91888290852E+03  0.00000000000E+00 0.  1.
        -11    1    3    3    0    0 -0.46390011603E+02  0.48111198947E+03 -0.13172009402E+04  0.14030819992E+04  0.00000000000E+00 0. -1.
         22    1    1    2    0    0  0.21597883434E+01 -0.80188139867E+03  0.16173291875E+04  0.18052069530E+04  0.00000000000E+00 0. -1.
<mgrwt>
<rscale>  0 0.40890291E+04</rscale>
<asrwt>0</asrwt>
<pdfrwt beam="1">  1        1 0.36053719E+00 0.40890291E+04</pdfrwt>
<pdfrwt beam="2">  1       -1 0.27441233E+00 0.40890291E+04</pdfrwt>
<totfact> 0.65311751E-02</totfact>
</mgrwt>
</event>
<event>
 6    1  0.1878398E-004  0.1649510E+04  0.7818608E-02  0.8790696E-01
         -1   -1    0    0    0  501 -0.00000000000E+00  0.00000000000E+00  0.40656585750E+03  0.40656585750E+03  0.00000000000E+00 0. -1.
          1   -1    0    0  501    0  0.00000000000E+00 -0.00000000000E+00 -0.16730887710E+04  0.16730887710E+04  0.00000000000E+00 0.  1.
         23    2    1    2    0    0 -0.26601815609E+03  0.71668081106E+03 -0.25360200650E+03  0.81063697372E+03  0.91767538574E+02 0.  0.
         13    1    3    3    0    0 -0.53757625773E+02  0.19686609737E+03 -0.29988427832E+02  0.20626548045E+03  0.00000000000E+00 0.  1.
        -13    1    3    3    0    0 -0.21226053032E+03  0.51981471369E+03 -0.22361357867E+03  0.60437149327E+03  0.00000000000E+00 0. -1.
         22    1    1    2    0    0  0.26601815609E+03 -0.71668081106E+03 -0.10129209070E+04  0.12690176548E+04  0.00000000000E+00 0.  1.
<mgrwt>
<rscale>  0 0.16495100E+04</rscale>
<asrwt>0</asrwt>
<pdfrwt beam="1">  1        1 0.25739828E+00 0.16495100E+04</pdfrwt>
<pdfrwt beam="2">  1       -1 0.62548592E-01 0.16495100E+04</pdfrwt>
<totfact> 0.12318211E+01</totfact>
</mgrwt>
</event>
<event>
 6    1  0.1878398E-004  0.3852029E+04  0.7818608E-02  0.8035081E-01
          2   -1    0    0  501    0  0.00000000000E+00  0.00000000000E+00  0.16637650606E+04  0.16637650606E+04  0.00000000000E+00 0.  1.
         -2   -1    0    0    0  501 -0.00000000000E+00 -0.00000000000E+00 -0.22296012944E+04  0.22296012944E+04  0.00000000000E+00 0. -1.
         23    2    1    2    0    0 -0.13855236275E+04  0.89330108713E+03 -0.12876402878E+04  0.20937376025E+04  0.89761252515E+02 0.  0.
         11    1    3    3    0    0 -0.39209639609E+03  0.21146145888E+03 -0.32305475376E+03  0.55029074710E+03  0.00000000000E+00 0. -1.
        -11    1    3    3    0    0 -0.99342723143E+03  0.68183962825E+03 -0.96458553405E+03  0.15434468553E+04  0.00000000000E+00 0.  1.
         22    1    1    2    0    0  0.13855236275E+04 -0.89330108713E+03  0.72180405405E+03  0.17996287526E+04  0.00000000000E+00 0.  1.
<mgrwt>
<rscale>  0 0.38520295E+04</rscale>
<asrwt>0</asrwt>
<pdfrwt beam="1">  1        2 0.25596386E+00 0.38520295E+04</pdfrwt>
<pdfrwt beam="2">  1       -2 0.34301558E+00 0.38520295E+04</pdfrwt>
<totfact> 0.14116605E-01</totfact>
</mgrwt>
</event>
<event>
 6    1  0.1878398E-004  0.7480085E+03  0.7818608E-02  0.9638480E-01
          2   -1    0    0  501    0  0.00000000000E+00  0.00000000000E+00  0.29405362050E+04  0.29405362050E+04  0.00000000000E+00 0.  1.
         -2   -1    0    0    0  501 -0.00000000000E+00 -0.00000000000E+00 -0.47569277636E+02  0.47569277636E+02  0.00000000000E+00 0. -1.
         23    2    1    2    0    0  0.29781352982E+03  0.40145756300E+02  0.23195707843E+04  0.23407356369E+04  0.91269481140E+02 0.  0.
         13    1    3    3    0    0  0.27007390746E+03  0.49920906540E+02  0.22196138144E+04  0.22365414142E+04  0.00000000000E+00 0. -1.
        -13    1    3    3    0    0  0.27739622352E+02 -0.97751502401E+01  0.99956969902E+02  0.10419422269E+03  0.00000000000E+00 0.  1.
         22    1    1    2    0    0 -0.29781352982E+03 -0.40145756300E+02  0.57339614309E+03  0.64736984576E+03  0.00000000000E+00 0. -1.
<mgrwt>
<rscale>  0 0.74800851E+03</rscale>
<asrwt>0</asrwt>
<pdfrwt beam="1">  1        2 0.45239004E+00 0.74800851E+03</pdfrwt>
<pdfrwt beam="2">  1       -2 0.73183527E-02 0.74800851E+03</pdfrwt>
<totfact> 0.22656020E+02</totfact>
</mgrwt>
</event>
<event>
 6    1  0.1878398E-004  0.3205965E+04  0.7818608E-02  0.8187244E-01
         -2   -1    0    0    0  501 -0.00000000000E+00  0.00000000000E+00  0.14751936223E+04  0.14751936223E+04  0.00000000000E+00 0. -1.
          2   -1    0    0  501    0  0.00000000000E+00 -0.00000000000E+00 -0.17418414558E+04  0.17418414558E+04  0.00000000000E+00 0.  1.
         23    2    1    2    0    0  0.93295130164E+03 -0.66909186299E+03  0.98719900938E+03  0.15169721505E+04  0.92523343055E+02 0.  0.
         13    1    3    3    0    0  0.63827186217E+03 -0.49514325384E+03  0.73158772844E+03  0.10898524745E+04  0.00000000000E+00 0. -1.
        -13    1    3    3    0    0  0.29467943948E+03 -0.17394860915E+03  0.25561128095E+03  0.42711967599E+03  0.00000000000E+00 0.  1.
         22    1    1    2    0    0 -0.93295130164E+03  0.66909186299E+03 -0.12538468428E+04  0.17000629276E+04  0.00000000000E+00 0.  1.
<mgrwt>
<rscale>  0 0.32059653E+04</rscale>
<asrwt>0</asrwt>
<pdfrwt beam="1">  1        2 0.26797561E+00 0.32059653E+04</pdfrwt>
<pdfrwt beam="2">  1       -2 0.22695287E+00 0.32059653E+04</pdfrwt>
<totfact> 0.69900982E-01</totfact>
</mgrwt>
</event>
<event>
 6    1  0.1878398E-004  0.9287169E+03  0.7818608E-02  0.9390379E-01
         -2   -1    0    0    0  501 -0.00000000000E+00  0.00000000000E+00  0.32691193082E+03  0.32691193082E+03  0.00000000000E+00 0. -1.
          2   -1    0    0  501    0  0.00000000000E+00 -0.00000000000E+00 -0.65959286869E+03  0.65959286869E+03  0.00000000000E+00 0.  1.
         23    2    1    2    0    0  0.24386831566E+03  0.34735937746E+03 -0.35563388985E+03  0.56146700060E+03  0.92948569997E+02 0.  0.
         11    1    3    3    0    0  0.16648047759E+03  0.15772891303E+03 -0.17694473386E+03  0.28966117839E+03  0.00000000000E+00 0.  1.
        -11    1    3    3    0    0  0.77387838062E+02  0.18963046443E+03 -0.17868915600E+03  0.27180582221E+03  0.00000000000E+00 0. -1.
         22    1    1    2    0    0 -0.24386831566E+03 -0.34735937746E+03  0.22952951983E+02  0.42503779890E+03  0.00000000000E+00 0. -1.
<mgrwt>
<rscale>  0 0.92871692E+03</rscale>
<asrwt>0</asrwt>
<pdfrwt beam="1">  1        2 0.10147583E+00 0.92871692E+03</pdfrwt>
<pdfrwt beam="2">  1       -2 0.50294143E-01 0.92871692E+03</pdfrwt>
<totfact> 0.16542434E+02</totfact>
</mgrwt>
</event>
<event>
 6    1  0.1878398E-004  0.1884935E+04  0.7818608E-02  0.8662392E-01
          1   -1    0    0  501    0  0.00000000000E+00  0.00000000000E+00  0.69339547629E+03  0.69339547629E+03  0.00000000000E+00 0.  1.
         -1   -1    0    0    0  501 -0.00000000000E+00 -0.00000000000E+00 -0.12810076454E+04  0.12810076454E+04  0.00000000000E+00 0. -1.
         23    2    1    2    0    0 -0.15640735468E+03 -0.27901105858E+03 -0.12206161046E+04  0.12651750810E+04  0.91944981067E+02 0.  0.
         11    1    3    3    0    0 -0.95472879419E+02 -0.85482198677E+02 -0.41051117274E+03  0.43004848557E+03  0.00000000000E+00 0. -1.
        -11    1    3    3    0    0 -0.60934475261E+02 -0.19352885991E+03 -0.81010493181E+03  0.83512659545E+03  0.00000000000E+00 0.  1.
         22    1    1    2    0    0  0.15640735468E+03  0.27901105858E+03  0.63300393544E+03  0.70922804068E+03  0.00000000000E+00 0.  1.
<mgrwt>
<rscale>  0 0.18849349E+04</rscale>
<asrwt>0</asrwt>
<pdfrwt beam="1">  1        1 0.10667623E+00 0.18849349E+04</pdfrwt>
<pdfrwt beam="2">  1       -1 0.19707809E+00 0.18849349E+04</pdfrwt>
<totfact> 0.40822776E+00</totfact>
</mgrwt>
</event>
<event>
 6    1  0.1878398E-004  0.3397826E+04  0.7818608E-02  0.8138440E-01
         -2   -1    0    0    0  501 -0.00000000000E+00  0.00000000000E+00  0.74513154376E+03  0.74513154376E+03  0.00000000000E+00 0. -1.
          2   -1    0    0  501    0  0.00000000000E+00 -0.00000000000E+00 -0.38735505487E+04  0.38735505487E+04  0.00000000000E+00 0.  1.
         23    2    1    2    0    0 -0.60734049842E+03 -0.91223044343E+03  0.19711811124E+03  0.11172218294E+04  0.91116427054E+02 0.  0.
         11    1    3    3    0    0 -0.41017716035E+02 -0.72451788183E+02 -0.84358189184E+01  0.83683198316E+02  0.00000000000E+00 0.  1.
        -11    1    3    3    0    0 -0.56632278238E+03 -0.83977865525E+03  0.20555393016E+03  0.10335386310E+04  0.00000000000E+00 0. -1.
         22    1    1    2    0    0  0.60734049842E+03  0.91223044343E+03 -0.33255371162E+04  0.35014602631E+04  0.00000000000E+00 0.  1.
<mgrwt>
<rscale>  0 0.33978256E+04</rscale>
<asrwt>0</asrwt>
<pdfrwt beam="1">  1        2 0.59593085E+00 0.33978256E+04</pdfrwt>
<pdfrwt beam="2">  1       -2 0.11463562E+00 0.33978256E+04</pdfrwt>
<totfact> 0.21181035E-01</totfact>
</mgrwt>
</event>
<event>
 6    1  0.1934595E-004  0.3135786E+04  0.7818608E-02  0.8205985E-01
          2   -1    0    0  501    0  0.00000000000E+00  0.00000000000E+00  0.22356904056E+04  0.22356904056E+04  0.00000000000E+00 0.  1.
         -2   -1    0    0    0  501 -0.00000000000E+00 -0.00000000000E+00 -0.10995655416E+04  0.10995655416E+04  0.00000000000E+00 0. -1.
         23    2    1    2    0    0 -0.14777466206E+04  0.44792943721E+03  0.28779762550E+03  0.15734287823E+04  0.92058699842E+02 0.  0.
         13    1    3    3    0    0 -0.11165777889E+04  0.33527971679E+03  0.17684767084E+03  0.11791664623E+04  0.00000000000E+00 0.  1.
        -13    1    3    3    0    0 -0.36116883177E+03  0.11264972042E+03  0.11094995466E+03  0.39426232002E+03  0.00000000000E+00 0. -1.
         22    1    1    2    0    0  0.14777466206E+04 -0.44792943721E+03  0.84832723845E+03  0.17618271649E+04  0.00000000000E+00 0.  1.
<mgrwt>
<rscale>  0 0.31357858E+04</rscale>
<asrwt>0</asrwt>
<pdfrwt beam="1">  1        2 0.34395237E+00 0.31357858E+04</pdfrwt>
<pdfrwt beam="2">  1       -2 0.16916393E+00 0.31357858E+04</pdfrwt>
<totfact> 0.90176409E-01</totfact>
</mgrwt>
</event>
<event>
 6    1  0.1878398E-004  0.4433867E+04  0.7818608E-02  0.7922318E-01
          2   -1    0    0  501    0  0.00000000000E+00  0.00000000000E+00  0.31369354276E+04  0.31369354276E+04  0.00000000000E+00 0. -1.
         -2   -1    0    0    0  501 -0.00000000000E+00 -0.00000000000E+00 -0.15667500459E+04  0.15667500459E+04  0.00000000000E+00 0.  1.
         23    2    1    2    0    0  0.55235115293E+03 -0.18954249229E+04  0.18530514459E+04  0.27092580758E+04  0.92478243321E+02 0.  0.
         13    1    3    3    0    0  0.13137142420E+03 -0.33336423316E+03  0.31737171942E+03  0.47865955682E+03  0.00000000000E+00 0. -1.
        -13    1    3    3    0    0  0.42097972873E+03 -0.15620606898E+04  0.15356797264E+04  0.22305985189E+04  0.00000000000E+00 0.  1.
         22    1    1    2    0    0 -0.55235115293E+03  0.18954249229E+04 -0.28286606417E+03  0.19944273978E+04  0.00000000000E+00 0.  1.
<mgrwt>
<rscale>  0 0.44338668E+04</rscale>
<asrwt>0</asrwt>
<pdfrwt beam="1">  1        2 0.48260545E+00 0.44338668E+04</pdfrwt>
<pdfrwt beam="2">  1       -2 0.24103847E+00 0.44338668E+04</pdfrwt>
<totfact> 0.79155150E-02</totfact>
</mgrwt>
</event>
<event>
 6    1  0.1878398E-004  0.3240483E+04  0.7818608E-02  0.8178207E-01
          1   -1    0    0  501    0  0.00000000000E+00  0.00000000000E+00  0.11893241798E+04  0.11893241798E+04  0.00000000000E+00 0. -1.
         -1   -1    0    0    0  501 -0.00000000000E+00 -0.00000000000E+00 -0.22072888425E+04  0.22072888425E+04  0.00000000000E+00 0.  1.
         23    2    1    2    0    0  0.81518973060E+02 -0.15636429658E+04 -0.93952855641E+03  0.18288831699E+04  0.10234780491E+03 0.  0.
         11    1    3    3    0    0  0.43253027530E+02 -0.36091544892E+03 -0.17712594622E+03  0.40435675645E+03  0.00000000000E+00 0.  1.
        -11    1    3    3    0    0  0.38265945531E+02 -0.12027275169E+04 -0.76240261019E+03  0.14245264134E+04  0.00000000000E+00 0. -1.
         22    1    1    2    0    0 -0.81518973060E+02  0.15636429658E+04 -0.78436106347E+02  0.15677298525E+04  0.00000000000E+00 0. -1.
<mgrwt>
<rscale>  0 0.32404827E+04</rscale>
<asrwt>0</asrwt>
<pdfrwt beam="1">  1        1 0.18297295E+00 0.32404827E+04</pdfrwt>
<pdfrwt beam="2">  1       -1 0.33958290E+00 0.32404827E+04</pdfrwt>
<totfact> 0.16512303E-01</totfact>
</mgrwt>
</event>
<event>
 6    1  0.1878398E-004  0.1529001E+04  0.7818608E-02  0.8865393E-01
          1   -1    0    0  501    0  0.00000000000E+00  0.00000000000E+00  0.19125056252E+04  0.19125056252E+04  0.00000000000E+00 0.  1.
         -1   -1    0    0    0  501 -0.00000000000E+00 -0.00000000000E+00 -0.30559966373E+03  0.30559966373E+03  0.00000000000E+00 0. -1.
         23    2    1    2    0    0  0.41303107934E+03 -0.57302750958E+03  0.39242677772E+03  0.81314447561E+03  0.90829307493E+02 0.  0.
         13    1    3    3    0    0  0.20768929149E+03 -0.21206448345E+03  0.16936079266E+03  0.34174444404E+03  0.00000000000E+00 0.  1.
        -13    1    3    3    0    0  0.20534178785E+03 -0.36096302613E+03  0.22306598506E+03  0.47140003157E+03  0.00000000000E+00 0. -1.
         22    1    1    2    0    0 -0.41303107934E+03  0.57302750958E+03  0.12144791837E+04  0.14049608133E+04  0.00000000000E+00 0. -1.
<mgrwt>
<rscale>  0 0.15290011E+04</rscale>
<asrwt>0</asrwt>
<pdfrwt beam="1">  1        1 0.29423163E+00 0.15290011E+04</pdfrwt>
<pdfrwt beam="2">  1       -1 0.47015334E-01 0.15290011E+04</pdfrwt>
<totfact> 0.14878677E+01</totfact>
</mgrwt>
</event>
<event>
 6    1  0.1878398E-004  0.2068899E+04  0.7818608E-02  0.8575069E-01
          2   -1    0    0  501    0  0.00000000000E+00  0.00000000000E+00  0.25253587243E+04  0.25253587243E+04  0.00000000000E+00 0.  1.
         -2   -1    0    0    0  501 -0.00000000000E+00 -0.00000000000E+00 -0.42373595764E+03  0.42373595764E+03  0.00000000000E+00 0. -1.
         23    2    1    2    0    0  0.61843782463E+03  0.48372588336E+03  0.20085048728E+04  0.21584449395E+04  0.91305309535E+02 0.  0.
         13    1    3    3    0    0  0.46647584247E+03  0.32947172771E+03  0.15343574407E+04  0.16371939674E+04  0.00000000000E+00 0. -1.
        -13    1    3    3    0    0  0.15196198216E+03  0.15425415565E+03  0.47414743205E+03  0.52125097207E+03  0.00000000000E+00 0.  1.
         22    1    1    2    0    0 -0.61843782463E+03 -0.48372588336E+03  0.93117893916E+02  0.79064974251E+03  0.00000000000E+00 0. -1.
<mgrwt>
<rscale>  0 0.20688985E+04</rscale>
<asrwt>0</asrwt>
<pdfrwt beam="1">  1        2 0.38851672E+00 0.20688985E+04</pdfrwt>
<pdfrwt beam="2">  1       -2 0.65190149E-01 0.20688985E+04</pdfrwt>
<totfact> 0.67474827E+00</totfact>
</mgrwt>
</event>
<event>
 6    1  0.1878398E-004  0.3927147E+04  0.7818608E-02  0.8019407E-01
          2   -1    0    0  501    0  0.00000000000E+00  0.00000000000E+00  0.39696470248E+04  0.39696470248E+04  0.00000000000E+00 0. -1.
         -2   -1    0    0    0  501 -0.00000000000E+00 -0.00000000000E+00 -0.97127571393E+03  0.97127571393E+03  0.00000000000E+00 0.  1.
         23    2    1    2    0    0 -0.18239131321E+04  0.70137912301E+03  0.12698511831E+04  0.23320199770E+04  0.84872600584E+02 0.  0.
         13    1    3    3    0    0 -0.48288347769E+03  0.17025681158E+03  0.29210870954E+03  0.58948395492E+03  0.00000000000E+00 0. -1.
        -13    1    3    3    0    0 -0.13410296544E+04  0.53112231143E+03  0.97774247351E+03  0.17425360221E+04  0.00000000000E+00 0.  1.
         22    1    1    2    0    0  0.18239131321E+04 -0.70137912301E+03  0.17285201278E+04  0.26089027617E+04  0.00000000000E+00 0.  1.
<mgrwt>
<rscale>  0 0.39271474E+04</rscale>
<asrwt>0</asrwt>
<pdfrwt beam="1">  1        2 0.61071492E+00 0.39271474E+04</pdfrwt>
<pdfrwt beam="2">  1       -2 0.14942704E+00 0.39271474E+04</pdfrwt>
<totfact> 0.86634829E-02</totfact>
</mgrwt>
</event>
<event>
 6    1  0.2384235E-004  0.2596499E+04  0.7818608E-02  0.8369391E-01
          2   -1    0    0  501    0  0.00000000000E+00  0.00000000000E+00  0.20034003283E+04  0.20034003283E+04  0.00000000000E+00 0.  1.
         -2   -1    0    0    0  501 -0.00000000000E+00 -0.00000000000E+00 -0.84129566065E+03  0.84129566065E+03  0.00000000000E+00 0. -1.
         23    2    1    2    0    0  0.96687420312E+03 -0.86022861486E+03  0.49353632175E+03  0.13880482526E+04  0.90889252968E+02 0.  0.
         11    1    3    3    0    0  0.41322044085E+03 -0.36356255381E+03  0.16210524044E+03  0.57376560741E+03  0.00000000000E+00 0.  1.
        -11    1    3    3    0    0  0.55365376227E+03 -0.49666606106E+03  0.33143108131E+03  0.81428264524E+03  0.00000000000E+00 0. -1.
         22    1    1    2    0    0 -0.96687420312E+03  0.86022861486E+03  0.66856834586E+03  0.14566477363E+04  0.00000000000E+00 0.  1.
<mgrwt>
<rscale>  0 0.25964992E+04</rscale>
<asrwt>0</asrwt>
<pdfrwt beam="1">  1        2 0.30821543E+00 0.25964992E+04</pdfrwt>
<pdfrwt beam="2">  1       -2 0.12943010E+00 0.25964992E+04</pdfrwt>
<totfact> 0.25849533E+00</totfact>
</mgrwt>
</event>
<event>
 6    1  0.1878398E-004  0.2588752E+04  0.7818608E-02  0.8372032E-01
          2   -1    0    0  501    0  0.00000000000E+00  0.00000000000E+00  0.20981107443E+04  0.20981107443E+04  0.00000000000E+00 0.  1.
         -2   -1    0    0    0  501 -0.00000000000E+00 -0.00000000000E+00 -0.79853215748E+03  0.79853215748E+03  0.00000000000E+00 0. -1.
         23    2    1    2    0    0  0.39247644310E+03  0.54034241688E+03  0.18891849676E+04  0.20057762618E+04  0.90060449540E+02 0.  0.
         13    1    3    3    0    0  0.10643040751E+02  0.46390720665E+02  0.17806124274E+03  0.18431272188E+03  0.00000000000E+00 0.  1.
        -13    1    3    3    0    0  0.38183340235E+03  0.49395169621E+03  0.17111237249E+04  0.18214635399E+04  0.00000000000E+00 0. -1.
         22    1    1    2    0    0 -0.39247644310E+03 -0.54034241688E+03 -0.58960638084E+03  0.89086663996E+03  0.00000000000E+00 0. -1.
<mgrwt>
<rscale>  0 0.25887517E+04</rscale>
<asrwt>0</asrwt>
<pdfrwt beam="1">  1        2 0.32278626E+00 0.25887517E+04</pdfrwt>
<pdfrwt beam="2">  1       -2 0.12285110E+00 0.25887517E+04</pdfrwt>
<totfact> 0.26115370E+00</totfact>
</mgrwt>
</event>
<event>
 6    1  0.1878398E-004  0.7289919E+03  0.7818608E-02  0.9668898E-01
          2   -1    0    0  501    0  0.00000000000E+00  0.00000000000E+00  0.11749097581E+04  0.11749097581E+04  0.00000000000E+00 0.  1.
         -2   -1    0    0    0  501 -0.00000000000E+00 -0.00000000000E+00 -0.11307872313E+03  0.11307872313E+03  0.00000000000E+00 0. -1.
         23    2    1    2    0    0 -0.26492284187E+03 -0.16305257370E+03  0.22320393375E+03  0.39352458098E+03  0.90946939816E+02 0.  0.
         13    1    3    3    0    0 -0.10007835746E+03 -0.91291977638E+02  0.51511306084E+02  0.14492521336E+03  0.00000000000E+00 0. -1.
        -13    1    3    3    0    0 -0.16484448441E+03 -0.71760596057E+02  0.17169262766E+03  0.24859936762E+03  0.00000000000E+00 0.  1.
         22    1    1    2    0    0  0.26492284187E+03  0.16305257370E+03  0.83862710121E+03  0.89446390023E+03  0.00000000000E+00 0.  1.
<mgrwt>
<rscale>  0 0.72899189E+03</rscale>
<asrwt>0</asrwt>
<pdfrwt beam="1">  1        2 0.18075534E+00 0.72899189E+03</pdfrwt>
<pdfrwt beam="2">  1       -2 0.17396727E-01 0.72899189E+03</pdfrwt>
<totfact> 0.53772323E+02</totfact>
</mgrwt>
</event>
<event>
 6    1  0.1878398E-004  0.9984964E+03  0.7818608E-02  0.9310196E-01
          2   -1    0    0  501    0  0.00000000000E+00  0.00000000000E+00  0.65573749430E+03  0.65573749430E+03  0.00000000000E+00 0.  1.
         -2   -1    0    0    0  501 -0.00000000000E+00 -0.00000000000E+00 -0.38010445938E+03  0.38010445938E+03  0.00000000000E+00 0. -1.
         23    2    1    2    0    0  0.31330692756E+03  0.16639969246E+03 -0.21930907884E+03  0.42689385697E+03  0.91059346323E+02 0.  0.
         11    1    3    3    0    0  0.11805984449E+03  0.45459593094E+02 -0.12732550430E+03  0.17948951371E+03  0.00000000000E+00 0. -1.
        -11    1    3    3    0    0  0.19524708307E+03  0.12094009937E+03 -0.91983574540E+02  0.24740434327E+03  0.00000000000E+00 0.  1.
         22    1    1    2    0    0 -0.31330692756E+03 -0.16639969246E+03  0.49494211377E+03  0.60894809671E+03  0.00000000000E+00 0.  1.
<mgrwt>
<rscale>  0 0.99849636E+03</rscale>
<asrwt>0</asrwt>
<pdfrwt beam="1">  1        2 0.10088269E+00 0.99849636E+03</pdfrwt>
<pdfrwt beam="2">  1       -2 0.58477609E-01 0.99849636E+03</pdfrwt>
<totfact> 0.12148768E+02</totfact>
</mgrwt>
</event>
<event>
 6    1  0.1878398E-004  0.4474249E+04  0.7818608E-02  0.7915161E-01
         -2   -1    0    0    0  501 -0.00000000000E+00  0.00000000000E+00  0.23146343969E+04  0.23146343969E+04  0.00000000000E+00 0. -1.
          2   -1    0    0  501    0  0.00000000000E+00 -0.00000000000E+00 -0.21622102527E+04  0.21622102527E+04  0.00000000000E+00 0.  1.
         23    2    1    2    0    0 -0.39882991706E+03  0.57770289928E+03 -0.20479472058E+04  0.21672039805E+04  0.99395133006E+02 0.  0.
         13    1    3    3    0    0 -0.18001287980E+03  0.27796695156E+03 -0.11155225227E+04  0.11636411653E+04  0.00000000000E+00 0. -1.
        -13    1    3    3    0    0 -0.21881703726E+03  0.29973594772E+03 -0.93242468316E+03  0.10035628151E+04  0.00000000000E+00 0.  1.
         22    1    1    2    0    0  0.39882991706E+03 -0.57770289928E+03  0.22003713500E+04  0.23096406691E+04  0.00000000000E+00 0. -1.
<mgrwt>
<rscale>  0 0.44742491E+04</rscale>
<asrwt>0</asrwt>
<pdfrwt beam="1">  1        2 0.33264773E+00 0.44742491E+04</pdfrwt>
<pdfrwt beam="2">  1       -2 0.35609760E+00 0.44742491E+04</pdfrwt>
<totfact> 0.58616291E-02</totfact>
</mgrwt>
</event>
<event>
 6    1  0.1878398E-004  0.1791040E+04  0.7818608E-02  0.8711079E-01
         -1   -1    0    0    0  501 -0.00000000000E+00  0.00000000000E+00  0.66295341725E+03  0.66295341725E+03  0.00000000000E+00 0.  1.
          1   -1    0    0  501    0  0.00000000000E+00 -0.00000000000E+00 -0.12096717621E+04  0.12096717621E+04  0.00000000000E+00 0. -1.
         23    2    1    2    0    0 -0.12026449370E+03 -0.40703669081E+03 -0.10957751202E+04  0.11786469673E+04  0.91340808961E+02 0.  0.
         11    1    3    3    0    0 -0.11150865411E+03 -0.22432491539E+03 -0.66647729794E+03  0.71200269401E+03  0.00000000000E+00 0. -1.
        -11    1    3    3    0    0 -0.87558395803E+01 -0.18271177542E+03 -0.42929782228E+03  0.46664427331E+03  0.00000000000E+00 0.  1.
         22    1    1    2    0    0  0.12026449370E+03  0.40703669081E+03  0.54905677540E+03  0.69397821200E+03  0.00000000000E+00 0.  1.
<mgrwt>
<rscale>  0 0.17910400E+04</rscale>
<asrwt>0</asrwt>
<pdfrwt beam="1">  1        1 0.18610335E+00 0.17910400E+04</pdfrwt>
<pdfrwt beam="2">  1       -1 0.10199283E+00 0.17910400E+04</pdfrwt>
<totfact> 0.90429417E+00</totfact>
</mgrwt>
</event>
<event>
 6    1  0.1878398E-004  0.1077314E+04  0.7818608E-02  0.9227590E-01
         -2   -1    0    0    0  501 -0.00000000000E+00  0.00000000000E+00  0.74307715084E+03  0.74307715084E+03  0.00000000000E+00 0. -1.
          2   -1    0    0  501    0  0.00000000000E+00 -0.00000000000E+00 -0.39047237842E+03  0.39047237842E+03  0.00000000000E+00 0.  1.
         23    2    1    2    0    0  0.25226197278E+03  0.47145558776E+03  0.17996166529E+03  0.57166687552E+03  0.92251511920E+02 0.  0.
         11    1    3    3    0    0  0.15763602502E+02  0.10488496115E+03  0.42783056493E+02  0.11436667417E+03  0.00000000000E+00 0. -1.
        -11    1    3    3    0    0  0.23649837028E+03  0.36657062661E+03  0.13717860880E+03  0.45730020135E+03  0.00000000000E+00 0.  1.
         22    1    1    2    0    0 -0.25226197278E+03 -0.47145558776E+03  0.17264310713E+03  0.56188265375E+03  0.00000000000E+00 0.  1.
<mgrwt>
<rscale>  0 0.10773135E+04</rscale>
<asrwt>0</asrwt>
<pdfrwt beam="1">  1        2 0.60072674E-01 0.10773135E+04</pdfrwt>
<pdfrwt beam="2">  1       -2 0.11431956E+00 0.10773135E+04</pdfrwt>
<totfact> 0.48590821E+01</totfact>
</mgrwt>
</event>
<event>
 6    1  0.1878398E-004  0.2964179E+04  0.7818608E-02  0.8254034E-01
          2   -1    0    0  501    0  0.00000000000E+00  0.00000000000E+00  0.18680001381E+04  0.18680001381E+04  0.00000000000E+00 0.  1.
         -2   -1    0    0    0  501 -0.00000000000E+00 -0.00000000000E+00 -0.11759041886E+04  0.11759041886E+04  0.00000000000E+00 0. -1.
         23    2    1    2    0    0 -0.20016255024E+03  0.11412497709E+04 -0.60043178146E+03  0.13080633140E+04  0.89416011830E+02 0.  0.
         11    1    3    3    0    0 -0.17664629087E+03  0.76715406085E+03 -0.41253448273E+03  0.88877104172E+03  0.00000000000E+00 0.  1.
        -11    1    3    3    0    0 -0.23516259370E+02  0.37409571003E+03 -0.18789729873E+03  0.41929227227E+03  0.00000000000E+00 0. -1.
         22    1    1    2    0    0  0.20016255024E+03 -0.11412497709E+04  0.12925277310E+04  0.17358410127E+04  0.00000000000E+00 0.  1.
<mgrwt>
<rscale>  0 0.29641789E+04</rscale>
<asrwt>0</asrwt>
<pdfrwt beam="1">  1        2 0.28738464E+00 0.29641789E+04</pdfrwt>
<pdfrwt beam="2">  1       -2 0.18090834E+00 0.29641789E+04</pdfrwt>
<totfact> 0.12139615E+00</totfact>
</mgrwt>
</event>
<event>
 6    1  0.1878398E-004  0.2775456E+04  0.7818608E-02  0.8310929E-01
         -2   -1    0    0    0  501 -0.00000000000E+00  0.00000000000E+00  0.31260014337E+04  0.31260014337E+04  0.00000000000E+00 0. -1.
          2   -1    0    0  501    0  0.00000000000E+00 -0.00000000000E+00 -0.61605511259E+03  0.61605511259E+03  0.00000000000E+00 0.  1.
         23    2    1    2    0    0 -0.61981439723E+03 -0.17830044585E+03  0.29107636735E+04  0.29827045290E+04  0.89555616476E+02 0.  0.
         11    1    3    3    0    0 -0.42297087674E+03 -0.10600001787E+03  0.17776350518E+04  0.18303351452E+04  0.00000000000E+00 0. -1.
        -11    1    3    3    0    0 -0.19684352048E+03 -0.72300427978E+02  0.11331286217E+04  0.11523693838E+04  0.00000000000E+00 0.  1.
         22    1    1    2    0    0  0.61981439723E+03  0.17830044585E+03 -0.40081735246E+03  0.75935201720E+03  0.00000000000E+00 0.  1.
<mgrwt>
<rscale>  0 0.27754561E+04</rscale>
<asrwt>0</asrwt>
<pdfrwt beam="1">  1        2 0.94777712E-01 0.27754561E+04</pdfrwt>
<pdfrwt beam="2">  1       -2 0.48092329E+00 0.27754561E+04</pdfrwt>
<totfact> 0.90977506E-02</totfact>
</mgrwt>
</event>
<event>
 6    1  0.1878398E-004  0.7396283E+03  0.7818608E-02  0.9651764E-01
          1   -1    0    0  501    0  0.00000000000E+00  0.00000000000E+00  0.37640229756E+03  0.37640229756E+03  0.00000000000E+00 0.  1.
         -1   -1    0    0    0  501 -0.00000000000E+00 -0.00000000000E+00 -0.36334131438E+03  0.36334131438E+03  0.00000000000E+00 0. -1.
         23    2    1    2    0    0 -0.93311747833E+02 -0.24850308340E+02  0.35812755314E+03  0.38142035312E+03  0.88890502003E+02 0.  0.
         11    1    3    3    0    0 -0.69866715904E+02 -0.57720783733E+02  0.25830834292E+03  0.27374485728E+03  0.00000000000E+00 0. -1.
        -11    1    3    3    0    0 -0.23445031929E+02  0.32870475393E+02  0.99819210225E+02  0.10767549584E+03  0.00000000000E+00 0.  1.
         22    1    1    2    0    0  0.93311747833E+02  0.24850308340E+02 -0.34506656996E+03  0.35832325882E+03  0.00000000000E+00 0. -1.
<mgrwt>
<rscale>  0 0.73962830E+03</rscale>
<asrwt>0</asrwt>
<pdfrwt beam="1">  1        1 0.57908046E-01 0.73962830E+03</pdfrwt>
<pdfrwt beam="2">  1       -1 0.55898664E-01 0.73962830E+03</pdfrwt>
<totfact> 0.21342904E+02</totfact>
</mgrwt>
</event>
<event>
 6    1  0.1998016E-004  0.3860114E+04  0.7818608E-02  0.8033376E-01
         -2   -1    0    0    0  501 -0.00000000000E+00  0.00000000000E+00  0.18446519340E+04  0.18446519340E+04  0.00000000000E+00 0. -1.
          2   -1    0    0  501    0  0.00000000000E+00 -0.00000000000E+00 -0.20194163871E+04  0.20194163871E+04  0.00000000000E+00 0.  1.
         23    2    1    2    0    0  0.10429606944E+04  0.74308778866E+02  0.15353635221E+04  0.18596166513E+04  0.86857010401E+02 0.  0.
         13    1    3    3    0    0  0.46365358250E+03  0.58096757402E+02  0.62333589136E+03  0.77903627081E+03  0.00000000000E+00 0. -1.
        -13    1    3    3    0    0  0.57930711188E+03  0.16212021463E+02  0.91202763074E+03  0.10805803805E+04  0.00000000000E+00 0.  1.
         22    1    1    2    0    0 -0.10429606944E+04 -0.74308778866E+02 -0.17101279752E+04  0.20044516697E+04  0.00000000000E+00 0.  1.
<mgrwt>
<rscale>  0 0.38601142E+04</rscale>
<asrwt>0</asrwt>
<pdfrwt beam="1">  1        2 0.31067944E+00 0.38601142E+04</pdfrwt>
<pdfrwt beam="2">  1       -2 0.28379260E+00 0.38601142E+04</pdfrwt>
<totfact> 0.20762429E-01</totfact>
</mgrwt>
</event>
<event>
 6    1  0.1878398E-004  0.2217989E+04  0.7818608E-02  0.8510978E-01
          1   -1    0    0  501    0  0.00000000000E+00  0.00000000000E+00  0.19750376100E+04  0.19750376100E+04  0.00000000000E+00 0.  1.
         -1   -1    0    0    0  501 -0.00000000000E+00 -0.00000000000E+00 -0.62270627384E+03  0.62270627384E+03  0.00000000000E+00 0. -1.
         23    2    1    2    0    0 -0.97085023027E+03 -0.52779080974E+03  0.59568561365E+03  0.12584806319E+04  0.88424217200E+02 0.  0.
         13    1    3    3    0    0 -0.80547262474E+03 -0.43386387981E+03  0.45416892355E+03  0.10214173616E+04  0.00000000000E+00 0. -1.
        -13    1    3    3    0    0 -0.16537760553E+03 -0.93926929936E+02  0.14151669010E+03  0.23706327036E+03  0.00000000000E+00 0.  1.
         22    1    1    2    0    0  0.97085023027E+03  0.52779080974E+03  0.75664572247E+03  0.13392632519E+04  0.00000000000E+00 0.  1.
<mgrwt>
<rscale>  0 0.22179886E+04</rscale>
<asrwt>0</asrwt>
<pdfrwt beam="1">  1        1 0.30385194E+00 0.22179886E+04</pdfrwt>
<pdfrwt beam="2">  1       -1 0.95800966E-01 0.22179886E+04</pdfrwt>
<totfact> 0.29630892E+00</totfact>
</mgrwt>
</event>
<event>
 6    1  0.1878398E-004  0.2027605E+04  0.7818608E-02  0.8593822E-01
         -1   -1    0    0    0  501 -0.00000000000E+00  0.00000000000E+00  0.93468577864E+03  0.93468577864E+03  0.00000000000E+00 0. -1.
          1   -1    0    0  501    0  0.00000000000E+00 -0.00000000000E+00 -0.10996158657E+04  0.10996158657E+04  0.00000000000E+00 0.  1.
         23    2    1    2    0    0 -0.80055353950E+03 -0.45902996728E+03  0.33358245256E+03  0.98544072285E+03  0.90673508440E+02 0.  0.
         11    1    3    3    0    0 -0.56531560993E+03 -0.27935041929E+03  0.24456448455E+03  0.67633585052E+03  0.00000000000E+00 0.  1.
        -11    1    3    3    0    0 -0.23523792957E+03 -0.17967954799E+03  0.89017968004E+02  0.30910487233E+03  0.00000000000E+00 0. -1.
         22    1    1    2    0    0  0.80055353950E+03  0.45902996728E+03 -0.49851253962E+03  0.10488609215E+04  0.00000000000E+00 0.  1.
<mgrwt>
<rscale>  0 0.20276048E+04</rscale>
<asrwt>0</asrwt>
<pdfrwt beam="1">  1        1 0.16917167E+00 0.20276048E+04</pdfrwt>
<pdfrwt beam="2">  1       -1 0.14379781E+00 0.20276048E+04</pdfrwt>
<totfact> 0.45868268E+00</totfact>
</mgrwt>
</event>
<event>
 6    1  0.1878398E-004  0.3168490E+04  0.7818608E-02  0.8197189E-01
         -2   -1    0    0    0  501 -0.00000000000E+00  0.00000000000E+00  0.19831431799E+04  0.19831431799E+04  0.00000000000E+00 0. -1.
          2   -1    0    0  501    0  0.00000000000E+00 -0.00000000000E+00 -0.12655830654E+04  0.12655830654E+04  0.00000000000E+00 0.  1.
         23    2    1    2    0    0 -0.82169035796E+03 -0.63302754889E+03  0.15848720977E+04  0.18966430385E+04  0.97654119971E+02 0.  0.
         13    1    3    3    0    0 -0.43788253304E+03 -0.38117627381E+03  0.82302006616E+03  0.10071735172E+04  0.00000000000E+00 0.  1.
        -13    1    3    3    0    0 -0.38380782492E+03 -0.25185127508E+03  0.76185203158E+03  0.88946952126E+03  0.00000000000E+00 0. -1.
         22    1    1    2    0    0  0.82169035796E+03  0.63302754889E+03 -0.86731198324E+03  0.13520832069E+04  0.00000000000E+00 0.  1.
<mgrwt>
<rscale>  0 0.31684901E+04</rscale>
<asrwt>0</asrwt>
<pdfrwt beam="1">  1        2 0.19470509E+00 0.31684901E+04</pdfrwt>
<pdfrwt beam="2">  1       -2 0.30509895E+00 0.31684901E+04</pdfrwt>
<totfact> 0.43235893E-01</totfact>
</mgrwt>
</event>
<event>
 6    1  0.1878398E-004  0.1932525E+04  0.7818608E-02  0.8638834E-01
          2   -1    0    0  501    0  0.00000000000E+00  0.00000000000E+00  0.13269637617E+04  0.13269637617E+04  0.00000000000E+00 0.  1.
         -2   -1    0    0    0  501 -0.00000000000E+00 -0.00000000000E+00 -0.70360868653E+03  0.70360868653E+03  0.00000000000E+00 0. -1.
         23    2    1    2    0    0 -0.27580243060E+03  0.49661558744E+03 -0.50604019071E+03  0.76636214570E+03  0.92413426141E+02 0.  0.
         11    1    3    3    0    0 -0.27620163070E+03  0.46066545667E+03 -0.48979210579E+03  0.72690873613E+03  0.00000000000E+00 0. -1.
        -11    1    3    3    0    0  0.39920010010E+00  0.35950130764E+02 -0.16248084928E+02  0.39453409567E+02  0.00000000000E+00 0.  1.
         22    1    1    2    0    0  0.27580243060E+03 -0.49661558744E+03  0.11293952658E+04  0.12642103025E+04  0.00000000000E+00 0.  1.
<mgrwt>
<rscale>  0 0.19325250E+04</rscale>
<asrwt>0</asrwt>
<pdfrwt beam="1">  1        2 0.20414827E+00 0.19325250E+04</pdfrwt>
<pdfrwt beam="2">  1       -2 0.10824749E+00 0.19325250E+04</pdfrwt>
<totfact> 0.10175331E+01</totfact>
</mgrwt>
</event>
<event>
 6    1  0.1878398E-004  0.1936480E+04  0.7818608E-02  0.8636908E-01
          2   -1    0    0  501    0  0.00000000000E+00  0.00000000000E+00  0.19377622311E+04  0.19377622311E+04  0.00000000000E+00 0.  1.
         -2   -1    0    0    0  501 -0.00000000000E+00 -0.00000000000E+00 -0.48379954214E+03  0.48379954214E+03  0.00000000000E+00 0. -1.
         23    2    1    2    0    0 -0.62931070735E+03 -0.47655255328E+03  0.14248915652E+04  0.16316380854E+04  0.93768686692E+02 0.  0.
         13    1    3    3    0    0 -0.47416162981E+03 -0.30575911759E+03  0.10116990037E+04  0.11583836857E+04  0.00000000000E+00 0. -1.
        -13    1    3    3    0    0 -0.15514907755E+03 -0.17079343568E+03  0.41319256157E+03  0.47325439974E+03  0.00000000000E+00 0.  1.
         22    1    1    2    0    0  0.62931070735E+03  0.47655255328E+03  0.29071123757E+02  0.78992368787E+03  0.00000000000E+00 0. -1.
<mgrwt>
<rscale>  0 0.19364798E+04</rscale>
<asrwt>0</asrwt>
<pdfrwt beam="1">  1        2 0.29811726E+00 0.19364798E+04</pdfrwt>
<pdfrwt beam="2">  1       -2 0.74430700E-01 0.19364798E+04</pdfrwt>
<totfact> 0.10971990E+01</totfact>
</mgrwt>
</event>
<event>
 6    1  0.1878398E-004  0.3194153E+04  0.7818608E-02  0.8190363E-01
          2   -1    0    0  501    0  0.00000000000E+00  0.00000000000E+00  0.15830154277E+04  0.15830154277E+04  0.00000000000E+00 0.  1.
         -2   -1    0    0    0  501 -0.00000000000E+00 -0.00000000000E+00 -0.16112622204E+04  0.16112622204E+04  0.00000000000E+00 0. -1.
         23    2    1    2    0    0 -0.98981953400E+03  0.75549946399E+03 -0.10125435143E+04  0.16070277666E+04  0.82290487567E+02 0.  0.
         13    1    3    3    0    0 -0.22357953361E+03  0.14603869555E+03 -0.18236937276E+03  0.32337856541E+03  0.00000000000E+00 0. -1.
        -13    1    3    3    0    0 -0.76624000039E+03  0.60946076843E+03 -0.83017414158E+03  0.12836492012E+04  0.00000000000E+00 0.  1.
         22    1    1    2    0    0  0.98981953400E+03 -0.75549946399E+03  0.98429672161E+03  0.15872498814E+04  0.00000000000E+00 0.  1.
<mgrwt>
<rscale>  0 0.31941528E+04</rscale>
<asrwt>0</asrwt>
<pdfrwt beam="1">  1        2 0.24354083E+00 0.31941528E+04</pdfrwt>
<pdfrwt beam="2">  1       -2 0.24788650E+00 0.31941528E+04</pdfrwt>
<totfact> 0.63592604E-01</totfact>
</mgrwt>
</event>
<event>
 6    1  0.1878398E-004  0.3320310E+04  0.7818608E-02  0.8157747E-01
         -2   -1    0    0    0  501 -0.00000000000E+00  0.00000000000E+00  0.10608592475E+04  0.10608592475E+04  0.00000000000E+00 0. -1.
          2   -1    0    0  501    0  0.00000000000E+00 -0.00000000000E+00 -0.25980022953E+04  0.25980022953E+04  0.00000000000E+00 0.  1.
         23    2    1    2    0    0 -0.11767107481E+04 -0.53782148896E+03 -0.19132637388E+04  0.23115060170E+04  0.92637970750E+02 0.  0.
         11    1    3    3    0    0 -0.53546694182E+03 -0.21784074306E+03 -0.92416087502E+03  0.10900700702E+04  0.00000000000E+00 0. -1.
        -11    1    3    3    0    0 -0.64124380626E+03 -0.31998074589E+03 -0.98910286383E+03  0.12214359468E+04  0.00000000000E+00 0.  1.
         22    1    1    2    0    0  0.11767107481E+04  0.53782148896E+03  0.37612069101E+03  0.13473555258E+04  0.00000000000E+00 0. -1.
<mgrwt>
<rscale>  0 0.33203101E+04</rscale>
<asrwt>0</asrwt>
<pdfrwt beam="1">  1        2 0.39969266E+00 0.33203101E+04</pdfrwt>
<pdfrwt beam="2">  1       -2 0.16320912E+00 0.33203101E+04</pdfrwt>
<totfact> 0.60687401E-01</totfact>
</mgrwt>
</event>
<event>
 6    1  0.1878398E-004  0.1525426E+04  0.7818608E-02  0.8867719E-01
         -1   -1    0    0    0  501 -0.00000000000E+00  0.00000000000E+00  0.66612394354E+03  0.66612394354E+03  0.00000000000E+00 0. -1.
          1   -1    0    0  501    0  0.00000000000E+00 -0.00000000000E+00 -0.87330731942E+03  0.87330731942E+03  0.00000000000E+00 0.  1.
         23    2    1    2    0    0  0.30288979732E+03 -0.48277635660E+02 -0.80533971747E+03  0.86722298541E+03  0.97111721552E+02 0.  0.
         11    1    3    3    0    0  0.21503438564E+03  0.15580314129E+01 -0.46706658824E+03  0.51419199947E+03  0.00000000000E+00 0.  1.
        -11    1    3    3    0    0  0.87855411680E+02 -0.49835667073E+02 -0.33827312923E+03  0.35303098594E+03  0.00000000000E+00 0. -1.
         22    1    1    2    0    0 -0.30288979732E+03  0.48277635660E+02  0.59815634159E+03  0.67220827755E+03  0.00000000000E+00 0. -1.
<mgrwt>
<rscale>  0 0.15254257E+04</rscale>
<asrwt>0</asrwt>
<pdfrwt beam="1">  1        1 0.13435497E+00 0.15254257E+04</pdfrwt>
<pdfrwt beam="2">  1       -1 0.10248061E+00 0.15254257E+04</pdfrwt>
<totfact> 0.16654282E+01</totfact>
</mgrwt>
</event>
<event>
 6    1  0.1878398E-004  0.2643679E+04  0.7818608E-02  0.8353514E-01
         -1   -1    0    0    0  501 -0.00000000000E+00  0.00000000000E+00  0.46096397943E+03  0.46096397943E+03  0.00000000000E+00 0. -1.
          1   -1    0    0  501    0  0.00000000000E+00 -0.00000000000E+00 -0.37904461001E+04  0.37904461001E+04  0.00000000000E+00 0.  1.
         23    2    1    2    0    0  0.78487771616E+03  0.17314453355E+03  0.17773568191E+02  0.80900790875E+03  0.90365025655E+02 0.  0.
         11    1    3    3    0    0  0.53844727658E+03  0.90814985442E+02  0.44255222017E+02  0.54784245538E+03  0.00000000000E+00 0. -1.
        -11    1    3    3    0    0  0.24643043959E+03  0.82329548111E+02 -0.26481653826E+02  0.26116545337E+03  0.00000000000E+00 0.  1.
         22    1    1    2    0    0 -0.78487771616E+03 -0.17314453355E+03 -0.33472556889E+04  0.34424021708E+04  0.00000000000E+00 0.  1.
<mgrwt>
<rscale>  0 0.26436786E+04</rscale>
<asrwt>0</asrwt>
<pdfrwt beam="1">  1        1 0.58314555E+00 0.26436786E+04</pdfrwt>
<pdfrwt beam="2">  1       -1 0.70917536E-01 0.26436786E+04</pdfrwt>
<totfact> 0.25606785E-01</totfact>
</mgrwt>
</event>
<event>
 6    1  0.1878398E-004  0.9134331E+03  0.7818608E-02  0.9408943E-01
          2   -1    0    0  501    0  0.00000000000E+00  0.00000000000E+00  0.21482784843E+03  0.21482784843E+03  0.00000000000E+00 0.  1.
         -2   -1    0    0    0  501 -0.00000000000E+00 -0.00000000000E+00 -0.97096352627E+03  0.97096352627E+03  0.00000000000E+00 0. -1.
         23    2    1    2    0    0 -0.28307150142E+03  0.15720595682E+03  0.28019700596E+02  0.33741478066E+03  0.90666657669E+02 0.  0.
         13    1    3    3    0    0 -0.16661599107E+03  0.41084018822E+02  0.19911146746E+02  0.17275774613E+03  0.00000000000E+00 0.  1.
        -13    1    3    3    0    0 -0.11645551034E+03  0.11612193800E+03  0.81085538497E+01  0.16465703453E+03  0.00000000000E+00 0. -1.
         22    1    1    2    0    0  0.28307150142E+03 -0.15720595682E+03 -0.78415537844E+03  0.84837659403E+03  0.00000000000E+00 0. -1.
<mgrwt>
<rscale>  0 0.91343310E+03</rscale>
<asrwt>0</asrwt>
<pdfrwt beam="1">  1        2 0.33050438E-01 0.91343310E+03</pdfrwt>
<pdfrwt beam="2">  1       -2 0.14937900E+00 0.91343310E+03</pdfrwt>
<totfact> 0.48443202E+01</totfact>
</mgrwt>
</event>
<event>
 6    1  0.1878398E-004  0.8218323E+03  0.7818608E-02  0.9528943E-01
          1   -1    0    0  501    0  0.00000000000E+00  0.00000000000E+00  0.85155320936E+03  0.85155320936E+03  0.00000000000E+00 0.  1.
         -1   -1    0    0    0  501 -0.00000000000E+00 -0.00000000000E+00 -0.19828718134E+03  0.19828718134E+03  0.00000000000E+00 0. -1.
         23    2    1    2    0    0 -0.88078225061E+02 -0.18419008345E+03  0.77868393014E+03  0.81022943365E+03  0.91865725449E+02 0.  0.
         11    1    3    3    0    0 -0.50053187726E+02 -0.10151935311E+03  0.25919940394E+03  0.28283534372E+03  0.00000000000E+00 0. -1.
        -11    1    3    3    0    0 -0.38025037335E+02 -0.82670730341E+02  0.51948452621E+03  0.52739408992E+03  0.00000000000E+00 0.  1.
         22    1    1    2    0    0  0.88078225061E+02  0.18419008345E+03 -0.12541790212E+03  0.23961095706E+03  0.00000000000E+00 0. -1.
<mgrwt>
<rscale>  0 0.82183231E+03</rscale>
<asrwt>0</asrwt>
<pdfrwt beam="1">  1        1 0.13100818E+00 0.82183231E+03</pdfrwt>
<pdfrwt beam="2">  1       -1 0.30505721E-01 0.82183231E+03</pdfrwt>
<totfact> 0.19963106E+02</totfact>
</mgrwt>
</event>
<event>
 6    1  0.2071957E-004  0.3221219E+04  0.7818608E-02  0.8183236E-01
          1   -1    0    0  501    0  0.00000000000E+00  0.00000000000E+00  0.17284219949E+04  0.17284219949E+04  0.00000000000E+00 0.  1.
         -1   -1    0    0    0  501 -0.00000000000E+00 -0.00000000000E+00 -0.15008274105E+04  0.15008274105E+04  0.00000000000E+00 0. -1.
         23    2    1    2    0    0 -0.97052407780E+02  0.15756915206E+04 -0.19942452671E+03  0.15938386744E+04  0.91261384000E+02 0.  0.
         11    1    3    3    0    0 -0.37794805873E+02  0.57069081690E+03 -0.11647968958E+03  0.58368139762E+03  0.00000000000E+00 0.  1.
        -11    1    3    3    0    0 -0.59257601907E+02  0.10050007037E+04 -0.82944837135E+02  0.10101572767E+04  0.00000000000E+00 0. -1.
         22    1    1    2    0    0  0.97052407780E+02 -0.15756915206E+04  0.42701911109E+03  0.16354107310E+04  0.00000000000E+00 0.  1.
<mgrwt>
<rscale>  0 0.32212191E+04</rscale>
<asrwt>0</asrwt>
<pdfrwt beam="1">  1        1 0.26591108E+00 0.32212191E+04</pdfrwt>
<pdfrwt beam="2">  1       -1 0.23089652E+00 0.32212191E+04</pdfrwt>
<totfact> 0.35443165E-01</totfact>
</mgrwt>
</event>
<event>
 6    1  0.1878398E-004  0.1266879E+04  0.7818608E-02  0.9056251E-01
         -2   -1    0    0    0  501 -0.00000000000E+00  0.00000000000E+00  0.85998705744E+03  0.85998705744E+03  0.00000000000E+00 0. -1.
          2   -1    0    0  501    0  0.00000000000E+00 -0.00000000000E+00 -0.46657149326E+03  0.46657149326E+03  0.00000000000E+00 0.  1.
         23    2    1    2    0    0 -0.18109907417E+03  0.94834013178E+02  0.82192423832E+03  0.85178486931E+03  0.90485608372E+02 0.  0.
         13    1    3    3    0    0 -0.10304380648E+03  0.93939176309E+02  0.42602072438E+03  0.44825913544E+03  0.00000000000E+00 0.  1.
        -13    1    3    3    0    0 -0.78055267687E+02  0.89483686881E+00  0.39590351394E+03  0.40352573387E+03  0.00000000000E+00 0. -1.
         22    1    1    2    0    0  0.18109907417E+03 -0.94834013178E+02 -0.42850867414E+03  0.47477368138E+03  0.00000000000E+00 0.  1.
<mgrwt>
<rscale>  0 0.12668788E+04</rscale>
<asrwt>0</asrwt>
<pdfrwt beam="1">  1        2 0.71780230E-01 0.12668788E+04</pdfrwt>
<pdfrwt beam="2">  1       -2 0.13230570E+00 0.12668788E+04</pdfrwt>
<totfact> 0.27205353E+01</totfact>
</mgrwt>
</event>
<event>
 6    1  0.1878398E-004  0.2260843E+04  0.7818608E-02  0.8493522E-01
         -2   -1    0    0    0  501 -0.00000000000E+00  0.00000000000E+00  0.31231771139E+03  0.31231771139E+03  0.00000000000E+00 0. -1.
          2   -1    0    0  501    0  0.00000000000E+00 -0.00000000000E+00 -0.40915169136E+04  0.40915169136E+04  0.00000000000E+00 0.  1.
         23    2    1    2    0    0  0.89955194754E+03 -0.53644561850E+03 -0.27116899327E+04  0.29083268020E+04  0.90193617604E+02 0.  0.
         13    1    3    3    0    0  0.52590153020E+03 -0.29098534183E+03 -0.14427601197E+04  0.15629464648E+04  0.00000000000E+00 0. -1.
        -13    1    3    3    0    0  0.37365041735E+03 -0.24546027667E+03 -0.12689298129E+04  0.13453803373E+04  0.00000000000E+00 0.  1.
         22    1    1    2    0    0 -0.89955194754E+03  0.53644561850E+03 -0.10675092696E+04  0.14955078230E+04  0.00000000000E+00 0. -1.
<mgrwt>
<rscale>  0 0.22608434E+04</rscale>
<asrwt>0</asrwt>
<pdfrwt beam="1">  1        2 0.62946408E+00 0.22608434E+04</pdfrwt>
<pdfrwt beam="2">  1       -2 0.48048883E-01 0.22608434E+04</pdfrwt>
<totfact> 0.10811880E+00</totfact>
</mgrwt>
</event>
<event>
 6    1  0.1878398E-004  0.3009980E+04  0.7818608E-02  0.8240887E-01
         -1   -1    0    0    0  501 -0.00000000000E+00  0.00000000000E+00  0.98134915964E+03  0.98134915964E+03  0.00000000000E+00 0. -1.
          1   -1    0    0  501    0  0.00000000000E+00 -0.00000000000E+00 -0.23080414169E+04  0.23080414169E+04  0.00000000000E+00 0.  1.
         23    2    1    2    0    0  0.78203325464E+02  0.14635055625E+04 -0.29877156279E+03  0.14992550382E+04  0.10264955592E+03 0.  0.
         13    1    3    3    0    0 -0.12259492889E+02  0.70157708059E+03 -0.15566818889E+03  0.71874423838E+03  0.00000000000E+00 0.  1.
        -13    1    3    3    0    0  0.90462818353E+02  0.76192848188E+03 -0.14310337390E+03  0.78051079981E+03  0.00000000000E+00 0. -1.
         22    1    1    2    0    0 -0.78203325464E+02 -0.14635055625E+04 -0.10279206945E+04  0.17901355383E+04  0.00000000000E+00 0. -1.
<mgrwt>
<rscale>  0 0.30099797E+04</rscale>
<asrwt>0</asrwt>
<pdfrwt beam="1">  1        1 0.35508329E+00 0.30099797E+04</pdfrwt>
<pdfrwt beam="2">  1       -1 0.15097679E+00 0.30099797E+04</pdfrwt>
<totfact> 0.53559676E-01</totfact>
</mgrwt>
</event>
<event>
 6    1  0.1878398E-004  0.5994022E+04  0.7818608E-02  0.7691143E-01
          2   -1    0    0  501    0  0.00000000000E+00  0.00000000000E+00  0.32978025742E+04  0.32978025742E+04  0.00000000000E+00 0.  1.
         -2   -1    0    0    0  501 -0.00000000000E+00 -0.00000000000E+00 -0.27236541592E+04  0.27236541592E+04  0.00000000000E+00 0. -1.
         23    2    1    2    0    0  0.75367247312E+02  0.28277338844E+04  0.12797205264E+04  0.31060509045E+04  0.90046949786E+02 0.  0.
         11    1    3    3    0    0 -0.14963557216E+02  0.88679377655E+03  0.41865560214E+03  0.98076481552E+03  0.00000000000E+00 0. -1.
        -11    1    3    3    0    0  0.90330804528E+02  0.19409401078E+04  0.86106492426E+03  0.21252860890E+04  0.00000000000E+00 0.  1.
         22    1    1    2    0    0 -0.75367247312E+02 -0.28277338844E+04 -0.70557211136E+03  0.29154058289E+04  0.00000000000E+00 0. -1.
<mgrwt>
<rscale>  0 0.59940216E+04</rscale>
<asrwt>0</asrwt>
<pdfrwt beam="1">  1        2 0.50735424E+00 0.59940216E+04</pdfrwt>
<pdfrwt beam="2">  1       -2 0.41902372E+00 0.59940216E+04</pdfrwt>
<totfact> 0.41924817E-03</totfact>
</mgrwt>
</event>
<event>
 6    1  0.1878398E-004  0.3081009E+04  0.7818608E-02  0.8220969E-01
         -1   -1    0    0    0  501 -0.00000000000E+00  0.00000000000E+00  0.10242808018E+04  0.10242808018E+04  0.00000000000E+00 0. -1.
          1   -1    0    0  501    0  0.00000000000E+00 -0.00000000000E+00 -0.23168974514E+04  0.23168974514E+04  0.00000000000E+00 0.  1.
         23    2    1    2    0    0  0.10727853560E+04 -0.97425517286E+03 -0.12090776044E+04  0.18896203542E+04  0.93567450837E+02 0.  0.
         13    1    3    3    0    0  0.10053454512E+04 -0.93268922220E+03 -0.11217035638E+04  0.17716793013E+04  0.00000000000E+00 0.  1.
        -13    1    3    3    0    0  0.67439904822E+02 -0.41565950664E+02 -0.87374040516E+02  0.11794105296E+03  0.00000000000E+00 0. -1.
         22    1    1    2    0    0 -0.10727853560E+04  0.97425517286E+03 -0.83539045172E+02  0.14515578989E+04  0.00000000000E+00 0.  1.
<mgrwt>
<rscale>  0 0.30810087E+04</rscale>
<asrwt>0</asrwt>
<pdfrwt beam="1">  1        1 0.35644576E+00 0.30810087E+04</pdfrwt>
<pdfrwt beam="2">  1       -1 0.15758166E+00 0.30810087E+04</pdfrwt>
<totfact> 0.46688703E-01</totfact>
</mgrwt>
</event>
<event>
 6    1  0.1878398E-004  0.1435266E+04  0.7818608E-02  0.8928680E-01
          1   -1    0    0  501    0  0.00000000000E+00  0.00000000000E+00  0.15542916893E+04  0.15542916893E+04  0.00000000000E+00 0.  1.
         -1   -1    0    0    0  501 -0.00000000000E+00 -0.00000000000E+00 -0.33133878439E+03  0.33133878439E+03  0.00000000000E+00 0. -1.
         23    2    1    2    0    0  0.54769374724E+03 -0.45142714699E+03  0.50230333592E+03  0.87415100722E+03  0.89868973201E+02 0.  0.
         13    1    3    3    0    0  0.36305454893E+03 -0.24676246852E+03  0.28825638036E+03  0.52515908274E+03  0.00000000000E+00 0. -1.
        -13    1    3    3    0    0  0.18463919831E+03 -0.20466467848E+03  0.21404695556E+03  0.34899192448E+03  0.00000000000E+00 0.  1.
         22    1    1    2    0    0 -0.54769374724E+03  0.45142714699E+03  0.72064956902E+03  0.10114794665E+04  0.00000000000E+00 0. -1.
<mgrwt>
<rscale>  0 0.14352660E+04</rscale>
<asrwt>0</asrwt>
<pdfrwt beam="1">  1        1 0.23912179E+00 0.14352660E+04</pdfrwt>
<pdfrwt beam="2">  1       -1 0.50975199E-01 0.14352660E+04</pdfrwt>
<totfact> 0.22566875E+01</totfact>
</mgrwt>
</event>
<event>
 6    1  0.1878398E-004  0.2117457E+04  0.7818608E-02  0.8553592E-01
          2   -1    0    0  501    0  0.00000000000E+00  0.00000000000E+00  0.27566121843E+04  0.27566121843E+04  0.00000000000E+00 0.  1.
         -2   -1    0    0    0  501 -0.00000000000E+00 -0.00000000000E+00 -0.40662454971E+03  0.40662454971E+03  0.00000000000E+00 0. -1.
         23    2    1    2    0    0  0.27426498831E+03  0.10057687278E+04  0.14346262027E+04  0.17759088821E+04  0.94382192976E+02 0.  0.
         11    1    3    3    0    0  0.16821861860E+03  0.44907509891E+03  0.68510107029E+03  0.83625918507E+03  0.00000000000E+00 0. -1.
        -11    1    3    3    0    0  0.10604636971E+03  0.55669362893E+03  0.74952513242E+03  0.93964969704E+03  0.00000000000E+00 0.  1.
         22    1    1    2    0    0 -0.27426498831E+03 -0.10057687278E+04  0.91536143190E+03  0.13873278519E+04  0.00000000000E+00 0. -1.
<mgrwt>
<rscale>  0 0.21174571E+04</rscale>
<asrwt>0</asrwt>
<pdfrwt beam="1">  1        2 0.42409417E+00 0.21174571E+04</pdfrwt>
<pdfrwt beam="2">  1       -2 0.62557625E-01 0.21174571E+04</pdfrwt>
<totfact> 0.53612312E+00</totfact>
</mgrwt>
</event>
<event>
 6    1  0.1878398E-004  0.1702146E+04  0.7818608E-02  0.8760141E-01
         -2   -1    0    0    0  501 -0.00000000000E+00  0.00000000000E+00  0.68138653365E+03  0.68138653365E+03  0.00000000000E+00 0. -1.
          2   -1    0    0  501    0  0.00000000000E+00 -0.00000000000E+00 -0.10630168186E+04  0.10630168186E+04  0.00000000000E+00 0.  1.
         23    2    1    2    0    0 -0.48854851293E+03 -0.61378715182E+03 -0.52257116475E+03  0.94735965907E+03  0.94843999236E+02 0.  0.
         11    1    3    3    0    0 -0.54886789471E+02 -0.98053143934E+02 -0.43086044544E+02  0.12034693984E+03  0.00000000000E+00 0. -1.
        -11    1    3    3    0    0 -0.43366172345E+03 -0.51573400788E+03 -0.47948512020E+03  0.82701271923E+03  0.00000000000E+00 0.  1.
         22    1    1    2    0    0  0.48854851293E+03  0.61378715182E+03  0.14094087981E+03  0.79704369317E+03  0.00000000000E+00 0. -1.
<mgrwt>
<rscale>  0 0.17021461E+04</rscale>
<asrwt>0</asrwt>
<pdfrwt beam="1">  1        2 0.16354105E+00 0.17021461E+04</pdfrwt>
<pdfrwt beam="2">  1       -2 0.10482870E+00 0.17021461E+04</pdfrwt>
<totfact> 0.16131177E+01</totfact>
</mgrwt>
</event>
<event>
 6    1  0.1878398E-004  0.8136056E+03  0.7818608E-02  0.9540530E-01
         -1   -1    0    0    0  501 -0.00000000000E+00  0.00000000000E+00  0.37762778977E+03  0.37762778977E+03  0.00000000000E+00 0. -1.
          1   -1    0    0  501    0  0.00000000000E+00 -0.00000000000E+00 -0.43823181219E+03  0.43823181219E+03  0.00000000000E+00 0.  1.
         23    2    1    2    0    0  0.32623428002E+03  0.23202787587E+03 -0.66107592310E+02  0.41548973557E+03  0.89419047022E+02 0.  0.
         11    1    3    3    0    0  0.74446568501E+02  0.45323657334E+02 -0.52475793411E+02  0.10173610161E+03  0.00000000000E+00 0. -1.
        -11    1    3    3    0    0  0.25178771151E+03  0.18670421853E+03 -0.13631798898E+02  0.31375363397E+03  0.00000000000E+00 0.  1.
         22    1    1    2    0    0 -0.32623428002E+03 -0.23202787587E+03  0.55035698891E+01  0.40036986640E+03  0.00000000000E+00 0.  1.
<mgrwt>
<rscale>  0 0.81360558E+03</rscale>
<asrwt>0</asrwt>
<pdfrwt beam="1">  1        1 0.67420279E-01 0.81360558E+03</pdfrwt>
<pdfrwt beam="2">  1       -1 0.58096583E-01 0.81360558E+03</pdfrwt>
<totfact> 0.16115856E+02</totfact>
</mgrwt>
</event>
<event>
 6    1  0.1878398E-004  0.3384554E+04  0.7818608E-02  0.8141708E-01
          4   -1    0    0  501    0  0.00000000000E+00  0.00000000000E+00  0.17119886055E+04  0.17119886055E+04  0.00000000000E+00 0.  1.
         -4   -1    0    0    0  501 -0.00000000000E+00 -0.00000000000E+00 -0.16727920595E+04  0.16727920595E+04  0.00000000000E+00 0. -1.
         23    2    1    2    0    0  0.56447166688E+03  0.13084154726E+04  0.93022764436E+03  0.17041511014E+04  0.90709394528E+02 0.  0.
         11    1    3    3    0    0  0.72216482566E+02  0.23305654703E+03  0.18600876793E+03  0.30680586079E+03  0.00000000000E+00 0.  1.
        -11    1    3    3    0    0  0.49225518431E+03  0.10753589256E+04  0.74421887644E+03  0.13973452406E+04  0.00000000000E+00 0. -1.
         22    1    1    2    0    0 -0.56447166688E+03 -0.13084154726E+04 -0.89103109838E+03  0.16806295636E+04  0.00000000000E+00 0. -1.
<mgrwt>
<rscale>  0 0.33845537E+04</rscale>
<asrwt>0</asrwt>
<pdfrwt beam="1">  1        4 0.26338286E+00 0.33845537E+04</pdfrwt>
<pdfrwt beam="2">  1       -4 0.25735262E+00 0.33845537E+04</pdfrwt>
<totfact> 0.48554499E-03</totfact>
</mgrwt>
</event>
<event>
 6    1  0.1878398E-004  0.9247189E+03  0.7818608E-02  0.9395198E-01
          2   -1    0    0  501    0  0.00000000000E+00  0.00000000000E+00  0.14909515311E+04  0.14909515311E+04  0.00000000000E+00 0.  1.
         -2   -1    0    0    0  501 -0.00000000000E+00 -0.00000000000E+00 -0.14338242985E+03  0.14338242985E+03  0.00000000000E+00 0. -1.
         23    2    1    2    0    0  0.43428987456E+03 -0.13653745138E+03  0.58343333032E+03  0.74486577872E+03  0.84737279932E+02 0.  0.
         13    1    3    3    0    0  0.94239858922E+02 -0.15499753849E+02  0.75499458677E+02  0.12174383615E+03  0.00000000000E+00 0. -1.
        -13    1    3    3    0    0  0.34005001563E+03 -0.12103769753E+03  0.50793387164E+03  0.62312194257E+03  0.00000000000E+00 0.  1.
         22    1    1    2    0    0 -0.43428987456E+03  0.13653745138E+03  0.76413577093E+03  0.88946818222E+03  0.00000000000E+00 0.  1.
<mgrwt>
<rscale>  0 0.92471888E+03</rscale>
<asrwt>0</asrwt>
<pdfrwt beam="1">  1        2 0.22937715E+00 0.92471888E+03</pdfrwt>
<pdfrwt beam="2">  1       -2 0.22058836E-01 0.92471888E+03</pdfrwt>
<totfact> 0.23111385E+02</totfact>
</mgrwt>
</event>
<event>
 6    1  0.1878398E-004  0.2123778E+04  0.7818608E-02  0.8550841E-01
         -2   -1    0    0    0  501 -0.00000000000E+00  0.00000000000E+00  0.16711827611E+04  0.16711827611E+04  0.00000000000E+00 0. -1.
          2   -1    0    0  501    0  0.00000000000E+00 -0.00000000000E+00 -0.67473685939E+03  0.67473685939E+03  0.00000000000E+00 0.  1.
         23    2    1    2    0    0 -0.57346762110E+03 -0.70931140465E+03 -0.97133108660E+02  0.92187508708E+03  0.91820771954E+02 0.  0.
         11    1    3    3    0    0 -0.29998681979E+03 -0.33161735588E+03 -0.87100932970E+01  0.44725611062E+03  0.00000000000E+00 0. -1.
        -11    1    3    3    0    0 -0.27348080131E+03 -0.37769404878E+03 -0.88423015363E+02  0.47461897646E+03  0.00000000000E+00 0.  1.
         22    1    1    2    0    0  0.57346762110E+03  0.70931140465E+03  0.10935790104E+04  0.14240445334E+04  0.00000000000E+00 0. -1.
<mgrwt>
<rscale>  0 0.21237783E+04</rscale>
<asrwt>0</asrwt>
<pdfrwt beam="1">  1        2 0.10380567E+00 0.21237783E+04</pdfrwt>
<pdfrwt beam="2">  1       -2 0.25710504E+00 0.21237783E+04</pdfrwt>
<totfact> 0.22938785E+00</totfact>
</mgrwt>
</event>
<event>
 6    1  0.1878398E-004  0.1070648E+04  0.7818608E-02  0.9234282E-01
          2   -1    0    0  501    0  0.00000000000E+00  0.00000000000E+00  0.49497546489E+03  0.49497546489E+03  0.00000000000E+00 0.  1.
         -2   -1    0    0    0  501 -0.00000000000E+00 -0.00000000000E+00 -0.57896210260E+03  0.57896210260E+03  0.00000000000E+00 0. -1.
         23    2    1    2    0    0  0.26961191806E+03  0.65038896598E+01  0.41701170768E+03  0.50496285009E+03  0.91410222014E+02 0.  0.
         11    1    3    3    0    0  0.20483468575E+03 -0.45445457920E+01  0.37394491109E+03  0.42639500222E+03  0.00000000000E+00 0. -1.
        -11    1    3    3    0    0  0.64777232308E+02  0.11048435452E+02  0.43066796592E+02  0.78567847877E+02  0.00000000000E+00 0.  1.
         22    1    1    2    0    0 -0.26961191806E+03 -0.65038896598E+01 -0.50099834540E+03  0.56897471739E+03  0.00000000000E+00 0. -1.
<mgrwt>
<rscale>  0 0.10706485E+04</rscale>
<asrwt>0</asrwt>
<pdfrwt beam="1">  1        2 0.76150072E-01 0.10706485E+04</pdfrwt>
<pdfrwt beam="2">  1       -2 0.89071093E-01 0.10706485E+04</pdfrwt>
<totfact> 0.67110861E+01</totfact>
</mgrwt>
</event>
<event>
 6    1  0.1878398E-004  0.9500650E+03  0.7818608E-02  0.9365075E-01
          1   -1    0    0  501    0  0.00000000000E+00  0.00000000000E+00  0.13603146717E+04  0.13603146717E+04  0.00000000000E+00 0. -1.
         -1   -1    0    0    0  501 -0.00000000000E+00 -0.00000000000E+00 -0.16588506156E+03  0.16588506156E+03  0.00000000000E+00 0.  1.
         23    2    1    2    0    0 -0.43708359524E+03 -0.34497936856E+02  0.32739004464E+03  0.55460836594E+03  0.90410294622E+02 0.  0.
         11    1    3    3    0    0 -0.32043714487E+03  0.15125842480E+02  0.24017548030E+03  0.40074058474E+03  0.00000000000E+00 0. -1.
        -11    1    3    3    0    0 -0.11664645037E+03 -0.49623779335E+02  0.87214564335E+02  0.15386778120E+03  0.00000000000E+00 0.  1.
         22    1    1    2    0    0  0.43708359524E+03  0.34497936856E+02  0.86703956547E+03  0.97159136727E+03  0.00000000000E+00 0. -1.
<mgrwt>
<rscale>  0 0.95006501E+03</rscale>
<asrwt>0</asrwt>
<pdfrwt beam="1">  1        1 0.20927917E+00 0.95006501E+03</pdfrwt>
<pdfrwt beam="2">  1       -1 0.25520780E-01 0.95006501E+03</pdfrwt>
<totfact> 0.11131092E+02</totfact>
</mgrwt>
</event>
<event>
 6    1  0.1878398E-004  0.8240079E+03  0.7818608E-02  0.9525902E-01
          1   -1    0    0  501    0  0.00000000000E+00  0.00000000000E+00  0.91263420919E+03  0.91263420919E+03  0.00000000000E+00 0.  1.
         -1   -1    0    0    0  501 -0.00000000000E+00 -0.00000000000E+00 -0.18599703652E+03  0.18599703652E+03  0.00000000000E+00 0. -1.
         23    2    1    2    0    0 -0.25823134015E+03 -0.26229711673E+03  0.59734299962E+03  0.70850282369E+03  0.98358474514E+02 0.  0.
         13    1    3    3    0    0 -0.69414537781E+02 -0.23080448708E+02  0.82841661793E+02  0.11051618025E+03  0.00000000000E+00 0. -1.
        -13    1    3    3    0    0 -0.18881680237E+03 -0.23921666802E+03  0.51450133782E+03  0.59798664344E+03  0.00000000000E+00 0.  1.
         22    1    1    2    0    0  0.25823134015E+03  0.26229711673E+03  0.12929417306E+03  0.39012842202E+03  0.00000000000E+00 0. -1.
<mgrwt>
<rscale>  0 0.82400791E+03</rscale>
<asrwt>0</asrwt>
<pdfrwt beam="1">  1        1 0.14040526E+00 0.82400791E+03</pdfrwt>
<pdfrwt beam="2">  1       -1 0.28614929E-01 0.82400791E+03</pdfrwt>
<totfact> 0.19872694E+02</totfact>
</mgrwt>
</event>
<event>
 6    1  0.1878398E-004  0.2140954E+04  0.7818608E-02  0.8543415E-01
         -2   -1    0    0    0  501 -0.00000000000E+00  0.00000000000E+00  0.40751675925E+03  0.40751675925E+03  0.00000000000E+00 0. -1.
          2   -1    0    0  501    0  0.00000000000E+00 -0.00000000000E+00 -0.28119593333E+04  0.28119593333E+04  0.00000000000E+00 0.  1.
         23    2    1    2    0    0 -0.77992823882E+03 -0.58660312328E+03 -0.54992473510E+03  0.11238550159E+04  0.90783261140E+02 0.  0.
         13    1    3    3    0    0 -0.61217821635E+03 -0.47348260209E+03 -0.47522931988E+03  0.90817996539E+03  0.00000000000E+00 0. -1.
        -13    1    3    3    0    0 -0.16775002247E+03 -0.11312052119E+03 -0.74695415226E+02  0.21567505050E+03  0.00000000000E+00 0.  1.
         22    1    1    2    0    0  0.77992823882E+03  0.58660312328E+03 -0.18545178390E+04  0.20956210767E+04  0.00000000000E+00 0. -1.
<mgrwt>
<rscale>  0 0.21409536E+04</rscale>
<asrwt>0</asrwt>
<pdfrwt beam="1">  1        2 0.43260914E+00 0.21409536E+04</pdfrwt>
<pdfrwt beam="2">  1       -2 0.62694884E-01 0.21409536E+04</pdfrwt>
<totfact> 0.49316454E+00</totfact>
</mgrwt>
</event>
<event>
 6    1  0.1878398E-004  0.2623837E+04  0.7818608E-02  0.8360149E-01
         -2   -1    0    0    0  501 -0.00000000000E+00  0.00000000000E+00  0.19186926140E+04  0.19186926140E+04  0.00000000000E+00 0. -1.
          2   -1    0    0  501    0  0.00000000000E+00 -0.00000000000E+00 -0.89703307557E+03  0.89703307557E+03  0.00000000000E+00 0.  1.
         23    2    1    2    0    0  0.75445854552E+03  0.85144578970E+03 -0.18626057683E+03  0.11564370967E+04  0.92120173351E+02 0.  0.
         11    1    3    3    0    0  0.52881910468E+03  0.59715859228E+03 -0.87602686730E+02  0.80244766841E+03  0.00000000000E+00 0. -1.
        -11    1    3    3    0    0  0.22563944084E+03  0.25428719742E+03 -0.98657890101E+02  0.35398942825E+03  0.00000000000E+00 0.  1.
         22    1    1    2    0    0 -0.75445854552E+03 -0.85144578970E+03  0.12079201152E+04  0.16592885929E+04  0.00000000000E+00 0. -1.
<mgrwt>
<rscale>  0 0.26238374E+04</rscale>
<asrwt>0</asrwt>
<pdfrwt beam="1">  1        2 0.13800509E+00 0.26238374E+04</pdfrwt>
<pdfrwt beam="2">  1       -2 0.29518348E+00 0.26238374E+04</pdfrwt>
<totfact> 0.88465037E-01</totfact>
</mgrwt>
</event>
<event>
 6    1  0.1878398E-004  0.1651899E+04  0.7818608E-02  0.8789284E-01
         -1   -1    0    0    0  501 -0.00000000000E+00  0.00000000000E+00  0.87681201266E+03  0.87681201266E+03  0.00000000000E+00 0. -1.
          1   -1    0    0  501    0  0.00000000000E+00 -0.00000000000E+00 -0.77803725837E+03  0.77803725837E+03  0.00000000000E+00 0.  1.
         23    2    1    2    0    0  0.18166121187E+03 -0.71816862624E+03  0.40871193331E+03  0.85183742395E+03  0.99068566056E+02 0.  0.
         11    1    3    3    0    0  0.85234503759E+02 -0.24932463327E+03  0.97745333425E+02  0.28103708579E+03  0.00000000000E+00 0. -1.
        -11    1    3    3    0    0  0.96426708113E+02 -0.46884399298E+03  0.31096659989E+03  0.57080033815E+03  0.00000000000E+00 0.  1.
         22    1    1    2    0    0 -0.18166121187E+03  0.71816862624E+03 -0.30993717903E+03  0.80301184709E+03  0.00000000000E+00 0.  1.
<mgrwt>
<rscale>  0 0.16518988E+04</rscale>
<asrwt>0</asrwt>
<pdfrwt beam="1">  1        1 0.11969804E+00 0.16518988E+04</pdfrwt>
<pdfrwt beam="2">  1       -1 0.13489416E+00 0.16518988E+04</pdfrwt>
<totfact> 0.10195920E+01</totfact>
</mgrwt>
</event>
<event>
 6    1  0.1878398E-004  0.2703414E+04  0.7818608E-02  0.8333898E-01
         -2   -1    0    0    0  501 -0.00000000000E+00  0.00000000000E+00  0.90824813447E+03  0.90824813447E+03  0.00000000000E+00 0. -1.
          2   -1    0    0  501    0  0.00000000000E+00 -0.00000000000E+00 -0.20116879344E+04  0.20116879344E+04  0.00000000000E+00 0.  1.
         23    2    1    2    0    0 -0.30898733700E+02  0.78775576134E+03 -0.17363103070E+04  0.19089766484E+04  0.88907201606E+02 0.  0.
         11    1    3    3    0    0 -0.13854424334E+02  0.24353686961E+03 -0.63976150462E+03  0.68468747230E+03  0.00000000000E+00 0. -1.
        -11    1    3    3    0    0 -0.17044309366E+02  0.54421889173E+03 -0.10965488024E+04  0.12242891761E+04  0.00000000000E+00 0.  1.
         22    1    1    2    0    0  0.30898733700E+02 -0.78775576134E+03  0.63287050705E+03  0.10109594205E+04  0.00000000000E+00 0. -1.
<mgrwt>
<rscale>  0 0.27034140E+04</rscale>
<asrwt>0</asrwt>
<pdfrwt beam="1">  1        2 0.30949045E+00 0.27034140E+04</pdfrwt>
<pdfrwt beam="2">  1       -2 0.13973048E+00 0.27034140E+04</pdfrwt>
<totfact> 0.20838235E+00</totfact>
</mgrwt>
</event>
<event>
 6    1  0.1878398E-004  0.1671622E+04  0.7818608E-02  0.8777717E-01
         -2   -1    0    0    0  501 -0.00000000000E+00  0.00000000000E+00  0.15940350935E+04  0.15940350935E+04  0.00000000000E+00 0. -1.
          2   -1    0    0  501    0  0.00000000000E+00 -0.00000000000E+00 -0.43824609037E+03  0.43824609037E+03  0.00000000000E+00 0.  1.
         23    2    1    2    0    0 -0.24463940166E+03  0.74959206551E+03  0.90785062790E+03  0.12057159176E+04  0.88438734977E+02 0.  0.
         13    1    3    3    0    0 -0.13486717920E+03  0.48089071250E+03  0.51661440360E+03  0.71856487209E+03  0.00000000000E+00 0.  1.
        -13    1    3    3    0    0 -0.10977222246E+03  0.26870135301E+03  0.39123622430E+03  0.48715104551E+03  0.00000000000E+00 0. -1.
         22    1    1    2    0    0  0.24463940166E+03 -0.74959206551E+03  0.24793837525E+03  0.82656526630E+03  0.00000000000E+00 0.  1.
<mgrwt>
<rscale>  0 0.16716215E+04</rscale>
<asrwt>0</asrwt>
<pdfrwt beam="1">  1        2 0.67422477E-01 0.16716215E+04</pdfrwt>
<pdfrwt beam="2">  1       -2 0.24523616E+00 0.16716215E+04</pdfrwt>
<totfact> 0.47001985E+00</totfact>
</mgrwt>
</event>
<event>
 6    1  0.1878398E-004  0.1963525E+04  0.7818608E-02  0.8623866E-01
         -2   -1    0    0    0  501 -0.00000000000E+00  0.00000000000E+00  0.56929069791E+03  0.56929069791E+03  0.00000000000E+00 0. -1.
          2   -1    0    0  501    0  0.00000000000E+00 -0.00000000000E+00 -0.16930857283E+04  0.16930857283E+04  0.00000000000E+00 0.  1.
         23    2    1    2    0    0  0.30501077387E+03 -0.58259109499E+03 -0.13997259144E+04  0.15492272070E+04  0.91806032285E+02 0.  0.
         11    1    3    3    0    0  0.24815400731E+03 -0.44734938467E+03 -0.11658045602E+04  0.12731072838E+04  0.00000000000E+00 0.  1.
        -11    1    3    3    0    0  0.56856766560E+02 -0.13524171033E+03 -0.23392135413E+03  0.27611992328E+03  0.00000000000E+00 0. -1.
         22    1    1    2    0    0 -0.30501077387E+03  0.58259109499E+03  0.27593088394E+03  0.71314921921E+03  0.00000000000E+00 0. -1.
<mgrwt>
<rscale>  0 0.19635254E+04</rscale>
<asrwt>0</asrwt>
<pdfrwt beam="1">  1        2 0.26047473E+00 0.19635254E+04</pdfrwt>
<pdfrwt beam="2">  1       -2 0.87583185E-01 0.19635254E+04</pdfrwt>
<totfact> 0.10373155E+01</totfact>
</mgrwt>
</event>
<event>
 6    1  0.1878398E-004  0.1703784E+04  0.7818608E-02  0.8759209E-01
         -1   -1    0    0    0  501 -0.00000000000E+00  0.00000000000E+00  0.44654887642E+03  0.44654887642E+03  0.00000000000E+00 0.  1.
          1   -1    0    0  501    0  0.00000000000E+00 -0.00000000000E+00 -0.16251749082E+04  0.16251749082E+04  0.00000000000E+00 0. -1.
         23    2    1    2    0    0  0.32618719195E+03 -0.40481752690E+03 -0.14078082256E+04  0.15035690590E+04  0.92307101282E+02 0.  0.
         13    1    3    3    0    0  0.54573275049E+02 -0.13071703538E+03 -0.35027516221E+03  0.37783313109E+03  0.00000000000E+00 0.  1.
        -13    1    3    3    0    0  0.27161391690E+03 -0.27410049152E+03 -0.10575330634E+04  0.11257359279E+04  0.00000000000E+00 0. -1.
         22    1    1    2    0    0 -0.32618719195E+03  0.40481752690E+03  0.22918219380E+03  0.56815472561E+03  0.00000000000E+00 0.  1.
<mgrwt>
<rscale>  0 0.17037841E+04</rscale>
<asrwt>0</asrwt>
<pdfrwt beam="1">  1        1 0.25002691E+00 0.17037841E+04</pdfrwt>
<pdfrwt beam="2">  1       -1 0.68699827E-01 0.17037841E+04</pdfrwt>
<totfact> 0.10937552E+01</totfact>
</mgrwt>
</event>
<event>
 6    1  0.1878398E-004  0.3459226E+04  0.7818608E-02  0.8123521E-01
         -2   -1    0    0    0  501 -0.00000000000E+00  0.00000000000E+00  0.11081995651E+04  0.11081995651E+04  0.00000000000E+00 0. -1.
          2   -1    0    0  501    0  0.00000000000E+00 -0.00000000000E+00 -0.26994780978E+04  0.26994780978E+04  0.00000000000E+00 0.  1.
         23    2    1    2    0    0  0.46287514804E+03  0.23975935101E+03 -0.26101342974E+04  0.26632105299E+04  0.90284699547E+02 0.  0.
         11    1    3    3    0    0  0.30399773553E+03  0.20006347081E+03 -0.18859250516E+04  0.19207168755E+04  0.00000000000E+00 0.  1.
        -11    1    3    3    0    0  0.15887741251E+03  0.39695880197E+02 -0.72420924580E+03  0.74249365439E+03  0.00000000000E+00 0. -1.
         22    1    1    2    0    0 -0.46287514804E+03 -0.23975935101E+03  0.10188557648E+04  0.11444671330E+04  0.00000000000E+00 0. -1.
<mgrwt>
<rscale>  0 0.34592256E+04</rscale>
<asrwt>0</asrwt>
<pdfrwt beam="1">  1        2 0.41530432E+00 0.34592256E+04</pdfrwt>
<pdfrwt beam="2">  1       -2 0.17049224E+00 0.34592256E+04</pdfrwt>
<totfact> 0.46305705E-01</totfact>
</mgrwt>
</event>
<event>
 6    1  0.1878398E-004  0.4024638E+04  0.7818608E-02  0.7999595E-01
         -2   -1    0    0    0  501 -0.00000000000E+00  0.00000000000E+00  0.95634106379E+03  0.95634106379E+03  0.00000000000E+00 0. -1.
          2   -1    0    0  501    0  0.00000000000E+00 -0.00000000000E+00 -0.42342920820E+04  0.42342920820E+04  0.00000000000E+00 0.  1.
         23    2    1    2    0    0  0.16549378824E+04  0.74311786447E+03 -0.27598969333E+04  0.33039896739E+04  0.90956734054E+02 0.  0.
         11    1    3    3    0    0  0.70847175755E+03  0.36666999400E+03 -0.11962652948E+04  0.14378559633E+04  0.00000000000E+00 0.  1.
        -11    1    3    3    0    0  0.94646612490E+03  0.37644787048E+03 -0.15636316385E+04  0.18661337105E+04  0.00000000000E+00 0. -1.
         22    1    1    2    0    0 -0.16549378824E+04 -0.74311786447E+03 -0.51805408493E+03  0.18866434719E+04  0.00000000000E+00 0. -1.
<mgrwt>
<rscale>  0 0.40246378E+04</rscale>
<asrwt>0</asrwt>
<pdfrwt beam="1">  1        2 0.65142955E+00 0.40246378E+04</pdfrwt>
<pdfrwt beam="2">  1       -2 0.14712939E+00 0.40246378E+04</pdfrwt>
<totfact> 0.53606973E-02</totfact>
</mgrwt>
</event>
<event>
 6    1  0.1878398E-004  0.1305807E+04  0.7818608E-02  0.9024973E-01
         -2   -1    0    0    0  501 -0.00000000000E+00  0.00000000000E+00  0.34142923622E+03  0.34142923622E+03  0.00000000000E+00 0. -1.
          2   -1    0    0  501    0  0.00000000000E+00 -0.00000000000E+00 -0.12485257794E+04  0.12485257794E+04  0.00000000000E+00 0.  1.
         23    2    1    2    0    0 -0.45406179735E+03 -0.29004595828E+03 -0.89791224856E+03  0.10510829297E+04  0.90720147772E+02 0.  0.
         13    1    3    3    0    0 -0.24573566163E+03 -0.20971209417E+03 -0.52441946739E+03  0.61593908434E+03  0.00000000000E+00 0.  1.
        -13    1    3    3    0    0 -0.20832613572E+03 -0.80333864104E+02 -0.37349278117E+03  0.43514384533E+03  0.00000000000E+00 0. -1.
         22    1    1    2    0    0  0.45406179735E+03  0.29004595828E+03 -0.91842946045E+01  0.53887208593E+03  0.00000000000E+00 0. -1.
<mgrwt>
<rscale>  0 0.13058073E+04</rscale>
<asrwt>0</asrwt>
<pdfrwt beam="1">  1        2 0.19208089E+00 0.13058073E+04</pdfrwt>
<pdfrwt beam="2">  1       -2 0.52527575E-01 0.13058073E+04</pdfrwt>
<totfact> 0.59374537E+01</totfact>
</mgrwt>
</event>
<event>
 6    1  0.1878398E-004  0.1415094E+04  0.7818608E-02  0.8942964E-01
         -1   -1    0    0    0  501 -0.00000000000E+00  0.00000000000E+00  0.31248428858E+03  0.31248428858E+03  0.00000000000E+00 0. -1.
          1   -1    0    0  501    0  0.00000000000E+00 -0.00000000000E+00 -0.16020744948E+04  0.16020744948E+04  0.00000000000E+00 0.  1.
         23    2    1    2    0    0 -0.68751150591E+03  0.14081601547E+03 -0.73032096945E+03  0.10171829980E+04  0.93761996809E+02 0.  0.
         11    1    3    3    0    0 -0.37747617910E+03  0.56300238685E+02 -0.33580424609E+03  0.50835270665E+03  0.00000000000E+00 0. -1.
        -11    1    3    3    0    0 -0.31003532682E+03  0.84515776781E+02 -0.39451672336E+03  0.50883029136E+03  0.00000000000E+00 0.  1.
         22    1    1    2    0    0  0.68751150591E+03 -0.14081601547E+03 -0.55926923676E+03  0.89737578537E+03  0.00000000000E+00 0.  1.
<mgrwt>
<rscale>  0 0.14150945E+04</rscale>
<asrwt>0</asrwt>
<pdfrwt beam="1">  1        1 0.24647300E+00 0.14150945E+04</pdfrwt>
<pdfrwt beam="2">  1       -1 0.48074506E-01 0.14150945E+04</pdfrwt>
<totfact> 0.23426244E+01</totfact>
</mgrwt>
</event>
<event>
 6    1  0.1878398E-004  0.4347774E+04  0.7818608E-02  0.7937843E-01
         -1   -1    0    0    0  501 -0.00000000000E+00  0.00000000000E+00  0.24555718165E+04  0.24555718165E+04  0.00000000000E+00 0. -1.
          1   -1    0    0  501    0  0.00000000000E+00 -0.00000000000E+00 -0.19245145653E+04  0.19245145653E+04  0.00000000000E+00 0.  1.
         23    2    1    2    0    0  0.74889592839E+02 -0.21707858606E+04  0.20237778872E+03  0.21832819087E+04  0.88563082182E+02 0.  0.
         13    1    3    3    0    0  0.70574203917E+01 -0.11767481456E+04  0.13841018604E+03  0.11848811691E+04  0.00000000000E+00 0. -1.
        -13    1    3    3    0    0  0.67832172447E+02 -0.99403771506E+03  0.63967602674E+02  0.99840073957E+03  0.00000000000E+00 0.  1.
         22    1    1    2    0    0 -0.74889592839E+02  0.21707858606E+04  0.32867946253E+03  0.21968044731E+04  0.00000000000E+00 0.  1.
<mgrwt>
<rscale>  0 0.43477736E+04</rscale>
<asrwt>0</asrwt>
<pdfrwt beam="1">  1        1 0.29607916E+00 0.43477736E+04</pdfrwt>
<pdfrwt beam="2">  1       -1 0.37778028E+00 0.43477736E+04</pdfrwt>
<totfact> 0.25828050E-02</totfact>
</mgrwt>
</event>
<event>
 6    1  0.1878398E-004  0.2103983E+04  0.7818608E-02  0.8559491E-01
          1   -1    0    0  501    0  0.00000000000E+00  0.00000000000E+00  0.11750840152E+04  0.11750840152E+04  0.00000000000E+00 0.  1.
         -1   -1    0    0    0  501 -0.00000000000E+00 -0.00000000000E+00 -0.94179315085E+03  0.94179315085E+03  0.00000000000E+00 0. -1.
         23    2    1    2    0    0 -0.40131375001E+03 -0.47981859862E+03 -0.73159981236E+03  0.96696732979E+03  0.92243796080E+02 0.  0.
         13    1    3    3    0    0 -0.17461167297E+03 -0.15201041546E+03 -0.23048562463E+03  0.32668031148E+03  0.00000000000E+00 0.  1.
        -13    1    3    3    0    0 -0.22670207703E+03 -0.32780818316E+03 -0.50111418772E+03  0.64028701831E+03  0.00000000000E+00 0. -1.
         22    1    1    2    0    0  0.40131375001E+03  0.47981859862E+03  0.96489067668E+03  0.11499098362E+04  0.00000000000E+00 0.  1.
<mgrwt>
<rscale>  0 0.21039830E+04</rscale>
<asrwt>0</asrwt>
<pdfrwt beam="1">  1        1 0.18078216E+00 0.21039830E+04</pdfrwt>
<pdfrwt beam="2">  1       -1 0.14489125E+00 0.21039830E+04</pdfrwt>
<totfact> 0.39233204E+00</totfact>
</mgrwt>
</event>
<event>
 6    1  0.1878398E-004  0.1874396E+04  0.7818608E-02  0.8667707E-01
          2   -1    0    0  501    0  0.00000000000E+00  0.00000000000E+00  0.99182905185E+03  0.99182905185E+03  0.00000000000E+00 0.  1.
         -2   -1    0    0    0  501 -0.00000000000E+00 -0.00000000000E+00 -0.88557634742E+03  0.88557634742E+03  0.00000000000E+00 0. -1.
         23    2    1    2    0    0  0.91778099263E+03  0.40865592754E+02 -0.12058341682E+03  0.93112501112E+03  0.91986296894E+02 0.  0.
         13    1    3    3    0    0  0.51057681744E+03  0.57180341651E+01 -0.10971056519E+03  0.52226218563E+03  0.00000000000E+00 0.  1.
        -13    1    3    3    0    0  0.40720417519E+03  0.35147558588E+02 -0.10872851630E+02  0.40886282549E+03  0.00000000000E+00 0. -1.
         22    1    1    2    0    0 -0.91778099263E+03 -0.40865592754E+02  0.22683612125E+03  0.94628038815E+03  0.00000000000E+00 0.  1.
<mgrwt>
<rscale>  0 0.18743963E+04</rscale>
<asrwt>0</asrwt>
<pdfrwt beam="1">  1        2 0.15258908E+00 0.18743963E+04</pdfrwt>
<pdfrwt beam="2">  1       -2 0.13624252E+00 0.18743963E+04</pdfrwt>
<totfact> 0.92204361E+00</totfact>
</mgrwt>
</event>
<event>
 6    1  0.1878398E-004  0.2047445E+04  0.7818608E-02  0.8584754E-01
          1   -1    0    0  501    0  0.00000000000E+00  0.00000000000E+00  0.27426582531E+04  0.27426582531E+04  0.00000000000E+00 0.  1.
         -1   -1    0    0    0  501 -0.00000000000E+00 -0.00000000000E+00 -0.38211389985E+03  0.38211389985E+03  0.00000000000E+00 0. -1.
         23    2    1    2    0    0  0.80111861489E+03 -0.10730618785E+03  0.22905869172E+03  0.84518079080E+03  0.92504225858E+02 0.  0.
         11    1    3    3    0    0  0.50656246354E+03 -0.62701936990E+02  0.19033274229E+03  0.54476014461E+03  0.00000000000E+00 0.  1.
        -11    1    3    3    0    0  0.29455615135E+03 -0.44604250862E+02  0.38725949424E+02  0.30042064618E+03  0.00000000000E+00 0. -1.
         22    1    1    2    0    0 -0.80111861489E+03  0.10730618785E+03  0.21314856616E+04  0.22795913622E+04  0.00000000000E+00 0.  1.
<mgrwt>
<rscale>  0 0.20474451E+04</rscale>
<asrwt>0</asrwt>
<pdfrwt beam="1">  1        1 0.42194741E+00 0.20474451E+04</pdfrwt>
<pdfrwt beam="2">  1       -1 0.58786755E-01 0.20474451E+04</pdfrwt>
<totfact> 0.24825283E+00</totfact>
</mgrwt>
</event>
<event>
 6    1  0.1878398E-004  0.3760603E+04  0.7818608E-02  0.8054663E-01
         -1   -1    0    0    0  501 -0.00000000000E+00  0.00000000000E+00  0.15818214990E+04  0.15818214990E+04  0.00000000000E+00 0. -1.
          1   -1    0    0  501    0  0.00000000000E+00 -0.00000000000E+00 -0.22351030026E+04  0.22351030026E+04  0.00000000000E+00 0.  1.
         23    2    1    2    0    0  0.11491897115E+04  0.38655515975E+03 -0.17840165910E+04  0.21590271216E+04  0.92849501525E+02 0.  0.
         13    1    3    3    0    0  0.56208288506E+03  0.23789214108E+03 -0.90206562281E+03  0.10891520685E+04  0.00000000000E+00 0. -1.
        -13    1    3    3    0    0  0.58710682647E+03  0.14866301868E+03 -0.88195096822E+03  0.10698750531E+04  0.00000000000E+00 0.  1.
         22    1    1    2    0    0 -0.11491897115E+04 -0.38655515975E+03  0.11307350874E+04  0.16578973800E+04  0.00000000000E+00 0. -1.
<mgrwt>
<rscale>  0 0.37606031E+04</rscale>
<asrwt>0</asrwt>
<pdfrwt beam="1">  1        1 0.34386200E+00 0.37606031E+04</pdfrwt>
<pdfrwt beam="2">  1       -1 0.24335716E+00 0.37606031E+04</pdfrwt>
<totfact> 0.12683026E-01</totfact>
</mgrwt>
</event>
<event>
 6    1  0.1878398E-004  0.2104183E+04  0.7818608E-02  0.8559403E-01
         -2   -1    0    0    0  501 -0.00000000000E+00  0.00000000000E+00  0.65957234196E+03  0.65957234196E+03  0.00000000000E+00 0. -1.
          2   -1    0    0  501    0  0.00000000000E+00 -0.00000000000E+00 -0.16782032265E+04  0.16782032265E+04  0.00000000000E+00 0.  1.
         23    2    1    2    0    0  0.64587347320E+03  0.82652493301E+03 -0.45742173384E+03  0.11481320424E+04  0.93147924864E+02 0.  0.
         11    1    3    3    0    0  0.19594407497E+03  0.26533334832E+03 -0.19059711388E+03  0.38095029343E+03  0.00000000000E+00 0.  1.
        -11    1    3    3    0    0  0.44992939823E+03  0.56119158469E+03 -0.26682461996E+03  0.76718174896E+03  0.00000000000E+00 0. -1.
         22    1    1    2    0    0 -0.64587347320E+03 -0.82652493301E+03 -0.56120915068E+03  0.11896435261E+04  0.00000000000E+00 0.  1.
<mgrwt>
<rscale>  0 0.21041829E+04</rscale>
<asrwt>0</asrwt>
<pdfrwt beam="1">  1        2 0.25818511E+00 0.21041829E+04</pdfrwt>
<pdfrwt beam="2">  1       -2 0.10147267E+00 0.21041829E+04</pdfrwt>
<totfact> 0.74120111E+00</totfact>
</mgrwt>
</event>
<event>
 6    1  0.1878398E-004  0.3075524E+04  0.7818608E-02  0.8222487E-01
          2   -1    0    0  501    0  0.00000000000E+00  0.00000000000E+00  0.21584625331E+04  0.21584625331E+04  0.00000000000E+00 0.  1.
         -2   -1    0    0    0  501 -0.00000000000E+00 -0.00000000000E+00 -0.10955541089E+04  0.10955541089E+04  0.00000000000E+00 0. -1.
         23    2    1    2    0    0  0.63838696899E+03 -0.71339706474E+03  0.18034281819E+04  0.20437097364E+04  0.89011152584E+02 0.  0.
         13    1    3    3    0    0  0.38913220668E+03 -0.43589972923E+03  0.11913276940E+04  0.13269114977E+04  0.00000000000E+00 0. -1.
        -13    1    3    3    0    0  0.24925476231E+03 -0.27749733551E+03  0.61210048797E+03  0.71679823879E+03  0.00000000000E+00 0.  1.
         22    1    1    2    0    0 -0.63838696899E+03  0.71339706474E+03 -0.74051975769E+03  0.12103069056E+04  0.00000000000E+00 0. -1.
<mgrwt>
<rscale>  0 0.30755243E+04</rscale>
<asrwt>0</asrwt>
<pdfrwt beam="1">  1        2 0.33207116E+00 0.30755243E+04</pdfrwt>
<pdfrwt beam="2">  1       -2 0.16854679E+00 0.30755243E+04</pdfrwt>
<totfact> 0.10119101E+00</totfact>
</mgrwt>
</event>
<event>
 6    1  0.1878398E-004  0.1836864E+04  0.7818608E-02  0.8686937E-01
         -2   -1    0    0    0  501 -0.00000000000E+00  0.00000000000E+00  0.64800408511E+03  0.64800408511E+03  0.00000000000E+00 0. -1.
          2   -1    0    0  501    0  0.00000000000E+00 -0.00000000000E+00 -0.13017167674E+04  0.13017167674E+04  0.00000000000E+00 0.  1.
         23    2    1    2    0    0  0.36201023879E+03  0.79478642439E+03 -0.33394058107E+02  0.87849161984E+03  0.88856567737E+02 0.  0.
         13    1    3    3    0    0  0.29338333040E+03  0.70439041775E+03 -0.45202989848E+02  0.76438403272E+03  0.00000000000E+00 0. -1.
        -13    1    3    3    0    0  0.68626908385E+02  0.90396006642E+02  0.11808931741E+02  0.11410758713E+03  0.00000000000E+00 0.  1.
         22    1    1    2    0    0 -0.36201023879E+03 -0.79478642439E+03 -0.62031862417E+03  0.10712292326E+04  0.00000000000E+00 0.  1.
<mgrwt>
<rscale>  0 0.18368645E+04</rscale>
<asrwt>0</asrwt>
<pdfrwt beam="1">  1        2 0.20026412E+00 0.18368645E+04</pdfrwt>
<pdfrwt beam="2">  1       -2 0.99692937E-01 0.18368645E+04</pdfrwt>
<totfact> 0.12919687E+01</totfact>
</mgrwt>
</event>
<event>
 6    1  0.1878398E-004  0.2683558E+04  0.7818608E-02  0.8340360E-01
         -2   -1    0    0    0  501 -0.00000000000E+00  0.00000000000E+00  0.11730956905E+04  0.11730956905E+04  0.00000000000E+00 0. -1.
          2   -1    0    0  501    0  0.00000000000E+00 -0.00000000000E+00 -0.15347172967E+04  0.15347172967E+04  0.00000000000E+00 0.  1.
         23    2    1    2    0    0  0.74260366535E+03  0.10331925752E+04 -0.60577274442E+03  0.14122216629E+04  0.91990793395E+02 0.  0.
         11    1    3    3    0    0  0.27522480439E+03  0.31214772069E+03 -0.18401515747E+03  0.45502359353E+03  0.00000000000E+00 0.  1.
        -11    1    3    3    0    0  0.46737886096E+03  0.72104485451E+03 -0.42175758695E+03  0.95719806939E+03  0.00000000000E+00 0. -1.
         22    1    1    2    0    0 -0.74260366535E+03 -0.10331925752E+04  0.24415113826E+03  0.12955913243E+04  0.00000000000E+00 0.  1.
<mgrwt>
<rscale>  0 0.26835575E+04</rscale>
<asrwt>0</asrwt>
<pdfrwt beam="1">  1        2 0.23611035E+00 0.26835575E+04</pdfrwt>
<pdfrwt beam="2">  1       -2 0.18047626E+00 0.26835575E+04</pdfrwt>
<totfact> 0.19185468E+00</totfact>
</mgrwt>
</event>
<event>
 6    1  0.1878398E-004  0.4653368E+04  0.7818608E-02  0.7884323E-01
         -2   -1    0    0    0  501 -0.00000000000E+00  0.00000000000E+00  0.20502033267E+04  0.20502033267E+04  0.00000000000E+00 0. -1.
          2   -1    0    0  501    0  0.00000000000E+00 -0.00000000000E+00 -0.26404495802E+04  0.26404495802E+04  0.00000000000E+00 0.  1.
         23    2    1    2    0    0 -0.19750276782E+04 -0.12276738679E+04 -0.25795734713E+03  0.23415395907E+04  0.91368518731E+02 0.  0.
         13    1    3    3    0    0 -0.20226408817E+03 -0.14928252817E+03 -0.77199467015E+01  0.25150672388E+03  0.00000000000E+00 0. -1.
        -13    1    3    3    0    0 -0.17727635900E+04 -0.10783913398E+04 -0.25023740043E+03  0.20900328668E+04  0.00000000000E+00 0.  1.
         22    1    1    2    0    0  0.19750276782E+04  0.12276738679E+04 -0.33228890636E+03  0.23491133163E+04  0.00000000000E+00 0.  1.
<mgrwt>
<rscale>  0 0.46533680E+04</rscale>
<asrwt>0</asrwt>
<pdfrwt beam="1">  1        2 0.40622301E+00 0.46533680E+04</pdfrwt>
<pdfrwt beam="2">  1       -2 0.31541590E+00 0.46533680E+04</pdfrwt>
<totfact> 0.55091718E-02</totfact>
</mgrwt>
</event>
<event>
 6    1  0.1878398E-004  0.2706076E+04  0.7818608E-02  0.8333036E-01
         -2   -1    0    0    0  501 -0.00000000000E+00  0.00000000000E+00  0.11370559479E+04  0.11370559479E+04  0.00000000000E+00 0. -1.
          2   -1    0    0  501    0  0.00000000000E+00 -0.00000000000E+00 -0.16100458159E+04  0.16100458159E+04  0.00000000000E+00 0.  1.
         23    2    1    2    0    0 -0.69353143625E+03  0.41406377084E+03  0.86332060834E+03  0.11856407977E+04  0.89369843241E+02 0.  0.
         11    1    3    3    0    0 -0.20089654055E+03  0.11513795234E+03  0.19094452259E+03  0.30012660459E+03  0.00000000000E+00 0.  1.
        -11    1    3    3    0    0 -0.49263489570E+03  0.29892581850E+03  0.67237608576E+03  0.88551419307E+03  0.00000000000E+00 0. -1.
         22    1    1    2    0    0  0.69353143625E+03 -0.41406377084E+03 -0.13363104764E+04  0.15614609661E+04  0.00000000000E+00 0.  1.
<mgrwt>
<rscale>  0 0.27060763E+04</rscale>
<asrwt>0</asrwt>
<pdfrwt beam="1">  1        2 0.24769936E+00 0.27060763E+04</pdfrwt>
<pdfrwt beam="2">  1       -2 0.17493169E+00 0.27060763E+04</pdfrwt>
<totfact> 0.18989888E+00</totfact>
</mgrwt>
</event>
<event>
 6    1  0.1878398E-004  0.1733800E+04  0.7818608E-02  0.8742318E-01
         -2   -1    0    0    0  501 -0.00000000000E+00  0.00000000000E+00  0.13201182483E+04  0.13201182483E+04  0.00000000000E+00 0. -1.
          2   -1    0    0  501    0  0.00000000000E+00 -0.00000000000E+00 -0.56927933752E+03  0.56927933752E+03  0.00000000000E+00 0.  1.
         23    2    1    2    0    0  0.54558410342E+03  0.11466687248E+03 -0.34322735891E+03  0.66147596454E+03  0.94524738606E+02 0.  0.
         11    1    3    3    0    0  0.25642642564E+03  0.90093625773E+02 -0.12950945659E+03  0.30107154053E+03  0.00000000000E+00 0. -1.
        -11    1    3    3    0    0  0.28915767778E+03  0.24573246709E+02 -0.21371790231E+03  0.36040442401E+03  0.00000000000E+00 0.  1.
         22    1    1    2    0    0 -0.54558410342E+03 -0.11466687248E+03  0.10940662697E+04  0.12279216213E+04  0.00000000000E+00 0. -1.
<mgrwt>
<rscale>  0 0.17338005E+04</rscale>
<asrwt>0</asrwt>
<pdfrwt beam="1">  1        2 0.87581437E-01 0.17338005E+04</pdfrwt>
<pdfrwt beam="2">  1       -2 0.20309511E+00 0.17338005E+04</pdfrwt>
<totfact> 0.63594553E+00</totfact>
</mgrwt>
</event>
<event>
 6    1  0.1878398E-004  0.1387847E+04  0.7818608E-02  0.8962662E-01
          1   -1    0    0  501    0  0.00000000000E+00  0.00000000000E+00  0.68842734374E+03  0.68842734374E+03  0.00000000000E+00 0.  1.
         -1   -1    0    0    0  501 -0.00000000000E+00 -0.00000000000E+00 -0.69946400091E+03  0.69946400091E+03  0.00000000000E+00 0. -1.
         23    2    1    2    0    0  0.66186822677E+03 -0.14509252095E+03  0.13197399520E+03  0.69537893615E+03  0.83745687599E+02 0.  0.
         13    1    3    3    0    0  0.51114185167E+03 -0.12443751405E+03  0.68415921809E+02  0.53050110819E+03  0.00000000000E+00 0.  1.
        -13    1    3    3    0    0  0.15072637510E+03 -0.20655006896E+02  0.63558073391E+02  0.16487782796E+03  0.00000000000E+00 0. -1.
         22    1    1    2    0    0 -0.66186822677E+03  0.14509252095E+03 -0.14301065237E+03  0.69251240850E+03  0.00000000000E+00 0.  1.
<mgrwt>
<rscale>  0 0.13878475E+04</rscale>
<asrwt>0</asrwt>
<pdfrwt beam="1">  1        1 0.10591190E+00 0.13878475E+04</pdfrwt>
<pdfrwt beam="2">  1       -1 0.10760985E+00 0.13878475E+04</pdfrwt>
<totfact> 0.21930188E+01</totfact>
</mgrwt>
</event>
<event>
 6    1  0.1878398E-004  0.4354700E+04  0.7818608E-02  0.7936580E-01
          2   -1    0    0  501    0  0.00000000000E+00  0.00000000000E+00  0.36082582842E+04  0.36082582842E+04  0.00000000000E+00 0.  1.
         -2   -1    0    0    0  501 -0.00000000000E+00 -0.00000000000E+00 -0.13138893387E+04  0.13138893387E+04  0.00000000000E+00 0. -1.
         23    2    1    2    0    0 -0.80868272279E+03  0.16031887416E+04  0.25376822322E+04  0.31101367944E+04  0.94540366417E+02 0.  0.
         11    1    3    3    0    0 -0.14508421354E+03  0.32098610335E+03  0.43996728964E+03  0.56360688739E+03  0.00000000000E+00 0.  1.
        -11    1    3    3    0    0 -0.66359850925E+03  0.12822026383E+04  0.20977149425E+04  0.25465299070E+04  0.00000000000E+00 0. -1.
         22    1    1    2    0    0  0.80868272279E+03 -0.16031887416E+04 -0.24331328669E+03  0.18120108286E+04  0.00000000000E+00 0.  1.
<mgrwt>
<rscale>  0 0.43546996E+04</rscale>
<asrwt>0</asrwt>
<pdfrwt beam="1">  1        2 0.55511666E+00 0.43546996E+04</pdfrwt>
<pdfrwt beam="2">  1       -2 0.20213682E+00 0.43546996E+04</pdfrwt>
<totfact> 0.67080934E-02</totfact>
</mgrwt>
</event>
<event>
 6    1  0.1878398E-004  0.3180922E+04  0.7818608E-02  0.8193874E-01
         -2   -1    0    0    0  501 -0.00000000000E+00  0.00000000000E+00  0.83732641742E+03  0.83732641742E+03  0.00000000000E+00 0. -1.
          2   -1    0    0  501    0  0.00000000000E+00 -0.00000000000E+00 -0.30210031053E+04  0.30210031053E+04  0.00000000000E+00 0.  1.
         23    2    1    2    0    0  0.21758894117E+03  0.10587583379E+04  0.31956036309E+03  0.11316997534E+04  0.10154477264E+03 0.  0.
         13    1    3    3    0    0  0.76657508105E+02  0.61095082549E+03  0.19732294266E+03  0.64658613379E+03  0.00000000000E+00 0.  1.
        -13    1    3    3    0    0  0.14093143307E+03  0.44780751242E+03  0.12223742043E+03  0.48511361964E+03  0.00000000000E+00 0. -1.
         22    1    1    2    0    0 -0.21758894117E+03 -0.10587583379E+04 -0.25032370509E+04  0.27266297693E+04  0.00000000000E+00 0.  1.
<mgrwt>
<rscale>  0 0.31809217E+04</rscale>
<asrwt>0</asrwt>
<pdfrwt beam="1">  1        2 0.46476971E+00 0.31809217E+04</pdfrwt>
<pdfrwt beam="2">  1       -2 0.12881945E+00 0.31809217E+04</pdfrwt>
<totfact> 0.63265264E-01</totfact>
</mgrwt>
</event>
<event>
 6    1  0.1878398E-004  0.3311437E+04  0.7818608E-02  0.8159991E-01
         -1   -1    0    0    0  501 -0.00000000000E+00  0.00000000000E+00  0.11868346188E+04  0.11868346188E+04  0.00000000000E+00 0. -1.
          1   -1    0    0  501    0  0.00000000000E+00 -0.00000000000E+00 -0.23098445603E+04  0.23098445603E+04  0.00000000000E+00 0.  1.
         23    2    1    2    0    0 -0.57099702926E+03 -0.55887887898E+03  0.96782711341E+03  0.12583800929E+04  0.91912610948E+02 0.  0.
         11    1    3    3    0    0 -0.85354643704E+02 -0.12873345915E+03  0.21225973878E+03  0.26251079104E+03  0.00000000000E+00 0. -1.
        -11    1    3    3    0    0 -0.48564238555E+03 -0.43014541983E+03  0.75556737463E+03  0.99586930189E+03  0.00000000000E+00 0.  1.
         22    1    1    2    0    0  0.57099702926E+03  0.55887887898E+03 -0.20908370549E+04  0.22382990861E+04  0.00000000000E+00 0.  1.
<mgrwt>
<rscale>  0 0.33114368E+04</rscale>
<asrwt>0</asrwt>
<pdfrwt beam="1">  1        1 0.35536070E+00 0.33114368E+04</pdfrwt>
<pdfrwt beam="2">  1       -1 0.18258994E+00 0.33114368E+04</pdfrwt>
<totfact> 0.30281858E-01</totfact>
</mgrwt>
</event>
<event>
 6    1  0.1878398E-004  0.1456725E+04  0.7818608E-02  0.8913752E-01
         -2   -1    0    0    0  501 -0.00000000000E+00  0.00000000000E+00  0.33425153929E+03  0.33425153929E+03  0.00000000000E+00 0. -1.
          2   -1    0    0  501    0  0.00000000000E+00 -0.00000000000E+00 -0.15871633919E+04  0.15871633919E+04  0.00000000000E+00 0.  1.
         23    2    1    2    0    0 -0.66128554757E+03 -0.12123079679E+03 -0.98893198113E+03  0.11991401538E+04  0.89191724023E+02 0.  0.
         11    1    3    3    0    0 -0.41435209846E+03 -0.38566022204E+02 -0.64842963398E+03  0.77047776723E+03  0.00000000000E+00 0. -1.
        -11    1    3    3    0    0 -0.24693344911E+03 -0.82664774587E+02 -0.34050234715E+03  0.42866238657E+03  0.00000000000E+00 0.  1.
         22    1    1    2    0    0  0.66128554757E+03  0.12123079679E+03 -0.26397987150E+03  0.72227477740E+03  0.00000000000E+00 0. -1.
<mgrwt>
<rscale>  0 0.14567248E+04</rscale>
<asrwt>0</asrwt>
<pdfrwt beam="1">  1        2 0.24417899E+00 0.14567248E+04</pdfrwt>
<pdfrwt beam="2">  1       -2 0.51423313E-01 0.14567248E+04</pdfrwt>
<totfact> 0.39257731E+01</totfact>
</mgrwt>
</event>
<event>
 6    1  0.1878398E-004  0.8953856E+03  0.7818608E-02  0.9431368E-01
         -1   -1    0    0    0  501 -0.00000000000E+00  0.00000000000E+00  0.72926211568E+03  0.72926211568E+03  0.00000000000E+00 0.  1.
          1   -1    0    0  501    0  0.00000000000E+00 -0.00000000000E+00 -0.27483783930E+03  0.27483783930E+03  0.00000000000E+00 0. -1.
         23    2    1    2    0    0 -0.10185033746E+03 -0.62438975775E+02  0.70806302594E+03  0.72373460010E+03  0.90368167740E+02 0.  0.
         13    1    3    3    0    0 -0.61898144288E+02 -0.34798747012E+02  0.61180168792E+03  0.61590879066E+03  0.00000000000E+00 0.  1.
        -13    1    3    3    0    0 -0.39952193175E+02 -0.27640228763E+02  0.96261338013E+02  0.10782580944E+03  0.00000000000E+00 0. -1.
         22    1    1    2    0    0  0.10185033746E+03  0.62438975775E+02 -0.25363874956E+03  0.28036535488E+03  0.00000000000E+00 0. -1.
<mgrwt>
<rscale>  0 0.89538556E+03</rscale>
<asrwt>0</asrwt>
<pdfrwt beam="1">  1        1 0.42282745E-01 0.89538556E+03</pdfrwt>
<pdfrwt beam="2">  1       -1 0.11219417E+00 0.89538556E+03</pdfrwt>
<totfact> 0.72199862E+01</totfact>
</mgrwt>
</event>
<event>
 6    1  0.1878398E-004  0.7256031E+03  0.7818608E-02  0.9674422E-01
         -2   -1    0    0    0  501 -0.00000000000E+00  0.00000000000E+00  0.21970478810E+03  0.21970478810E+03  0.00000000000E+00 0. -1.
          2   -1    0    0  501    0  0.00000000000E+00 -0.00000000000E+00 -0.59909929008E+03  0.59909929008E+03  0.00000000000E+00 0.  1.
         23    2    1    2    0    0  0.23455161517E+03  0.10121673880E+03  0.87693183205E+02  0.28642245373E+03  0.95333305976E+02 0.  0.
         11    1    3    3    0    0  0.18165900080E+03  0.32273806317E+02  0.46583091157E+02  0.19029339328E+03  0.00000000000E+00 0.  1.
        -11    1    3    3    0    0  0.52892614374E+02  0.68942932485E+02  0.41110092048E+02  0.96129060451E+02  0.00000000000E+00 0. -1.
         22    1    1    2    0    0 -0.23455161517E+03 -0.10121673880E+03 -0.46708768519E+03  0.53238162445E+03  0.00000000000E+00 0.  1.
<mgrwt>
<rscale>  0 0.72560315E+03</rscale>
<asrwt>0</asrwt>
<pdfrwt beam="1">  1        2 0.92169121E-01 0.72560315E+03</pdfrwt>
<pdfrwt beam="2">  1       -2 0.33800737E-01 0.72560315E+03</pdfrwt>
<totfact> 0.40950693E+02</totfact>
</mgrwt>
</event>
<event>
 6    1  0.1878398E-004  0.3785388E+04  0.7818608E-02  0.8049298E-01
         -2   -1    0    0    0  501 -0.00000000000E+00  0.00000000000E+00  0.18068291548E+04  0.18068291548E+04  0.00000000000E+00 0. -1.
          2   -1    0    0  501    0  0.00000000000E+00 -0.00000000000E+00 -0.19826397284E+04  0.19826397284E+04  0.00000000000E+00 0.  1.
         23    2    1    2    0    0  0.69098301874E+03 -0.77376606749E+03  0.14955782421E+04  0.18223105184E+04  0.88825040794E+02 0.  0.
         13    1    3    3    0    0  0.11713203804E+03 -0.85973601316E+02  0.19860649039E+03  0.24608110956E+03  0.00000000000E+00 0.  1.
        -13    1    3    3    0    0  0.57385098071E+03 -0.68779246617E+03  0.12969717517E+04  0.15762294088E+04  0.00000000000E+00 0. -1.
         22    1    1    2    0    0 -0.69098301874E+03  0.77376606749E+03 -0.16713888156E+04  0.19671583649E+04  0.00000000000E+00 0.  1.
<mgrwt>
<rscale>  0 0.37853884E+04</rscale>
<asrwt>0</asrwt>
<pdfrwt beam="1">  1        2 0.30502150E+00 0.37853884E+04</pdfrwt>
<pdfrwt beam="2">  1       -2 0.27797372E+00 0.37853884E+04</pdfrwt>
<totfact> 0.23763082E-01</totfact>
</mgrwt>
</event>
<event>
 6    1  0.1878398E-004  0.4300298E+04  0.7818608E-02  0.7946563E-01
          1   -1    0    0  501    0  0.00000000000E+00  0.00000000000E+00  0.24031366742E+04  0.24031366742E+04  0.00000000000E+00 0. -1.
         -1   -1    0    0    0  501 -0.00000000000E+00 -0.00000000000E+00 -0.19237939481E+04  0.19237939481E+04  0.00000000000E+00 0.  1.
         23    2    1    2    0    0  0.16148479034E+03  0.14187877976E+04  0.18559690573E+04  0.23434649160E+04  0.90390920085E+02 0.  0.
         13    1    3    3    0    0  0.16105183849E+02  0.52376075743E+03  0.67122578517E+03  0.85154492697E+03  0.00000000000E+00 0.  1.
        -13    1    3    3    0    0  0.14537960649E+03  0.89502704021E+03  0.11847432721E+04  0.14919199890E+04  0.00000000000E+00 0. -1.
         22    1    1    2    0    0 -0.16148479034E+03 -0.14187877976E+04 -0.13766263313E+04  0.19834657063E+04  0.00000000000E+00 0.  1.
<mgrwt>
<rscale>  0 0.43002976E+04</rscale>
<asrwt>0</asrwt>
<pdfrwt beam="1">  1        1 0.36971333E+00 0.43002976E+04</pdfrwt>
<pdfrwt beam="2">  1       -1 0.29596830E+00 0.43002976E+04</pdfrwt>
<totfact> 0.42346730E-02</totfact>
</mgrwt>
</event>
<event>
 6    1  0.1878398E-004  0.5307001E+04  0.7818608E-02  0.7782819E-01
          1   -1    0    0  501    0  0.00000000000E+00  0.00000000000E+00  0.32250391313E+04  0.32250391313E+04  0.00000000000E+00 0.  1.
         -1   -1    0    0    0  501 -0.00000000000E+00 -0.00000000000E+00 -0.21832495978E+04  0.21832495978E+04  0.00000000000E+00 0. -1.
         23    2    1    2    0    0 -0.20842532387E+04 -0.48258983928E+03 -0.10774748538E+04  0.23969292257E+04  0.85516878061E+02 0.  0.
         11    1    3    3    0    0 -0.51107829343E+03 -0.12466340694E+03 -0.22470879513E+03  0.57204547866E+03  0.00000000000E+00 0. -1.
        -11    1    3    3    0    0 -0.15731749452E+04 -0.35792643234E+03 -0.85276605866E+03  0.18248837470E+04  0.00000000000E+00 0.  1.
         22    1    1    2    0    0  0.20842532387E+04  0.48258983928E+03  0.21192643873E+04  0.30113595035E+04  0.00000000000E+00 0.  1.
<mgrwt>
<rscale>  0 0.53070012E+04</rscale>
<asrwt>0</asrwt>
<pdfrwt beam="1">  1        1 0.49615987E+00 0.53070012E+04</pdfrwt>
<pdfrwt beam="2">  1       -1 0.33588455E+00 0.53070012E+04</pdfrwt>
<totfact> 0.55223970E-03</totfact>
</mgrwt>
</event>
<event>
 6    1  0.1878398E-004  0.2097149E+04  0.7818608E-02  0.8562500E-01
         -1   -1    0    0    0  501 -0.00000000000E+00  0.00000000000E+00  0.13329401102E+04  0.13329401102E+04  0.00000000000E+00 0. -1.
          1   -1    0    0  501    0  0.00000000000E+00 -0.00000000000E+00 -0.82487438881E+03  0.82487438881E+03  0.00000000000E+00 0.  1.
         23    2    1    2    0    0 -0.27580132192E+03  0.89143048006E+03 -0.23161985749E+03  0.96707967314E+03  0.10431043027E+03 0.  0.
         11    1    3    3    0    0 -0.92537304287E+02  0.40066991712E+03 -0.14542168228E+03  0.43617313173E+03  0.00000000000E+00 0. -1.
        -11    1    3    3    0    0 -0.18326401763E+03  0.49076056295E+03 -0.86198175202E+02  0.53090654141E+03  0.00000000000E+00 0.  1.
         22    1    1    2    0    0  0.27580132192E+03 -0.89143048006E+03  0.73968557891E+03  0.11907348259E+04  0.00000000000E+00 0. -1.
<mgrwt>
<rscale>  0 0.20971487E+04</rscale>
<asrwt>0</asrwt>
<pdfrwt beam="1">  1        1 0.12690375E+00 0.20971487E+04</pdfrwt>
<pdfrwt beam="2">  1       -1 0.20506771E+00 0.20971487E+04</pdfrwt>
<totfact> 0.26881582E+00</totfact>
</mgrwt>
</event>
<event>
 6    1  0.1878398E-004  0.1677727E+04  0.7818608E-02  0.8774171E-01
         -2   -1    0    0    0  501 -0.00000000000E+00  0.00000000000E+00  0.63179920843E+03  0.63179920843E+03  0.00000000000E+00 0. -1.
          2   -1    0    0  501    0  0.00000000000E+00 -0.00000000000E+00 -0.11137901931E+04  0.11137901931E+04  0.00000000000E+00 0.  1.
         23    2    1    2    0    0  0.48757062385E+03  0.67331199286E+03 -0.33686163615E+03  0.90170748988E+03  0.92338953974E+02 0.  0.
         11    1    3    3    0    0  0.26562737460E+03  0.32912586035E+03 -0.12742835609E+03  0.44172357875E+03  0.00000000000E+00 0.  1.
        -11    1    3    3    0    0  0.22194324925E+03  0.34418613251E+03 -0.20943328006E+03  0.45998391113E+03  0.00000000000E+00 0. -1.
         22    1    1    2    0    0 -0.48757062385E+03 -0.67331199286E+03 -0.14512934851E+03  0.84388191163E+03  0.00000000000E+00 0. -1.
<mgrwt>
<rscale>  0 0.16777268E+04</rscale>
<asrwt>0</asrwt>
<pdfrwt beam="1">  1        2 0.17135234E+00 0.16777268E+04</pdfrwt>
<pdfrwt beam="2">  1       -2 0.97199879E-01 0.16777268E+04</pdfrwt>
<totfact> 0.17990589E+01</totfact>
</mgrwt>
</event>
<event>
 6    1  0.1878398E-004  0.1835841E+04  0.7818608E-02  0.8687468E-01
         -2   -1    0    0    0  501 -0.00000000000E+00  0.00000000000E+00  0.45287372335E+03  0.45287372335E+03  0.00000000000E+00 0. -1.
          2   -1    0    0  501    0  0.00000000000E+00 -0.00000000000E+00 -0.18605147654E+04  0.18605147654E+04  0.00000000000E+00 0.  1.
         23    2    1    2    0    0 -0.98656531496E+02  0.80733330209E+03 -0.17626776002E+03  0.83765127244E+03  0.95232132842E+02 0.  0.
         13    1    3    3    0    0 -0.10029183035E+03  0.45238872779E+03 -0.11534128340E+03  0.47751190971E+03  0.00000000000E+00 0.  1.
        -13    1    3    3    0    0  0.16352988540E+01  0.35494457431E+03 -0.60926476620E+02  0.36013936273E+03  0.00000000000E+00 0. -1.
         22    1    1    2    0    0  0.98656531496E+02 -0.80733330209E+03 -0.12313732820E+04  0.14757372163E+04  0.00000000000E+00 0.  1.
<mgrwt>
<rscale>  0 0.18358412E+04</rscale>
<asrwt>0</asrwt>
<pdfrwt beam="1">  1        2 0.28623304E+00 0.18358412E+04</pdfrwt>
<pdfrwt beam="2">  1       -2 0.69672881E-01 0.18358412E+04</pdfrwt>
<totfact> 0.14118224E+01</totfact>
</mgrwt>
</event>
<event>
 6    1  0.1878398E-004  0.5505822E+03  0.7818608E-02  0.1001359E+00
          2   -1    0    0  501    0  0.00000000000E+00  0.00000000000E+00  0.10032489845E+03  0.10032489845E+03  0.00000000000E+00 0.  1.
         -2   -1    0    0    0  501 -0.00000000000E+00 -0.00000000000E+00 -0.75539754742E+03  0.75539754742E+03  0.00000000000E+00 0. -1.
         23    2    1    2    0    0  0.37763819740E+02 -0.12121413477E+03 -0.70287028876E+03  0.72006262529E+03  0.91348612286E+02 0.  0.
         11    1    3    3    0    0 -0.23081201575E+02 -0.75941110575E+02 -0.40374677642E+03  0.41147448719E+03  0.00000000000E+00 0. -1.
        -11    1    3    3    0    0  0.60845021315E+02 -0.45273024200E+02 -0.29912351234E+03  0.30858813810E+03  0.00000000000E+00 0.  1.
         22    1    1    2    0    0 -0.37763819740E+02  0.12121413477E+03  0.47797639788E+02  0.13565982058E+03  0.00000000000E+00 0.  1.
<mgrwt>
<rscale>  0 0.55058217E+03</rscale>
<asrwt>0</asrwt>
<pdfrwt beam="1">  1        2 0.15434600E-01 0.55058217E+03</pdfrwt>
<pdfrwt beam="2">  1       -2 0.11621501E+00 0.55058217E+03</pdfrwt>
<totfact> 0.22561570E+02</totfact>
</mgrwt>
</event>
<event>
 6    1  0.1878398E-004  0.3413297E+04  0.7818608E-02  0.8134651E-01
         -1   -1    0    0    0  501 -0.00000000000E+00  0.00000000000E+00  0.68941262601E+03  0.68941262601E+03  0.00000000000E+00 0. -1.
          1   -1    0    0  501    0  0.00000000000E+00 -0.00000000000E+00 -0.42248266694E+04  0.42248266694E+04  0.00000000000E+00 0.  1.
         23    2    1    2    0    0  0.15236062244E+04  0.74895628991E+03 -0.20021660004E+04  0.26266289675E+04  0.90551578935E+02 0.  0.
         13    1    3    3    0    0  0.12000024733E+04  0.56418930028E+03 -0.15163110363E+04  0.20143273471E+04  0.00000000000E+00 0.  1.
        -13    1    3    3    0    0  0.32360375111E+03  0.18476698964E+03 -0.48585496413E+03  0.61230162041E+03  0.00000000000E+00 0. -1.
         22    1    1    2    0    0 -0.15236062244E+04 -0.74895628991E+03 -0.15332480430E+04  0.22876103280E+04  0.00000000000E+00 0. -1.
<mgrwt>
<rscale>  0 0.34132969E+04</rscale>
<asrwt>0</asrwt>
<pdfrwt beam="1">  1        1 0.64997331E+00 0.34132969E+04</pdfrwt>
<pdfrwt beam="2">  1       -1 0.10606348E+00 0.34132969E+04</pdfrwt>
<totfact> 0.40859995E-02</totfact>
</mgrwt>
</event>
<event>
 6    1  0.1878398E-004  0.3539236E+04  0.7818608E-02  0.8104554E-01
          2   -1    0    0  501    0  0.00000000000E+00  0.00000000000E+00  0.30457496287E+04  0.30457496287E+04  0.00000000000E+00 0.  1.
         -2   -1    0    0    0  501 -0.00000000000E+00 -0.00000000000E+00 -0.10281695720E+04  0.10281695720E+04  0.00000000000E+00 0. -1.
         23    2    1    2    0    0 -0.81114055696E+03 -0.15324671979E+04  0.60924876329E+03  0.18401327858E+04  0.92194890313E+02 0.  0.
         13    1    3    3    0    0 -0.61878268738E+03 -0.12415843556E+04  0.50219560350E+03  0.14753386562E+04  0.00000000000E+00 0. -1.
        -13    1    3    3    0    0 -0.19235786958E+03 -0.29088284232E+03  0.10705315979E+03  0.36479412957E+03  0.00000000000E+00 0.  1.
         22    1    1    2    0    0  0.81114055696E+03  0.15324671979E+04  0.14083312933E+04  0.22337864150E+04  0.00000000000E+00 0.  1.
<mgrwt>
<rscale>  0 0.35392356E+04</rscale>
<asrwt>0</asrwt>
<pdfrwt beam="1">  1        2 0.46857686E+00 0.35392356E+04</pdfrwt>
<pdfrwt beam="2">  1       -2 0.15817994E+00 0.35392356E+04</pdfrwt>
<totfact> 0.34652252E-01</totfact>
</mgrwt>
</event>
<event>
 6    1  0.1878398E-004  0.2694433E+04  0.7818608E-02  0.8336814E-01
         -2   -1    0    0    0  501 -0.00000000000E+00  0.00000000000E+00  0.14635808927E+04  0.14635808927E+04  0.00000000000E+00 0. -1.
          2   -1    0    0  501    0  0.00000000000E+00 -0.00000000000E+00 -0.12401036265E+04  0.12401036265E+04  0.00000000000E+00 0.  1.
         23    2    1    2    0    0 -0.24413437851E+03 -0.13226802002E+04  0.16325026007E+03  0.13573146596E+04  0.81042772459E+02 0.  0.
         13    1    3    3    0    0 -0.11536955936E+03 -0.45480258284E+03  0.33594037370E+02  0.47040842247E+03  0.00000000000E+00 0.  1.
        -13    1    3    3    0    0 -0.12876481915E+03 -0.86787761734E+03  0.12965622270E+03  0.88690623710E+03  0.00000000000E+00 0. -1.
         22    1    1    2    0    0  0.24413437851E+03  0.13226802002E+04  0.60227006140E+02  0.13463698596E+04  0.00000000000E+00 0. -1.
<mgrwt>
<rscale>  0 0.26944328E+04</rscale>
<asrwt>0</asrwt>
<pdfrwt beam="1">  1        2 0.19078517E+00 0.26944328E+04</pdfrwt>
<pdfrwt beam="2">  1       -2 0.22516629E+00 0.26944328E+04</pdfrwt>
<totfact> 0.14426268E+00</totfact>
</mgrwt>
</event>
<event>
 6    1  0.1878398E-004  0.2747166E+04  0.7818608E-02  0.8319862E-01
         -4   -1    0    0    0  501 -0.00000000000E+00  0.00000000000E+00  0.73908938323E+03  0.73908938323E+03  0.00000000000E+00 0. -1.
          4   -1    0    0  501    0  0.00000000000E+00 -0.00000000000E+00 -0.25527760147E+04  0.25527760147E+04  0.00000000000E+00 0.  1.
         23    2    1    2    0    0 -0.22240251884E+03 -0.17268669201E+02 -0.25300897635E+04  0.25415357803E+04  0.91042979364E+02 0.  0.
         13    1    3    3    0    0 -0.23288426457E+02 -0.19219940250E+02 -0.69879847128E+03  0.69945054176E+03  0.00000000000E+00 0. -1.
        -13    1    3    3    0    0 -0.19911409238E+03  0.19512710495E+01 -0.18312912922E+04  0.18420852386E+04  0.00000000000E+00 0.  1.
         22    1    1    2    0    0  0.22240251884E+03  0.17268669201E+02  0.71640313207E+03  0.75032961754E+03  0.00000000000E+00 0. -1.
<mgrwt>
<rscale>  0 0.27471656E+04</rscale>
<asrwt>0</asrwt>
<pdfrwt beam="1">  1        4 0.39273478E+00 0.27471656E+04</pdfrwt>
<pdfrwt beam="2">  1       -4 0.11370606E+00 0.27471656E+04</pdfrwt>
<totfact> 0.80531314E-03</totfact>
</mgrwt>
</event>
<event>
 6    1  0.1878398E-004  0.2782028E+04  0.7818608E-02  0.8308870E-01
          2   -1    0    0  501    0  0.00000000000E+00  0.00000000000E+00  0.23406232351E+04  0.23406232351E+04  0.00000000000E+00 0.  1.
         -2   -1    0    0    0  501 -0.00000000000E+00 -0.00000000000E+00 -0.82666882388E+03  0.82666882388E+03  0.00000000000E+00 0. -1.
         23    2    1    2    0    0  0.11158668768E+04  0.41611238035E+03  0.15727850006E+04  0.19749123216E+04  0.91200986881E+02 0.  0.
         11    1    3    3    0    0  0.72774115243E+03  0.24791407766E+03  0.95123282306E+03  0.12230750012E+04  0.00000000000E+00 0. -1.
        -11    1    3    3    0    0  0.38812572436E+03  0.16819830269E+03  0.62155217757E+03  0.75183732042E+03  0.00000000000E+00 0.  1.
         22    1    1    2    0    0 -0.11158668768E+04 -0.41611238035E+03 -0.58830589426E+02  0.11923797374E+04  0.00000000000E+00 0.  1.
<mgrwt>
<rscale>  0 0.27820282E+04</rscale>
<asrwt>0</asrwt>
<pdfrwt beam="1">  1        2 0.36009588E+00 0.27820282E+04</pdfrwt>
<pdfrwt beam="2">  1       -2 0.12717982E+00 0.27820282E+04</pdfrwt>
<totfact> 0.17194243E+00</totfact>
</mgrwt>
</event>
<event>
 6    1  0.1878398E-004  0.3173246E+04  0.7818608E-02  0.8195919E-01
          2   -1    0    0  501    0  0.00000000000E+00  0.00000000000E+00  0.14054261925E+04  0.14054261925E+04  0.00000000000E+00 0.  1.
         -2   -1    0    0    0  501 -0.00000000000E+00 -0.00000000000E+00 -0.17911810707E+04  0.17911810707E+04  0.00000000000E+00 0. -1.
         23    2    1    2    0    0  0.85914373490E+03  0.11753683475E+04 -0.82417899181E+03  0.16761354901E+04  0.10266674803E+03 0.  0.
         13    1    3    3    0    0  0.23242684484E+03  0.28606929793E+03 -0.16288745531E+03  0.40297667987E+03  0.00000000000E+00 0. -1.
        -13    1    3    3    0    0  0.62671689005E+03  0.88929904954E+03 -0.66129153650E+03  0.12731588102E+04  0.00000000000E+00 0.  1.
         22    1    1    2    0    0 -0.85914373490E+03 -0.11753683475E+04  0.43842411368E+03  0.15204717731E+04  0.00000000000E+00 0.  1.
<mgrwt>
<rscale>  0 0.31732462E+04</rscale>
<asrwt>0</asrwt>
<pdfrwt beam="1">  1        2 0.21621942E+00 0.31732462E+04</pdfrwt>
<pdfrwt beam="2">  1       -2 0.27556632E+00 0.31732462E+04</pdfrwt>
<totfact> 0.54340891E-01</totfact>
</mgrwt>
</event>
<event>
 6    1  0.1878398E-004  0.4991491E+03  0.7818608E-02  0.1014001E+00
         -1   -1    0    0    0  501 -0.00000000000E+00  0.00000000000E+00  0.58852393815E+03  0.58852393815E+03  0.00000000000E+00 0. -1.
          1   -1    0    0  501    0  0.00000000000E+00 -0.00000000000E+00 -0.10583674690E+03  0.10583674690E+03  0.00000000000E+00 0.  1.
         23    2    1    2    0    0 -0.48823962398E+02  0.21983367026E+03  0.12680233627E+03  0.27321385567E+03  0.88636090654E+02 0.  0.
         13    1    3    3    0    0 -0.55426808809E+02  0.17517859272E+03  0.13412326996E+03  0.22748345440E+03  0.00000000000E+00 0. -1.
        -13    1    3    3    0    0  0.66028464105E+01  0.44655077540E+02 -0.73209336882E+01  0.45730401276E+02  0.00000000000E+00 0.  1.
         22    1    1    2    0    0  0.48823962398E+02 -0.21983367026E+03  0.35588485499E+03  0.42114682937E+03  0.00000000000E+00 0. -1.
<mgrwt>
<rscale>  0 0.49914911E+03</rscale>
<asrwt>0</asrwt>
<pdfrwt beam="1">  1        1 0.16282577E-01 0.49914911E+03</pdfrwt>
<pdfrwt beam="2">  1       -1 0.90542142E-01 0.49914911E+03</pdfrwt>
<totfact> 0.41796263E+02</totfact>
</mgrwt>
</event>
<event>
 6    1  0.1878398E-004  0.2922440E+04  0.7818608E-02  0.8266232E-01
          2   -1    0    0  501    0  0.00000000000E+00  0.00000000000E+00  0.12958560860E+04  0.12958560860E+04  0.00000000000E+00 0.  1.
         -2   -1    0    0    0  501 -0.00000000000E+00 -0.00000000000E+00 -0.16476858011E+04  0.16476858011E+04  0.00000000000E+00 0. -1.
         23    2    1    2    0    0  0.11257175012E+04  0.15253350841E+03  0.74725132220E+03  0.13628820596E+04  0.92501925920E+02 0.  0.
         13    1    3    3    0    0  0.78318545987E+03  0.10858793217E+03  0.46830724204E+03  0.91895727676E+03  0.00000000000E+00 0. -1.
        -13    1    3    3    0    0  0.34253204131E+03  0.43945576240E+02  0.27894408016E+03  0.44392478287E+03  0.00000000000E+00 0.  1.
         22    1    1    2    0    0 -0.11257175012E+04 -0.15253350841E+03 -0.10990810373E+04  0.15806598275E+04  0.00000000000E+00 0. -1.
<mgrwt>
<rscale>  0 0.29224399E+04</rscale>
<asrwt>0</asrwt>
<pdfrwt beam="1">  1        2 0.19936248E+00 0.29224399E+04</pdfrwt>
<pdfrwt beam="2">  1       -2 0.25349012E+00 0.29224399E+04</pdfrwt>
<totfact> 0.87592456E-01</totfact>
</mgrwt>
</event>
<event>
 6    1  0.1878398E-004  0.2677032E+04  0.7818608E-02  0.8342496E-01
         -2   -1    0    0    0  501 -0.00000000000E+00  0.00000000000E+00  0.15975092245E+04  0.15975092245E+04  0.00000000000E+00 0. -1.
          2   -1    0    0  501    0  0.00000000000E+00 -0.00000000000E+00 -0.11215119134E+04  0.11215119134E+04  0.00000000000E+00 0.  1.
         23    2    1    2    0    0  0.83209184407E+03  0.97500825423E+03 -0.14854682283E+03  0.12931623412E+04  0.84762900663E+02 0.  0.
         11    1    3    3    0    0  0.53337612591E+03  0.68042727096E+03 -0.11697590775E+03  0.87244181798E+03  0.00000000000E+00 0.  1.
        -11    1    3    3    0    0  0.29871571816E+03  0.29458098326E+03 -0.31570915081E+02  0.42072052321E+03  0.00000000000E+00 0. -1.
         22    1    1    2    0    0 -0.83209184407E+03 -0.97500825423E+03  0.62454413392E+03  0.14258587967E+04  0.00000000000E+00 0. -1.
<mgrwt>
<rscale>  0 0.26770324E+04</rscale>
<asrwt>0</asrwt>
<pdfrwt beam="1">  1        2 0.17254029E+00 0.26770324E+04</pdfrwt>
<pdfrwt beam="2">  1       -2 0.24577065E+00 0.26770324E+04</pdfrwt>
<totfact> 0.12673347E+00</totfact>
</mgrwt>
</event>
<event>
 6    1  0.1878398E-004  0.1876079E+04  0.7818608E-02  0.8666856E-01
          1   -1    0    0  501    0  0.00000000000E+00  0.00000000000E+00  0.21912638617E+04  0.21912638617E+04  0.00000000000E+00 0.  1.
         -1   -1    0    0    0  501 -0.00000000000E+00 -0.00000000000E+00 -0.40155731939E+03  0.40155731939E+03  0.00000000000E+00 0. -1.
         23    2    1    2    0    0  0.36169031210E+03  0.30635688141E+03  0.20121830674E+04  0.20692085143E+04  0.89826267288E+02 0.  0.
         13    1    3    3    0    0  0.24792262380E+03  0.16691900957E+03  0.13744373773E+04  0.14065580995E+04  0.00000000000E+00 0. -1.
        -13    1    3    3    0    0  0.11376768831E+03  0.13943787183E+03  0.63774569009E+03  0.66265041479E+03  0.00000000000E+00 0.  1.
         22    1    1    2    0    0 -0.36169031210E+03 -0.30635688141E+03 -0.22247652506E+03  0.52361266682E+03  0.00000000000E+00 0. -1.
<mgrwt>
<rscale>  0 0.18760789E+04</rscale>
<asrwt>0</asrwt>
<pdfrwt beam="1">  1        1 0.33711751E+00 0.18760789E+04</pdfrwt>
<pdfrwt beam="2">  1       -1 0.61778050E-01 0.18760789E+04</pdfrwt>
<totfact> 0.55041637E+00</totfact>
</mgrwt>
</event>
<event>
 6    1  0.1878398E-004  0.2518798E+04  0.7818608E-02  0.8396319E-01
          2   -1    0    0  501    0  0.00000000000E+00  0.00000000000E+00  0.95122367412E+03  0.95122367412E+03  0.00000000000E+00 0.  1.
         -2   -1    0    0    0  501 -0.00000000000E+00 -0.00000000000E+00 -0.16674159576E+04  0.16674159576E+04  0.00000000000E+00 0. -1.
         23    2    1    2    0    0  0.11039707498E+04  0.58084694143E+03 -0.52611994173E+03  0.13567909559E+04  0.89134275376E+02 0.  0.
         11    1    3    3    0    0  0.81750696328E+03  0.47146971930E+03 -0.38467991446E+03  0.10191074368E+04  0.00000000000E+00 0. -1.
        -11    1    3    3    0    0  0.28646378652E+03  0.10937722213E+03 -0.14144002727E+03  0.33768351902E+03  0.00000000000E+00 0.  1.
         22    1    1    2    0    0 -0.11039707498E+04 -0.58084694143E+03 -0.19007234178E+03  0.12618486759E+04  0.00000000000E+00 0. -1.
<mgrwt>
<rscale>  0 0.25187978E+04</rscale>
<asrwt>0</asrwt>
<pdfrwt beam="1">  1        2 0.14634210E+00 0.25187978E+04</pdfrwt>
<pdfrwt beam="2">  1       -2 0.25652553E+00 0.25187978E+04</pdfrwt>
<totfact> 0.14138969E+00</totfact>
</mgrwt>
</event>
<event>
 6    1  0.1878398E-004  0.1471132E+04  0.7818608E-02  0.8903880E-01
          2   -1    0    0  501    0  0.00000000000E+00  0.00000000000E+00  0.16363338642E+04  0.16363338642E+04  0.00000000000E+00 0.  1.
         -2   -1    0    0    0  501 -0.00000000000E+00 -0.00000000000E+00 -0.33065215627E+03  0.33065215627E+03  0.00000000000E+00 0. -1.
         23    2    1    2    0    0  0.60843617596E+03  0.60188623543E+02  0.11952102036E+04  0.13456799736E+04  0.92249173386E+02 0.  0.
         13    1    3    3    0    0  0.17491243081E+03 -0.24259101420E+02  0.33246375575E+03  0.37645054302E+03  0.00000000000E+00 0. -1.
        -13    1    3    3    0    0  0.43352374515E+03  0.84447724963E+02  0.86274644781E+03  0.96922943057E+03  0.00000000000E+00 0.  1.
         22    1    1    2    0    0 -0.60843617596E+03 -0.60188623543E+02  0.11047150437E+03  0.62130604689E+03  0.00000000000E+00 0.  1.
<mgrwt>
<rscale>  0 0.14711320E+04</rscale>
<asrwt>0</asrwt>
<pdfrwt beam="1">  1        2 0.25174367E+00 0.14711320E+04</pdfrwt>
<pdfrwt beam="2">  1       -2 0.50869563E-01 0.14711320E+04</pdfrwt>
<totfact> 0.37636672E+01</totfact>
</mgrwt>
</event>
<event>
 6    1  0.1878398E-004  0.9628122E+03  0.7818608E-02  0.9350299E-01
          4   -1    0    0  501    0  0.00000000000E+00  0.00000000000E+00  0.23573693768E+04  0.23573693768E+04  0.00000000000E+00 0.  1.
         -4   -1    0    0    0  501 -0.00000000000E+00 -0.00000000000E+00 -0.98309502586E+02  0.98309502586E+02  0.00000000000E+00 0. -1.
         23    2    1    2    0    0  0.17912098460E+03  0.29012355984E+03  0.19913064984E+04  0.20221493217E+04  0.86777311208E+02 0.  0.
         13    1    3    3    0    0  0.65284744077E+02  0.43406177521E+02  0.36779315561E+03  0.37605584608E+03  0.00000000000E+00 0.  1.
        -13    1    3    3    0    0  0.11383624052E+03  0.24671738232E+03  0.16235133427E+04  0.16460934756E+04  0.00000000000E+00 0. -1.
         22    1    1    2    0    0 -0.17912098460E+03 -0.29012355984E+03  0.26775337583E+03  0.43352955766E+03  0.00000000000E+00 0. -1.
<mgrwt>
<rscale>  0 0.96281215E+03</rscale>
<asrwt>0</asrwt>
<pdfrwt beam="1">  1        4 0.36267217E+00 0.96281215E+03</pdfrwt>
<pdfrwt beam="2">  1       -4 0.15124541E-01 0.96281215E+03</pdfrwt>
<totfact> 0.96740943E-01</totfact>
</mgrwt>
</event>
<event>
 6    1  0.1878398E-004  0.2519623E+04  0.7818608E-02  0.8396028E-01
         -1   -1    0    0    0  501 -0.00000000000E+00  0.00000000000E+00  0.42353341967E+03  0.42353341967E+03  0.00000000000E+00 0. -1.
          1   -1    0    0  501    0  0.00000000000E+00 -0.00000000000E+00 -0.37473418118E+04  0.37473418118E+04  0.00000000000E+00 0.  1.
         23    2    1    2    0    0  0.85234505897E+02 -0.85118468027E+03 -0.13676393997E+03  0.87102180731E+03  0.90522553026E+02 0.  0.
         11    1    3    3    0    0  0.84157337111E+02 -0.42252672083E+03 -0.50589253134E+02  0.43378630654E+03  0.00000000000E+00 0. -1.
        -11    1    3    3    0    0  0.10771687861E+01 -0.42865795944E+03 -0.86174686833E+02  0.43723550077E+03  0.00000000000E+00 0.  1.
         22    1    1    2    0    0 -0.85234505897E+02  0.85118468027E+03 -0.31870444522E+04  0.32998534242E+04  0.00000000000E+00 0.  1.
<mgrwt>
<rscale>  0 0.25196226E+04</rscale>
<asrwt>0</asrwt>
<pdfrwt beam="1">  1        1 0.57651410E+00 0.25196226E+04</pdfrwt>
<pdfrwt beam="2">  1       -1 0.65158991E-01 0.25196226E+04</pdfrwt>
<totfact> 0.33447162E-01</totfact>
</mgrwt>
</event>
<event>
 6    1  0.1878398E-004  0.1964422E+04  0.7818608E-02  0.8623437E-01
          2   -1    0    0  501    0  0.00000000000E+00  0.00000000000E+00  0.20954662352E+04  0.20954662352E+04  0.00000000000E+00 0.  1.
         -2   -1    0    0    0  501 -0.00000000000E+00 -0.00000000000E+00 -0.46039332664E+03  0.46039332664E+03  0.00000000000E+00 0. -1.
         23    2    1    2    0    0 -0.37009755222E+03  0.52879104053E+03 -0.14047311882E+03  0.66663859592E+03  0.89900821775E+02 0.  0.
         13    1    3    3    0    0 -0.58607930240E+02  0.41830352869E+02 -0.30549374632E+02  0.78217211651E+02  0.00000000000E+00 0.  1.
        -13    1    3    3    0    0 -0.31148962198E+03  0.48696068766E+03 -0.10992374419E+03  0.58842138427E+03  0.00000000000E+00 0. -1.
         22    1    1    2    0    0  0.37009755222E+03 -0.52879104053E+03  0.17755460274E+04  0.18892209659E+04  0.00000000000E+00 0.  1.
<mgrwt>
<rscale>  0 0.19644222E+04</rscale>
<asrwt>0</asrwt>
<pdfrwt beam="1">  1        2 0.32237942E+00 0.19644222E+04</pdfrwt>
<pdfrwt beam="2">  1       -2 0.70829744E-01 0.19644222E+04</pdfrwt>
<totfact> 0.99756274E+00</totfact>
</mgrwt>
</event>
<event>
 6    1  0.1878398E-004  0.1409393E+04  0.7818608E-02  0.8947047E-01
          1   -1    0    0  501    0  0.00000000000E+00  0.00000000000E+00  0.15571978829E+04  0.15571978829E+04  0.00000000000E+00 0.  1.
         -1   -1    0    0    0  501 -0.00000000000E+00 -0.00000000000E+00 -0.31890455329E+03  0.31890455329E+03  0.00000000000E+00 0. -1.
         23    2    1    2    0    0 -0.46571595886E+02  0.67925662517E+03  0.39543033919E+03  0.79260047633E+03  0.91059791118E+02 0.  0.
         13    1    3    3    0    0  0.22517704551E+02  0.10208229190E+03  0.76717257927E+02  0.12966641432E+03  0.00000000000E+00 0. -1.
        -13    1    3    3    0    0 -0.69089300438E+02  0.57717433326E+03  0.31871308126E+03  0.66293406201E+03  0.00000000000E+00 0.  1.
         22    1    1    2    0    0  0.46571595886E+02 -0.67925662517E+03  0.84286299040E+03  0.10835019598E+04  0.00000000000E+00 0.  1.
<mgrwt>
<rscale>  0 0.14093935E+04</rscale>
<asrwt>0</asrwt>
<pdfrwt beam="1">  1        1 0.23956890E+00 0.14093935E+04</pdfrwt>
<pdfrwt beam="2">  1       -1 0.49062240E-01 0.14093935E+04</pdfrwt>
<totfact> 0.24211807E+01</totfact>
</mgrwt>
</event>
<event>
 6    1  0.1878398E-004  0.1951578E+04  0.7818608E-02  0.8629600E-01
          1   -1    0    0  501    0  0.00000000000E+00  0.00000000000E+00  0.86854896432E+03  0.86854896432E+03  0.00000000000E+00 0.  1.
         -1   -1    0    0    0  501 -0.00000000000E+00 -0.00000000000E+00 -0.10962704614E+04  0.10962704614E+04  0.00000000000E+00 0. -1.
         23    2    1    2    0    0  0.31308034012E+03  0.25378869935E+03 -0.10066330655E+04  0.10878181517E+04  0.87236456906E+02 0.  0.
         11    1    3    3    0    0  0.23051220183E+03  0.21752141204E+03 -0.70443037820E+03  0.77244650146E+03  0.00000000000E+00 0.  1.
        -11    1    3    3    0    0  0.82568138293E+02  0.36267287307E+02 -0.30220268729E+03  0.31537165027E+03  0.00000000000E+00 0. -1.
         22    1    1    2    0    0 -0.31308034012E+03 -0.25378869935E+03  0.77891156838E+03  0.87700127402E+03  0.00000000000E+00 0.  1.
<mgrwt>
<rscale>  0 0.19515784E+04</rscale>
<asrwt>0</asrwt>
<pdfrwt beam="1">  1        1 0.13362292E+00 0.19515784E+04</pdfrwt>
<pdfrwt beam="2">  1       -1 0.16865699E+00 0.19515784E+04</pdfrwt>
<totfact> 0.45308821E+00</totfact>
</mgrwt>
</event>
<event>
 6    1  0.1878398E-004  0.2685438E+04  0.7818608E-02  0.8339745E-01
         -2   -1    0    0    0  501 -0.00000000000E+00  0.00000000000E+00  0.25514745664E+04  0.25514745664E+04  0.00000000000E+00 0. -1.
          2   -1    0    0  501    0  0.00000000000E+00 -0.00000000000E+00 -0.70660865908E+03  0.70660865908E+03  0.00000000000E+00 0.  1.
         23    2    1    2    0    0 -0.18666111447E+03  0.11770962334E+04  0.16696349011E+04  0.20534655185E+04  0.92962458098E+02 0.  0.
         11    1    3    3    0    0 -0.18203141351E+03  0.90363877993E+03  0.12744367738E+04  0.15728596792E+04  0.00000000000E+00 0. -1.
        -11    1    3    3    0    0 -0.46297009567E+01  0.27345745342E+03  0.39519812736E+03  0.48060583936E+03  0.00000000000E+00 0.  1.
         22    1    1    2    0    0  0.18666111447E+03 -0.11770962334E+04  0.17523100616E+03  0.12046177069E+04  0.00000000000E+00 0.  1.
<mgrwt>
<rscale>  0 0.26854378E+04</rscale>
<asrwt>0</asrwt>
<pdfrwt beam="1">  1        2 0.10870903E+00 0.26854378E+04</pdfrwt>
<pdfrwt beam="2">  1       -2 0.39253454E+00 0.26854378E+04</pdfrwt>
<totfact> 0.29524929E-01</totfact>
</mgrwt>
</event>
<event>
 6    1  0.1878398E-004  0.1475935E+04  0.7818608E-02  0.8900615E-01
         -2   -1    0    0    0  501 -0.00000000000E+00  0.00000000000E+00  0.68135141252E+03  0.68135141252E+03  0.00000000000E+00 0. -1.
          2   -1    0    0  501    0  0.00000000000E+00 -0.00000000000E+00 -0.79928852981E+03  0.79928852981E+03  0.00000000000E+00 0.  1.
         23    2    1    2    0    0 -0.77249520504E+02  0.68326734333E+03 -0.31995390151E+03  0.76395833103E+03  0.91869916591E+02 0.  0.
         13    1    3    3    0    0  0.11837975789E+02  0.21368277686E+03 -0.74120654795E+02  0.22648253413E+03  0.00000000000E+00 0.  1.
        -13    1    3    3    0    0 -0.89087496293E+02  0.46958456647E+03 -0.24583324671E+03  0.53747579690E+03  0.00000000000E+00 0. -1.
         22    1    1    2    0    0  0.77249520504E+02 -0.68326734333E+03  0.20201678421E+03  0.71668161131E+03  0.00000000000E+00 0. -1.
<mgrwt>
<rscale>  0 0.14759355E+04</rscale>
<asrwt>0</asrwt>
<pdfrwt beam="1">  1        2 0.12296747E+00 0.14759355E+04</pdfrwt>
<pdfrwt beam="2">  1       -2 0.10482329E+00 0.14759355E+04</pdfrwt>
<totfact> 0.24641197E+01</totfact>
</mgrwt>
</event>
<event>
 6    1  0.1878398E-004  0.2976457E+04  0.7818608E-02  0.8250486E-01
         -4   -1    0    0    0  501 -0.00000000000E+00  0.00000000000E+00  0.30171557149E+04  0.30171557149E+04  0.00000000000E+00 0. -1.
          4   -1    0    0  501    0  0.00000000000E+00 -0.00000000000E+00 -0.73407696828E+03  0.73407696828E+03  0.00000000000E+00 0.  1.
         23    2    1    2    0    0  0.90173084675E+03  0.10218068816E+04  0.39338316039E+03  0.14213920809E+04  0.91636856655E+02 0.  0.
         11    1    3    3    0    0  0.59093664970E+03  0.67308251861E+03  0.21305721919E+03  0.92067343802E+03  0.00000000000E+00 0. -1.
        -11    1    3    3    0    0  0.31079419705E+03  0.34872436303E+03  0.18032594120E+03  0.50071864291E+03  0.00000000000E+00 0.  1.
         22    1    1    2    0    0 -0.90173084675E+03 -0.10218068816E+04  0.18896955863E+04  0.23298406023E+04  0.00000000000E+00 0. -1.
<mgrwt>
<rscale>  0 0.29764573E+04</rscale>
<asrwt>0</asrwt>
<pdfrwt beam="1">  1        4 0.11293492E+00 0.29764573E+04</pdfrwt>
<pdfrwt beam="2">  1       -4 0.46417779E+00 0.29764573E+04</pdfrwt>
<totfact> 0.24164290E-03</totfact>
</mgrwt>
</event>
<event>
 6    1  0.1878398E-004  0.4880484E+04  0.7818608E-02  0.7847213E-01
         -1   -1    0    0    0  501 -0.00000000000E+00  0.00000000000E+00  0.47645168283E+04  0.47645168283E+04  0.00000000000E+00 0. -1.
          1   -1    0    0  501    0  0.00000000000E+00 -0.00000000000E+00 -0.12498185864E+04  0.12498185864E+04  0.00000000000E+00 0.  1.
         23    2    1    2    0    0  0.13208688318E+04  0.96998980459E+03 -0.46877868631E+03  0.17069390863E+04  0.91175083336E+02 0.  0.
         11    1    3    3    0    0  0.67162782092E+03  0.44758470890E+03 -0.25865089496E+03  0.84753541929E+03  0.00000000000E+00 0.  1.
        -11    1    3    3    0    0  0.64924101089E+03  0.52240509569E+03 -0.21012779136E+03  0.85940366704E+03  0.00000000000E+00 0. -1.
         22    1    1    2    0    0 -0.13208688318E+04 -0.96998980459E+03  0.39834769283E+04  0.43073963284E+04  0.00000000000E+00 0. -1.
<mgrwt>
<rscale>  0 0.48804843E+04</rscale>
<asrwt>0</asrwt>
<pdfrwt beam="1">  1        1 0.19227978E+00 0.48804843E+04</pdfrwt>
<pdfrwt beam="2">  1       -1 0.73300258E+00 0.48804843E+04</pdfrwt>
<totfact> 0.10849571E-03</totfact>
</mgrwt>
</event>
<event>
 6    1  0.1878398E-004  0.1966431E+04  0.7818608E-02  0.8622478E-01
         -2   -1    0    0    0  501 -0.00000000000E+00  0.00000000000E+00  0.15095893019E+04  0.15095893019E+04  0.00000000000E+00 0. -1.
          2   -1    0    0  501    0  0.00000000000E+00 -0.00000000000E+00 -0.64038136784E+03  0.64038136784E+03  0.00000000000E+00 0.  1.
         23    2    1    2    0    0 -0.36271211236E+03 -0.15930851573E+03  0.14168529450E+04  0.14740606627E+04  0.91887376629E+02 0.  0.
         13    1    3    3    0    0 -0.31374222894E+03 -0.15778856799E+03  0.13142283254E+04  0.13603409534E+04  0.00000000000E+00 0.  1.
        -13    1    3    3    0    0 -0.48969883423E+02 -0.15199477396E+01  0.10262461961E+03  0.11371970926E+03  0.00000000000E+00 0. -1.
         22    1    1    2    0    0  0.36271211236E+03  0.15930851573E+03 -0.54764501092E+03  0.67591000705E+03  0.00000000000E+00 0.  1.
<mgrwt>
<rscale>  0 0.19664311E+04</rscale>
<asrwt>0</asrwt>
<pdfrwt beam="1">  1        2 0.98520211E-01 0.19664311E+04</pdfrwt>
<pdfrwt beam="2">  1       -2 0.23224451E+00 0.19664311E+04</pdfrwt>
<totfact> 0.35302163E+00</totfact>
</mgrwt>
</event>
<event>
 6    1  0.1878398E-004  0.3844935E+04  0.7818608E-02  0.8036580E-01
         -2   -1    0    0    0  501 -0.00000000000E+00  0.00000000000E+00  0.10059118210E+04  0.10059118210E+04  0.00000000000E+00 0. -1.
          2   -1    0    0  501    0  0.00000000000E+00 -0.00000000000E+00 -0.36741609980E+04  0.36741609980E+04  0.00000000000E+00 0.  1.
         23    2    1    2    0    0  0.64974377951E+03 -0.26551729935E+03 -0.35119746359E+04  0.35825578691E+04  0.89936796051E+02 0.  0.
         11    1    3    3    0    0  0.51325538706E+03 -0.17118903431E+03 -0.26195905977E+04  0.26748816193E+04  0.00000000000E+00 0. -1.
        -11    1    3    3    0    0  0.13648839245E+03 -0.94328265043E+02 -0.89238403816E+03  0.90767624979E+03  0.00000000000E+00 0.  1.
         22    1    1    2    0    0 -0.64974377951E+03  0.26551729935E+03  0.84372545883E+03  0.10975149498E+04  0.00000000000E+00 0. -1.
<mgrwt>
<rscale>  0 0.38449354E+04</rscale>
<asrwt>0</asrwt>
<pdfrwt beam="1">  1        2 0.56525553E+00 0.38449354E+04</pdfrwt>
<pdfrwt beam="2">  1       -2 0.15475567E+00 0.38449354E+04</pdfrwt>
<totfact> 0.13400311E-01</totfact>
</mgrwt>
</event>
<event>
 6    1  0.1878398E-004  0.3044992E+04  0.7818608E-02  0.8230999E-01
          1   -1    0    0  501    0  0.00000000000E+00  0.00000000000E+00  0.40648327674E+04  0.40648327674E+04  0.00000000000E+00 0.  1.
         -1   -1    0    0    0  501 -0.00000000000E+00 -0.00000000000E+00 -0.57025565451E+03  0.57025565451E+03  0.00000000000E+00 0. -1.
         23    2    1    2    0    0 -0.15089765613E+04 -0.13546052256E+02  0.14590552643E+04  0.21012093888E+04  0.95104539595E+02 0.  0.
         13    1    3    3    0    0 -0.78881899538E+03  0.35863161071E+02  0.73399284572E+03  0.10780849092E+04  0.00000000000E+00 0. -1.
        -13    1    3    3    0    0 -0.72015756591E+03 -0.49409213327E+02  0.72506241855E+03  0.10231244797E+04  0.00000000000E+00 0.  1.
         22    1    1    2    0    0  0.15089765613E+04  0.13546052256E+02  0.20355218486E+04  0.25338790330E+04  0.00000000000E+00 0. -1.
<mgrwt>
<rscale>  0 0.30449919E+04</rscale>
<asrwt>0</asrwt>
<pdfrwt beam="1">  1        1 0.62535887E+00 0.30449919E+04</pdfrwt>
<pdfrwt beam="2">  1       -1 0.87731642E-01 0.30449919E+04</pdfrwt>
<totfact> 0.90949376E-02</totfact>
</mgrwt>
</event>
<event>
 6    1  0.1878398E-004  0.3211128E+04  0.7818608E-02  0.8185884E-01
          1   -1    0    0  501    0  0.00000000000E+00  0.00000000000E+00  0.33023991444E+04  0.33023991444E+04  0.00000000000E+00 0.  1.
         -1   -1    0    0    0  501 -0.00000000000E+00 -0.00000000000E+00 -0.78059504371E+03  0.78059504371E+03  0.00000000000E+00 0. -1.
         23    2    1    2    0    0  0.15563032795E+04  0.55574195367E+02  0.77226645516E+03  0.17407622692E+04  0.93217009786E+02 0.  0.
         13    1    3    3    0    0  0.24158115372E+03  0.37127214188E+00  0.15724864722E+03  0.28825115564E+03  0.00000000000E+00 0.  1.
        -13    1    3    3    0    0  0.13147221258E+04  0.55202923225E+02  0.61501780795E+03  0.14525111135E+04  0.00000000000E+00 0. -1.
         22    1    1    2    0    0 -0.15563032795E+04 -0.55574195367E+02  0.17495376455E+04  0.23422319189E+04  0.00000000000E+00 0.  1.
<mgrwt>
<rscale>  0 0.32111284E+04</rscale>
<asrwt>0</asrwt>
<pdfrwt beam="1">  1        1 0.50806140E+00 0.32111284E+04</pdfrwt>
<pdfrwt beam="2">  1       -1 0.12009155E+00 0.32111284E+04</pdfrwt>
<totfact> 0.18347400E-01</totfact>
</mgrwt>
</event>
<event>
 6    1  0.1878398E-004  0.7011927E+03  0.7818608E-02  0.9715195E-01
          2   -1    0    0  501    0  0.00000000000E+00  0.00000000000E+00  0.27377981024E+03  0.27377981024E+03  0.00000000000E+00 0.  1.
         -2   -1    0    0    0  501 -0.00000000000E+00 -0.00000000000E+00 -0.44896590079E+03  0.44896590079E+03  0.00000000000E+00 0. -1.
         23    2    1    2    0    0  0.14512890324E+02  0.33174598790E+03 -0.18624862676E+03  0.39049820663E+03  0.86800195458E+02 0.  0.
         11    1    3    3    0    0 -0.64037319037E+01  0.13782230691E+03 -0.12468865711E+03  0.18596574222E+03  0.00000000000E+00 0. -1.
        -11    1    3    3    0    0  0.20916622228E+02  0.19392368099E+03 -0.61559969646E+02  0.20453246441E+03  0.00000000000E+00 0.  1.
         22    1    1    2    0    0 -0.14512890324E+02 -0.33174598790E+03  0.11062536203E+02  0.33224750440E+03  0.00000000000E+00 0.  1.
<mgrwt>
<rscale>  0 0.70119270E+03</rscale>
<asrwt>0</asrwt>
<pdfrwt beam="1">  1        2 0.42119971E-01 0.70119270E+03</pdfrwt>
<pdfrwt beam="2">  1       -2 0.69071676E-01 0.70119270E+03</pdfrwt>
<totfact> 0.23499725E+02</totfact>
</mgrwt>
</event>
<event>
 6    1  0.1878398E-004  0.5185157E+04  0.7818608E-02  0.7800563E-01
          2   -1    0    0  501    0  0.00000000000E+00  0.00000000000E+00  0.39554581455E+04  0.39554581455E+04  0.00000000000E+00 0.  1.
         -2   -1    0    0    0  501 -0.00000000000E+00 -0.00000000000E+00 -0.16992883609E+04  0.16992883609E+04  0.00000000000E+00 0. -1.
         23    2    1    2    0    0 -0.20417144350E+04 -0.78918631300E+03  0.26418844513E+04  0.34320929853E+04  0.91082022370E+02 0.  0.
         13    1    3    3    0    0 -0.62104402212E+03 -0.28478629482E+03  0.83369846423E+03  0.10778924067E+04  0.00000000000E+00 0. -1.
        -13    1    3    3    0    0 -0.14206704129E+04 -0.50440001818E+03  0.18081859871E+04  0.23542005786E+04  0.00000000000E+00 0.  1.
         22    1    1    2    0    0  0.20417144350E+04  0.78918631300E+03 -0.38571466671E+03  0.22226535211E+04  0.00000000000E+00 0. -1.
<mgrwt>
<rscale>  0 0.51851573E+04</rscale>
<asrwt>0</asrwt>
<pdfrwt beam="1">  1        2 0.60853202E+00 0.51851573E+04</pdfrwt>
<pdfrwt beam="2">  1       -2 0.26142898E+00 0.51851573E+04</pdfrwt>
<totfact> 0.14510262E-02</totfact>
</mgrwt>
</event>
<event>
 6    1  0.1878398E-004  0.3981081E+04  0.7818608E-02  0.8008374E-01
          2   -1    0    0  501    0  0.00000000000E+00  0.00000000000E+00  0.22666542626E+04  0.22666542626E+04  0.00000000000E+00 0.  1.
         -2   -1    0    0    0  501 -0.00000000000E+00 -0.00000000000E+00 -0.17480618942E+04  0.17480618942E+04  0.00000000000E+00 0. -1.
         23    2    1    2    0    0 -0.16146022563E+04  0.47728158965E+03 -0.80951914043E+03  0.18702772228E+04  0.88755222061E+02 0.  0.
         11    1    3    3    0    0 -0.76004323437E+03  0.26552795165E+03 -0.40969553272E+03  0.90333894013E+03  0.00000000000E+00 0. -1.
        -11    1    3    3    0    0 -0.85455902197E+03  0.21175363800E+03 -0.39982360771E+03  0.96693828268E+03  0.00000000000E+00 0.  1.
         22    1    1    2    0    0  0.16146022563E+04 -0.47728158965E+03  0.13281115088E+04  0.21444389340E+04  0.00000000000E+00 0.  1.
<mgrwt>
<rscale>  0 0.39810812E+04</rscale>
<asrwt>0</asrwt>
<pdfrwt beam="1">  1        2 0.34871604E+00 0.39810812E+04</pdfrwt>
<pdfrwt beam="2">  1       -2 0.26893260E+00 0.39810812E+04</pdfrwt>
<totfact> 0.18408489E-01</totfact>
</mgrwt>
</event>
<event>
 6    1  0.1878398E-004  0.3413567E+04  0.7818608E-02  0.8134585E-01
         -2   -1    0    0    0  501 -0.00000000000E+00  0.00000000000E+00  0.12103772363E+04  0.12103772363E+04  0.00000000000E+00 0. -1.
          2   -1    0    0  501    0  0.00000000000E+00 -0.00000000000E+00 -0.24067787267E+04  0.24067787267E+04  0.00000000000E+00 0.  1.
         23    2    1    2    0    0  0.15218906756E+04 -0.56734907734E+03 -0.11500817251E+04  0.19922923611E+04  0.92220787917E+02 0.  0.
         11    1    3    3    0    0  0.84732482091E+03 -0.26687879632E+03 -0.62741618493E+03  0.10875820489E+04  0.00000000000E+00 0. -1.
        -11    1    3    3    0    0  0.67456585472E+03 -0.30047028101E+03 -0.52266554015E+03  0.90471031219E+03  0.00000000000E+00 0.  1.
         22    1    1    2    0    0 -0.15218906756E+04  0.56734907734E+03 -0.46319765249E+02  0.16248636019E+04  0.00000000000E+00 0.  1.
<mgrwt>
<rscale>  0 0.34135672E+04</rscale>
<asrwt>0</asrwt>
<pdfrwt beam="1">  1        2 0.37027364E+00 0.34135672E+04</pdfrwt>
<pdfrwt beam="2">  1       -2 0.18621189E+00 0.34135672E+04</pdfrwt>
<totfact> 0.53599265E-01</totfact>
</mgrwt>
</event>
<event>
 6    1  0.1878398E-004  0.2539560E+04  0.7818608E-02  0.8389026E-01
          2   -1    0    0  501    0  0.00000000000E+00  0.00000000000E+00  0.12942085709E+04  0.12942085709E+04  0.00000000000E+00 0.  1.
         -2   -1    0    0    0  501 -0.00000000000E+00 -0.00000000000E+00 -0.12458121778E+04  0.12458121778E+04  0.00000000000E+00 0. -1.
         23    2    1    2    0    0  0.91393370697E+03  0.85297003238E+03  0.23659153789E+03  0.12758015789E+04  0.94135094091E+02 0.  0.
         13    1    3    3    0    0  0.17373065793E+03  0.12960826023E+03  0.68204022380E+02  0.22722770802E+03  0.00000000000E+00 0. -1.
        -13    1    3    3    0    0  0.74020304904E+03  0.72336177215E+03  0.16838751551E+03  0.10485738708E+04  0.00000000000E+00 0.  1.
         22    1    1    2    0    0 -0.91393370697E+03 -0.85297003238E+03 -0.18819514487E+03  0.12642191699E+04  0.00000000000E+00 0. -1.
<mgrwt>
<rscale>  0 0.25395596E+04</rscale>
<asrwt>0</asrwt>
<pdfrwt beam="1">  1        2 0.19910901E+00 0.25395596E+04</pdfrwt>
<pdfrwt beam="2">  1       -2 0.19166341E+00 0.25395596E+04</pdfrwt>
<totfact> 0.22376459E+00</totfact>
</mgrwt>
</event>
<event>
 6    1  0.1878398E-004  0.1516216E+04  0.7818608E-02  0.8873740E-01
         -1   -1    0    0    0  501 -0.00000000000E+00  0.00000000000E+00  0.28177525563E+03  0.28177525563E+03  0.00000000000E+00 0. -1.
          1   -1    0    0  501    0  0.00000000000E+00 -0.00000000000E+00 -0.20396679176E+04  0.20396679176E+04  0.00000000000E+00 0.  1.
         23    2    1    2    0    0  0.54715423898E+03 -0.46693263490E+03 -0.52946977831E+03  0.89791704847E+03  0.92265557106E+02 0.  0.
         11    1    3    3    0    0  0.36319640217E+03 -0.32724061526E+03 -0.40901821875E+03  0.63741191556E+03  0.00000000000E+00 0.  1.
        -11    1    3    3    0    0  0.18395783681E+03 -0.13969201964E+03 -0.12045155955E+03  0.26050513291E+03  0.00000000000E+00 0. -1.
         22    1    1    2    0    0 -0.54715423898E+03  0.46693263490E+03 -0.12284228837E+04  0.14235261248E+04  0.00000000000E+00 0. -1.
<mgrwt>
<rscale>  0 0.15162163E+04</rscale>
<asrwt>0</asrwt>
<pdfrwt beam="1">  1        1 0.31379505E+00 0.15162163E+04</pdfrwt>
<pdfrwt beam="2">  1       -1 0.43350042E-01 0.15162163E+04</pdfrwt>
<totfact> 0.14216912E+01</totfact>
</mgrwt>
</event>
<event>
 6    1  0.1878398E-004  0.5988073E+03  0.7818608E-02  0.9907884E-01
         -2   -1    0    0    0  501 -0.00000000000E+00  0.00000000000E+00  0.49754227175E+03  0.49754227175E+03  0.00000000000E+00 0. -1.
          2   -1    0    0  501    0  0.00000000000E+00 -0.00000000000E+00 -0.18017071990E+03  0.18017071990E+03  0.00000000000E+00 0.  1.
         23    2    1    2    0    0  0.10741936006E+03  0.22510740637E+03 -0.10831675230E+02  0.26548778429E+03  0.90300471210E+02 0.  0.
         11    1    3    3    0    0  0.10571323609E+02  0.60905441940E+02  0.32719050696E+02  0.69941132527E+02  0.00000000000E+00 0. -1.
        -11    1    3    3    0    0  0.96848036451E+02  0.16420196443E+03 -0.43550725926E+02  0.19554665176E+03  0.00000000000E+00 0.  1.
         22    1    1    2    0    0 -0.10741936006E+03 -0.22510740637E+03  0.32820322708E+03  0.41222520736E+03  0.00000000000E+00 0. -1.
<mgrwt>
<rscale>  0 0.59880731E+03</rscale>
<asrwt>0</asrwt>
<pdfrwt beam="1">  1        2 0.27718572E-01 0.59880731E+03</pdfrwt>
<pdfrwt beam="2">  1       -2 0.76544964E-01 0.59880731E+03</pdfrwt>
<totfact> 0.30032895E+02</totfact>
</mgrwt>
</event>
<event>
 6    1  0.1878398E-004  0.1260194E+04  0.7818608E-02  0.9061741E-01
          2   -1    0    0  501    0  0.00000000000E+00  0.00000000000E+00  0.11585628537E+04  0.11585628537E+04  0.00000000000E+00 0.  1.
         -2   -1    0    0    0  501 -0.00000000000E+00 -0.00000000000E+00 -0.34268509559E+03  0.34268509559E+03  0.00000000000E+00 0. -1.
         23    2    1    2    0    0  0.60819634521E+02 -0.59053377357E+03  0.64934018634E+03  0.88467359979E+03  0.92604184000E+02 0.  0.
         13    1    3    3    0    0  0.33068926376E+02 -0.39659305408E+03  0.49577232690E+03  0.63574350532E+03  0.00000000000E+00 0.  1.
        -13    1    3    3    0    0  0.27750708146E+02 -0.19394071949E+03  0.15356785944E+03  0.24893009447E+03  0.00000000000E+00 0. -1.
         22    1    1    2    0    0 -0.60819634521E+02  0.59053377357E+03  0.16653757179E+03  0.61657434952E+03  0.00000000000E+00 0. -1.
<mgrwt>
<rscale>  0 0.12601940E+04</rscale>
<asrwt>0</asrwt>
<pdfrwt beam="1">  1        2 0.17824044E+00 0.12601940E+04</pdfrwt>
<pdfrwt beam="2">  1       -2 0.52720785E-01 0.12601940E+04</pdfrwt>
<totfact> 0.66908152E+01</totfact>
</mgrwt>
</event>
<event>
 6    1  0.1878398E-004  0.1100184E+04  0.7818608E-02  0.9205012E-01
          2   -1    0    0  501    0  0.00000000000E+00  0.00000000000E+00  0.28933005507E+04  0.28933005507E+04  0.00000000000E+00 0.  1.
         -2   -1    0    0    0  501 -0.00000000000E+00 -0.00000000000E+00 -0.10458694006E+03  0.10458694006E+03  0.00000000000E+00 0. -1.
         23    2    1    2    0    0  0.39910555789E+03  0.22838882851E+03  0.22092385348E+04  0.22581320806E+04  0.83539730360E+02 0.  0.
         11    1    3    3    0    0  0.29396109145E+03  0.20826978152E+03  0.16898314390E+04  0.17278077779E+04  0.00000000000E+00 0. -1.
        -11    1    3    3    0    0  0.10514446644E+03  0.20119046997E+02  0.51940709576E+03  0.53032430267E+03  0.00000000000E+00 0.  1.
         22    1    1    2    0    0 -0.39910555789E+03 -0.22838882851E+03  0.57947507584E+03  0.73975541015E+03  0.00000000000E+00 0. -1.
<mgrwt>
<rscale>  0 0.11001844E+04</rscale>
<asrwt>0</asrwt>
<pdfrwt beam="1">  1        2 0.44512310E+00 0.11001844E+04</pdfrwt>
<pdfrwt beam="2">  1       -2 0.16090301E-01 0.11001844E+04</pdfrwt>
<totfact> 0.63789620E+01</totfact>
</mgrwt>
</event>
<event>
 6    1  0.1878398E-004  0.3214996E+04  0.7818608E-02  0.8184868E-01
         -2   -1    0    0    0  501 -0.00000000000E+00  0.00000000000E+00  0.73593418191E+03  0.73593418191E+03  0.00000000000E+00 0. -1.
          2   -1    0    0  501    0  0.00000000000E+00 -0.00000000000E+00 -0.35112521647E+04  0.35112521647E+04  0.00000000000E+00 0.  1.
         23    2    1    2    0    0 -0.14671667192E+04 -0.13522900716E+03 -0.54388233173E+03  0.15732061427E+04  0.91129085932E+02 0.  0.
         11    1    3    3    0    0 -0.78842120146E+03 -0.54592982154E+02 -0.33605275096E+03  0.85878975078E+03  0.00000000000E+00 0. -1.
        -11    1    3    3    0    0 -0.67874551773E+03 -0.80636025006E+02 -0.20782958077E+03  0.71441639189E+03  0.00000000000E+00 0.  1.
         22    1    1    2    0    0  0.14671667192E+04  0.13522900716E+03 -0.22314356511E+04  0.26739802040E+04  0.00000000000E+00 0.  1.
<mgrwt>
<rscale>  0 0.32149964E+04</rscale>
<asrwt>0</asrwt>
<pdfrwt beam="1">  1        2 0.54019264E+00 0.32149964E+04</pdfrwt>
<pdfrwt beam="2">  1       -2 0.11322064E+00 0.32149964E+04</pdfrwt>
<totfact> 0.41071100E-01</totfact>
</mgrwt>
</event>
<event>
 6    1  0.1878398E-004  0.2953573E+04  0.7818608E-02  0.8257114E-01
          2   -1    0    0  501    0  0.00000000000E+00  0.00000000000E+00  0.19591219141E+04  0.19591219141E+04  0.00000000000E+00 0.  1.
         -2   -1    0    0    0  501 -0.00000000000E+00 -0.00000000000E+00 -0.11132020327E+04  0.11132020327E+04  0.00000000000E+00 0. -1.
         23    2    1    2    0    0  0.46609771746E+03  0.12729263489E+04 -0.18225425007E+03  0.13709331580E+04  0.93019029830E+02 0.  0.
         13    1    3    3    0    0  0.33878136537E+03  0.92381875802E+03 -0.17398791764E+03  0.99924256649E+03  0.00000000000E+00 0.  1.
        -13    1    3    3    0    0  0.12731635209E+03  0.34910759090E+03 -0.82663324269E+01  0.37169059147E+03  0.00000000000E+00 0. -1.
         22    1    1    2    0    0 -0.46609771746E+03 -0.12729263489E+04  0.10281741314E+04  0.17013907889E+04  0.00000000000E+00 0.  1.
<mgrwt>
<rscale>  0 0.29535731E+04</rscale>
<asrwt>0</asrwt>
<pdfrwt beam="1">  1        2 0.30140337E+00 0.29535731E+04</pdfrwt>
<pdfrwt beam="2">  1       -2 0.17126185E+00 0.29535731E+04</pdfrwt>
<totfact> 0.12631598E+00</totfact>
</mgrwt>
</event>
<event>
 6    1  0.1878398E-004  0.8013658E+03  0.7818608E-02  0.9558042E-01
         -2   -1    0    0    0  501 -0.00000000000E+00  0.00000000000E+00  0.71091532125E+02  0.71091532125E+02  0.00000000000E+00 0. -1.
          2   -1    0    0  501    0  0.00000000000E+00 -0.00000000000E+00 -0.22583106848E+04  0.22583106848E+04  0.00000000000E+00 0.  1.
         23    2    1    2    0    0 -0.15131673458E+03 -0.15182692518E+03 -0.20741782632E+04  0.20870668871E+04  0.87661590192E+02 0.  0.
         11    1    3    3    0    0 -0.11472551004E+03 -0.54804579442E+02 -0.10582371462E+04  0.10658477106E+04  0.00000000000E+00 0. -1.
        -11    1    3    3    0    0 -0.36591224536E+02 -0.97022345742E+02 -0.10159411170E+04  0.10212191765E+04  0.00000000000E+00 0.  1.
         22    1    1    2    0    0  0.15131673458E+03  0.15182692518E+03 -0.11304088945E+03  0.24233532978E+03  0.00000000000E+00 0. -1.
<mgrwt>
<rscale>  0 0.80136575E+03</rscale>
<asrwt>0</asrwt>
<pdfrwt beam="1">  1        2 0.34743238E+00 0.80136575E+03</pdfrwt>
<pdfrwt beam="2">  1       -2 0.10937160E-01 0.80136575E+03</pdfrwt>
<totfact> 0.29125332E+02</totfact>
</mgrwt>
</event>
<event>
 6    1  0.1878398E-004  0.2536902E+04  0.7818608E-02  0.8389956E-01
         -2   -1    0    0    0  501 -0.00000000000E+00  0.00000000000E+00  0.27989671299E+04  0.27989671299E+04  0.00000000000E+00 0.  1.
          2   -1    0    0  501    0  0.00000000000E+00 -0.00000000000E+00 -0.57484323856E+03  0.57484323856E+03  0.00000000000E+00 0. -1.
         23    2    1    2    0    0  0.28432216320E+03  0.40714871405E+03  0.26638579750E+04  0.27105040801E+04  0.63905316957E+02 0.  0.
         13    1    3    3    0    0  0.85870124371E+02  0.76256560745E+02  0.61821228718E+03  0.62878865554E+03  0.00000000000E+00 0.  1.
        -13    1    3    3    0    0  0.19845203883E+03  0.33089215331E+03  0.20456456878E+04  0.20817154246E+04  0.00000000000E+00 0. -1.
         22    1    1    2    0    0 -0.28432216320E+03 -0.40714871405E+03 -0.43973408364E+03  0.66330628835E+03  0.00000000000E+00 0. -1.
<mgrwt>
<rscale>  0 0.25369015E+04</rscale>
<asrwt>0</asrwt>
<pdfrwt beam="1">  1        2 0.88437423E-01 0.25369015E+04</pdfrwt>
<pdfrwt beam="2">  1       -2 0.43061032E+00 0.25369015E+04</pdfrwt>
<totfact> 0.21654901E-01</totfact>
</mgrwt>
</event>
<event>
 6    1  0.1878398E-004  0.1107919E+04  0.7818608E-02  0.9197507E-01
         -2   -1    0    0    0  501 -0.00000000000E+00  0.00000000000E+00  0.96196484356E+02  0.96196484356E+02  0.00000000000E+00 0. -1.
          2   -1    0    0  501    0  0.00000000000E+00 -0.00000000000E+00 -0.31900465178E+04  0.31900465178E+04  0.00000000000E+00 0.  1.
         23    2    1    2    0    0 -0.42538511155E+03 -0.75364269882E+02 -0.54530371936E+03  0.70134057047E+03  0.88826702825E+02 0.  0.
         11    1    3    3    0    0 -0.22505970208E+03 -0.54848197659E+02 -0.35746753288E+03  0.42596153741E+03  0.00000000000E+00 0. -1.
        -11    1    3    3    0    0 -0.20032540947E+03 -0.20516072224E+02 -0.18783618648E+03  0.27537903307E+03  0.00000000000E+00 0.  1.
         22    1    1    2    0    0  0.42538511155E+03  0.75364269882E+02 -0.25485463140E+04  0.25849024316E+04  0.00000000000E+00 0. -1.
<mgrwt>
<rscale>  0 0.11079192E+04</rscale>
<asrwt>0</asrwt>
<pdfrwt beam="1">  1        2 0.49077635E+00 0.11079192E+04</pdfrwt>
<pdfrwt beam="2">  1       -2 0.14799460E-01 0.11079192E+04</pdfrwt>
<totfact> 0.48017109E+01</totfact>
</mgrwt>
</event>
<event>
 6    1  0.1878398E-004  0.1303187E+04  0.7818608E-02  0.9027042E-01
          2   -1    0    0  501    0  0.00000000000E+00  0.00000000000E+00  0.16214542414E+04  0.16214542414E+04  0.00000000000E+00 0.  1.
         -2   -1    0    0    0  501 -0.00000000000E+00 -0.00000000000E+00 -0.26184753964E+03  0.26184753964E+03  0.00000000000E+00 0. -1.
         23    2    1    2    0    0  0.60695641252E+03  0.35524386993E+01  0.10128778054E+04  0.11842812992E+04  0.90509891237E+02 0.  0.
         13    1    3    3    0    0  0.34319663971E+03 -0.37228109034E+02  0.52886145103E+03  0.63155704414E+03  0.00000000000E+00 0. -1.
        -13    1    3    3    0    0  0.26375977281E+03  0.40780547734E+02  0.48401635433E+03  0.55272425501E+03  0.00000000000E+00 0.  1.
         22    1    1    2    0    0 -0.60695641252E+03 -0.35524386993E+01  0.34672889645E+03  0.69902048193E+03  0.00000000000E+00 0. -1.
<mgrwt>
<rscale>  0 0.13031866E+04</rscale>
<asrwt>0</asrwt>
<pdfrwt beam="1">  1        2 0.24945449E+00 0.13031866E+04</pdfrwt>
<pdfrwt beam="2">  1       -2 0.40284238E-01 0.13031866E+04</pdfrwt>
<totfact> 0.61986779E+01</totfact>
</mgrwt>
</event>
<event>
 6    1  0.1878398E-004  0.1370168E+04  0.7818608E-02  0.8975700E-01
          1   -1    0    0  501    0  0.00000000000E+00  0.00000000000E+00  0.12598056320E+04  0.12598056320E+04  0.00000000000E+00 0.  1.
         -1   -1    0    0    0  501 -0.00000000000E+00 -0.00000000000E+00 -0.37254936820E+03  0.37254936820E+03  0.00000000000E+00 0. -1.
         23    2    1    2    0    0 -0.40783940563E+03 -0.47748209719E+03  0.12789572258E+03  0.64698676167E+03  0.88951784717E+02 0.  0.
         11    1    3    3    0    0 -0.13564590261E+03 -0.12250647945E+03  0.39895349244E+01  0.18282112785E+03  0.00000000000E+00 0. -1.
        -11    1    3    3    0    0 -0.27219350303E+03 -0.35497561774E+03  0.12390618766E+03  0.46416563382E+03  0.00000000000E+00 0.  1.
         22    1    1    2    0    0  0.40783940563E+03  0.47748209719E+03  0.75936054119E+03  0.98536823850E+03  0.00000000000E+00 0.  1.
<mgrwt>
<rscale>  0 0.13701676E+04</rscale>
<asrwt>0</asrwt>
<pdfrwt beam="1">  1        1 0.19381625E+00 0.13701676E+04</pdfrwt>
<pdfrwt beam="2">  1       -1 0.57315288E-01 0.13701676E+04</pdfrwt>
<totfact> 0.29124193E+01</totfact>
</mgrwt>
</event>
<event>
 6    1  0.1878398E-004  0.1408750E+04  0.7818608E-02  0.8947509E-01
         -1   -1    0    0    0  501 -0.00000000000E+00  0.00000000000E+00  0.61214768199E+03  0.61214768199E+03  0.00000000000E+00 0. -1.
          1   -1    0    0  501    0  0.00000000000E+00 -0.00000000000E+00 -0.81049794799E+03  0.81049794799E+03  0.00000000000E+00 0.  1.
         23    2    1    2    0    0 -0.14009299090E+03  0.65256743378E+03  0.11822655568E+03  0.68393649522E+03  0.91221210773E+02 0.  0.
         13    1    3    3    0    0 -0.61298257481E+02  0.32327829717E+03  0.12683959519E+02  0.32928288237E+03  0.00000000000E+00 0. -1.
        -13    1    3    3    0    0 -0.78794733415E+02  0.32928913662E+03  0.10554259616E+03  0.35465361286E+03  0.00000000000E+00 0.  1.
         22    1    1    2    0    0  0.14009299090E+03 -0.65256743378E+03 -0.31657682168E+03  0.73870913475E+03  0.00000000000E+00 0. -1.
<mgrwt>
<rscale>  0 0.14087504E+04</rscale>
<asrwt>0</asrwt>
<pdfrwt beam="1">  1        1 0.12469199E+00 0.14087504E+04</pdfrwt>
<pdfrwt beam="2">  1       -1 0.94176567E-01 0.14087504E+04</pdfrwt>
<totfact> 0.23042861E+01</totfact>
</mgrwt>
</event>
<event>
 6    1  0.1878398E-004  0.2806681E+04  0.7818608E-02  0.8301197E-01
          2   -1    0    0  501    0  0.00000000000E+00  0.00000000000E+00  0.26383109496E+04  0.26383109496E+04  0.00000000000E+00 0.  1.
         -2   -1    0    0    0  501 -0.00000000000E+00 -0.00000000000E+00 -0.74644876382E+03  0.74644876382E+03  0.00000000000E+00 0. -1.
         23    2    1    2    0    0 -0.28909268329E+03  0.30430995776E+03  0.25600365386E+04  0.25956867791E+04  0.87313494470E+02 0.  0.
         11    1    3    3    0    0 -0.81644445699E+02  0.47809293807E+02  0.43262718501E+03  0.44285192254E+03  0.00000000000E+00 0.  1.
        -11    1    3    3    0    0 -0.20744823759E+03  0.25650066395E+03  0.21274093536E+04  0.21528348565E+04  0.00000000000E+00 0. -1.
         22    1    1    2    0    0  0.28909268329E+03 -0.30430995776E+03 -0.66817435282E+03  0.78907293433E+03  0.00000000000E+00 0. -1.
<mgrwt>
<rscale>  0 0.28066806E+04</rscale>
<asrwt>0</asrwt>
<pdfrwt beam="1">  1        2 0.40589399E+00 0.28066806E+04</pdfrwt>
<pdfrwt beam="2">  1       -2 0.11483827E+00 0.28066806E+04</pdfrwt>
<totfact> 0.14861873E+00</totfact>
</mgrwt>
</event>
<event>
 6    1  0.1878398E-004  0.1979655E+04  0.7818608E-02  0.8616192E-01
         -2   -1    0    0    0  501 -0.00000000000E+00  0.00000000000E+00  0.45104568141E+03  0.45104568141E+03  0.00000000000E+00 0. -1.
          2   -1    0    0  501    0  0.00000000000E+00 -0.00000000000E+00 -0.21721944243E+04  0.21721944243E+04  0.00000000000E+00 0.  1.
         23    2    1    2    0    0 -0.59117316924E+03  0.60630789520E+03 -0.18863643033E+03  0.87232920907E+03  0.90992122384E+02 0.  0.
         13    1    3    3    0    0 -0.26936410869E+03  0.31736060320E+03 -0.56374739137E+02  0.42006295567E+03  0.00000000000E+00 0.  1.
        -13    1    3    3    0    0 -0.32180906055E+03  0.28894729200E+03 -0.13226169119E+03  0.45226625340E+03  0.00000000000E+00 0. -1.
         22    1    1    2    0    0  0.59117316924E+03 -0.60630789520E+03 -0.15325123126E+04  0.17509108967E+04  0.00000000000E+00 0.  1.
<mgrwt>
<rscale>  0 0.19796554E+04</rscale>
<asrwt>0</asrwt>
<pdfrwt beam="1">  1        2 0.33418376E+00 0.19796554E+04</pdfrwt>
<pdfrwt beam="2">  1       -2 0.69391642E-01 0.19796554E+04</pdfrwt>
<totfact> 0.94387957E+00</totfact>
</mgrwt>
</event>
<event>
 6    1  0.1878398E-004  0.2983073E+04  0.7818608E-02  0.8248581E-01
         -1   -1    0    0    0  501 -0.00000000000E+00  0.00000000000E+00  0.65513954251E+03  0.65513954251E+03  0.00000000000E+00 0. -1.
          1   -1    0    0  501    0  0.00000000000E+00 -0.00000000000E+00 -0.33957368232E+04  0.33957368232E+04  0.00000000000E+00 0.  1.
         23    2    1    2    0    0 -0.48858420268E+03  0.89604436634E+03 -0.28460589853E+04  0.30248489778E+04  0.89719345829E+02 0.  0.
         11    1    3    3    0    0 -0.40560888041E+03  0.66413889331E+03 -0.21529968029E+04  0.22893217919E+04  0.00000000000E+00 0.  1.
        -11    1    3    3    0    0 -0.82975322268E+02  0.23190547304E+03 -0.69306218240E+03  0.73552718590E+03  0.00000000000E+00 0. -1.
         22    1    1    2    0    0  0.48858420268E+03 -0.89604436634E+03  0.10546170465E+03  0.10260273879E+04  0.00000000000E+00 0. -1.
<mgrwt>
<rscale>  0 0.29830732E+04</rscale>
<asrwt>0</asrwt>
<pdfrwt beam="1">  1        1 0.52242105E+00 0.29830732E+04</pdfrwt>
<pdfrwt beam="2">  1       -1 0.10079070E+00 0.29830732E+04</pdfrwt>
<totfact> 0.24031207E-01</totfact>
</mgrwt>
</event>
<event>
 6    1  0.1878398E-004  0.1539920E+04  0.7818608E-02  0.8858332E-01
         -1   -1    0    0    0  501 -0.00000000000E+00  0.00000000000E+00  0.62594276308E+03  0.62594276308E+03  0.00000000000E+00 0.  1.
          1   -1    0    0  501    0  0.00000000000E+00 -0.00000000000E+00 -0.94711334688E+03  0.94711334688E+03  0.00000000000E+00 0. -1.
         23    2    1    2    0    0  0.19718334388E+02  0.25742465920E+03  0.57700776776E+03  0.63850775965E+03  0.89988483666E+02 0.  0.
         11    1    3    3    0    0 -0.28506199869E+02  0.39340453397E+02  0.13056853152E+03  0.13931409163E+03  0.00000000000E+00 0. -1.
        -11    1    3    3    0    0  0.48224534257E+02  0.21808420580E+03  0.44643923624E+03  0.49919366801E+03  0.00000000000E+00 0.  1.
         22    1    1    2    0    0 -0.19718334388E+02 -0.25742465920E+03 -0.89817835156E+03  0.93454835032E+03  0.00000000000E+00 0. -1.
<mgrwt>
<rscale>  0 0.15399204E+04</rscale>
<asrwt>0</asrwt>
<pdfrwt beam="1">  1        1 0.14570975E+00 0.15399204E+04</pdfrwt>
<pdfrwt beam="2">  1       -1 0.96298886E-01 0.15399204E+04</pdfrwt>
<totfact> 0.16690158E+01</totfact>
</mgrwt>
</event>
<event>
 6    1  0.1878398E-004  0.2710144E+04  0.7818608E-02  0.8331721E-01
          1   -1    0    0  501    0  0.00000000000E+00  0.00000000000E+00  0.11131988809E+04  0.11131988809E+04  0.00000000000E+00 0.  1.
         -1   -1    0    0    0  501 -0.00000000000E+00 -0.00000000000E+00 -0.16494992321E+04  0.16494992321E+04  0.00000000000E+00 0. -1.
         23    2    1    2    0    0 -0.11448152890E+01  0.13530030689E+04 -0.30264415889E+03  0.13896672207E+04  0.94672500784E+02 0.  0.
         11    1    3    3    0    0  0.39160565187E+02  0.61412912567E+03 -0.11136457056E+03  0.62537204961E+03  0.00000000000E+00 0. -1.
        -11    1    3    3    0    0 -0.40305380476E+02  0.73887394320E+03 -0.19127958832E+03  0.76429517109E+03  0.00000000000E+00 0.  1.
         22    1    1    2    0    0  0.11448152890E+01 -0.13530030689E+04 -0.23365619236E+03  0.13730308923E+04  0.00000000000E+00 0.  1.
<mgrwt>
<rscale>  0 0.27101444E+04</rscale>
<asrwt>0</asrwt>
<pdfrwt beam="1">  1        1 0.17126137E+00 0.27101444E+04</pdfrwt>
<pdfrwt beam="2">  1       -1 0.25376911E+00 0.27101444E+04</pdfrwt>
<totfact> 0.71215836E-01</totfact>
</mgrwt>
</event>
<event>
 6    1  0.1878398E-004  0.2142290E+04  0.7818608E-02  0.8542840E-01
          2   -1    0    0  501    0  0.00000000000E+00  0.00000000000E+00  0.56871730162E+03  0.56871730162E+03  0.00000000000E+00 0.  1.
         -2   -1    0    0    0  501 -0.00000000000E+00 -0.00000000000E+00 -0.20174379351E+04  0.20174379351E+04  0.00000000000E+00 0. -1.
         23    2    1    2    0    0 -0.33909503697E+03  0.35044989479E+03  0.42304631597E+03  0.65190807415E+03  0.90638726966E+02 0.  0.
         11    1    3    3    0    0 -0.23900103631E+03  0.29020135336E+03  0.35294039099E+03  0.51566000469E+03  0.00000000000E+00 0. -1.
        -11    1    3    3    0    0 -0.10009400066E+03  0.60248541432E+02  0.70105924981E+02  0.13624806945E+03  0.00000000000E+00 0.  1.
         22    1    1    2    0    0  0.33909503697E+03 -0.35044989479E+03 -0.18717669494E+04  0.19342471625E+04  0.00000000000E+00 0. -1.
<mgrwt>
<rscale>  0 0.21422902E+04</rscale>
<asrwt>0</asrwt>
<pdfrwt beam="1">  1        2 0.87494970E-01 0.21422902E+04</pdfrwt>
<pdfrwt beam="2">  1       -2 0.31037507E+00 0.21422902E+04</pdfrwt>
<totfact> 0.13347136E+00</totfact>
</mgrwt>
</event>
<event>
 6    1  0.1878398E-004  0.2267933E+04  0.7818608E-02  0.8490673E-01
         -2   -1    0    0    0  501 -0.00000000000E+00  0.00000000000E+00  0.74165494291E+03  0.74165494291E+03  0.00000000000E+00 0. -1.
          2   -1    0    0  501    0  0.00000000000E+00 -0.00000000000E+00 -0.17337984816E+04  0.17337984816E+04  0.00000000000E+00 0.  1.
         23    2    1    2    0    0 -0.69411905910E+03  0.62496672689E+03  0.19992974262E+03  0.96104813333E+03  0.10609870245E+03 0.  0.
         13    1    3    3    0    0 -0.29953087201E+03  0.31454782000E+03  0.13479965990E+03  0.45478568872E+03  0.00000000000E+00 0.  1.
        -13    1    3    3    0    0 -0.39458818709E+03  0.31041890690E+03  0.65130082717E+02  0.50626244461E+03  0.00000000000E+00 0. -1.
         22    1    1    2    0    0  0.69411905910E+03 -0.62496672689E+03 -0.11920732813E+04  0.15144052912E+04  0.00000000000E+00 0.  1.
<mgrwt>
<rscale>  0 0.22679332E+04</rscale>
<asrwt>0</asrwt>
<pdfrwt beam="1">  1        2 0.26673823E+00 0.22679332E+04</pdfrwt>
<pdfrwt beam="2">  1       -2 0.11410076E+00 0.22679332E+04</pdfrwt>
<totfact> 0.51314575E+00</totfact>
</mgrwt>
</event>
<event>
 6    1  0.1878398E-004  0.2559880E+04  0.7818608E-02  0.8381958E-01
          2   -1    0    0  501    0  0.00000000000E+00  0.00000000000E+00  0.21634967054E+04  0.21634967054E+04  0.00000000000E+00 0.  1.
         -2   -1    0    0    0  501 -0.00000000000E+00 -0.00000000000E+00 -0.75722156483E+03  0.75722156483E+03  0.00000000000E+00 0. -1.
         23    2    1    2    0    0 -0.10328883017E+04  0.41024855633E+03  0.14247215339E+04  0.18091867182E+04  0.90349380039E+02 0.  0.
         11    1    3    3    0    0 -0.64769923116E+03  0.30354169888E+03  0.90573249250E+03  0.11541244322E+04  0.00000000000E+00 0. -1.
        -11    1    3    3    0    0 -0.38518907056E+03  0.10670685745E+03  0.51898904136E+03  0.65506228601E+03  0.00000000000E+00 0.  1.
         22    1    1    2    0    0  0.10328883017E+04 -0.41024855633E+03 -0.18446393255E+02  0.11115315521E+04  0.00000000000E+00 0. -1.
<mgrwt>
<rscale>  0 0.25598800E+04</rscale>
<asrwt>0</asrwt>
<pdfrwt beam="1">  1        2 0.33284564E+00 0.25598800E+04</pdfrwt>
<pdfrwt beam="2">  1       -2 0.11649563E+00 0.25598800E+04</pdfrwt>
<totfact> 0.27446327E+00</totfact>
</mgrwt>
</event>
<event>
 6    1  0.1878398E-004  0.2125076E+04  0.7818608E-02  0.8550277E-01
         -2   -1    0    0    0  501 -0.00000000000E+00  0.00000000000E+00  0.74514128072E+03  0.74514128072E+03  0.00000000000E+00 0. -1.
          2   -1    0    0  501    0  0.00000000000E+00 -0.00000000000E+00 -0.15151321763E+04  0.15151321763E+04  0.00000000000E+00 0.  1.
         23    2    1    2    0    0  0.96050405547E+03 -0.59708873341E+02  0.87791959439E+02  0.97111690466E+03  0.96059482857E+02 0.  0.
         11    1    3    3    0    0  0.53942180990E+03 -0.68509595691E+02  0.81998122616E+02  0.54990285125E+03  0.00000000000E+00 0.  1.
        -11    1    3    3    0    0  0.42108224557E+03  0.88007223506E+01  0.57938368235E+01  0.42121405341E+03  0.00000000000E+00 0. -1.
         22    1    1    2    0    0 -0.96050405547E+03  0.59708873341E+02 -0.85778285502E+03  0.12891565524E+04  0.00000000000E+00 0.  1.
<mgrwt>
<rscale>  0 0.21250765E+04</rscale>
<asrwt>0</asrwt>
<pdfrwt beam="1">  1        2 0.23309726E+00 0.21250765E+04</pdfrwt>
<pdfrwt beam="2">  1       -2 0.11463712E+00 0.21250765E+04</pdfrwt>
<totfact> 0.68028157E+00</totfact>
</mgrwt>
</event>
<event>
 6    1  0.1878398E-004  0.1265287E+04  0.7818608E-02  0.9057555E-01
          2   -1    0    0  501    0  0.00000000000E+00  0.00000000000E+00  0.28860069591E+04  0.28860069591E+04  0.00000000000E+00 0.  1.
         -2   -1    0    0    0  501 -0.00000000000E+00 -0.00000000000E+00 -0.13868215005E+03  0.13868215005E+03  0.00000000000E+00 0. -1.
         23    2    1    2    0    0  0.18276054463E+03  0.47683165406E+03  0.22598840789E+04  0.23187370510E+04  0.93250300841E+02 0.  0.
         13    1    3    3    0    0  0.11177839650E+03  0.38950446043E+03  0.18341070525E+04  0.18783388445E+04  0.00000000000E+00 0. -1.
        -13    1    3    3    0    0  0.70982148126E+02  0.87327193630E+02  0.42577702643E+03  0.44039820655E+03  0.00000000000E+00 0.  1.
         22    1    1    2    0    0 -0.18276054463E+03 -0.47683165406E+03  0.48744073011E+03  0.70595205811E+03  0.00000000000E+00 0. -1.
<mgrwt>
<rscale>  0 0.12652868E+04</rscale>
<asrwt>0</asrwt>
<pdfrwt beam="1">  1        2 0.44400103E+00 0.12652868E+04</pdfrwt>
<pdfrwt beam="2">  1       -2 0.21335718E-01 0.12652868E+04</pdfrwt>
<totfact> 0.38795207E+01</totfact>
</mgrwt>
</event>
<event>
 6    1  0.1878398E-004  0.1034967E+04  0.7818608E-02  0.9271004E-01
          2   -1    0    0  501    0  0.00000000000E+00  0.00000000000E+00  0.16342574513E+04  0.16342574513E+04  0.00000000000E+00 0.  1.
         -2   -1    0    0    0  501 -0.00000000000E+00 -0.00000000000E+00 -0.16385985238E+03  0.16385985238E+03  0.00000000000E+00 0. -1.
         23    2    1    2    0    0  0.24841757655E+03  0.42820764634E+03  0.97823675854E+03  0.11000518529E+04  0.89965786185E+02 0.  0.
         11    1    3    3    0    0  0.78828757390E+02  0.64514862764E+02  0.19995645437E+03  0.22440749576E+03  0.00000000000E+00 0.  1.
        -11    1    3    3    0    0  0.16958881916E+03  0.36369278358E+03  0.77828030417E+03  0.87564435719E+03  0.00000000000E+00 0. -1.
         22    1    1    2    0    0 -0.24841757655E+03 -0.42820764634E+03  0.49216084043E+03  0.69806545078E+03  0.00000000000E+00 0. -1.
<mgrwt>
<rscale>  0 0.10349670E+04</rscale>
<asrwt>0</asrwt>
<pdfrwt beam="1">  1        2 0.25142421E+00 0.10349670E+04</pdfrwt>
<pdfrwt beam="2">  1       -2 0.25209209E-01 0.10349670E+04</pdfrwt>
<totfact> 0.15022657E+02</totfact>
</mgrwt>
</event>
<event>
 6    1  0.1878398E-004  0.1364505E+04  0.7818608E-02  0.8979920E-01
         -2   -1    0    0    0  501 -0.00000000000E+00  0.00000000000E+00  0.36363123875E+03  0.36363123875E+03  0.00000000000E+00 0. -1.
          2   -1    0    0  501    0  0.00000000000E+00 -0.00000000000E+00 -0.12800570560E+04  0.12800570560E+04  0.00000000000E+00 0.  1.
         23    2    1    2    0    0  0.25141754991E+03 -0.11850948339E+03  0.28514312175E+03  0.41039060270E+03  0.99290305876E+02 0.  0.
         11    1    3    3    0    0  0.19674084478E+03 -0.10614028129E+03  0.16510285784E+03  0.27790587072E+03  0.00000000000E+00 0.  1.
        -11    1    3    3    0    0  0.54676705137E+02 -0.12369202102E+02  0.12004026392E+03  0.13248473198E+03  0.00000000000E+00 0. -1.
         22    1    1    2    0    0 -0.25141754991E+03  0.11850948339E+03 -0.12015689390E+04  0.12332976920E+04  0.00000000000E+00 0.  1.
<mgrwt>
<rscale>  0 0.13645054E+04</rscale>
<asrwt>0</asrwt>
<pdfrwt beam="1">  1        2 0.19693185E+00 0.13645054E+04</pdfrwt>
<pdfrwt beam="2">  1       -2 0.55943268E-01 0.13645054E+04</pdfrwt>
<totfact> 0.49716071E+01</totfact>
</mgrwt>
</event>
<event>
 6    1  0.1878398E-004  0.2446077E+04  0.7818608E-02  0.8422452E-01
          2   -1    0    0  501    0  0.00000000000E+00  0.00000000000E+00  0.16054552019E+04  0.16054552019E+04  0.00000000000E+00 0.  1.
         -2   -1    0    0    0  501 -0.00000000000E+00 -0.00000000000E+00 -0.93171301460E+03  0.93171301460E+03  0.00000000000E+00 0. -1.
         23    2    1    2    0    0  0.51034004362E+03  0.11074129902E+04  0.26450885350E+03  0.12509791120E+04  0.90406384268E+02 0.  0.
         13    1    3    3    0    0  0.32008373044E+03  0.60836599809E+03  0.17607755418E+03  0.70962390546E+03  0.00000000000E+00 0. -1.
        -13    1    3    3    0    0  0.19025631318E+03  0.49904699206E+03  0.88431299321E+02  0.54135520658E+03  0.00000000000E+00 0.  1.
         22    1    1    2    0    0 -0.51034004362E+03 -0.11074129902E+04  0.40923333377E+03  0.12861891044E+04  0.00000000000E+00 0.  1.
<mgrwt>
<rscale>  0 0.24460773E+04</rscale>
<asrwt>0</asrwt>
<pdfrwt beam="1">  1        2 0.24699311E+00 0.24460773E+04</pdfrwt>
<pdfrwt beam="2">  1       -2 0.14334046E+00 0.24460773E+04</pdfrwt>
<totfact> 0.33508734E+00</totfact>
</mgrwt>
</event>
<event>
 6    1  0.1878398E-004  0.7532202E+03  0.7818608E-02  0.9630312E-01
          2   -1    0    0  501    0  0.00000000000E+00  0.00000000000E+00  0.13985348502E+03  0.13985348502E+03  0.00000000000E+00 0.  1.
         -2   -1    0    0    0  501 -0.00000000000E+00 -0.00000000000E+00 -0.10141695880E+04  0.10141695880E+04  0.00000000000E+00 0. -1.
         23    2    1    2    0    0 -0.32667659069E+03 -0.53962954139E+02 -0.18569625971E+03  0.38993742083E+03  0.89098237752E+02 0.  0.
         13    1    3    3    0    0 -0.24784156170E+03 -0.15104603542E+02 -0.16930841037E+03  0.30053107423E+03  0.00000000000E+00 0. -1.
        -13    1    3    3    0    0 -0.78835028993E+02 -0.38858350597E+02 -0.16387849337E+02  0.89406346606E+02  0.00000000000E+00 0.  1.
         22    1    1    2    0    0  0.32667659069E+03  0.53962954139E+02 -0.68861984331E+03  0.76408565222E+03  0.00000000000E+00 0. -1.
<mgrwt>
<rscale>  0 0.75322016E+03</rscale>
<asrwt>0</asrwt>
<pdfrwt beam="1">  1        2 0.21515921E-01 0.75322016E+03</pdfrwt>
<pdfrwt beam="2">  1       -2 0.15602609E+00 0.75322016E+03</pdfrwt>
<totfact> 0.71127110E+01</totfact>
</mgrwt>
</event>
<event>
 6    1  0.1878398E-004  0.4571043E+04  0.7818608E-02  0.7898316E-01
          2   -1    0    0  501    0  0.00000000000E+00  0.00000000000E+00  0.19687862487E+04  0.19687862487E+04  0.00000000000E+00 0.  1.
         -2   -1    0    0    0  501 -0.00000000000E+00 -0.00000000000E+00 -0.26532120895E+04  0.26532120895E+04  0.00000000000E+00 0. -1.
         23    2    1    2    0    0 -0.73940519905E+03  0.10482075999E+04 -0.22539282465E+04  0.25949815591E+04  0.90980936410E+02 0.  0.
         13    1    3    3    0    0 -0.14551363302E+03  0.15261373229E+03 -0.39698518291E+03  0.44951351940E+03  0.00000000000E+00 0. -1.
        -13    1    3    3    0    0 -0.59389156603E+03  0.89559386764E+03 -0.18569430636E+04  0.21454680397E+04  0.00000000000E+00 0.  1.
         22    1    1    2    0    0  0.73940519905E+03 -0.10482075999E+04  0.15695024057E+04  0.20270167790E+04  0.00000000000E+00 0.  1.
<mgrwt>
<rscale>  0 0.45710425E+04</rscale>
<asrwt>0</asrwt>
<pdfrwt beam="1">  1        2 0.30289019E+00 0.45710425E+04</pdfrwt>
<pdfrwt beam="2">  1       -2 0.40818647E+00 0.45710425E+04</pdfrwt>
<totfact> 0.34374772E-02</totfact>
</mgrwt>
</event>
<event>
 6    1  0.1878398E-004  0.6827856E+03  0.7818608E-02  0.9747132E-01
         -1   -1    0    0    0  501 -0.00000000000E+00  0.00000000000E+00  0.24402378564E+03  0.24402378564E+03  0.00000000000E+00 0. -1.
          1   -1    0    0  501    0  0.00000000000E+00 -0.00000000000E+00 -0.47761351299E+03  0.47761351299E+03  0.00000000000E+00 0.  1.
         23    2    1    2    0    0 -0.15390621831E+03 -0.23275966312E+03  0.77561690714E+02  0.30369066356E+03  0.91367491250E+02 0.  0.
         13    1    3    3    0    0 -0.54081827810E+02 -0.14804962533E+03  0.14243352062E+02  0.15826057227E+03  0.00000000000E+00 0.  1.
        -13    1    3    3    0    0 -0.99824390502E+02 -0.84710037790E+02  0.63318338652E+02  0.14543009128E+03  0.00000000000E+00 0. -1.
         22    1    1    2    0    0  0.15390621831E+03  0.23275966312E+03 -0.31115141806E+03  0.41794663507E+03  0.00000000000E+00 0.  1.
<mgrwt>
<rscale>  0 0.68278564E+03</rscale>
<asrwt>0</asrwt>
<pdfrwt beam="1">  1        1 0.73479002E-01 0.68278564E+03</pdfrwt>
<pdfrwt beam="2">  1       -1 0.37542121E-01 0.68278564E+03</pdfrwt>
<totfact> 0.32680888E+02</totfact>
</mgrwt>
</event>
<event>
 6    1  0.1878398E-004  0.1260604E+04  0.7818608E-02  0.9061404E-01
         -2   -1    0    0    0  501 -0.00000000000E+00  0.00000000000E+00  0.42802383684E+03  0.42802383684E+03  0.00000000000E+00 0. -1.
          2   -1    0    0  501    0  0.00000000000E+00 -0.00000000000E+00 -0.92817372543E+03  0.92817372543E+03  0.00000000000E+00 0.  1.
         23    2    1    2    0    0 -0.26347368700E+03 -0.19683381154E+03  0.32297517008E+03  0.46980216781E+03  0.90769947016E+02 0.  0.
         13    1    3    3    0    0 -0.23533653739E+03 -0.13054679247E+03  0.25785726585E+03  0.37271452937E+03  0.00000000000E+00 0.  1.
        -13    1    3    3    0    0 -0.28137149615E+02 -0.66287019072E+02  0.65117904222E+02  0.97087638431E+02  0.00000000000E+00 0. -1.
         22    1    1    2    0    0  0.26347368700E+03  0.19683381154E+03 -0.82312505867E+03  0.88639539446E+03  0.00000000000E+00 0.  1.
<mgrwt>
<rscale>  0 0.12606038E+04</rscale>
<asrwt>0</asrwt>
<pdfrwt beam="1">  1        2 0.14279596E+00 0.12606038E+04</pdfrwt>
<pdfrwt beam="2">  1       -2 0.65849822E-01 0.12606038E+04</pdfrwt>
<totfact> 0.58580515E+01</totfact>
</mgrwt>
</event>
<event>
 6    1  0.1878398E-004  0.3525071E+04  0.7818608E-02  0.8107874E-01
         -1   -1    0    0    0  501 -0.00000000000E+00  0.00000000000E+00  0.12546705350E+04  0.12546705350E+04  0.00000000000E+00 0. -1.
          1   -1    0    0  501    0  0.00000000000E+00 -0.00000000000E+00 -0.24759743478E+04  0.24759743478E+04  0.00000000000E+00 0.  1.
         23    2    1    2    0    0  0.60884967561E+02  0.16791750655E+04 -0.11701918779E+04  0.20495891699E+04  0.90171249340E+02 0.  0.
         13    1    3    3    0    0  0.63062046263E+02  0.99875923482E+03 -0.65350146589E+03  0.11952242454E+04  0.00000000000E+00 0.  1.
        -13    1    3    3    0    0 -0.21770787024E+01  0.68041583071E+03 -0.51669041205E+03  0.85436492452E+03  0.00000000000E+00 0. -1.
         22    1    1    2    0    0 -0.60884967561E+02 -0.16791750655E+04 -0.51111934766E+02  0.16810557129E+04  0.00000000000E+00 0.  1.
<mgrwt>
<rscale>  0 0.35250714E+04</rscale>
<asrwt>0</asrwt>
<pdfrwt beam="1">  1        1 0.38091913E+00 0.35250714E+04</pdfrwt>
<pdfrwt beam="2">  1       -1 0.19302624E+00 0.35250714E+04</pdfrwt>
<totfact> 0.19283352E-01</totfact>
</mgrwt>
</event>
<event>
 6    1  0.1878398E-004  0.9520533E+03  0.7818608E-02  0.9362754E-01
          2   -1    0    0  501    0  0.00000000000E+00  0.00000000000E+00  0.13161979503E+04  0.13161979503E+04  0.00000000000E+00 0.  1.
         -2   -1    0    0    0  501 -0.00000000000E+00 -0.00000000000E+00 -0.17216357950E+03  0.17216357950E+03  0.00000000000E+00 0. -1.
         23    2    1    2    0    0 -0.21546691308E+03 -0.41871460966E+03  0.53219941561E+03  0.71629292704E+03  0.89952344962E+02 0.  0.
         11    1    3    3    0    0 -0.36414941337E+02 -0.77359958515E+02  0.50318801253E+02  0.99209842725E+02  0.00000000000E+00 0.  1.
        -11    1    3    3    0    0 -0.17905197174E+03 -0.34135465115E+03  0.48188061436E+03  0.61708308431E+03  0.00000000000E+00 0. -1.
         22    1    1    2    0    0  0.21546691308E+03  0.41871460966E+03  0.61183495515E+03  0.77206860273E+03  0.00000000000E+00 0. -1.
<mgrwt>
<rscale>  0 0.95205326E+03</rscale>
<asrwt>0</asrwt>
<pdfrwt beam="1">  1        2 0.20249199E+00 0.95205326E+03</pdfrwt>
<pdfrwt beam="2">  1       -2 0.26486705E-01 0.95205326E+03</pdfrwt>
<totfact> 0.20869332E+02</totfact>
</mgrwt>
</event>
<event>
 6    1  0.1878398E-004  0.1734226E+04  0.7818608E-02  0.8742081E-01
         -2   -1    0    0    0  501 -0.00000000000E+00  0.00000000000E+00  0.37449914203E+03  0.37449914203E+03  0.00000000000E+00 0. -1.
          2   -1    0    0  501    0  0.00000000000E+00 -0.00000000000E+00 -0.20077075805E+04  0.20077075805E+04  0.00000000000E+00 0.  1.
         23    2    1    2    0    0  0.40446987854E+02  0.83586930936E+03 -0.11184045879E+04  0.13996913457E+04  0.89406822476E+02 0.  0.
         13    1    3    3    0    0  0.32085674170E+02  0.24273422411E+03 -0.38734495206E+03  0.45824175490E+03  0.00000000000E+00 0.  1.
        -13    1    3    3    0    0  0.83613136842E+01  0.59313508525E+03 -0.73105963581E+03  0.94144959081E+03  0.00000000000E+00 0. -1.
         22    1    1    2    0    0 -0.40446987854E+02 -0.83586930936E+03 -0.51480385063E+03  0.98251537687E+03  0.00000000000E+00 0.  1.
<mgrwt>
<rscale>  0 0.17342258E+04</rscale>
<asrwt>0</asrwt>
<pdfrwt beam="1">  1        2 0.30887809E+00 0.17342258E+04</pdfrwt>
<pdfrwt beam="2">  1       -2 0.57615252E-01 0.17342258E+04</pdfrwt>
<totfact> 0.17713000E+01</totfact>
</mgrwt>
</event>
<event>
 6    1  0.1878398E-004  0.3854485E+04  0.7818608E-02  0.8034563E-01
         -2   -1    0    0    0  501 -0.00000000000E+00  0.00000000000E+00  0.21482015652E+04  0.21482015652E+04  0.00000000000E+00 0. -1.
          2   -1    0    0  501    0  0.00000000000E+00 -0.00000000000E+00 -0.17290110036E+04  0.17290110036E+04  0.00000000000E+00 0.  1.
         23    2    1    2    0    0 -0.50929611127E+03  0.13671576907E+04  0.14747433589E+04  0.20764642832E+04  0.91286716484E+02 0.  0.
         13    1    3    3    0    0 -0.41639041726E+03  0.10314103928E+04  0.10874975293E+04  0.15555832521E+04  0.00000000000E+00 0. -1.
        -13    1    3    3    0    0 -0.92905694005E+02  0.33574729783E+03  0.38724582958E+03  0.52088103105E+03  0.00000000000E+00 0.  1.
         22    1    1    2    0    0  0.50929611127E+03 -0.13671576907E+04 -0.10555527974E+04  0.18007482856E+04  0.00000000000E+00 0.  1.
<mgrwt>
<rscale>  0 0.38544853E+04</rscale>
<asrwt>0</asrwt>
<pdfrwt beam="1">  1        2 0.26600169E+00 0.38544853E+04</pdfrwt>
<pdfrwt beam="2">  1       -2 0.33049255E+00 0.38544853E+04</pdfrwt>
<totfact> 0.15544708E-01</totfact>
</mgrwt>
</event>
<event>
 6    1  0.1878398E-004  0.4528104E+04  0.7818608E-02  0.7905735E-01
          2   -1    0    0  501    0  0.00000000000E+00  0.00000000000E+00  0.23468948807E+04  0.23468948807E+04  0.00000000000E+00 0.  1.
         -2   -1    0    0    0  501 -0.00000000000E+00 -0.00000000000E+00 -0.21841331829E+04  0.21841331829E+04  0.00000000000E+00 0. -1.
         23    2    1    2    0    0 -0.50445617394E+03  0.89411630274E+03  0.20995933523E+04  0.23389430169E+04  0.91881429491E+02 0.  0.
         13    1    3    3    0    0 -0.22827512735E+03  0.39448371994E+03  0.83003017911E+03  0.94693032336E+03  0.00000000000E+00 0.  1.
        -13    1    3    3    0    0 -0.27618104659E+03  0.49963258280E+03  0.12695631732E+04  0.13920126935E+04  0.00000000000E+00 0. -1.
         22    1    1    2    0    0  0.50445617394E+03 -0.89411630274E+03 -0.19368316545E+04  0.21920850468E+04  0.00000000000E+00 0. -1.
<mgrwt>
<rscale>  0 0.45281038E+04</rscale>
<asrwt>0</asrwt>
<pdfrwt beam="1">  1        2 0.36106075E+00 0.45281038E+04</pdfrwt>
<pdfrwt beam="2">  1       -2 0.33602049E+00 0.45281038E+04</pdfrwt>
<totfact> 0.61371891E-02</totfact>
</mgrwt>
</event>
<event>
 6    1  0.1878398E-004  0.2334274E+04  0.7818608E-02  0.8464529E-01
          1   -1    0    0  501    0  0.00000000000E+00  0.00000000000E+00  0.64136179098E+03  0.64136179098E+03  0.00000000000E+00 0.  1.
         -1   -1    0    0    0  501 -0.00000000000E+00 -0.00000000000E+00 -0.21239322411E+04  0.21239322411E+04  0.00000000000E+00 0. -1.
         23    2    1    2    0    0  0.89790189390E+03  0.71234336286E+03 -0.49276691950E+03  0.12509057375E+04  0.91022246542E+02 0.  0.
         13    1    3    3    0    0  0.60331190809E+03  0.45087775590E+03 -0.36384427991E+03  0.83645601751E+03  0.00000000000E+00 0.  1.
        -13    1    3    3    0    0  0.29458998581E+03  0.26146560696E+03 -0.12892263959E+03  0.41444971995E+03  0.00000000000E+00 0. -1.
         22    1    1    2    0    0 -0.89790189390E+03 -0.71234336286E+03 -0.98980353062E+03  0.15143882946E+04  0.00000000000E+00 0. -1.
<mgrwt>
<rscale>  0 0.23342742E+04</rscale>
<asrwt>0</asrwt>
<pdfrwt beam="1">  1        1 0.98671046E-01 0.23342742E+04</pdfrwt>
<pdfrwt beam="2">  1       -1 0.32675880E+00 0.23342742E+04</pdfrwt>
<totfact> 0.61920734E-01</totfact>
</mgrwt>
</event>
<event>
 6    1  0.1878398E-004  0.1431089E+04  0.7818608E-02  0.8931617E-01
          2   -1    0    0  501    0  0.00000000000E+00  0.00000000000E+00  0.10665812567E+04  0.10665812567E+04  0.00000000000E+00 0.  1.
         -2   -1    0    0    0  501 -0.00000000000E+00 -0.00000000000E+00 -0.48004244528E+03  0.48004244528E+03  0.00000000000E+00 0. -1.
         23    2    1    2    0    0  0.17605157680E+03  0.48803887749E+03 -0.23343860871E+03  0.57629433875E+03  0.91899277517E+02 0.  0.
         13    1    3    3    0    0  0.10455991144E+03  0.36683819069E+03 -0.20385167000E+03  0.43250264345E+03  0.00000000000E+00 0. -1.
        -13    1    3    3    0    0  0.71491665353E+02  0.12120068680E+03 -0.29586938709E+02  0.14379169530E+03  0.00000000000E+00 0.  1.
         22    1    1    2    0    0 -0.17605157680E+03 -0.48803887749E+03  0.81997742014E+03  0.97032936324E+03  0.00000000000E+00 0.  1.
<mgrwt>
<rscale>  0 0.14310895E+04</rscale>
<asrwt>0</asrwt>
<pdfrwt beam="1">  1        2 0.16408942E+00 0.14310895E+04</pdfrwt>
<pdfrwt beam="2">  1       -2 0.73852684E-01 0.14310895E+04</pdfrwt>
<totfact> 0.36678196E+01</totfact>
</mgrwt>
</event>
<event>
 6    1  0.1878398E-004  0.5244459E+04  0.7818608E-02  0.7791865E-01
         -2   -1    0    0    0  501 -0.00000000000E+00  0.00000000000E+00  0.25760798352E+04  0.25760798352E+04  0.00000000000E+00 0. -1.
          2   -1    0    0  501    0  0.00000000000E+00 -0.00000000000E+00 -0.26692056942E+04  0.26692056942E+04  0.00000000000E+00 0.  1.
         23    2    1    2    0    0 -0.15620025091E+04 -0.17928526624E+04 -0.11503094616E+04  0.26430154287E+04  0.90256251802E+02 0.  0.
         11    1    3    3    0    0 -0.12062141620E+04 -0.13736207443E+04 -0.92541829556E+03  0.20489474311E+04  0.00000000000E+00 0. -1.
        -11    1    3    3    0    0 -0.35578834717E+03 -0.41923191806E+03 -0.22489116607E+03  0.59406799752E+03  0.00000000000E+00 0.  1.
         22    1    1    2    0    0  0.15620025091E+04  0.17928526624E+04  0.10571836027E+04  0.26022701008E+04  0.00000000000E+00 0. -1.
<mgrwt>
<rscale>  0 0.52444588E+04</rscale>
<asrwt>0</asrwt>
<pdfrwt beam="1">  1        2 0.41064703E+00 0.52444588E+04</pdfrwt>
<pdfrwt beam="2">  1       -2 0.39631998E+00 0.52444588E+04</pdfrwt>
<totfact> 0.15528197E-02</totfact>
</mgrwt>
</event>
<event>
 6    1  0.1878398E-004  0.2906428E+04  0.7818608E-02  0.8270967E-01
          2   -1    0    0  501    0  0.00000000000E+00  0.00000000000E+00  0.15702684600E+04  0.15702684600E+04  0.00000000000E+00 0.  1.
         -2   -1    0    0    0  501 -0.00000000000E+00 -0.00000000000E+00 -0.13448856193E+04  0.13448856193E+04  0.00000000000E+00 0. -1.
         23    2    1    2    0    0  0.12746500618E+03  0.14261611886E+04 -0.12677956797E+03  0.14406367258E+04  0.95802156195E+02 0.  0.
         13    1    3    3    0    0  0.36834843047E+02  0.50118688106E+03  0.64074464732E+00  0.50253905914E+03  0.00000000000E+00 0. -1.
        -13    1    3    3    0    0  0.90630163137E+02  0.92497430758E+03 -0.12742031262E+03  0.93809766667E+03  0.00000000000E+00 0.  1.
         22    1    1    2    0    0 -0.12746500618E+03 -0.14261611886E+04  0.35216240862E+03  0.14745173535E+04  0.00000000000E+00 0. -1.
<mgrwt>
<rscale>  0 0.29064284E+04</rscale>
<asrwt>0</asrwt>
<pdfrwt beam="1">  1        2 0.24157976E+00 0.29064284E+04</pdfrwt>
<pdfrwt beam="2">  1       -2 0.20690548E+00 0.29064284E+04</pdfrwt>
<totfact> 0.11986413E+00</totfact>
</mgrwt>
</event>
<event>
 6    1  0.1878398E-004  0.4423061E+04  0.7818608E-02  0.7924247E-01
          2   -1    0    0  501    0  0.00000000000E+00  0.00000000000E+00  0.30551742295E+04  0.30551742295E+04  0.00000000000E+00 0.  1.
         -2   -1    0    0    0  501 -0.00000000000E+00 -0.00000000000E+00 -0.16008472814E+04  0.16008472814E+04  0.00000000000E+00 0. -1.
         23    2    1    2    0    0  0.17638883824E+04  0.40712416916E+03 -0.60799361086E+03  0.19118971691E+04  0.92963647457E+02 0.  0.
         11    1    3    3    0    0  0.11227441303E+04  0.28069851883E+03 -0.42996078464E+03  0.12345899388E+04  0.00000000000E+00 0. -1.
        -11    1    3    3    0    0  0.64114425206E+03  0.12642565033E+03 -0.17803282622E+03  0.67730723031E+03  0.00000000000E+00 0.  1.
         22    1    1    2    0    0 -0.17638883824E+04 -0.40712416916E+03  0.20623205590E+04  0.27441243417E+04  0.00000000000E+00 0.  1.
<mgrwt>
<rscale>  0 0.44230611E+04</rscale>
<asrwt>0</asrwt>
<pdfrwt beam="1">  1        2 0.47002680E+00 0.44230611E+04</pdfrwt>
<pdfrwt beam="2">  1       -2 0.24628420E+00 0.44230611E+04</pdfrwt>
<totfact> 0.82947698E-02</totfact>
</mgrwt>
</event>
<event>
 6    1  0.1878398E-004  0.4013818E+04  0.7818608E-02  0.8001765E-01
          2   -1    0    0  501    0  0.00000000000E+00  0.00000000000E+00  0.13962632307E+04  0.13962632307E+04  0.00000000000E+00 0.  1.
         -2   -1    0    0    0  501 -0.00000000000E+00 -0.00000000000E+00 -0.28846163881E+04  0.28846163881E+04  0.00000000000E+00 0. -1.
         23    2    1    2    0    0  0.68262304036E+03  0.25978305691E+03  0.12478960655E+04  0.14488271367E+04  0.91618937745E+02 0.  0.
         11    1    3    3    0    0  0.32338408718E+03  0.16723022746E+03  0.65721251028E+03  0.75131318402E+03  0.00000000000E+00 0.  1.
        -11    1    3    3    0    0  0.35923895319E+03  0.92552829453E+02  0.59068355524E+03  0.69751395266E+03  0.00000000000E+00 0. -1.
         22    1    1    2    0    0 -0.68262304036E+03 -0.25978305691E+03 -0.27362492229E+04  0.28320524821E+04  0.00000000000E+00 0. -1.
<mgrwt>
<rscale>  0 0.40138180E+04</rscale>
<asrwt>0</asrwt>
<pdfrwt beam="1">  1        2 0.21480973E+00 0.40138180E+04</pdfrwt>
<pdfrwt beam="2">  1       -2 0.44378713E+00 0.40138180E+04</pdfrwt>
<totfact> 0.43717857E-02</totfact>
</mgrwt>
</event>
<event>
 6    1  0.1878398E-004  0.1790646E+04  0.7818608E-02  0.8711290E-01
         -2   -1    0    0    0  501 -0.00000000000E+00  0.00000000000E+00  0.34577143971E+03  0.34577143971E+03  0.00000000000E+00 0. -1.
          2   -1    0    0  501    0  0.00000000000E+00 -0.00000000000E+00 -0.23183027446E+04  0.23183027446E+04  0.00000000000E+00 0.  1.
         23    2    1    2    0    0  0.57195872683E+03 -0.23350426995E+03 -0.19481404765E+04  0.20458056813E+04  0.91698092516E+02 0.  0.
         13    1    3    3    0    0  0.49586917796E+03 -0.22246373207E+03 -0.16183428273E+04  0.17071642746E+04  0.00000000000E+00 0.  1.
        -13    1    3    3    0    0  0.76089548865E+02 -0.11040537874E+02 -0.32979764919E+03  0.33864140671E+03  0.00000000000E+00 0. -1.
         22    1    1    2    0    0 -0.57195872683E+03  0.23350426995E+03 -0.24390828359E+02  0.61826850299E+03  0.00000000000E+00 0. -1.
<mgrwt>
<rscale>  0 0.17906456E+04</rscale>
<asrwt>0</asrwt>
<pdfrwt beam="1">  1        2 0.35666198E+00 0.17906456E+04</pdfrwt>
<pdfrwt beam="2">  1       -2 0.53195604E-01 0.17906456E+04</pdfrwt>
<totfact> 0.13941459E+01</totfact>
</mgrwt>
</event>
<event>
 6    1  0.1878398E-004  0.2460385E+04  0.7818608E-02  0.8417236E-01
          2   -1    0    0  501    0  0.00000000000E+00  0.00000000000E+00  0.33029692904E+04  0.33029692904E+04  0.00000000000E+00 0.  1.
         -2   -1    0    0    0  501 -0.00000000000E+00 -0.00000000000E+00 -0.45818575055E+03  0.45818575055E+03  0.00000000000E+00 0. -1.
         23    2    1    2    0    0 -0.66898861782E+03  0.60006752762E+03  0.14306973556E+03  0.91389595740E+03  0.84321191028E+02 0.  0.
         13    1    3    3    0    0 -0.42813332061E+03  0.43278368338E+03  0.11225156472E+03  0.61903172019E+03  0.00000000000E+00 0.  1.
        -13    1    3    3    0    0 -0.24085529721E+03  0.16728384424E+03  0.30818170838E+02  0.29486423722E+03  0.00000000000E+00 0. -1.
         22    1    1    2    0    0  0.66898861782E+03 -0.60006752762E+03  0.27017138043E+04  0.28472590836E+04  0.00000000000E+00 0.  1.
<mgrwt>
<rscale>  0 0.24603849E+04</rscale>
<asrwt>0</asrwt>
<pdfrwt beam="1">  1        2 0.50814911E+00 0.24603849E+04</pdfrwt>
<pdfrwt beam="2">  1       -2 0.70490117E-01 0.24603849E+04</pdfrwt>
<totfact> 0.18180334E+00</totfact>
</mgrwt>
</event>
<event>
 6    1  0.1878398E-004  0.6042625E+04  0.7818608E-02  0.7685139E-01
          2   -1    0    0  501    0  0.00000000000E+00  0.00000000000E+00  0.28380969070E+04  0.28380969070E+04  0.00000000000E+00 0.  1.
         -2   -1    0    0    0  501 -0.00000000000E+00 -0.00000000000E+00 -0.32163554704E+04  0.32163554704E+04  0.00000000000E+00 0. -1.
         23    2    1    2    0    0  0.22717620015E+04 -0.18899592116E+04 -0.81601622357E+03  0.30670655290E+04  0.90333099378E+02 0.  0.
         13    1    3    3    0    0  0.18242075042E+04 -0.14823509156E+04 -0.62352608964E+03  0.24318474541E+04  0.00000000000E+00 0.  1.
        -13    1    3    3    0    0  0.44755449732E+03 -0.40760829600E+03 -0.19249013393E+03  0.63521807491E+03  0.00000000000E+00 0. -1.
         22    1    1    2    0    0 -0.22717620015E+04  0.18899592116E+04  0.43775766015E+03  0.29873868484E+04  0.00000000000E+00 0. -1.
<mgrwt>
<rscale>  0 0.60426248E+04</rscale>
<asrwt>0</asrwt>
<pdfrwt beam="1">  1        2 0.43663030E+00 0.60426248E+04</pdfrwt>
<pdfrwt beam="2">  1       -2 0.49482392E+00 0.60426248E+04</pdfrwt>
<totfact> 0.26415761E-03</totfact>
</mgrwt>
</event>
<event>
 6    1  0.1878398E-004  0.1041823E+04  0.7818608E-02  0.9263827E-01
         -1   -1    0    0    0  501 -0.00000000000E+00  0.00000000000E+00  0.19059205618E+04  0.19059205618E+04  0.00000000000E+00 0.  1.
          1   -1    0    0  501    0  0.00000000000E+00 -0.00000000000E+00 -0.14237145820E+03  0.14237145820E+03  0.00000000000E+00 0. -1.
         23    2    1    2    0    0 -0.20181762710E+02  0.27204902539E+03  0.17517348786E+04  0.17752397325E+04  0.92103460431E+02 0.  0.
         11    1    3    3    0    0  0.10797440160E+02  0.83446840674E+02  0.32310548422E+03  0.33388188610E+03  0.00000000000E+00 0. -1.
        -11    1    3    3    0    0 -0.30979202870E+02  0.18860218472E+03  0.14286293944E+04  0.14413578464E+04  0.00000000000E+00 0.  1.
         22    1    1    2    0    0  0.20181762710E+02 -0.27204902539E+03  0.11814225012E+02  0.27305228744E+03  0.00000000000E+00 0. -1.
<mgrwt>
<rscale>  0 0.10418228E+04</rscale>
<asrwt>0</asrwt>
<pdfrwt beam="1">  1        1 0.21903303E-01 0.10418228E+04</pdfrwt>
<pdfrwt beam="2">  1       -1 0.29321853E+00 0.10418228E+04</pdfrwt>
<totfact> 0.85863156E+00</totfact>
</mgrwt>
</event>
<event>
 6    1  0.1878398E-004  0.3576945E+04  0.7818608E-02  0.8095793E-01
         -2   -1    0    0    0  501 -0.00000000000E+00  0.00000000000E+00  0.11356162360E+04  0.11356162360E+04  0.00000000000E+00 0. -1.
          2   -1    0    0  501    0  0.00000000000E+00 -0.00000000000E+00 -0.28166507241E+04  0.28166507241E+04  0.00000000000E+00 0.  1.
         23    2    1    2    0    0  0.13799273456E+04  0.28121207573E+03  0.37497885025E+03  0.14601853888E+04  0.90843385456E+02 0.  0.
         13    1    3    3    0    0  0.68833772556E+03  0.17303135157E+03  0.15553121226E+03  0.72659385563E+03  0.00000000000E+00 0. -1.
        -13    1    3    3    0    0  0.69158962007E+03  0.10818072416E+03  0.21944763799E+03  0.73359153314E+03  0.00000000000E+00 0.  1.
         22    1    1    2    0    0 -0.13799273456E+04 -0.28121207573E+03 -0.20560133383E+04  0.24920815713E+04  0.00000000000E+00 0.  1.
<mgrwt>
<rscale>  0 0.35769452E+04</rscale>
<asrwt>0</asrwt>
<pdfrwt beam="1">  1        2 0.43333088E+00 0.35769452E+04</pdfrwt>
<pdfrwt beam="2">  1       -2 0.17471019E+00 0.35769452E+04</pdfrwt>
<totfact> 0.36402340E-01</totfact>
</mgrwt>
</event>
<event>
 6    1  0.1878398E-004  0.3106634E+04  0.7818608E-02  0.8213920E-01
          2   -1    0    0  501    0  0.00000000000E+00  0.00000000000E+00  0.36563559856E+04  0.36563559856E+04  0.00000000000E+00 0.  1.
         -2   -1    0    0    0  501 -0.00000000000E+00 -0.00000000000E+00 -0.65989005905E+03  0.65989005905E+03  0.00000000000E+00 0. -1.
         23    2    1    2    0    0  0.40505350622E+03  0.47620481874E+03 -0.47398286555E+03  0.78993718255E+03  0.92204247449E+02 0.  0.
         13    1    3    3    0    0  0.75568445261E+02  0.14537782933E+03 -0.14468749844E+03  0.21858585358E+03  0.00000000000E+00 0. -1.
        -13    1    3    3    0    0  0.32948506096E+03  0.33082698941E+03 -0.32929536711E+03  0.57135132897E+03  0.00000000000E+00 0.  1.
         22    1    1    2    0    0 -0.40505350622E+03 -0.47620481874E+03  0.34704487921E+04  0.35263088621E+04  0.00000000000E+00 0.  1.
<mgrwt>
<rscale>  0 0.31066335E+04</rscale>
<asrwt>0</asrwt>
<pdfrwt beam="1">  1        2 0.56251629E+00 0.31066335E+04</pdfrwt>
<pdfrwt beam="2">  1       -2 0.10152155E+00 0.31066335E+04</pdfrwt>
<totfact> 0.42443466E-01</totfact>
</mgrwt>
</event>
<event>
 6    1  0.1878398E-004  0.6291871E+04  0.7818608E-02  0.7655230E-01
         -2   -1    0    0    0  501 -0.00000000000E+00  0.00000000000E+00  0.36375597634E+04  0.36375597634E+04  0.00000000000E+00 0. -1.
          2   -1    0    0  501    0  0.00000000000E+00 -0.00000000000E+00 -0.27207553372E+04  0.27207553372E+04  0.00000000000E+00 0.  1.
         23    2    1    2    0    0 -0.17915116601E+03 -0.29533722373E+04  0.15367277777E+04  0.33352690086E+04  0.89355385700E+02 0.  0.
         11    1    3    3    0    0 -0.69961450785E+02 -0.16234612861E+04  0.88225343881E+03  0.18490246841E+04  0.00000000000E+00 0. -1.
        -11    1    3    3    0    0 -0.10918971522E+03 -0.13299109512E+04  0.65447433890E+03  0.14862443245E+04  0.00000000000E+00 0.  1.
         22    1    1    2    0    0  0.17915116601E+03  0.29533722373E+04 -0.61992335155E+03  0.30230460919E+04  0.00000000000E+00 0. -1.
<mgrwt>
<rscale>  0 0.62918710E+04</rscale>
<asrwt>0</asrwt>
<pdfrwt beam="1">  1        2 0.41857774E+00 0.62918710E+04</pdfrwt>
<pdfrwt beam="2">  1       -2 0.55962458E+00 0.62918710E+04</pdfrwt>
<totfact> 0.13250540E-03</totfact>
</mgrwt>
</event>
<event>
 6    1  0.1878398E-004  0.1368639E+04  0.7818608E-02  0.8976837E-01
         -2   -1    0    0    0  501 -0.00000000000E+00  0.00000000000E+00  0.17388968598E+03  0.17388968598E+03  0.00000000000E+00 0. -1.
          2   -1    0    0  501    0  0.00000000000E+00 -0.00000000000E+00 -0.26930468826E+04  0.26930468826E+04  0.00000000000E+00 0.  1.
         23    2    1    2    0    0 -0.36989395464E+03 -0.55773318190E+03 -0.15319767315E+04  0.16742869509E+04  0.91631043943E+02 0.  0.
         11    1    3    3    0    0 -0.26659956113E+03 -0.33557692230E+03 -0.10340423550E+04  0.11193439100E+04  0.00000000000E+00 0. -1.
        -11    1    3    3    0    0 -0.10329439351E+03 -0.22215625960E+03 -0.49793437646E+03  0.55494304092E+03  0.00000000000E+00 0.  1.
         22    1    1    2    0    0  0.36989395464E+03  0.55773318190E+03 -0.98718046513E+03  0.11926496177E+04  0.00000000000E+00 0. -1.
<mgrwt>
<rscale>  0 0.13686389E+04</rscale>
<asrwt>0</asrwt>
<pdfrwt beam="1">  1        2 0.41431490E+00 0.13686389E+04</pdfrwt>
<pdfrwt beam="2">  1       -2 0.26752260E-01 0.13686389E+04</pdfrwt>
<totfact> 0.33352992E+01</totfact>
</mgrwt>
</event>
<event>
 6    1  0.1878398E-004  0.6977808E+03  0.7818608E-02  0.9721035E-01
          1   -1    0    0  501    0  0.00000000000E+00  0.00000000000E+00  0.74623766847E+03  0.74623766847E+03  0.00000000000E+00 0.  1.
         -1   -1    0    0    0  501 -0.00000000000E+00 -0.00000000000E+00 -0.16311759517E+03  0.16311759517E+03  0.00000000000E+00 0. -1.
         23    2    1    2    0    0 -0.39273490839E+02  0.14266944333E+03 -0.10673187844E+03  0.20381101098E+03  0.90830926338E+02 0.  0.
         11    1    3    3    0    0 -0.23953353342E+02  0.96647507630E+02 -0.15891320480E+02  0.10083173079E+03  0.00000000000E+00 0.  1.
        -11    1    3    3    0    0 -0.15320137496E+02  0.46021935697E+02 -0.90840557957E+02  0.10297928019E+03  0.00000000000E+00 0. -1.
         22    1    1    2    0    0  0.39273490839E+02 -0.14266944333E+03  0.68985195174E+03  0.70554425266E+03  0.00000000000E+00 0.  1.
<mgrwt>
<rscale>  0 0.69778075E+03</rscale>
<asrwt>0</asrwt>
<pdfrwt beam="1">  1        1 0.11480579E+00 0.69778075E+03</pdfrwt>
<pdfrwt beam="2">  1       -1 0.25095015E-01 0.69778075E+03</pdfrwt>
<totfact> 0.34732865E+02</totfact>
</mgrwt>
</event>
<event>
 6    1  0.1878398E-004  0.2070331E+04  0.7818608E-02  0.8574426E-01
         -2   -1    0    0    0  501 -0.00000000000E+00  0.00000000000E+00  0.77591898673E+03  0.77591898673E+03  0.00000000000E+00 0. -1.
          2   -1    0    0  501    0  0.00000000000E+00 -0.00000000000E+00 -0.13810309206E+04  0.13810309206E+04  0.00000000000E+00 0.  1.
         23    2    1    2    0    0 -0.70863874818E+02  0.34091126413E+03  0.71028087725E+03  0.79625140057E+03  0.90968068934E+02 0.  0.
         13    1    3    3    0    0 -0.45428829982E+02  0.63030367921E+02  0.11464138637E+03  0.13848918132E+03  0.00000000000E+00 0.  1.
        -13    1    3    3    0    0 -0.25435044836E+02  0.27788089621E+03  0.59563949088E+03  0.65776221925E+03  0.00000000000E+00 0. -1.
         22    1    1    2    0    0  0.70863874818E+02 -0.34091126413E+03 -0.13153928111E+04  0.13606985068E+04  0.00000000000E+00 0.  1.
<mgrwt>
<rscale>  0 0.20703315E+04</rscale>
<asrwt>0</asrwt>
<pdfrwt beam="1">  1        2 0.21246629E+00 0.20703315E+04</pdfrwt>
<pdfrwt beam="2">  1       -2 0.11937215E+00 0.20703315E+04</pdfrwt>
<totfact> 0.73753217E+00</totfact>
</mgrwt>
</event>
<event>
 6    1  0.1878398E-004  0.3192425E+04  0.7818608E-02  0.8190820E-01
         -2   -1    0    0    0  501 -0.00000000000E+00  0.00000000000E+00  0.15542972385E+04  0.15542972385E+04  0.00000000000E+00 0. -1.
          2   -1    0    0  501    0  0.00000000000E+00 -0.00000000000E+00 -0.16392584205E+04  0.16392584205E+04  0.00000000000E+00 0.  1.
         23    2    1    2    0    0  0.41122671424E+03 -0.14529632132E+04  0.47106206650E+03  0.15844032851E+04  0.90690626763E+02 0.  0.
         11    1    3    3    0    0  0.49096846990E+02 -0.26858621284E+03  0.60857996657E+02  0.27973692975E+03  0.00000000000E+00 0. -1.
        -11    1    3    3    0    0  0.36212986725E+03 -0.11843770004E+04  0.41020406985E+03  0.13046663553E+04  0.00000000000E+00 0.  1.
         22    1    1    2    0    0 -0.41122671424E+03  0.14529632132E+04 -0.55602324847E+03  0.16091523739E+04  0.00000000000E+00 0. -1.
<mgrwt>
<rscale>  0 0.31924253E+04</rscale>
<asrwt>0</asrwt>
<pdfrwt beam="1">  1        2 0.25219360E+00 0.31924253E+04</pdfrwt>
<pdfrwt beam="2">  1       -2 0.23912265E+00 0.31924253E+04</pdfrwt>
<totfact> 0.67011286E-01</totfact>
</mgrwt>
</event>
<event>
 6    1  0.1878398E-004  0.5652534E+04  0.7818608E-02  0.7735042E-01
         -2   -1    0    0    0  501 -0.00000000000E+00  0.00000000000E+00  0.47669871751E+04  0.47669871751E+04  0.00000000000E+00 0. -1.
          2   -1    0    0  501    0  0.00000000000E+00 -0.00000000000E+00 -0.16756461830E+04  0.16756461830E+04  0.00000000000E+00 0.  1.
         23    2    1    2    0    0  0.45605288688E+03  0.21507153544E+04 -0.47684871061E+03  0.22515071938E+04  0.91319107389E+02 0.  0.
         13    1    3    3    0    0  0.15223428700E+03  0.87347162176E+03 -0.22405139688E+03  0.91450914735E+03  0.00000000000E+00 0.  1.
        -13    1    3    3    0    0  0.30381859989E+03  0.12772437327E+04 -0.25279731373E+03  0.13369980464E+04  0.00000000000E+00 0. -1.
         22    1    1    2    0    0 -0.45605288688E+03 -0.21507153544E+04  0.35681897026E+04  0.41911261643E+04  0.00000000000E+00 0. -1.
<mgrwt>
<rscale>  0 0.56525335E+04</rscale>
<asrwt>0</asrwt>
<pdfrwt beam="1">  1        2 0.25779172E+00 0.56525335E+04</pdfrwt>
<pdfrwt beam="2">  1       -2 0.73338264E+00 0.56525335E+04</pdfrwt>
<totfact> 0.11984414E-03</totfact>
</mgrwt>
</event>
<event>
 6    1  0.1878398E-004  0.2784895E+04  0.7818608E-02  0.8307973E-01
          2   -1    0    0  501    0  0.00000000000E+00  0.00000000000E+00  0.13866292252E+04  0.13866292252E+04  0.00000000000E+00 0.  1.
         -2   -1    0    0    0  501 -0.00000000000E+00 -0.00000000000E+00 -0.13982897532E+04  0.13982897532E+04  0.00000000000E+00 0. -1.
         23    2    1    2    0    0 -0.40646226574E+03 -0.70812702578E+03  0.11202984058E+04  0.13892161140E+04  0.90539688853E+02 0.  0.
         11    1    3    3    0    0 -0.30670556574E+03 -0.46941954066E+03  0.72000680315E+03  0.91259673777E+03  0.00000000000E+00 0. -1.
        -11    1    3    3    0    0 -0.99756699994E+02 -0.23870748511E+03  0.40029160263E+03  0.47661937621E+03  0.00000000000E+00 0.  1.
         22    1    1    2    0    0  0.40646226574E+03  0.70812702578E+03 -0.11319589337E+04  0.13957028644E+04  0.00000000000E+00 0. -1.
<mgrwt>
<rscale>  0 0.27848946E+04</rscale>
<asrwt>0</asrwt>
<pdfrwt beam="1">  1        2 0.21332757E+00 0.27848946E+04</pdfrwt>
<pdfrwt beam="2">  1       -2 0.21512150E+00 0.27848946E+04</pdfrwt>
<totfact> 0.13623257E+00</totfact>
</mgrwt>
</event>
<event>
 6    1  0.1878398E-004  0.1600348E+04  0.7818608E-02  0.8820334E-01
         -1   -1    0    0    0  501 -0.00000000000E+00  0.00000000000E+00  0.61763606990E+03  0.61763606990E+03  0.00000000000E+00 0. -1.
          1   -1    0    0  501    0  0.00000000000E+00 -0.00000000000E+00 -0.10366600028E+04  0.10366600028E+04  0.00000000000E+00 0.  1.
         23    2    1    2    0    0 -0.58534807401E+03  0.19778120422E+03  0.31104518941E+03  0.69787007147E+03  0.92324180547E+02 0.  0.
         13    1    3    3    0    0 -0.53836104300E+03  0.20044388729E+03  0.30502721259E+03  0.65042444987E+03  0.00000000000E+00 0. -1.
        -13    1    3    3    0    0 -0.46987031007E+02 -0.26626830665E+01  0.60179768207E+01  0.47445621600E+02  0.00000000000E+00 0.  1.
         22    1    1    2    0    0  0.58534807401E+03 -0.19778120422E+03 -0.73006912235E+03  0.95642600127E+03  0.00000000000E+00 0. -1.
<mgrwt>
<rscale>  0 0.16003482E+04</rscale>
<asrwt>0</asrwt>
<pdfrwt beam="1">  1        1 0.15948615E+00 0.16003482E+04</pdfrwt>
<pdfrwt beam="2">  1       -1 0.95020935E-01 0.16003482E+04</pdfrwt>
<totfact> 0.14554385E+01</totfact>
</mgrwt>
</event>
<event>
 6    1  0.1878398E-004  0.8120923E+03  0.7818608E-02  0.9542677E-01
          2   -1    0    0  501    0  0.00000000000E+00  0.00000000000E+00  0.11061630799E+04  0.11061630799E+04  0.00000000000E+00 0.  1.
         -2   -1    0    0    0  501 -0.00000000000E+00 -0.00000000000E+00 -0.14904989468E+03  0.14904989468E+03  0.00000000000E+00 0. -1.
         23    2    1    2    0    0  0.18285128706E+03  0.12264681958E+03 -0.31970037491E+02  0.24192009640E+03  0.95007442916E+02 0.  0.
         13    1    3    3    0    0  0.25883833905E+02  0.69162663094E+02 -0.62987444500E+01  0.74115592189E+02  0.00000000000E+00 0. -1.
        -13    1    3    3    0    0  0.15696745316E+03  0.53484156488E+02 -0.25671293041E+02  0.16780450421E+03  0.00000000000E+00 0.  1.
         22    1    1    2    0    0 -0.18285128706E+03 -0.12264681958E+03  0.98908322271E+03  0.10132928782E+04  0.00000000000E+00 0.  1.
<mgrwt>
<rscale>  0 0.81209234E+03</rscale>
<asrwt>0</asrwt>
<pdfrwt beam="1">  1        2 0.17017893E+00 0.81209234E+03</pdfrwt>
<pdfrwt beam="2">  1       -2 0.22930754E-01 0.81209234E+03</pdfrwt>
<totfact> 0.36340696E+02</totfact>
</mgrwt>
</event>
<event>
 6    1  0.1878398E-004  0.3273005E+04  0.7818608E-02  0.8169798E-01
          1   -1    0    0  501    0  0.00000000000E+00  0.00000000000E+00  0.35769667626E+04  0.35769667626E+04  0.00000000000E+00 0.  1.
         -1   -1    0    0    0  501 -0.00000000000E+00 -0.00000000000E+00 -0.74871850296E+03  0.74871850296E+03  0.00000000000E+00 0. -1.
         23    2    1    2    0    0 -0.14921159503E+04  0.36513643202E+03  0.21568559179E+04  0.26492299874E+04  0.81593212680E+02 0.  0.
         11    1    3    3    0    0 -0.95884768213E+03  0.19909704704E+03  0.13412119510E+04  0.16606860056E+04  0.00000000000E+00 0. -1.
        -11    1    3    3    0    0 -0.53326826820E+03  0.16603938498E+03  0.81564396684E+03  0.98854398177E+03  0.00000000000E+00 0.  1.
         22    1    1    2    0    0  0.14921159503E+04 -0.36513643202E+03  0.67139234180E+03  0.16764552782E+04  0.00000000000E+00 0. -1.
<mgrwt>
<rscale>  0 0.32730055E+04</rscale>
<asrwt>0</asrwt>
<pdfrwt beam="1">  1        1 0.55030257E+00 0.32730055E+04</pdfrwt>
<pdfrwt beam="2">  1       -1 0.11518746E+00 0.32730055E+04</pdfrwt>
<totfact> 0.12322462E-01</totfact>
</mgrwt>
</event>
<event>
 6    1  0.1878398E-004  0.1426679E+04  0.7818608E-02  0.8934730E-01
         -2   -1    0    0    0  501 -0.00000000000E+00  0.00000000000E+00  0.11032078354E+04  0.11032078354E+04  0.00000000000E+00 0. -1.
          2   -1    0    0  501    0  0.00000000000E+00 -0.00000000000E+00 -0.46124893528E+03  0.46124893528E+03  0.00000000000E+00 0.  1.
         23    2    1    2    0    0 -0.70150185145E+03 -0.60221471133E+00  0.44503505069E+03  0.83583875501E+03  0.92005531242E+02 0.  0.
         11    1    3    3    0    0 -0.35174106271E+03  0.10344403084E+02  0.17025818164E+03  0.39091767713E+03  0.00000000000E+00 0.  1.
        -11    1    3    3    0    0 -0.34976078874E+03 -0.10946617795E+02  0.27477686905E+03  0.44492107788E+03  0.00000000000E+00 0. -1.
         22    1    1    2    0    0  0.70150185145E+03  0.60221471133E+00  0.19692384940E+03  0.72861801564E+03  0.00000000000E+00 0.  1.
<mgrwt>
<rscale>  0 0.14266793E+04</rscale>
<asrwt>0</asrwt>
<pdfrwt beam="1">  1        2 0.70961375E-01 0.14266793E+04</pdfrwt>
<pdfrwt beam="2">  1       -2 0.16972428E+00 0.14266793E+04</pdfrwt>
<totfact> 0.14044867E+01</totfact>
</mgrwt>
</event>
<event>
 6    1  0.1878398E-004  0.2742962E+04  0.7818608E-02  0.8321198E-01
         -2   -1    0    0    0  501 -0.00000000000E+00  0.00000000000E+00  0.11590468290E+04  0.11590468290E+04  0.00000000000E+00 0. -1.
          2   -1    0    0  501    0  0.00000000000E+00 -0.00000000000E+00 -0.16228507449E+04  0.16228507449E+04  0.00000000000E+00 0.  1.
         23    2    1    2    0    0 -0.10706440457E+04 -0.82539042220E+03 -0.91056415587E+01  0.13556091941E+04  0.10022650727E+03 0.  0.
         13    1    3    3    0    0 -0.57338837053E+03 -0.38551217100E+03 -0.27138409733E+02  0.69146970341E+03  0.00000000000E+00 0.  1.
        -13    1    3    3    0    0 -0.49725567521E+03 -0.43987825120E+03  0.18032768175E+02  0.66413949072E+03  0.00000000000E+00 0. -1.
         22    1    1    2    0    0  0.10706440457E+04  0.82539042220E+03 -0.45469827436E+03  0.14262883798E+04  0.00000000000E+00 0.  1.
<mgrwt>
<rscale>  0 0.27429619E+04</rscale>
<asrwt>0</asrwt>
<pdfrwt beam="1">  1        2 0.24966935E+00 0.27429619E+04</pdfrwt>
<pdfrwt beam="2">  1       -2 0.17831490E+00 0.27429619E+04</pdfrwt>
<totfact> 0.17636088E+00</totfact>
</mgrwt>
</event>
<event>
 6    1  0.1878398E-004  0.2210653E+04  0.7818608E-02  0.8514007E-01
         -2   -1    0    0    0  501 -0.00000000000E+00  0.00000000000E+00  0.34718851570E+03  0.34718851570E+03  0.00000000000E+00 0. -1.
          2   -1    0    0  501    0  0.00000000000E+00 -0.00000000000E+00 -0.35189733614E+04  0.35189733614E+04  0.00000000000E+00 0.  1.
         23    2    1    2    0    0 -0.25891814563E+03 -0.10681815457E+04 -0.14158835687E+04  0.17946311109E+04  0.89017545321E+02 0.  0.
         13    1    3    3    0    0 -0.19383341424E+02 -0.13896964084E+03 -0.14047141794E+03  0.19854594999E+03  0.00000000000E+00 0.  1.
        -13    1    3    3    0    0 -0.23953480421E+03 -0.92921190486E+03 -0.12754121508E+04  0.15960851609E+04  0.00000000000E+00 0. -1.
         22    1    1    2    0    0  0.25891814563E+03  0.10681815457E+04 -0.17559012770E+04  0.20715307662E+04  0.00000000000E+00 0.  1.
<mgrwt>
<rscale>  0 0.22106534E+04</rscale>
<asrwt>0</asrwt>
<pdfrwt beam="1">  1        2 0.54138055E+00 0.22106534E+04</pdfrwt>
<pdfrwt beam="2">  1       -2 0.53413615E-01 0.22106534E+04</pdfrwt>
<totfact> 0.23870943E+00</totfact>
</mgrwt>
</event>
<event>
 6    1  0.1878398E-004  0.3533392E+03  0.7818608E-02  0.1061253E+00
          2   -1    0    0  501    0  0.00000000000E+00  0.00000000000E+00  0.13944499514E+04  0.13944499514E+04  0.00000000000E+00 0.  1.
         -2   -1    0    0    0  501 -0.00000000000E+00 -0.00000000000E+00 -0.22383130732E+02  0.22383130732E+02  0.00000000000E+00 0. -1.
         23    2    1    2    0    0 -0.12595429282E+03 -0.26988336553E+02  0.11446624521E+04  0.11554796796E+04  0.91040136547E+02 0.  0.
         11    1    3    3    0    0 -0.12502769349E+03 -0.49488834054E+02  0.93687546202E+03  0.94647593744E+03  0.00000000000E+00 0. -1.
        -11    1    3    3    0    0 -0.92659933072E+00  0.22500497501E+02  0.20778699008E+03  0.20900374212E+03  0.00000000000E+00 0.  1.
         22    1    1    2    0    0  0.12595429282E+03  0.26988336553E+02  0.22740436859E+03  0.26135340259E+03  0.00000000000E+00 0. -1.
<mgrwt>
<rscale>  0 0.35333925E+03</rscale>
<asrwt>0</asrwt>
<pdfrwt beam="1">  1        2 0.21453069E+00 0.35333925E+03</pdfrwt>
<pdfrwt beam="2">  1       -2 0.34435597E-02 0.35333925E+03</pdfrwt>
<totfact> 0.53780133E+03</totfact>
</mgrwt>
</event>
<event>
 6    1  0.1878398E-004  0.1389133E+04  0.7818608E-02  0.8961722E-01
         -2   -1    0    0    0  501 -0.00000000000E+00  0.00000000000E+00  0.65819189801E+03  0.65819189801E+03  0.00000000000E+00 0. -1.
          2   -1    0    0  501    0  0.00000000000E+00 -0.00000000000E+00 -0.73295143733E+03  0.73295143733E+03  0.00000000000E+00 0.  1.
         23    2    1    2    0    0  0.27753190658E+03  0.56516320560E+03  0.24901473164E+03  0.68314390973E+03  0.90795686500E+02 0.  0.
         13    1    3    3    0    0  0.41908691361E+02  0.84197827972E+02  0.74067375631E+02  0.11971461389E+03  0.00000000000E+00 0. -1.
        -13    1    3    3    0    0  0.23562321522E+03  0.48096537763E+03  0.17494735601E+03  0.56342929583E+03  0.00000000000E+00 0.  1.
         22    1    1    2    0    0 -0.27753190658E+03 -0.56516320560E+03 -0.32377427096E+03  0.70799942562E+03  0.00000000000E+00 0.  1.
<mgrwt>
<rscale>  0 0.13891331E+04</rscale>
<asrwt>0</asrwt>
<pdfrwt beam="1">  1        2 0.11276176E+00 0.13891331E+04</pdfrwt>
<pdfrwt beam="2">  1       -2 0.10126029E+00 0.13891331E+04</pdfrwt>
<totfact> 0.30176865E+01</totfact>
</mgrwt>
</event>
<event>
 6    1  0.1878398E-004  0.5142765E+04  0.7818608E-02  0.7806854E-01
         -2   -1    0    0    0  501 -0.00000000000E+00  0.00000000000E+00  0.15349279248E+04  0.15349279248E+04  0.00000000000E+00 0.  1.
          2   -1    0    0  501    0  0.00000000000E+00 -0.00000000000E+00 -0.43076989471E+04  0.43076989471E+04  0.00000000000E+00 0. -1.
         23    2    1    2    0    0 -0.54687338306E+03 -0.24786640399E+04 -0.92600673700E+03  0.27036167979E+04  0.95965581981E+02 0.  0.
         11    1    3    3    0    0 -0.13426291018E+03 -0.55767457362E+03 -0.25069352029E+03  0.62599896184E+03  0.00000000000E+00 0.  1.
        -11    1    3    3    0    0 -0.41261047288E+03 -0.19209894663E+04 -0.67531321672E+03  0.20776178360E+04  0.00000000000E+00 0. -1.
         22    1    1    2    0    0  0.54687338306E+03  0.24786640399E+04 -0.18467642853E+04  0.31390100741E+04  0.00000000000E+00 0. -1.
<mgrwt>
<rscale>  0 0.51427648E+04</rscale>
<asrwt>0</asrwt>
<pdfrwt beam="1">  1        2 0.66272290E+00 0.51427648E+04</pdfrwt>
<pdfrwt beam="2">  1       -2 0.23614276E+00 0.51427648E+04</pdfrwt>
<totfact> 0.10437339E-02</totfact>
</mgrwt>
</event>
<event>
 6    1  0.1878398E-004  0.7857345E+03  0.7818608E-02  0.9580899E-01
          2   -1    0    0  501    0  0.00000000000E+00  0.00000000000E+00  0.63761716879E+03  0.63761716879E+03  0.00000000000E+00 0.  1.
         -2   -1    0    0    0  501 -0.00000000000E+00 -0.00000000000E+00 -0.24206478197E+03  0.24206478197E+03  0.00000000000E+00 0. -1.
         23    2    1    2    0    0 -0.35065816122E+03 -0.14045816328E+03  0.10816668775E+03  0.40504505618E+03  0.98345429679E+02 0.  0.
         11    1    3    3    0    0 -0.16410770619E+03 -0.99982683749E+02  0.15331081761E+02  0.19277686154E+03  0.00000000000E+00 0.  1.
        -11    1    3    3    0    0 -0.18655045503E+03 -0.40475479533E+02  0.92835605984E+02  0.21226819464E+03  0.00000000000E+00 0. -1.
         22    1    1    2    0    0  0.35065816122E+03  0.14045816328E+03  0.28738569908E+03  0.47463689458E+03  0.00000000000E+00 0. -1.
<mgrwt>
<rscale>  0 0.78573446E+03</rscale>
<asrwt>0</asrwt>
<pdfrwt beam="1">  1        2 0.98094948E-01 0.78573446E+03</pdfrwt>
<pdfrwt beam="2">  1       -2 0.37240736E-01 0.78573446E+03</pdfrwt>
<totfact> 0.31484786E+02</totfact>
</mgrwt>
</event>
<event>
 6    1  0.1878398E-004  0.1118698E+04  0.7818608E-02  0.9187157E-01
          2   -1    0    0  501    0  0.00000000000E+00  0.00000000000E+00  0.49856495733E+03  0.49856495733E+03  0.00000000000E+00 0.  1.
         -2   -1    0    0    0  501 -0.00000000000E+00 -0.00000000000E+00 -0.62754351717E+03  0.62754351717E+03  0.00000000000E+00 0. -1.
         23    2    1    2    0    0 -0.50347482681E+03  0.11197785459E+03 -0.27254091329E+03  0.59072441565E+03  0.93009917117E+02 0.  0.
         13    1    3    3    0    0 -0.30509430955E+03  0.92923095839E+02 -0.20995187426E+03  0.38183377138E+03  0.00000000000E+00 0. -1.
        -13    1    3    3    0    0 -0.19838051725E+03  0.19054758749E+02 -0.62589039036E+02  0.20889064427E+03  0.00000000000E+00 0.  1.
         22    1    1    2    0    0  0.50347482681E+03 -0.11197785459E+03  0.14356235345E+03  0.53538405885E+03  0.00000000000E+00 0.  1.
<mgrwt>
<rscale>  0 0.11186978E+04</rscale>
<asrwt>0</asrwt>
<pdfrwt beam="1">  1        2 0.76702301E-01 0.11186978E+04</pdfrwt>
<pdfrwt beam="2">  1       -2 0.96545157E-01 0.11186978E+04</pdfrwt>
<totfact> 0.55009966E+01</totfact>
</mgrwt>
</event>
<event>
 6    1  0.1878398E-004  0.1519871E+04  0.7818608E-02  0.8871345E-01
         -4   -1    0    0    0  501 -0.00000000000E+00  0.00000000000E+00  0.97938542087E+03  0.97938542087E+03  0.00000000000E+00 0. -1.
          4   -1    0    0  501    0  0.00000000000E+00 -0.00000000000E+00 -0.58965758495E+03  0.58965758495E+03  0.00000000000E+00 0.  1.
         23    2    1    2    0    0  0.46046218014E+03 -0.41381646835E+03 -0.25475598990E+03  0.67538261699E+03  0.89283683384E+02 0.  0.
         13    1    3    3    0    0  0.89456321899E+02 -0.12824754277E+03 -0.80063927363E+02  0.17567042500E+03  0.00000000000E+00 0. -1.
        -13    1    3    3    0    0  0.37100585824E+03 -0.28556892558E+03 -0.17469206254E+03  0.49971219198E+03  0.00000000000E+00 0.  1.
         22    1    1    2    0    0 -0.46046218014E+03  0.41381646835E+03  0.64448382583E+03  0.89366038883E+03  0.00000000000E+00 0. -1.
<mgrwt>
<rscale>  0 0.15198711E+04</rscale>
<asrwt>0</asrwt>
<pdfrwt beam="1">  1        4 0.90716551E-01 0.15198711E+04</pdfrwt>
<pdfrwt beam="2">  1       -4 0.15067468E+00 0.15198711E+04</pdfrwt>
<totfact> 0.58990097E-01</totfact>
</mgrwt>
</event>
<event>
 6    1  0.1878398E-004  0.1756862E+04  0.7818608E-02  0.8729582E-01
         -2   -1    0    0    0  501 -0.00000000000E+00  0.00000000000E+00  0.32625564707E+03  0.32625564707E+03  0.00000000000E+00 0. -1.
          2   -1    0    0  501    0  0.00000000000E+00 -0.00000000000E+00 -0.23651412995E+04  0.23651412995E+04  0.00000000000E+00 0.  1.
         23    2    1    2    0    0 -0.63251940446E+02  0.67236136411E+03 -0.16785818135E+03  0.70222264314E+03  0.94178870107E+02 0.  0.
         13    1    3    3    0    0  0.24809152147E+01  0.81376901663E+02  0.88459375733E+01  0.81893868367E+02  0.00000000000E+00 0.  1.
        -13    1    3    3    0    0 -0.65732855660E+02  0.59098446244E+03 -0.17670411892E+03  0.62032877477E+03  0.00000000000E+00 0. -1.
         22    1    1    2    0    0  0.63251940446E+02 -0.67236136411E+03 -0.18710274710E+04  0.19891743034E+04  0.00000000000E+00 0.  1.
<mgrwt>
<rscale>  0 0.17568616E+04</rscale>
<asrwt>0</asrwt>
<pdfrwt beam="1">  1        2 0.36386790E+00 0.17568616E+04</pdfrwt>
<pdfrwt beam="2">  1       -2 0.50193175E-01 0.17568616E+04</pdfrwt>
<totfact> 0.14817144E+01</totfact>
</mgrwt>
</event>
<event>
 6    1  0.2586932E-004  0.2619743E+04  0.7818608E-02  0.8361526E-01
         -2   -1    0    0    0  501 -0.00000000000E+00  0.00000000000E+00  0.11091482703E+04  0.11091482703E+04  0.00000000000E+00 0. -1.
          2   -1    0    0  501    0  0.00000000000E+00 -0.00000000000E+00 -0.15469192891E+04  0.15469192891E+04  0.00000000000E+00 0.  1.
         23    2    1    2    0    0  0.10355981314E+04  0.50897285804E+03 -0.84420767448E+03  0.14326675369E+04  0.91284246854E+02 0.  0.
         11    1    3    3    0    0  0.73447414452E+03  0.35274919916E+03 -0.54431242502E+03  0.97987768752E+03  0.00000000000E+00 0.  1.
        -11    1    3    3    0    0  0.30112398684E+03  0.15622365888E+03 -0.29989524946E+03  0.45278984937E+03  0.00000000000E+00 0. -1.
         22    1    1    2    0    0 -0.10355981314E+04 -0.50897285804E+03  0.40643665571E+03  0.12234000225E+04  0.00000000000E+00 0. -1.
<mgrwt>
<rscale>  0 0.26197426E+04</rscale>
<asrwt>0</asrwt>
<pdfrwt beam="1">  1        2 0.23798758E+00 0.26197426E+04</pdfrwt>
<pdfrwt beam="2">  1       -2 0.17063820E+00 0.26197426E+04</pdfrwt>
<totfact> 0.22250438E+00</totfact>
</mgrwt>
</event>
<event>
 6    1  0.1878398E-004  0.2484134E+04  0.7818608E-02  0.8408660E-01
         -4   -1    0    0    0  501 -0.00000000000E+00  0.00000000000E+00  0.14011077610E+04  0.14011077610E+04  0.00000000000E+00 0. -1.
          4   -1    0    0  501    0  0.00000000000E+00 -0.00000000000E+00 -0.11010791048E+04  0.11010791048E+04  0.00000000000E+00 0.  1.
         23    2    1    2    0    0 -0.36459128664E+03 -0.18735077612E+03 -0.10289650828E+04  0.11114131682E+04  0.91885630828E+02 0.  0.
         11    1    3    3    0    0 -0.20442508102E+03 -0.85530198455E+02 -0.66478960881E+03  0.70074977886E+03  0.00000000000E+00 0. -1.
        -11    1    3    3    0    0 -0.16016620563E+03 -0.10182057766E+03 -0.36417547399E+03  0.41066338930E+03  0.00000000000E+00 0.  1.
         22    1    1    2    0    0  0.36459128664E+03  0.18735077612E+03  0.13289937390E+04  0.13907736976E+04  0.00000000000E+00 0. -1.
<mgrwt>
<rscale>  0 0.24841340E+04</rscale>
<asrwt>0</asrwt>
<pdfrwt beam="1">  1        4 0.16939678E+00 0.24841340E+04</pdfrwt>
<pdfrwt beam="2">  1       -4 0.21555504E+00 0.24841340E+04</pdfrwt>
<totfact> 0.39641397E-02</totfact>
</mgrwt>
</event>
<event>
 6    1  0.1878398E-004  0.1410549E+04  0.7818608E-02  0.8946218E-01
         -2   -1    0    0    0  501 -0.00000000000E+00  0.00000000000E+00  0.22897619515E+03  0.22897619515E+03  0.00000000000E+00 0. -1.
          2   -1    0    0  501    0  0.00000000000E+00 -0.00000000000E+00 -0.21723324884E+04  0.21723324884E+04  0.00000000000E+00 0.  1.
         23    2    1    2    0    0  0.37639509580E+03  0.56414963317E+03 -0.66516216678E+03  0.95434002401E+03  0.91575633012E+02 0.  0.
         11    1    3    3    0    0  0.33648850315E+03  0.54249950250E+03 -0.63016018732E+03  0.89701286761E+03  0.00000000000E+00 0. -1.
        -11    1    3    3    0    0  0.39906592654E+02  0.21650130664E+02 -0.35001979457E+02  0.57327156400E+02  0.00000000000E+00 0.  1.
         22    1    1    2    0    0 -0.37639509580E+03 -0.56414963317E+03 -0.12781941265E+04  0.14469686596E+04  0.00000000000E+00 0. -1.
<mgrwt>
<rscale>  0 0.14105494E+04</rscale>
<asrwt>0</asrwt>
<pdfrwt beam="1">  1        2 0.33420500E+00 0.14105494E+04</pdfrwt>
<pdfrwt beam="2">  1       -2 0.35227107E-01 0.14105494E+04</pdfrwt>
<totfact> 0.39438890E+01</totfact>
</mgrwt>
</event>
<event>
 6    1  0.1958093E-004  0.2589837E+04  0.7818608E-02  0.8371662E-01
         -1   -1    0    0    0  501 -0.00000000000E+00  0.00000000000E+00  0.12126905087E+04  0.12126905087E+04  0.00000000000E+00 0.  1.
          1   -1    0    0  501    0  0.00000000000E+00 -0.00000000000E+00 -0.13827216369E+04  0.13827216369E+04  0.00000000000E+00 0. -1.
         23    2    1    2    0    0  0.21981247770E+03 -0.12677075160E+04  0.46339867586E+02  0.12907220370E+04  0.91739424857E+02 0.  0.
         13    1    3    3    0    0  0.14330073425E+03 -0.60625460206E+03  0.48618516734E+02  0.62485478563E+03  0.00000000000E+00 0.  1.
        -13    1    3    3    0    0  0.76511743448E+02 -0.66145291393E+03 -0.22786491482E+01  0.66586725139E+03  0.00000000000E+00 0. -1.
         22    1    1    2    0    0 -0.21981247770E+03  0.12677075160E+04 -0.21637099578E+03  0.13046901085E+04  0.00000000000E+00 0. -1.
<mgrwt>
<rscale>  0 0.25898366E+04</rscale>
<asrwt>0</asrwt>
<pdfrwt beam="1">  1        1 0.21272640E+00 0.25898366E+04</pdfrwt>
<pdfrwt beam="2">  1       -1 0.18656777E+00 0.25898366E+04</pdfrwt>
<totfact> 0.13013205E+00</totfact>
</mgrwt>
</event>
<event>
 6    1  0.1878398E-004  0.1811412E+04  0.7818608E-02  0.8700254E-01
         -2   -1    0    0    0  501 -0.00000000000E+00  0.00000000000E+00  0.31058268181E+03  0.31058268181E+03  0.00000000000E+00 0. -1.
          2   -1    0    0  501    0  0.00000000000E+00 -0.00000000000E+00 -0.26411740378E+04  0.26411740378E+04  0.00000000000E+00 0.  1.
         23    2    1    2    0    0 -0.66790454494E+02  0.54798323382E+03 -0.31094615307E+01  0.55970350983E+03  0.92259204462E+02 0.  0.
         11    1    3    3    0    0 -0.49341909221E+02  0.10362712502E+03 -0.70013075354E+01  0.11498792698E+03  0.00000000000E+00 0. -1.
        -11    1    3    3    0    0 -0.17448545274E+02  0.44435610880E+03  0.38918460046E+01  0.44471558285E+03  0.00000000000E+00 0.  1.
         22    1    1    2    0    0  0.66790454494E+02 -0.54798323382E+03 -0.23274818945E+04  0.23920532098E+04  0.00000000000E+00 0.  1.
<mgrwt>
<rscale>  0 0.18114115E+04</rscale>
<asrwt>0</asrwt>
<pdfrwt beam="1">  1        2 0.40633449E+00 0.18114115E+04</pdfrwt>
<pdfrwt beam="2">  1       -2 0.47781948E-01 0.18114115E+04</pdfrwt>
<totfact> 0.11284745E+01</totfact>
</mgrwt>
</event>
<event>
 6    1  0.1878398E-004  0.1843190E+04  0.7818608E-02  0.8683663E-01
         -2   -1    0    0    0  501 -0.00000000000E+00  0.00000000000E+00  0.71746439433E+03  0.71746439433E+03  0.00000000000E+00 0. -1.
          2   -1    0    0  501    0  0.00000000000E+00 -0.00000000000E+00 -0.11838044500E+04  0.11838044500E+04  0.00000000000E+00 0.  1.
         23    2    1    2    0    0 -0.36263502151E+01  0.82485735801E+03  0.18506399784E+03  0.85020745108E+03  0.90560560360E+02 0.  0.
         13    1    3    3    0    0  0.42661695288E+02  0.39421455900E+03  0.97347992204E+02  0.40829128127E+03  0.00000000000E+00 0. -1.
        -13    1    3    3    0    0 -0.46288045503E+02  0.43064279901E+03  0.87716005635E+02  0.44191616981E+03  0.00000000000E+00 0.  1.
         22    1    1    2    0    0  0.36263502151E+01 -0.82485735801E+03 -0.65140405353E+03  0.10510613933E+04  0.00000000000E+00 0.  1.
<mgrwt>
<rscale>  0 0.18431902E+04</rscale>
<asrwt>0</asrwt>
<pdfrwt beam="1">  1        2 0.18212376E+00 0.18431902E+04</pdfrwt>
<pdfrwt beam="2">  1       -2 0.11037914E+00 0.18431902E+04</pdfrwt>
<totfact> 0.11875460E+01</totfact>
</mgrwt>
</event>
<event>
 6    1  0.1878398E-004  0.2917642E+04  0.7818608E-02  0.8267648E-01
          2   -1    0    0  501    0  0.00000000000E+00  0.00000000000E+00  0.25652171132E+04  0.25652171132E+04  0.00000000000E+00 0.  1.
         -2   -1    0    0    0  501 -0.00000000000E+00 -0.00000000000E+00 -0.82962148896E+03  0.82962148896E+03  0.00000000000E+00 0. -1.
         23    2    1    2    0    0 -0.12763989877E+04  0.31785640330E+03  0.13858303632E+03  0.13258590771E+04  0.92032415339E+02 0.  0.
         11    1    3    3    0    0 -0.73529684327E+03  0.20889296404E+03  0.11854434229E+03  0.77353117535E+03  0.00000000000E+00 0. -1.
        -11    1    3    3    0    0 -0.54110214446E+03  0.10896343926E+03  0.20038694033E+02  0.55232790179E+03  0.00000000000E+00 0.  1.
         22    1    1    2    0    0  0.12763989877E+04 -0.31785640330E+03  0.15970125880E+04  0.20689795251E+04  0.00000000000E+00 0.  1.
<mgrwt>
<rscale>  0 0.29176424E+04</rscale>
<asrwt>0</asrwt>
<pdfrwt beam="1">  1        2 0.39464878E+00 0.29176424E+04</pdfrwt>
<pdfrwt beam="2">  1       -2 0.12763408E+00 0.29176424E+04</pdfrwt>
<totfact> 0.12502419E+00</totfact>
</mgrwt>
</event>
<event>
 6    1  0.1878398E-004  0.2314975E+04  0.7818608E-02  0.8472040E-01
          2   -1    0    0  501    0  0.00000000000E+00  0.00000000000E+00  0.71794456626E+03  0.71794456626E+03  0.00000000000E+00 0.  1.
         -2   -1    0    0    0  501 -0.00000000000E+00 -0.00000000000E+00 -0.18661299922E+04  0.18661299922E+04  0.00000000000E+00 0. -1.
         23    2    1    2    0    0  0.66086386364E+03  0.77521738122E+03  0.34228400173E+02  0.10233678305E+04  0.91690232566E+02 0.  0.
         11    1    3    3    0    0  0.43991868781E+03  0.45338889602E+03  0.29215002389E+01  0.63174241434E+03  0.00000000000E+00 0. -1.
        -11    1    3    3    0    0  0.22094517583E+03  0.32182848520E+03  0.31306899934E+02  0.39162541617E+03  0.00000000000E+00 0.  1.
         22    1    1    2    0    0 -0.66086386364E+03 -0.77521738122E+03 -0.11824138261E+04  0.15607067279E+04  0.00000000000E+00 0. -1.
<mgrwt>
<rscale>  0 0.23149755E+04</rscale>
<asrwt>0</asrwt>
<pdfrwt beam="1">  1        2 0.11045301E+00 0.23149755E+04</pdfrwt>
<pdfrwt beam="2">  1       -2 0.28709692E+00 0.23149755E+04</pdfrwt>
<totfact> 0.13695170E+00</totfact>
</mgrwt>
</event>
<event>
 6    1  0.1878398E-004  0.1207187E+04  0.7818608E-02  0.9106589E-01
         -2   -1    0    0    0  501 -0.00000000000E+00  0.00000000000E+00  0.13176933922E+04  0.13176933922E+04  0.00000000000E+00 0. -1.
          2   -1    0    0  501    0  0.00000000000E+00 -0.00000000000E+00 -0.27648721675E+03  0.27648721675E+03  0.00000000000E+00 0.  1.
         23    2    1    2    0    0 -0.27957289527E+03  0.28913687221E+02  0.12238291247E+04  0.12589968583E+04  0.91205031447E+02 0.  0.
         11    1    3    3    0    0 -0.19405735175E+03  0.62793842184E+01  0.99287944870E+03  0.10116853691E+04  0.00000000000E+00 0. -1.
        -11    1    3    3    0    0 -0.85515543515E+02  0.22634303003E+02  0.23094967598E+03  0.24731148920E+03  0.00000000000E+00 0.  1.
         22    1    1    2    0    0  0.27957289527E+03 -0.28913687221E+02 -0.18262294925E+03  0.33518375060E+03  0.00000000000E+00 0.  1.
<mgrwt>
<rscale>  0 0.12071874E+04</rscale>
<asrwt>0</asrwt>
<pdfrwt beam="1">  1        2 0.42536496E-01 0.12071874E+04</pdfrwt>
<pdfrwt beam="2">  1       -2 0.20272206E+00 0.12071874E+04</pdfrwt>
<totfact> 0.15133498E+01</totfact>
</mgrwt>
</event>
<event>
 6    1  0.1878398E-004  0.3056605E+04  0.7818608E-02  0.8227749E-01
         -2   -1    0    0    0  501 -0.00000000000E+00  0.00000000000E+00  0.14604709133E+04  0.14604709133E+04  0.00000000000E+00 0. -1.
          2   -1    0    0  501    0  0.00000000000E+00 -0.00000000000E+00 -0.15992844947E+04  0.15992844947E+04  0.00000000000E+00 0.  1.
         23    2    1    2    0    0  0.31866432654E+03  0.27950743756E+03 -0.15379239619E+04  0.15978452817E+04  0.90708714981E+02 0.  0.
         11    1    3    3    0    0  0.14011817082E+03  0.18297892204E+03 -0.80705064019E+03  0.83931229202E+03  0.00000000000E+00 0. -1.
        -11    1    3    3    0    0  0.17854615572E+03  0.96528515520E+02 -0.73087332169E+03  0.75853298965E+03  0.00000000000E+00 0.  1.
         22    1    1    2    0    0 -0.31866432654E+03 -0.27950743756E+03  0.13991103805E+04  0.14619101263E+04  0.00000000000E+00 0. -1.
<mgrwt>
<rscale>  0 0.30566050E+04</rscale>
<asrwt>0</asrwt>
<pdfrwt beam="1">  1        2 0.24604377E+00 0.30566050E+04</pdfrwt>
<pdfrwt beam="2">  1       -2 0.22468783E+00 0.30566050E+04</pdfrwt>
<totfact> 0.87810192E-01</totfact>
</mgrwt>
</event>
<event>
 6    1  0.1878398E-004  0.2368634E+04  0.7818608E-02  0.8451341E-01
          2   -1    0    0  501    0  0.00000000000E+00  0.00000000000E+00  0.99968380507E+03  0.99968380507E+03  0.00000000000E+00 0.  1.
         -2   -1    0    0    0  501 -0.00000000000E+00 -0.00000000000E+00 -0.14030503094E+04  0.14030503094E+04  0.00000000000E+00 0. -1.
         23    2    1    2    0    0 -0.63203794348E+03  0.85836983346E+03  0.31704935117E+03  0.11161612491E+04  0.94999526097E+02 0.  0.
         13    1    3    3    0    0 -0.37855325499E+03  0.51290785614E+03  0.23794114470E+03  0.68043590741E+03  0.00000000000E+00 0. -1.
        -13    1    3    3    0    0 -0.25348468850E+03  0.34546197732E+03  0.79108206471E+02  0.43572534171E+03  0.00000000000E+00 0.  1.
         22    1    1    2    0    0  0.63203794348E+03 -0.85836983346E+03 -0.72041585551E+03  0.12865728654E+04  0.00000000000E+00 0. -1.
<mgrwt>
<rscale>  0 0.23686339E+04</rscale>
<asrwt>0</asrwt>
<pdfrwt beam="1">  1        2 0.15379751E+00 0.23686339E+04</pdfrwt>
<pdfrwt beam="2">  1       -2 0.21585389E+00 0.23686339E+04</pdfrwt>
<totfact> 0.23855388E+00</totfact>
</mgrwt>
</event>
<event>
 6    1  0.1878398E-004  0.8191730E+03  0.7818608E-02  0.9532672E-01
         -2   -1    0    0    0  501 -0.00000000000E+00  0.00000000000E+00  0.19913230928E+03  0.19913230928E+03  0.00000000000E+00 0. -1.
          2   -1    0    0  501    0  0.00000000000E+00 -0.00000000000E+00 -0.84246054243E+03  0.84246054243E+03  0.00000000000E+00 0.  1.
         23    2    1    2    0    0 -0.14936403718E+03 -0.13587849848E+03  0.12296738511E+03  0.24913997833E+03  0.78594968351E+02 0.  0.
         13    1    3    3    0    0 -0.93812536101E+02 -0.43193141617E+02  0.32676334145E+02  0.10832443042E+03  0.00000000000E+00 0.  1.
        -13    1    3    3    0    0 -0.55551501077E+02 -0.92685356868E+02  0.90291050969E+02  0.14081554792E+03  0.00000000000E+00 0. -1.
         22    1    1    2    0    0  0.14936403718E+03  0.13587849848E+03 -0.76629561826E+03  0.79245287337E+03  0.00000000000E+00 0.  1.
<mgrwt>
<rscale>  0 0.81917303E+03</rscale>
<asrwt>0</asrwt>
<pdfrwt beam="1">  1        2 0.12960932E+00 0.81917303E+03</pdfrwt>
<pdfrwt beam="2">  1       -2 0.30635740E-01 0.81917303E+03</pdfrwt>
<totfact> 0.31799522E+02</totfact>
</mgrwt>
</event>
<event>
 6    1  0.1878398E-004  0.3095504E+04  0.7818608E-02  0.8216973E-01
         -2   -1    0    0    0  501 -0.00000000000E+00  0.00000000000E+00  0.10995452289E+04  0.10995452289E+04  0.00000000000E+00 0. -1.
          2   -1    0    0  501    0  0.00000000000E+00 -0.00000000000E+00 -0.21786612019E+04  0.21786612019E+04  0.00000000000E+00 0.  1.
         23    2    1    2    0    0  0.15192803525E+04 -0.26879193112E+03 -0.42985841576E+03  0.16042896863E+04  0.92223902513E+02 0.  0.
         11    1    3    3    0    0  0.11826117944E+04 -0.17003388826E+03 -0.33306657464E+03  0.12403287962E+04  0.00000000000E+00 0. -1.
        -11    1    3    3    0    0  0.33666855813E+03 -0.98758042861E+02 -0.96791841124E+02  0.36396089016E+03  0.00000000000E+00 0.  1.
         22    1    1    2    0    0 -0.15192803525E+04  0.26879193112E+03 -0.64925755717E+03  0.16739167445E+04  0.00000000000E+00 0.  1.
<mgrwt>
<rscale>  0 0.30955042E+04</rscale>
<asrwt>0</asrwt>
<pdfrwt beam="1">  1        2 0.33517865E+00 0.30955042E+04</pdfrwt>
<pdfrwt beam="2">  1       -2 0.16916080E+00 0.30955042E+04</pdfrwt>
<totfact> 0.97429215E-01</totfact>
</mgrwt>
</event>
<event>
 6    1  0.1948804E-004  0.3026597E+04  0.7818608E-02  0.8236177E-01
          1   -1    0    0  501    0  0.00000000000E+00  0.00000000000E+00  0.25313107739E+04  0.25313107739E+04  0.00000000000E+00 0.  1.
         -1   -1    0    0    0  501 -0.00000000000E+00 -0.00000000000E+00 -0.90469803165E+03  0.90469803165E+03  0.00000000000E+00 0. -1.
         23    2    1    2    0    0 -0.80105179609E+03  0.34865530687E+03 -0.58696189779E+03  0.10562699144E+04  0.89091860267E+02 0.  0.
         11    1    3    3    0    0 -0.40333944794E+03  0.19802111833E+03 -0.34896670124E+03  0.56892251858E+03  0.00000000000E+00 0. -1.
        -11    1    3    3    0    0 -0.39771234815E+03  0.15063418853E+03 -0.23799519656E+03  0.48734739582E+03  0.00000000000E+00 0.  1.
         22    1    1    2    0    0  0.80105179609E+03 -0.34865530687E+03  0.22135746400E+04  0.23797388911E+04  0.00000000000E+00 0.  1.
<mgrwt>
<rscale>  0 0.30265967E+04</rscale>
<asrwt>0</asrwt>
<pdfrwt beam="1">  1        1 0.38943242E+00 0.30265967E+04</pdfrwt>
<pdfrwt beam="2">  1       -1 0.13918431E+00 0.30265967E+04</pdfrwt>
<totfact> 0.46548173E-01</totfact>
</mgrwt>
</event>
<event>
 6    1  0.1878398E-004  0.8662118E+03  0.7818608E-02  0.9468833E-01
         -2   -1    0    0    0  501 -0.00000000000E+00  0.00000000000E+00  0.18414705337E+04  0.18414705337E+04  0.00000000000E+00 0. -1.
          2   -1    0    0  501    0  0.00000000000E+00 -0.00000000000E+00 -0.10186463866E+03  0.10186463866E+03  0.00000000000E+00 0.  1.
         23    2    1    2    0    0  0.24941076434E+03 -0.26737580156E+03  0.13797654151E+04  0.14303237498E+04  0.91530760253E+02 0.  0.
         13    1    3    3    0    0  0.86634972420E+02 -0.11649487572E+03  0.39440303608E+03  0.42027423117E+03  0.00000000000E+00 0.  1.
        -13    1    3    3    0    0  0.16277579192E+03 -0.15088092584E+03  0.98536237900E+03  0.10100495187E+04  0.00000000000E+00 0. -1.
         22    1    1    2    0    0 -0.24941076434E+03  0.26737580156E+03  0.35984047995E+03  0.51301142252E+03  0.00000000000E+00 0.  1.
<mgrwt>
<rscale>  0 0.86621182E+03</rscale>
<asrwt>0</asrwt>
<pdfrwt beam="1">  1        2 0.15671484E-01 0.86621182E+03</pdfrwt>
<pdfrwt beam="2">  1       -2 0.28330313E+00 0.86621182E+03</pdfrwt>
<totfact> 0.15667019E+01</totfact>
</mgrwt>
</event>
<event>
 6    1  0.1878398E-004  0.7368180E+03  0.7818608E-02  0.9656261E-01
          1   -1    0    0  501    0  0.00000000000E+00  0.00000000000E+00  0.20598462756E+04  0.20598462756E+04  0.00000000000E+00 0. -1.
         -1   -1    0    0    0  501 -0.00000000000E+00 -0.00000000000E+00 -0.65890934023E+02  0.65890934023E+02  0.00000000000E+00 0.  1.
         23    2    1    2    0    0  0.23735310081E+03 -0.11516338287E+02  0.18029038375E+04  0.18208277186E+04  0.92098930288E+02 0.  0.
         13    1    3    3    0    0  0.14926383967E+03  0.36280372151E+02  0.10097828652E+04  0.10213997229E+04  0.00000000000E+00 0. -1.
        -13    1    3    3    0    0  0.88089261141E+02 -0.47796710438E+02  0.79312097235E+03  0.79942799566E+03  0.00000000000E+00 0.  1.
         22    1    1    2    0    0 -0.23735310081E+03  0.11516338287E+02  0.19105150403E+03  0.30490949100E+03  0.00000000000E+00 0.  1.
<mgrwt>
<rscale>  0 0.73681801E+03</rscale>
<asrwt>0</asrwt>
<pdfrwt beam="1">  1        1 0.31689938E+00 0.73681801E+03</pdfrwt>
<pdfrwt beam="2">  1       -1 0.10137068E-01 0.73681801E+03</pdfrwt>
<totfact> 0.17294425E+02</totfact>
</mgrwt>
</event>
<event>
 6    1  0.1878398E-004  0.1160463E+04  0.7818608E-02  0.9148185E-01
         -1   -1    0    0    0  501 -0.00000000000E+00  0.00000000000E+00  0.53012781247E+03  0.53012781247E+03  0.00000000000E+00 0. -1.
          1   -1    0    0  501    0  0.00000000000E+00 -0.00000000000E+00 -0.63507039282E+03  0.63507039282E+03  0.00000000000E+00 0.  1.
         23    2    1    2    0    0  0.64962763723E+02 -0.50751084653E+03  0.21395980893E+03  0.56230007632E+03  0.92817864571E+02 0.  0.
         13    1    3    3    0    0 -0.10026484427E+02 -0.27312310660E+03  0.12610029583E+03  0.30099509357E+03  0.00000000000E+00 0. -1.
        -13    1    3    3    0    0  0.74989248150E+02 -0.23438773993E+03  0.87859513093E+02  0.26130498275E+03  0.00000000000E+00 0.  1.
         22    1    1    2    0    0 -0.64962763723E+02  0.50751084653E+03 -0.31890238928E+03  0.60289812896E+03  0.00000000000E+00 0.  1.
<mgrwt>
<rscale>  0 0.11604628E+04</rscale>
<asrwt>0</asrwt>
<pdfrwt beam="1">  1        1 0.97703137E-01 0.11604628E+04</pdfrwt>
<pdfrwt beam="2">  1       -1 0.81558125E-01 0.11604628E+04</pdfrwt>
<totfact> 0.46851840E+01</totfact>
</mgrwt>
</event>
<event>
 6    1  0.1878398E-004  0.3064479E+04  0.7818608E-02  0.8225555E-01
         -2   -1    0    0    0  501 -0.00000000000E+00  0.00000000000E+00  0.92556026645E+03  0.92556026645E+03  0.00000000000E+00 0. -1.
          2   -1    0    0  501    0  0.00000000000E+00 -0.00000000000E+00 -0.25365797629E+04  0.25365797629E+04  0.00000000000E+00 0.  1.
         23    2    1    2    0    0 -0.12290429774E+04 -0.65760946183E+03 -0.15198679129E+04  0.20652486750E+04  0.11071030883E+03 0.  0.
         13    1    3    3    0    0 -0.21864921120E+03 -0.82230370418E+02 -0.21477716922E+03  0.31733033860E+03  0.00000000000E+00 0. -1.
        -13    1    3    3    0    0 -0.10103937662E+04 -0.57537909141E+03 -0.13050907436E+04  0.17479183364E+04  0.00000000000E+00 0.  1.
         22    1    1    2    0    0  0.12290429774E+04  0.65760946183E+03 -0.91151583606E+02  0.13968913543E+04  0.00000000000E+00 0. -1.
<mgrwt>
<rscale>  0 0.30644787E+04</rscale>
<asrwt>0</asrwt>
<pdfrwt beam="1">  1        2 0.39024304E+00 0.30644787E+04</pdfrwt>
<pdfrwt beam="2">  1       -2 0.14239389E+00 0.30644787E+04</pdfrwt>
<totfact> 0.96965975E-01</totfact>
</mgrwt>
</event>
<event>
 6    1  0.2126093E-004  0.2451356E+04  0.7818608E-02  0.8420523E-01
          2   -1    0    0  501    0  0.00000000000E+00  0.00000000000E+00  0.20712737767E+04  0.20712737767E+04  0.00000000000E+00 0.  1.
         -2   -1    0    0    0  501 -0.00000000000E+00 -0.00000000000E+00 -0.72529606708E+03  0.72529606708E+03  0.00000000000E+00 0. -1.
         23    2    1    2    0    0 -0.29130792693E+03 -0.56488322239E+03  0.18672674032E+04  0.19745623573E+04  0.90860247388E+02 0.  0.
         13    1    3    3    0    0 -0.10424248479E+03 -0.23793637654E+03  0.63733022587E+03  0.68823690087E+03  0.00000000000E+00 0. -1.
        -13    1    3    3    0    0 -0.18706544214E+03 -0.32694684585E+03  0.12299371774E+04  0.12863254564E+04  0.00000000000E+00 0.  1.
         22    1    1    2    0    0  0.29130792693E+03  0.56488322239E+03 -0.52128969357E+03  0.82200748650E+03  0.00000000000E+00 0. -1.
<mgrwt>
<rscale>  0 0.24513561E+04</rscale>
<asrwt>0</asrwt>
<pdfrwt beam="1">  1        2 0.31865750E+00 0.24513561E+04</pdfrwt>
<pdfrwt beam="2">  1       -2 0.11158401E+00 0.24513561E+04</pdfrwt>
<totfact> 0.34645546E+00</totfact>
</mgrwt>
</event>
<event>
 6    1  0.1878398E-004  0.2080688E+04  0.7818608E-02  0.8569799E-01
         -1   -1    0    0    0  501 -0.00000000000E+00  0.00000000000E+00  0.50010153121E+03  0.50010153121E+03  0.00000000000E+00 0. -1.
          1   -1    0    0  501    0  0.00000000000E+00 -0.00000000000E+00 -0.21641909052E+04  0.21641909052E+04  0.00000000000E+00 0.  1.
         23    2    1    2    0    0 -0.37506421144E+03 -0.90467808083E+03 -0.39191367484E+03  0.10588184870E+04  0.91567828789E+02 0.  0.
         13    1    3    3    0    0 -0.25440838594E+03 -0.50234938905E+03 -0.20795676290E+03  0.60027039803E+03  0.00000000000E+00 0. -1.
        -13    1    3    3    0    0 -0.12065582551E+03 -0.40232869179E+03 -0.18395691194E+03  0.45854808898E+03  0.00000000000E+00 0.  1.
         22    1    1    2    0    0  0.37506421144E+03  0.90467808083E+03 -0.12721756991E+04  0.16054739494E+04  0.00000000000E+00 0.  1.
<mgrwt>
<rscale>  0 0.20806876E+04</rscale>
<asrwt>0</asrwt>
<pdfrwt beam="1">  1        1 0.33295245E+00 0.20806876E+04</pdfrwt>
<pdfrwt beam="2">  1       -1 0.76938696E-01 0.20806876E+04</pdfrwt>
<totfact> 0.35971779E+00</totfact>
</mgrwt>
</event>
<event>
 6    1  0.1878398E-004  0.1595959E+04  0.7818608E-02  0.8823034E-01
         -2   -1    0    0    0  501 -0.00000000000E+00  0.00000000000E+00  0.28140655802E+03  0.28140655802E+03  0.00000000000E+00 0. -1.
          2   -1    0    0  501    0  0.00000000000E+00 -0.00000000000E+00 -0.22628167588E+04  0.22628167588E+04  0.00000000000E+00 0.  1.
         23    2    1    2    0    0 -0.40164940901E+03 -0.13737605643E+02  0.99493022057E+02  0.42486747309E+03  0.95407225513E+02 0.  0.
         11    1    3    3    0    0 -0.27457507023E+03 -0.21035598864E+02  0.22933581593E+02  0.27633297808E+03  0.00000000000E+00 0. -1.
        -11    1    3    3    0    0 -0.12707433879E+03  0.72979932211E+01  0.76559440464E+02  0.14853449501E+03  0.00000000000E+00 0.  1.
         22    1    1    2    0    0  0.40164940901E+03  0.13737605643E+02 -0.20809032229E+04  0.21193558438E+04  0.00000000000E+00 0.  1.
<mgrwt>
<rscale>  0 0.15959592E+04</rscale>
<asrwt>0</asrwt>
<pdfrwt beam="1">  1        2 0.34812565E+00 0.15959592E+04</pdfrwt>
<pdfrwt beam="2">  1       -2 0.43293318E-01 0.15959592E+04</pdfrwt>
<totfact> 0.23117210E+01</totfact>
</mgrwt>
</event>
<event>
 6    1  0.1878398E-004  0.1876368E+04  0.7818608E-02  0.8666710E-01
          1   -1    0    0  501    0  0.00000000000E+00  0.00000000000E+00  0.11104223765E+04  0.11104223765E+04  0.00000000000E+00 0.  1.
         -1   -1    0    0    0  501 -0.00000000000E+00 -0.00000000000E+00 -0.79266156472E+03  0.79266156472E+03  0.00000000000E+00 0. -1.
         23    2    1    2    0    0 -0.59204310478E+03  0.34616364833E+03  0.80527421409E+03  0.10616484852E+04  0.91030966651E+02 0.  0.
         13    1    3    3    0    0 -0.33255302691E+03  0.20441940132E+03  0.38936290497E+03  0.55134587975E+03  0.00000000000E+00 0. -1.
        -13    1    3    3    0    0 -0.25949007787E+03  0.14174424701E+03  0.41591130912E+03  0.51030260545E+03  0.00000000000E+00 0.  1.
         22    1    1    2    0    0  0.59204310478E+03 -0.34616364833E+03 -0.48751340226E+03  0.84143545607E+03  0.00000000000E+00 0. -1.
<mgrwt>
<rscale>  0 0.18763679E+04</rscale>
<asrwt>0</asrwt>
<pdfrwt beam="1">  1        1 0.17083421E+00 0.18763679E+04</pdfrwt>
<pdfrwt beam="2">  1       -1 0.12194793E+00 0.18763679E+04</pdfrwt>
<totfact> 0.69468674E+00</totfact>
</mgrwt>
</event>
<event>
 6    1  0.1878398E-004  0.3086218E+04  0.7818608E-02  0.8219531E-01
          2   -1    0    0  501    0  0.00000000000E+00  0.00000000000E+00  0.14914309483E+04  0.14914309483E+04  0.00000000000E+00 0.  1.
         -2   -1    0    0    0  501 -0.00000000000E+00 -0.00000000000E+00 -0.15965772337E+04  0.15965772337E+04  0.00000000000E+00 0. -1.
         23    2    1    2    0    0  0.71286876590E+03  0.56548471741E+03 -0.12979396355E+04  0.15877712611E+04  0.91735692015E+02 0.  0.
         11    1    3    3    0    0  0.15583132320E+02  0.28505047331E+02 -0.29283394213E+02  0.43736585519E+02  0.00000000000E+00 0.  1.
        -11    1    3    3    0    0  0.69728563358E+03  0.53697967008E+03 -0.12686562413E+04  0.15440346756E+04  0.00000000000E+00 0. -1.
         22    1    1    2    0    0 -0.71286876590E+03 -0.56548471741E+03  0.11927933501E+04  0.15002369209E+04  0.00000000000E+00 0.  1.
<mgrwt>
<rscale>  0 0.30862176E+04</rscale>
<asrwt>0</asrwt>
<pdfrwt beam="1">  1        2 0.22945092E+00 0.30862176E+04</pdfrwt>
<pdfrwt beam="2">  1       -2 0.24562726E+00 0.30862176E+04</pdfrwt>
<totfact> 0.74603282E-01</totfact>
</mgrwt>
</event>
<event>
 6    1  0.1878398E-004  0.1472085E+04  0.7818608E-02  0.8903231E-01
          2   -1    0    0  501    0  0.00000000000E+00  0.00000000000E+00  0.10256258998E+04  0.10256258998E+04  0.00000000000E+00 0.  1.
         -2   -1    0    0    0  501 -0.00000000000E+00 -0.00000000000E+00 -0.52822224512E+03  0.52822224512E+03  0.00000000000E+00 0. -1.
         23    2    1    2    0    0 -0.21602482728E+02 -0.28507832130E+03  0.96248577614E+03  0.10079198563E+04  0.88245402085E+02 0.  0.
         13    1    3    3    0    0  0.32325423504E+02 -0.11307186059E+03  0.42751380607E+03  0.44339399302E+03  0.00000000000E+00 0. -1.
        -13    1    3    3    0    0 -0.53927906232E+02 -0.17200646071E+03  0.53497197006E+03  0.56452586331E+03  0.00000000000E+00 0.  1.
         22    1    1    2    0    0  0.21602482728E+02  0.28507832130E+03 -0.46508212148E+03  0.54592828857E+03  0.00000000000E+00 0. -1.
<mgrwt>
<rscale>  0 0.14720848E+04</rscale>
<asrwt>0</asrwt>
<pdfrwt beam="1">  1        2 0.15778860E+00 0.14720848E+04</pdfrwt>
<pdfrwt beam="2">  1       -2 0.81264961E-01 0.14720848E+04</pdfrwt>
<totfact> 0.31340661E+01</totfact>
</mgrwt>
</event>
<event>
 6    1  0.1878398E-004  0.1916136E+04  0.7818608E-02  0.8646866E-01
         -2   -1    0    0    0  501 -0.00000000000E+00  0.00000000000E+00  0.60186972251E+03  0.60186972251E+03  0.00000000000E+00 0. -1.
          2   -1    0    0  501    0  0.00000000000E+00 -0.00000000000E+00 -0.15250711818E+04  0.15250711818E+04  0.00000000000E+00 0.  1.
         23    2    1    2    0    0 -0.63056868512E+03  0.16644830930E+03 -0.12381654162E+04  0.14027004743E+04  0.95880740126E+02 0.  0.
         13    1    3    3    0    0 -0.43250344640E+03  0.11979186436E+03 -0.75307360038E+03  0.87665795468E+03  0.00000000000E+00 0. -1.
        -13    1    3    3    0    0 -0.19806523872E+03  0.46656444937E+02 -0.48509181581E+03  0.52604251959E+03  0.00000000000E+00 0.  1.
         22    1    1    2    0    0  0.63056868512E+03 -0.16644830930E+03  0.31496395692E+03  0.72424043002E+03  0.00000000000E+00 0. -1.
<mgrwt>
<rscale>  0 0.19161359E+04</rscale>
<asrwt>0</asrwt>
<pdfrwt beam="1">  1        2 0.23462633E+00 0.19161359E+04</pdfrwt>
<pdfrwt beam="2">  1       -2 0.92595344E-01 0.19161359E+04</pdfrwt>
<totfact> 0.11371778E+01</totfact>
</mgrwt>
</event>
<event>
 6    1  0.1878398E-004  0.6219513E+04  0.7818608E-02  0.7663765E-01
          1   -1    0    0  501    0  0.00000000000E+00  0.00000000000E+00  0.25490502838E+04  0.25490502838E+04  0.00000000000E+00 0.  1.
         -1   -1    0    0    0  501 -0.00000000000E+00 -0.00000000000E+00 -0.37937998110E+04  0.37937998110E+04  0.00000000000E+00 0. -1.
         23    2    1    2    0    0 -0.20005538220E+04 -0.79991585119E+03  0.16634510215E+04  0.27234977501E+04  0.91047953230E+02 0.  0.
         11    1    3    3    0    0 -0.11384785675E+04 -0.41263320797E+03  0.96184540764E+03  0.15464624797E+04  0.00000000000E+00 0. -1.
        -11    1    3    3    0    0 -0.86207525453E+03 -0.38728264322E+03  0.70160561388E+03  0.11770352704E+04  0.00000000000E+00 0.  1.
         22    1    1    2    0    0  0.20005538220E+04  0.79991585119E+03 -0.29082005487E+04  0.36193523447E+04  0.00000000000E+00 0. -1.
<mgrwt>
<rscale>  0 0.62195133E+04</rscale>
<asrwt>0</asrwt>
<pdfrwt beam="1">  1        1 0.39216158E+00 0.62195133E+04</pdfrwt>
<pdfrwt beam="2">  1       -1 0.58366151E+00 0.62195133E+04</pdfrwt>
<totfact> 0.43382136E-04</totfact>
</mgrwt>
</event>
<event>
 6    1  0.1878398E-004  0.2290815E+04  0.7818608E-02  0.8481551E-01
         -2   -1    0    0    0  501 -0.00000000000E+00  0.00000000000E+00  0.36836721564E+03  0.36836721564E+03  0.00000000000E+00 0. -1.
          2   -1    0    0  501    0  0.00000000000E+00 -0.00000000000E+00 -0.35615498723E+04  0.35615498723E+04  0.00000000000E+00 0.  1.
         23    2    1    2    0    0 -0.90969889938E+03  0.25589638309E+03 -0.27039339917E+04  0.28657745681E+04  0.91486595532E+02 0.  0.
         13    1    3    3    0    0 -0.33756399750E+03  0.95680592676E+02 -0.87370121043E+03  0.94151900317E+03  0.00000000000E+00 0.  1.
        -13    1    3    3    0    0 -0.57213490188E+03  0.16021579041E+03 -0.18302327812E+04  0.19242555649E+04  0.00000000000E+00 0. -1.
         22    1    1    2    0    0  0.90969889938E+03 -0.25589638309E+03 -0.48924866498E+03  0.10641425199E+04  0.00000000000E+00 0. -1.
<mgrwt>
<rscale>  0 0.22908149E+04</rscale>
<asrwt>0</asrwt>
<pdfrwt beam="1">  1        2 0.54793077E+00 0.22908149E+04</pdfrwt>
<pdfrwt beam="2">  1       -2 0.56671877E-01 0.22908149E+04</pdfrwt>
<totfact> 0.19550601E+00</totfact>
</mgrwt>
</event>
<event>
 6    1  0.1878398E-004  0.3431036E+04  0.7818608E-02  0.8130331E-01
         -2   -1    0    0    0  501 -0.00000000000E+00  0.00000000000E+00  0.33794187671E+04  0.33794187671E+04  0.00000000000E+00 0. -1.
          2   -1    0    0  501    0  0.00000000000E+00 -0.00000000000E+00 -0.87086022287E+03  0.87086022287E+03  0.00000000000E+00 0.  1.
         23    2    1    2    0    0  0.50803968945E+03 -0.15299860679E+04  0.19780251226E+04  0.25530967942E+04  0.82208034555E+02 0.  0.
         13    1    3    3    0    0  0.27975211491E+02 -0.40581812896E+02  0.56271419165E+02  0.74806207033E+02  0.00000000000E+00 0. -1.
        -13    1    3    3    0    0  0.48006447796E+03 -0.14894042550E+04  0.19217537035E+04  0.24782905872E+04  0.00000000000E+00 0.  1.
         22    1    1    2    0    0 -0.50803968945E+03  0.15299860679E+04  0.53053342159E+03  0.16971821957E+04  0.00000000000E+00 0. -1.
<mgrwt>
<rscale>  0 0.34310356E+04</rscale>
<asrwt>0</asrwt>
<pdfrwt beam="1">  1        2 0.13397850E+00 0.34310356E+04</pdfrwt>
<pdfrwt beam="2">  1       -2 0.51991057E+00 0.34310356E+04</pdfrwt>
<totfact> 0.31655054E-02</totfact>
</mgrwt>
</event>
<event>
 6    1  0.1878398E-004  0.5416935E+04  0.7818608E-02  0.7767223E-01
          2   -1    0    0  501    0  0.00000000000E+00  0.00000000000E+00  0.33922002553E+04  0.33922002553E+04  0.00000000000E+00 0.  1.
         -2   -1    0    0    0  501 -0.00000000000E+00 -0.00000000000E+00 -0.21625481290E+04  0.21625481290E+04  0.00000000000E+00 0. -1.
         23    2    1    2    0    0  0.17523029871E+04  0.62705657538E+03  0.26317172799E+04  0.32246083881E+04  0.91639009864E+02 0.  0.
         13    1    3    3    0    0  0.12246416211E+04  0.46999229681E+03  0.19036594268E+04  0.23118302430E+04  0.00000000000E+00 0. -1.
        -13    1    3    3    0    0  0.52766136595E+03  0.15706427857E+03  0.72805785313E+03  0.91277814513E+03  0.00000000000E+00 0.  1.
         22    1    1    2    0    0 -0.17523029871E+04 -0.62705657538E+03 -0.14020651535E+04  0.23301399962E+04  0.00000000000E+00 0. -1.
<mgrwt>
<rscale>  0 0.54169350E+04</rscale>
<asrwt>0</asrwt>
<pdfrwt beam="1">  1        2 0.52187696E+00 0.54169350E+04</pdfrwt>
<pdfrwt beam="2">  1       -2 0.33269971E+00 0.54169350E+04</pdfrwt>
<totfact> 0.13556275E-02</totfact>
</mgrwt>
</event>
<event>
 6    1  0.1878398E-004  0.1016857E+04  0.7818608E-02  0.9290248E-01
         -2   -1    0    0    0  501 -0.00000000000E+00  0.00000000000E+00  0.37163752916E+03  0.37163752916E+03  0.00000000000E+00 0. -1.
          2   -1    0    0  501    0  0.00000000000E+00 -0.00000000000E+00 -0.69556837548E+03  0.69556837548E+03  0.00000000000E+00 0.  1.
         23    2    1    2    0    0  0.33494664474E+03  0.20240615334E+03  0.17042526052E+03  0.43669383807E+03  0.92191285118E+02 0.  0.
         13    1    3    3    0    0  0.11491691300E+03  0.87068555441E+02  0.10911938134E+03  0.18081446188E+03  0.00000000000E+00 0.  1.
        -13    1    3    3    0    0  0.22002973173E+03  0.11533759790E+03  0.61305879179E+02  0.25587937619E+03  0.00000000000E+00 0. -1.
         22    1    1    2    0    0 -0.33494664474E+03 -0.20240615334E+03 -0.49435610684E+03  0.63051206658E+03  0.00000000000E+00 0.  1.
<mgrwt>
<rscale>  0 0.10168566E+04</rscale>
<asrwt>0</asrwt>
<pdfrwt beam="1">  1        2 0.10701052E+00 0.10168566E+04</pdfrwt>
<pdfrwt beam="2">  1       -2 0.57175005E-01 0.10168566E+04</pdfrwt>
<totfact> 0.11817172E+02</totfact>
</mgrwt>
</event>
<event>
 6    1  0.1878398E-004  0.2348495E+04  0.7818608E-02  0.8459042E-01
         -2   -1    0    0    0  501 -0.00000000000E+00  0.00000000000E+00  0.10884596254E+04  0.10884596254E+04  0.00000000000E+00 0. -1.
          2   -1    0    0  501    0  0.00000000000E+00 -0.00000000000E+00 -0.12667965205E+04  0.12667965205E+04  0.00000000000E+00 0.  1.
         23    2    1    2    0    0  0.52687615024E+03  0.10398556321E+04  0.36788231949E+02  0.11698545121E+04  0.91148188461E+02 0.  0.
         11    1    3    3    0    0  0.50215046232E+03  0.98918608344E+03  0.15101213906E+02  0.11094468176E+04  0.00000000000E+00 0. -1.
        -11    1    3    3    0    0  0.24725687925E+02  0.50669548623E+02  0.21687018043E+02  0.60407694482E+02  0.00000000000E+00 0.  1.
         22    1    1    2    0    0 -0.52687615024E+03 -0.10398556321E+04 -0.21512512703E+03  0.11854016338E+04  0.00000000000E+00 0.  1.
<mgrwt>
<rscale>  0 0.23484947E+04</rscale>
<asrwt>0</asrwt>
<pdfrwt beam="1">  1        2 0.19489177E+00 0.23484947E+04</pdfrwt>
<pdfrwt beam="2">  1       -2 0.16745533E+00 0.23484947E+04</pdfrwt>
<totfact> 0.34702426E+00</totfact>
</mgrwt>
</event>
<event>
 6    1  0.1878398E-004  0.3880647E+04  0.7818608E-02  0.8029066E-01
         -1   -1    0    0    0  501 -0.00000000000E+00  0.00000000000E+00  0.21734235725E+04  0.21734235725E+04  0.00000000000E+00 0. -1.
          1   -1    0    0  501    0  0.00000000000E+00 -0.00000000000E+00 -0.17322230856E+04  0.17322230856E+04  0.00000000000E+00 0.  1.
         23    2    1    2    0    0 -0.14710730378E+04  0.19205229368E+03  0.14776354065E+04  0.20959126145E+04  0.92213487298E+02 0.  0.
         11    1    3    3    0    0 -0.41382426161E+03  0.79750036094E+02  0.37391495201E+03  0.56340303433E+03  0.00000000000E+00 0. -1.
        -11    1    3    3    0    0 -0.10572487762E+04  0.11230225759E+03  0.11037204545E+04  0.15325095802E+04  0.00000000000E+00 0.  1.
         22    1    1    2    0    0  0.14710730378E+04 -0.19205229368E+03 -0.10364349195E+04  0.18097340436E+04  0.00000000000E+00 0.  1.
<mgrwt>
<rscale>  0 0.38806466E+04</rscale>
<asrwt>0</asrwt>
<pdfrwt beam="1">  1        1 0.26649586E+00 0.38806466E+04</pdfrwt>
<pdfrwt beam="2">  1       -1 0.33437286E+00 0.38806466E+04</pdfrwt>
<totfact> 0.70540184E-02</totfact>
</mgrwt>
</event>
<event>
 6    1  0.1878398E-004  0.1450661E+04  0.7818608E-02  0.8917943E-01
          2   -1    0    0  501    0  0.00000000000E+00  0.00000000000E+00  0.22543244474E+04  0.22543244474E+04  0.00000000000E+00 0. -1.
         -2   -1    0    0    0  501 -0.00000000000E+00 -0.00000000000E+00 -0.23337546024E+03  0.23337546024E+03  0.00000000000E+00 0.  1.
         23    2    1    2    0    0 -0.24079564882E+03 -0.47104350112E+03  0.18582604093E+04  0.19342271461E+04  0.90765518139E+02 0.  0.
         13    1    3    3    0    0 -0.44094109733E+02 -0.17628113731E+03  0.58481208316E+03  0.61239244157E+03  0.00000000000E+00 0. -1.
        -13    1    3    3    0    0 -0.19670153909E+03 -0.29476236382E+03  0.12734483262E+04  0.13218347045E+04  0.00000000000E+00 0.  1.
         22    1    1    2    0    0  0.24079564882E+03  0.47104350112E+03  0.16268857783E+03  0.55347276157E+03  0.00000000000E+00 0.  1.
<mgrwt>
<rscale>  0 0.14506605E+04</rscale>
<asrwt>0</asrwt>
<pdfrwt beam="1">  1        2 0.34681913E+00 0.14506605E+04</pdfrwt>
<pdfrwt beam="2">  1       -2 0.35903919E-01 0.14506605E+04</pdfrwt>
<totfact> 0.34093938E+01</totfact>
</mgrwt>
</event>
<event>
 6    1  0.1878398E-004  0.1724886E+04  0.7818608E-02  0.8747297E-01
         -2   -1    0    0    0  501 -0.00000000000E+00  0.00000000000E+00  0.55860448360E+03  0.55860448360E+03  0.00000000000E+00 0. -1.
          2   -1    0    0  501    0  0.00000000000E+00 -0.00000000000E+00 -0.13315464218E+04  0.13315464218E+04  0.00000000000E+00 0.  1.
         23    2    1    2    0    0  0.82735456855E+03 -0.21514625519E+03 -0.48925271145E+03  0.98943837049E+03  0.93896645882E+02 0.  0.
         11    1    3    3    0    0  0.18407340033E+03 -0.69761578376E+02 -0.15200262503E+03  0.24870563432E+03  0.00000000000E+00 0.  1.
        -11    1    3    3    0    0  0.64328116823E+03 -0.14538467681E+03 -0.33725008642E+03  0.74073273617E+03  0.00000000000E+00 0. -1.
         22    1    1    2    0    0 -0.82735456855E+03  0.21514625519E+03 -0.28368922679E+03  0.90071253496E+03  0.00000000000E+00 0.  1.
<mgrwt>
<rscale>  0 0.17248859E+04</rscale>
<asrwt>0</asrwt>
<pdfrwt beam="1">  1        2 0.20485329E+00 0.17248859E+04</pdfrwt>
<pdfrwt beam="2">  1       -2 0.85939153E-01 0.17248859E+04</pdfrwt>
<totfact> 0.17686300E+01</totfact>
</mgrwt>
</event>
<event>
 6    1  0.1878398E-004  0.3148825E+04  0.7818608E-02  0.8202465E-01
          2   -1    0    0  501    0  0.00000000000E+00  0.00000000000E+00  0.20494214641E+04  0.20494214641E+04  0.00000000000E+00 0.  1.
         -2   -1    0    0    0  501 -0.00000000000E+00 -0.00000000000E+00 -0.12094995770E+04  0.12094995770E+04  0.00000000000E+00 0. -1.
         23    2    1    2    0    0 -0.11185411776E+04 -0.25404463971E+03 -0.69375664527E+03  0.13437597201E+04  0.93374821855E+02 0.  0.
         13    1    3    3    0    0 -0.21834586860E+03 -0.17501546404E+02 -0.15478774022E+03  0.26821720113E+03  0.00000000000E+00 0. -1.
        -13    1    3    3    0    0 -0.90019530905E+03 -0.23654309330E+03 -0.53896890505E+03  0.10755425189E+04  0.00000000000E+00 0.  1.
         22    1    1    2    0    0  0.11185411776E+04  0.25404463971E+03  0.15336785324E+04  0.19151613211E+04  0.00000000000E+00 0.  1.
<mgrwt>
<rscale>  0 0.31488248E+04</rscale>
<asrwt>0</asrwt>
<pdfrwt beam="1">  1        2 0.31529561E+00 0.31488248E+04</pdfrwt>
<pdfrwt beam="2">  1       -2 0.18607686E+00 0.31488248E+04</pdfrwt>
<totfact> 0.87366737E-01</totfact>
</mgrwt>
</event>
<event>
 6    1  0.1878398E-004  0.1108885E+04  0.7818608E-02  0.9196575E-01
         -2   -1    0    0    0  501 -0.00000000000E+00  0.00000000000E+00  0.28816386323E+03  0.28816386323E+03  0.00000000000E+00 0. -1.
          2   -1    0    0  501    0  0.00000000000E+00 -0.00000000000E+00 -0.10667769896E+04  0.10667769896E+04  0.00000000000E+00 0.  1.
         23    2    1    2    0    0  0.30608311930E+03  0.24720023715E+03 -0.86281634675E+03  0.95259148288E+03  0.90463538878E+02 0.  0.
         11    1    3    3    0    0  0.14520490779E+03  0.16116346980E+03 -0.39848916914E+03  0.45370887931E+03  0.00000000000E+00 0. -1.
        -11    1    3    3    0    0  0.16087821151E+03  0.86036767352E+02 -0.46432717761E+03  0.49888260357E+03  0.00000000000E+00 0.  1.
         22    1    1    2    0    0 -0.30608311930E+03 -0.24720023715E+03  0.84203220386E+02  0.40234936994E+03  0.00000000000E+00 0. -1.
<mgrwt>
<rscale>  0 0.11088852E+04</rscale>
<asrwt>0</asrwt>
<pdfrwt beam="1">  1        2 0.16411954E+00 0.11088852E+04</pdfrwt>
<pdfrwt beam="2">  1       -2 0.44332902E-01 0.11088852E+04</pdfrwt>
<totfact> 0.10934222E+02</totfact>
</mgrwt>
</event>
<event>
 6    1  0.1878398E-004  0.3401654E+04  0.7818608E-02  0.8137501E-01
         -2   -1    0    0    0  501 -0.00000000000E+00  0.00000000000E+00  0.24026723675E+04  0.24026723675E+04  0.00000000000E+00 0. -1.
          2   -1    0    0  501    0  0.00000000000E+00 -0.00000000000E+00 -0.12039977923E+04  0.12039977923E+04  0.00000000000E+00 0.  1.
         23    2    1    2    0    0 -0.30971343797E+03  0.94783898947E+03 -0.85965721663E+03  0.13195210766E+04  0.88341257568E+02 0.  0.
         11    1    3    3    0    0 -0.50766001089E+02  0.22036861583E+03 -0.15514112591E+03  0.27424128548E+03  0.00000000000E+00 0. -1.
        -11    1    3    3    0    0 -0.25894743688E+03  0.72747037364E+03 -0.70451609071E+03  0.10452797911E+04  0.00000000000E+00 0.  1.
         22    1    1    2    0    0  0.30971343797E+03 -0.94783898947E+03  0.20583317919E+04  0.22871490833E+04  0.00000000000E+00 0. -1.
<mgrwt>
<rscale>  0 0.34016538E+04</rscale>
<asrwt>0</asrwt>
<pdfrwt beam="1">  1        2 0.18523043E+00 0.34016538E+04</pdfrwt>
<pdfrwt beam="2">  1       -2 0.36964190E+00 0.34016538E+04</pdfrwt>
<totfact> 0.18199821E-01</totfact>
</mgrwt>
</event>
<event>
 6    1  0.1878398E-004  0.2875481E+04  0.7818608E-02  0.8280210E-01
         -2   -1    0    0    0  501 -0.00000000000E+00  0.00000000000E+00  0.54688837068E+03  0.54688837068E+03  0.00000000000E+00 0. -1.
          2   -1    0    0  501    0  0.00000000000E+00 -0.00000000000E+00 -0.37797439861E+04  0.37797439861E+04  0.00000000000E+00 0.  1.
         23    2    1    2    0    0 -0.29648726653E+03 -0.12173521676E+04 -0.56142470351E+03  0.13759724109E+04  0.90837100028E+02 0.  0.
         11    1    3    3    0    0 -0.12460290758E+03 -0.45057239385E+03 -0.25519519146E+03  0.53260299701E+03  0.00000000000E+00 0. -1.
        -11    1    3    3    0    0 -0.17188435895E+03 -0.76677977372E+03 -0.30622951205E+03  0.84336941389E+03  0.00000000000E+00 0.  1.
         22    1    1    2    0    0  0.29648726653E+03  0.12173521676E+04 -0.26714309119E+04  0.29506599459E+04  0.00000000000E+00 0.  1.
<mgrwt>
<rscale>  0 0.28754812E+04</rscale>
<asrwt>0</asrwt>
<pdfrwt beam="1">  1        2 0.58149907E+00 0.28754812E+04</pdfrwt>
<pdfrwt beam="2">  1       -2 0.84136673E-01 0.28754812E+04</pdfrwt>
<totfact> 0.54257626E-01</totfact>
</mgrwt>
</event>
<event>
 6    1  0.1878398E-004  0.2367675E+04  0.7818608E-02  0.8451706E-01
         -2   -1    0    0    0  501 -0.00000000000E+00  0.00000000000E+00  0.10609868773E+04  0.10609868773E+04  0.00000000000E+00 0. -1.
          2   -1    0    0  501    0  0.00000000000E+00 -0.00000000000E+00 -0.13209125762E+04  0.13209125762E+04  0.00000000000E+00 0.  1.
         23    2    1    2    0    0  0.10716843228E+04  0.37868620041E+03 -0.45735470713E+03  0.12282579409E+04  0.86796976696E+02 0.  0.
         11    1    3    3    0    0  0.39762538931E+03  0.14525816553E+03 -0.21563109833E+03  0.47508173554E+03  0.00000000000E+00 0.  1.
        -11    1    3    3    0    0  0.67405893352E+03  0.23342803487E+03 -0.24172360880E+03  0.75317620540E+03  0.00000000000E+00 0. -1.
         22    1    1    2    0    0 -0.10716843228E+04 -0.37868620041E+03  0.19742900817E+03  0.11536415125E+04  0.00000000000E+00 0. -1.
<mgrwt>
<rscale>  0 0.23676747E+04</rscale>
<asrwt>0</asrwt>
<pdfrwt beam="1">  1        2 0.20321732E+00 0.23676747E+04</pdfrwt>
<pdfrwt beam="2">  1       -2 0.16322875E+00 0.23676747E+04</pdfrwt>
<totfact> 0.34567886E+00</totfact>
</mgrwt>
</event>
<event>
 6    1  0.1878398E-004  0.3373170E+04  0.7818608E-02  0.8144523E-01
          2   -1    0    0  501    0  0.00000000000E+00  0.00000000000E+00  0.15493349455E+04  0.15493349455E+04  0.00000000000E+00 0.  1.
         -2   -1    0    0    0  501 -0.00000000000E+00 -0.00000000000E+00 -0.18359934505E+04  0.18359934505E+04  0.00000000000E+00 0. -1.
         23    2    1    2    0    0 -0.19923610991E+03 -0.59550417181E+03  0.14262731612E+04  0.15609229753E+04  0.88910957109E+02 0.  0.
         11    1    3    3    0    0 -0.71142568854E+02 -0.35048570985E+03  0.79078201704E+03  0.86789267562E+03  0.00000000000E+00 0. -1.
        -11    1    3    3    0    0 -0.12809354106E+03 -0.24501846195E+03  0.63549114412E+03  0.69303029964E+03  0.00000000000E+00 0.  1.
         22    1    1    2    0    0  0.19923610991E+03  0.59550417181E+03 -0.17129316661E+04  0.18244054207E+04  0.00000000000E+00 0. -1.
<mgrwt>
<rscale>  0 0.33731699E+04</rscale>
<asrwt>0</asrwt>
<pdfrwt beam="1">  1        2 0.23835922E+00 0.33731699E+04</pdfrwt>
<pdfrwt beam="2">  1       -2 0.28246053E+00 0.33731699E+04</pdfrwt>
<totfact> 0.40213425E-01</totfact>
</mgrwt>
</event>
<event>
 6    1  0.1878398E-004  0.2707710E+04  0.7818608E-02  0.8332508E-01
         -1   -1    0    0    0  501 -0.00000000000E+00  0.00000000000E+00  0.83116651435E+03  0.83116651435E+03  0.00000000000E+00 0. -1.
          1   -1    0    0  501    0  0.00000000000E+00 -0.00000000000E+00 -0.22052428761E+04  0.22052428761E+04  0.00000000000E+00 0.  1.
         23    2    1    2    0    0 -0.11251090388E+04  0.75019931527E+03 -0.68233831754E+03  0.15174719712E+04  0.92012182743E+02 0.  0.
         11    1    3    3    0    0 -0.13624461682E+03  0.12783268834E+03 -0.85852502267E+02  0.20560749978E+03  0.00000000000E+00 0. -1.
        -11    1    3    3    0    0 -0.98886442201E+03  0.62236662693E+03 -0.59648581527E+03  0.13118644714E+04  0.00000000000E+00 0.  1.
         22    1    1    2    0    0  0.11251090388E+04 -0.75019931527E+03 -0.69173804417E+03  0.15189374193E+04  0.00000000000E+00 0. -1.
<mgrwt>
<rscale>  0 0.27077105E+04</rscale>
<asrwt>0</asrwt>
<pdfrwt beam="1">  1        1 0.33926813E+00 0.27077105E+04</pdfrwt>
<pdfrwt beam="2">  1       -1 0.12787177E+00 0.27077105E+04</pdfrwt>
<totfact> 0.99651881E-01</totfact>
</mgrwt>
</event>
<event>
 6    1  0.1878398E-004  0.2022589E+04  0.7818608E-02  0.8596132E-01
          2   -1    0    0  501    0  0.00000000000E+00  0.00000000000E+00  0.23579199088E+04  0.23579199088E+04  0.00000000000E+00 0.  1.
         -2   -1    0    0    0  501 -0.00000000000E+00 -0.00000000000E+00 -0.43373678329E+03  0.43373678329E+03  0.00000000000E+00 0. -1.
         23    2    1    2    0    0  0.75925970957E+03  0.47114582654E+03  0.31580197811E+03  0.95172636413E+03  0.87169297067E+02 0.  0.
         11    1    3    3    0    0  0.25281872709E+03  0.20555250814E+03  0.12178142624E+03  0.34785033872E+03  0.00000000000E+00 0. -1.
        -11    1    3    3    0    0  0.50644098248E+03  0.26559331840E+03  0.19402055187E+03  0.60387602541E+03  0.00000000000E+00 0.  1.
         22    1    1    2    0    0 -0.75925970957E+03 -0.47114582654E+03  0.16083811474E+04  0.18399303280E+04  0.00000000000E+00 0.  1.
<mgrwt>
<rscale>  0 0.20225890E+04</rscale>
<asrwt>0</asrwt>
<pdfrwt beam="1">  1        2 0.36275690E+00 0.20225890E+04</pdfrwt>
<pdfrwt beam="2">  1       -2 0.66728737E-01 0.20225890E+04</pdfrwt>
<totfact> 0.80405988E+00</totfact>
</mgrwt>
</event>
<event>
 6    1  0.1878398E-004  0.2798567E+04  0.7818608E-02  0.8303713E-01
         -2   -1    0    0    0  501 -0.00000000000E+00  0.00000000000E+00  0.26218133194E+04  0.26218133194E+04  0.00000000000E+00 0. -1.
          2   -1    0    0  501    0  0.00000000000E+00 -0.00000000000E+00 -0.74680946847E+03  0.74680946847E+03  0.00000000000E+00 0.  1.
         23    2    1    2    0    0  0.10172992644E+04 -0.24975295951E+03 -0.17554341055E+03  0.10660115733E+04  0.91054111788E+02 0.  0.
         11    1    3    3    0    0  0.63260905086E+03 -0.20048220398E+03 -0.10865378507E+03  0.67245295029E+03  0.00000000000E+00 0. -1.
        -11    1    3    3    0    0  0.38469021351E+03 -0.49270755528E+02 -0.66889625483E+02  0.39355862297E+03  0.00000000000E+00 0.  1.
         22    1    1    2    0    0 -0.10172992644E+04  0.24975295951E+03  0.20505472615E+04  0.23026112146E+04  0.00000000000E+00 0. -1.
<mgrwt>
<rscale>  0 0.27985675E+04</rscale>
<asrwt>0</asrwt>
<pdfrwt beam="1">  1        2 0.11489377E+00 0.27985675E+04</pdfrwt>
<pdfrwt beam="2">  1       -2 0.40335589E+00 0.27985675E+04</pdfrwt>
<totfact> 0.23144335E-01</totfact>
</mgrwt>
</event>
<event>
 6    1  0.1878398E-004  0.5928907E+04  0.7818608E-02  0.7699279E-01
         -1   -1    0    0    0  501 -0.00000000000E+00  0.00000000000E+00  0.21424265641E+04  0.21424265641E+04  0.00000000000E+00 0. -1.
          1   -1    0    0  501    0  0.00000000000E+00 -0.00000000000E+00 -0.41018834398E+04  0.41018834398E+04  0.00000000000E+00 0.  1.
         23    2    1    2    0    0  0.28936276946E+04  0.58934635572E+03 -0.71465589720E+03  0.30396353187E+04  0.90771457662E+02 0.  0.
         11    1    3    3    0    0  0.23652276484E+04  0.50271748065E+03 -0.55585008394E+03  0.24811279713E+04  0.00000000000E+00 0. -1.
        -11    1    3    3    0    0  0.52840004614E+03  0.86628875069E+02 -0.15880581326E+03  0.55850734739E+03  0.00000000000E+00 0.  1.
         22    1    1    2    0    0 -0.28936276946E+04 -0.58934635572E+03 -0.12448009786E+04  0.32046746852E+04  0.00000000000E+00 0. -1.
<mgrwt>
<rscale>  0 0.59289068E+04</rscale>
<asrwt>0</asrwt>
<pdfrwt beam="1">  1        1 0.63105898E+00 0.59289068E+04</pdfrwt>
<pdfrwt beam="2">  1       -1 0.32960409E+00 0.59289068E+04</pdfrwt>
<totfact> 0.11019178E-03</totfact>
</mgrwt>
</event>
<event>
 6    1  0.1878398E-004  0.3026853E+04  0.7818608E-02  0.8236104E-01
         -1   -1    0    0    0  501 -0.00000000000E+00  0.00000000000E+00  0.29419642295E+04  0.29419642295E+04  0.00000000000E+00 0. -1.
          1   -1    0    0  501    0  0.00000000000E+00 -0.00000000000E+00 -0.77854756246E+03  0.77854756246E+03  0.00000000000E+00 0.  1.
         23    2    1    2    0    0 -0.21275389285E+03 -0.52832029060E+03 -0.63885639719E+03  0.86094523828E+03  0.93288041615E+02 0.  0.
         11    1    3    3    0    0 -0.97049337335E+02 -0.18082486087E+03 -0.28895147968E+03  0.35441382845E+03  0.00000000000E+00 0. -1.
        -11    1    3    3    0    0 -0.11570455552E+03 -0.34749542974E+03 -0.34990491751E+03  0.50653140984E+03  0.00000000000E+00 0.  1.
         22    1    1    2    0    0  0.21275389285E+03  0.52832029060E+03  0.28022730642E+04  0.28595665536E+04  0.00000000000E+00 0. -1.
<mgrwt>
<rscale>  0 0.30268525E+04</rscale>
<asrwt>0</asrwt>
<pdfrwt beam="1">  1        1 0.11977655E+00 0.30268525E+04</pdfrwt>
<pdfrwt beam="2">  1       -1 0.45260987E+00 0.30268525E+04</pdfrwt>
<totfact> 0.60799437E-02</totfact>
</mgrwt>
</event>
<event>
 6    1  0.1878398E-004  0.4040401E+04  0.7818608E-02  0.7996446E-01
          2   -1    0    0  501    0  0.00000000000E+00  0.00000000000E+00  0.24710933948E+04  0.24710933948E+04  0.00000000000E+00 0.  1.
         -2   -1    0    0    0  501 -0.00000000000E+00 -0.00000000000E+00 -0.16515805648E+04  0.16515805648E+04  0.00000000000E+00 0. -1.
         23    2    1    2    0    0 -0.30065658257E+03 -0.83824697830E+03  0.22589719749E+04  0.24300148070E+04  0.94684750591E+02 0.  0.
         13    1    3    3    0    0 -0.19468280303E+03 -0.64934529870E+03  0.16600553523E+04  0.17931353779E+04  0.00000000000E+00 0. -1.
        -13    1    3    3    0    0 -0.10597377954E+03 -0.18890167961E+03  0.59891662259E+03  0.63687942919E+03  0.00000000000E+00 0.  1.
         22    1    1    2    0    0  0.30065658257E+03  0.83824697830E+03 -0.14394591448E+04  0.16926591526E+04  0.00000000000E+00 0. -1.
<mgrwt>
<rscale>  0 0.40404009E+04</rscale>
<asrwt>0</asrwt>
<pdfrwt beam="1">  1        2 0.38016822E+00 0.40404009E+04</pdfrwt>
<pdfrwt beam="2">  1       -2 0.25408932E+00 0.40404009E+04</pdfrwt>
<totfact> 0.17253498E-01</totfact>
</mgrwt>
</event>
<event>
 6    1  0.1878398E-004  0.1067597E+04  0.7818608E-02  0.9237363E-01
         -1   -1    0    0    0  501 -0.00000000000E+00  0.00000000000E+00  0.20886528653E+03  0.20886528653E+03  0.00000000000E+00 0. -1.
          1   -1    0    0  501    0  0.00000000000E+00 -0.00000000000E+00 -0.13642321474E+04  0.13642321474E+04  0.00000000000E+00 0.  1.
         23    2    1    2    0    0 -0.22662542940E+03 -0.41457920996E+03 -0.22911754464E+03  0.53330283767E+03  0.93177576814E+02 0.  0.
         13    1    3    3    0    0 -0.65089050403E+02 -0.21379823032E+03 -0.95650346923E+02  0.24309515963E+03  0.00000000000E+00 0.  1.
        -13    1    3    3    0    0 -0.16153637900E+03 -0.20078097965E+03 -0.13346719771E+03  0.29020767804E+03  0.00000000000E+00 0. -1.
         22    1    1    2    0    0  0.22662542940E+03  0.41457920996E+03 -0.92624931627E+03  0.10397945963E+04  0.00000000000E+00 0.  1.
<mgrwt>
<rscale>  0 0.10675968E+04</rscale>
<asrwt>0</asrwt>
<pdfrwt beam="1">  1        1 0.20988187E+00 0.10675968E+04</pdfrwt>
<pdfrwt beam="2">  1       -1 0.32133121E-01 0.10675968E+04</pdfrwt>
<totfact> 0.73437321E+01</totfact>
</mgrwt>
</event>
<event>
 6    1  0.1878398E-004  0.4083983E+04  0.7818608E-02  0.7987816E-01
          2   -1    0    0  501    0  0.00000000000E+00  0.00000000000E+00  0.30318901087E+04  0.30318901087E+04  0.00000000000E+00 0.  1.
         -2   -1    0    0    0  501 -0.00000000000E+00 -0.00000000000E+00 -0.13752904469E+04  0.13752904469E+04  0.00000000000E+00 0. -1.
         23    2    1    2    0    0 -0.17819825775E+03  0.10811571115E+04 -0.10294014674E+04  0.15062742516E+04  0.92408986712E+02 0.  0.
         13    1    3    3    0    0 -0.94476891726E+02  0.64687583524E+03 -0.67325422113E+03  0.93842712853E+03  0.00000000000E+00 0. -1.
        -13    1    3    3    0    0 -0.83721366027E+02  0.43428127631E+03 -0.35614724631E+03  0.56784712303E+03  0.00000000000E+00 0.  1.
         22    1    1    2    0    0  0.17819825775E+03 -0.10811571115E+04  0.26860011292E+04  0.29009063041E+04  0.00000000000E+00 0.  1.
<mgrwt>
<rscale>  0 0.40839831E+04</rscale>
<asrwt>0</asrwt>
<pdfrwt beam="1">  1        2 0.46644463E+00 0.40839831E+04</pdfrwt>
<pdfrwt beam="2">  1       -2 0.21158315E+00 0.40839831E+04</pdfrwt>
<totfact> 0.14561680E-01</totfact>
</mgrwt>
</event>
<event>
 6    1  0.1878398E-004  0.1259538E+04  0.7818608E-02  0.9062282E-01
          2   -1    0    0  501    0  0.00000000000E+00  0.00000000000E+00  0.23786835340E+04  0.23786835340E+04  0.00000000000E+00 0.  1.
         -2   -1    0    0    0  501 -0.00000000000E+00 -0.00000000000E+00 -0.16673471365E+03  0.16673471365E+03  0.00000000000E+00 0. -1.
         23    2    1    2    0    0  0.44254375415E+03  0.19552804611E+03  0.30730362685E+03  0.58028479053E+03  0.90657199910E+02 0.  0.
         13    1    3    3    0    0  0.18045768741E+03  0.12875266147E+03  0.13275094701E+03  0.25838931618E+03  0.00000000000E+00 0. -1.
        -13    1    3    3    0    0  0.26208606674E+03  0.66775384640E+02  0.17455267984E+03  0.32189547436E+03  0.00000000000E+00 0.  1.
         22    1    1    2    0    0 -0.44254375415E+03 -0.19552804611E+03  0.19046451935E+04  0.19651334571E+04  0.00000000000E+00 0.  1.
<mgrwt>
<rscale>  0 0.12595382E+04</rscale>
<asrwt>0</asrwt>
<pdfrwt beam="1">  1        2 0.36595129E+00 0.12595382E+04</pdfrwt>
<pdfrwt beam="2">  1       -2 0.25651496E-01 0.12595382E+04</pdfrwt>
<totfact> 0.55240080E+01</totfact>
</mgrwt>
</event>
<event>
 6    1  0.1878398E-004  0.8230460E+03  0.7818608E-02  0.9527245E-01
          2   -1    0    0  501    0  0.00000000000E+00  0.00000000000E+00  0.26911570157E+04  0.26911570157E+04  0.00000000000E+00 0.  1.
         -2   -1    0    0    0  501 -0.00000000000E+00 -0.00000000000E+00 -0.62928754851E+02  0.62928754851E+02  0.00000000000E+00 0. -1.
         23    2    1    2    0    0  0.19978307806E+03 -0.31307305515E+03  0.77746788713E+03  0.86643061744E+03  0.91201333219E+02 0.  0.
         13    1    3    3    0    0  0.47018583454E+02 -0.12456529796E+03  0.35638745040E+03  0.38044615316E+03  0.00000000000E+00 0.  1.
        -13    1    3    3    0    0  0.15276449460E+03 -0.18850775719E+03  0.42108043673E+03  0.48598446429E+03  0.00000000000E+00 0. -1.
         22    1    1    2    0    0 -0.19978307806E+03  0.31307305515E+03  0.18507603737E+04  0.18876551531E+04  0.00000000000E+00 0. -1.
<mgrwt>
<rscale>  0 0.82304595E+03</rscale>
<asrwt>0</asrwt>
<pdfrwt beam="1">  1        2 0.41402407E+00 0.82304595E+03</pdfrwt>
<pdfrwt beam="2">  1       -2 0.96813490E-02 0.82304595E+03</pdfrwt>
<totfact> 0.20156772E+02</totfact>
</mgrwt>
</event>
<event>
 6    1  0.1878398E-004  0.2529311E+04  0.7818608E-02  0.8392617E-01
         -2   -1    0    0    0  501 -0.00000000000E+00  0.00000000000E+00  0.48219632274E+03  0.48219632274E+03  0.00000000000E+00 0. -1.
          2   -1    0    0  501    0  0.00000000000E+00 -0.00000000000E+00 -0.33168086591E+04  0.33168086591E+04  0.00000000000E+00 0.  1.
         23    2    1    2    0    0 -0.22157810619E+03  0.93835119673E+03 -0.26442052681E+04  0.28162259237E+04  0.98524757758E+02 0.  0.
         13    1    3    3    0    0 -0.13755804532E+03  0.72819556399E+03 -0.20951883104E+04  0.22223872415E+04  0.00000000000E+00 0.  1.
        -13    1    3    3    0    0 -0.84020060869E+02  0.21015563274E+03 -0.54901695771E+03  0.59383868218E+03  0.00000000000E+00 0. -1.
         22    1    1    2    0    0  0.22157810619E+03 -0.93835119673E+03 -0.19040706829E+03  0.98277905818E+03  0.00000000000E+00 0. -1.
<mgrwt>
<rscale>  0 0.25293105E+04</rscale>
<asrwt>0</asrwt>
<pdfrwt beam="1">  1        2 0.51027826E+00 0.25293105E+04</pdfrwt>
<pdfrwt beam="2">  1       -2 0.74184050E-01 0.25293105E+04</pdfrwt>
<totfact> 0.15809026E+00</totfact>
</mgrwt>
</event>
<event>
 6    1  0.1878398E-004  0.1581989E+04  0.7818608E-02  0.8831690E-01
          3   -1    0    0  501    0  0.00000000000E+00  0.00000000000E+00  0.57955693877E+03  0.57955693877E+03  0.00000000000E+00 0.  1.
         -3   -1    0    0    0  501 -0.00000000000E+00 -0.00000000000E+00 -0.10795701073E+04  0.10795701073E+04  0.00000000000E+00 0. -1.
         23    2    1    2    0    0  0.72042434076E+03  0.93012955200E+02  0.70579436815E+02  0.73541791335E+03  0.90528502595E+02 0.  0.
         11    1    3    3    0    0  0.35635153308E+03  0.45893111802E+02  0.80387293611E+02  0.36817755202E+03  0.00000000000E+00 0.  1.
        -11    1    3    3    0    0  0.36407280768E+03  0.47119843398E+02 -0.98078567955E+01  0.36724036133E+03  0.00000000000E+00 0. -1.
         22    1    1    2    0    0 -0.72042434076E+03 -0.93012955200E+02 -0.57059260535E+03  0.92370913272E+03  0.00000000000E+00 0.  1.
<mgrwt>
<rscale>  0 0.15819891E+04</rscale>
<asrwt>0</asrwt>
<pdfrwt beam="1">  1        3 0.89162607E-01 0.15819891E+04</pdfrwt>
<pdfrwt beam="2">  1       -3 0.16608771E+00 0.15819891E+04</pdfrwt>
<totfact> 0.70582302E-01</totfact>
</mgrwt>
</event>
<event>
 6    1  0.1878398E-004  0.2059123E+04  0.7818608E-02  0.8579467E-01
         -2   -1    0    0    0  501 -0.00000000000E+00  0.00000000000E+00  0.89662530565E+03  0.89662530565E+03  0.00000000000E+00 0. -1.
          2   -1    0    0  501    0  0.00000000000E+00 -0.00000000000E+00 -0.11822067089E+04  0.11822067089E+04  0.00000000000E+00 0.  1.
         23    2    1    2    0    0 -0.97905116545E+03 -0.25667610457E+03 -0.32142988911E+03  0.10660591273E+04  0.93493754389E+02 0.  0.
         11    1    3    3    0    0 -0.92125013929E+03 -0.25565884140E+03 -0.32011386207E+03  0.10082341727E+04  0.00000000000E+00 0.  1.
        -11    1    3    3    0    0 -0.57801026155E+02 -0.10172631779E+01 -0.13160270465E+01  0.57824954614E+02  0.00000000000E+00 0. -1.
         22    1    1    2    0    0  0.97905116545E+03  0.25667610457E+03  0.35848485839E+02  0.10127728873E+04  0.00000000000E+00 0.  1.
<mgrwt>
<rscale>  0 0.20591226E+04</rscale>
<asrwt>0</asrwt>
<pdfrwt beam="1">  1        2 0.18187795E+00 0.20591226E+04</pdfrwt>
<pdfrwt beam="2">  1       -2 0.13794236E+00 0.20591226E+04</pdfrwt>
<totfact> 0.66998386E+00</totfact>
</mgrwt>
</event>
<event>
 6    1  0.1878398E-004  0.4233689E+04  0.7818608E-02  0.7958995E-01
         -2   -1    0    0    0  501 -0.00000000000E+00  0.00000000000E+00  0.17135371371E+04  0.17135371371E+04  0.00000000000E+00 0. -1.
          2   -1    0    0  501    0  0.00000000000E+00 -0.00000000000E+00 -0.26150766635E+04  0.26150766635E+04  0.00000000000E+00 0.  1.
         23    2    1    2    0    0 -0.18174037349E+04 -0.34436934172E+03 -0.15012166075E+04  0.23840935048E+04  0.93295003921E+02 0.  0.
         11    1    3    3    0    0 -0.13641752739E+04 -0.22598485939E+03 -0.11531643534E+04  0.18005086395E+04  0.00000000000E+00 0. -1.
        -11    1    3    3    0    0 -0.45322846101E+03 -0.11838448233E+03 -0.34805225405E+03  0.58358486536E+03  0.00000000000E+00 0.  1.
         22    1    1    2    0    0  0.18174037349E+04  0.34436934172E+03  0.59967708109E+03  0.19445202958E+04  0.00000000000E+00 0.  1.
<mgrwt>
<rscale>  0 0.42336892E+04</rscale>
<asrwt>0</asrwt>
<pdfrwt beam="1">  1        2 0.40231948E+00 0.42336892E+04</pdfrwt>
<pdfrwt beam="2">  1       -2 0.26362110E+00 0.42336892E+04</pdfrwt>
<totfact> 0.12237786E-01</totfact>
</mgrwt>
</event>
<event>
 6    1  0.1878398E-004  0.4249369E+03  0.7818608E-02  0.1035471E+00
         -4   -1    0    0    0  501 -0.00000000000E+00  0.00000000000E+00  0.16037680144E+03  0.16037680144E+03  0.00000000000E+00 0. -1.
          4   -1    0    0  501    0  0.00000000000E+00 -0.00000000000E+00 -0.28147985644E+03  0.28147985644E+03  0.00000000000E+00 0.  1.
         23    2    1    2    0    0 -0.99094407590E+02 -0.15956932402E+03  0.13442049755E+02  0.21080589290E+03  0.94743680513E+02 0.  0.
         13    1    3    3    0    0 -0.11528483314E+03 -0.11683586595E+03  0.42494649789E+01  0.16419278388E+03  0.00000000000E+00 0. -1.
        -13    1    3    3    0    0  0.16190425553E+02 -0.42733458061E+02  0.91925847765E+01  0.46613109018E+02  0.00000000000E+00 0.  1.
         22    1    1    2    0    0  0.99094407590E+02  0.15956932402E+03 -0.13454510476E+03  0.23105076498E+03  0.00000000000E+00 0.  1.
<mgrwt>
<rscale>  0 0.42493688E+03</rscale>
<asrwt>0</asrwt>
<pdfrwt beam="1">  1        4 0.43304593E-01 0.42493688E+03</pdfrwt>
<pdfrwt beam="2">  1       -4 0.24673354E-01 0.42493688E+03</pdfrwt>
<totfact> 0.15534044E+02</totfact>
</mgrwt>
</event>
<event>
 6    1  0.1878398E-004  0.6370038E+03  0.7818608E-02  0.9831476E-01
          1   -1    0    0  501    0  0.00000000000E+00  0.00000000000E+00  0.25165976478E+04  0.25165976478E+04  0.00000000000E+00 0.  1.
         -1   -1    0    0    0  501 -0.00000000000E+00 -0.00000000000E+00 -0.40309768359E+02  0.40309768359E+02  0.00000000000E+00 0. -1.
         23    2    1    2    0    0 -0.11235492686E+03 -0.11832557676E+03  0.23307921847E+04  0.23382900132E+04  0.91560939850E+02 0.  0.
         11    1    3    3    0    0 -0.66600042463E+02 -0.11406486944E+02  0.65809173941E+03  0.66155151808E+03  0.00000000000E+00 0.  1.
        -11    1    3    3    0    0 -0.45754884400E+02 -0.10691908981E+03  0.16727004453E+04  0.16767384951E+04  0.00000000000E+00 0. -1.
         22    1    1    2    0    0  0.11235492686E+03  0.11832557676E+03  0.14549569475E+03  0.21861740301E+03  0.00000000000E+00 0. -1.
<mgrwt>
<rscale>  0 0.63700382E+03</rscale>
<asrwt>0</asrwt>
<pdfrwt beam="1">  1        1 0.38716875E+00 0.63700382E+03</pdfrwt>
<pdfrwt beam="2">  1       -1 0.62015048E-02 0.63700382E+03</pdfrwt>
<totfact> 0.18548872E+02</totfact>
</mgrwt>
</event>
<event>
 6    1  0.1878398E-004  0.1144629E+04  0.7818608E-02  0.9162753E-01
          1   -1    0    0  501    0  0.00000000000E+00  0.00000000000E+00  0.30995908902E+04  0.30995908902E+04  0.00000000000E+00 0. -1.
         -1   -1    0    0    0  501 -0.00000000000E+00 -0.00000000000E+00 -0.10567328202E+03  0.10567328202E+03  0.00000000000E+00 0.  1.
         23    2    1    2    0    0  0.68346047481E+02 -0.52467199190E+03  0.20902002872E+04  0.21580503080E+04  0.91060473154E+02 0.  0.
         11    1    3    3    0    0  0.53174786111E+02 -0.29620790178E+03  0.13551681224E+04  0.13881812990E+04  0.00000000000E+00 0. -1.
        -11    1    3    3    0    0  0.15171261369E+02 -0.22846409012E+03  0.73503216483E+03  0.76986900898E+03  0.00000000000E+00 0.  1.
         22    1    1    2    0    0 -0.68346047481E+02  0.52467199190E+03  0.90371732100E+03  0.10472138643E+04  0.00000000000E+00 0. -1.
<mgrwt>
<rscale>  0 0.11446291E+04</rscale>
<asrwt>0</asrwt>
<pdfrwt beam="1">  1        1 0.47686007E+00 0.11446291E+04</pdfrwt>
<pdfrwt beam="2">  1       -1 0.16257430E-01 0.11446291E+04</pdfrwt>
<totfact> 0.14722529E+01</totfact>
</mgrwt>
</event>
<event>
 6    1  0.1878398E-004  0.4332051E+04  0.7818608E-02  0.7940718E-01
          2   -1    0    0  501    0  0.00000000000E+00  0.00000000000E+00  0.16353574472E+04  0.16353574472E+04  0.00000000000E+00 0.  1.
         -2   -1    0    0    0  501 -0.00000000000E+00 -0.00000000000E+00 -0.28688932531E+04  0.28688932531E+04  0.00000000000E+00 0. -1.
         23    2    1    2    0    0  0.59616461388E+03 -0.11293551826E+03 -0.27779587474E+04  0.28449108012E+04  0.91082305714E+02 0.  0.
         13    1    3    3    0    0  0.59288012331E+02  0.15491336169E+02 -0.30353971907E+03  0.30966338329E+03  0.00000000000E+00 0. -1.
        -13    1    3    3    0    0  0.53687660155E+03 -0.12842685442E+03 -0.24744190284E+04  0.25352474179E+04  0.00000000000E+00 0.  1.
         22    1    1    2    0    0 -0.59616461388E+03  0.11293551826E+03  0.15444229416E+04  0.16593398991E+04  0.00000000000E+00 0.  1.
<mgrwt>
<rscale>  0 0.43320508E+04</rscale>
<asrwt>0</asrwt>
<pdfrwt beam="1">  1        2 0.25159345E+00 0.43320508E+04</pdfrwt>
<pdfrwt beam="2">  1       -2 0.44136819E+00 0.43320508E+04</pdfrwt>
<totfact> 0.32417732E-02</totfact>
</mgrwt>
</event>
<event>
 6    1  0.1878398E-004  0.1727327E+04  0.7818608E-02  0.8745930E-01
          3   -1    0    0  501    0  0.00000000000E+00  0.00000000000E+00  0.45012489527E+03  0.45012489527E+03  0.00000000000E+00 0.  1.
         -3   -1    0    0    0  501 -0.00000000000E+00 -0.00000000000E+00 -0.16571283481E+04  0.16571283481E+04  0.00000000000E+00 0. -1.
         23    2    1    2    0    0 -0.28499255328E+03 -0.78996478400E+03 -0.37154857428E+03  0.92266472009E+03  0.89424422147E+02 0.  0.
         13    1    3    3    0    0 -0.11858404421E+03 -0.43070294359E+03 -0.16614531723E+03  0.47662508074E+03  0.00000000000E+00 0. -1.
        -13    1    3    3    0    0 -0.16640850907E+03 -0.35926184041E+03 -0.20540325705E+03  0.44603963935E+03  0.00000000000E+00 0.  1.
         22    1    1    2    0    0  0.28499255328E+03  0.78996478400E+03 -0.83545487856E+03  0.11845885233E+04  0.00000000000E+00 0. -1.
<mgrwt>
<rscale>  0 0.17273271E+04</rscale>
<asrwt>0</asrwt>
<pdfrwt beam="1">  1        3 0.69249984E-01 0.17273271E+04</pdfrwt>
<pdfrwt beam="2">  1       -3 0.25494282E+00 0.17273271E+04</pdfrwt>
<totfact> 0.34021095E-01</totfact>
</mgrwt>
</event>
<event>
 6    1  0.1878398E-004  0.4245449E+04  0.7818608E-02  0.7956783E-01
         -2   -1    0    0    0  501 -0.00000000000E+00  0.00000000000E+00  0.23899642274E+04  0.23899642274E+04  0.00000000000E+00 0. -1.
          2   -1    0    0  501    0  0.00000000000E+00 -0.00000000000E+00 -0.18853666887E+04  0.18853666887E+04  0.00000000000E+00 0.  1.
         23    2    1    2    0    0 -0.89868681996E+03  0.19206659209E+04  0.18294234244E+03  0.21305564185E+04  0.95954007984E+02 0.  0.
         11    1    3    3    0    0 -0.81366760379E+02  0.18283972696E+03 -0.10537683281E+02  0.20040448652E+03  0.00000000000E+00 0.  1.
        -11    1    3    3    0    0 -0.81732005958E+03  0.17378261940E+04  0.19348002572E+03  0.19301519320E+04  0.00000000000E+00 0. -1.
         22    1    1    2    0    0  0.89868681996E+03 -0.19206659209E+04  0.32165519628E+03  0.21447744976E+04  0.00000000000E+00 0.  1.
<mgrwt>
<rscale>  0 0.42454488E+04</rscale>
<asrwt>0</asrwt>
<pdfrwt beam="1">  1        2 0.29005641E+00 0.42454488E+04</pdfrwt>
<pdfrwt beam="2">  1       -2 0.36768680E+00 0.42454488E+04</pdfrwt>
<totfact> 0.71866818E-02</totfact>
</mgrwt>
</event>
<event>
 6    1  0.1878398E-004  0.1202912E+04  0.7818608E-02  0.9110312E-01
         -2   -1    0    0    0  501 -0.00000000000E+00  0.00000000000E+00  0.27050560410E+03  0.27050560410E+03  0.00000000000E+00 0. -1.
          2   -1    0    0  501    0  0.00000000000E+00 -0.00000000000E+00 -0.13373076506E+04  0.13373076506E+04  0.00000000000E+00 0.  1.
         23    2    1    2    0    0 -0.53245345441E+03 -0.14207930206E+03 -0.22617617992E+03  0.60265403509E+03  0.91340092286E+02 0.  0.
         11    1    3    3    0    0 -0.35379312793E+03 -0.13839252932E+03 -0.15514623096E+03  0.41035645788E+03  0.00000000000E+00 0.  1.
        -11    1    3    3    0    0 -0.17866032649E+03 -0.36867727393E+01 -0.71029948959E+02  0.19229757721E+03  0.00000000000E+00 0. -1.
         22    1    1    2    0    0  0.53245345441E+03  0.14207930206E+03 -0.84062586658E+03  0.10051592196E+04  0.00000000000E+00 0. -1.
<mgrwt>
<rscale>  0 0.12029118E+04</rscale>
<asrwt>0</asrwt>
<pdfrwt beam="1">  1        2 0.20573964E+00 0.12029118E+04</pdfrwt>
<pdfrwt beam="2">  1       -2 0.41616246E-01 0.12029118E+04</pdfrwt>
<totfact> 0.84827046E+01</totfact>
</mgrwt>
</event>
<event>
 6    1  0.1878398E-004  0.1332604E+04  0.7818608E-02  0.9004102E-01
         -2   -1    0    0    0  501 -0.00000000000E+00  0.00000000000E+00  0.10590267764E+04  0.10590267764E+04  0.00000000000E+00 0. -1.
          2   -1    0    0  501    0  0.00000000000E+00 -0.00000000000E+00 -0.41921339890E+03  0.41921339890E+03  0.00000000000E+00 0.  1.
         23    2    1    2    0    0  0.53830082426E+03 -0.23464467095E+03 -0.20463154589E+02  0.59461638782E+03  0.91236006958E+02 0.  0.
         13    1    3    3    0    0  0.28442732398E+03 -0.16856949959E+03  0.81598663827E+01  0.33072823018E+03  0.00000000000E+00 0. -1.
        -13    1    3    3    0    0  0.25387350027E+03 -0.66075171364E+02 -0.28623020972E+02  0.26388815764E+03  0.00000000000E+00 0.  1.
         22    1    1    2    0    0 -0.53830082426E+03  0.23464467095E+03  0.66027653213E+03  0.88362378752E+03  0.00000000000E+00 0. -1.
<mgrwt>
<rscale>  0 0.13326038E+04</rscale>
<asrwt>0</asrwt>
<pdfrwt beam="1">  1        2 0.64494370E-01 0.13326038E+04</pdfrwt>
<pdfrwt beam="2">  1       -2 0.16292719E+00 0.13326038E+04</pdfrwt>
<totfact> 0.17656271E+01</totfact>
</mgrwt>
</event>
<event>
 6    1  0.1878398E-004  0.1573668E+04  0.7818608E-02  0.8836890E-01
          2   -1    0    0  501    0  0.00000000000E+00  0.00000000000E+00  0.13647401213E+04  0.13647401213E+04  0.00000000000E+00 0.  1.
         -2   -1    0    0    0  501 -0.00000000000E+00 -0.00000000000E+00 -0.45364524477E+03  0.45364524477E+03  0.00000000000E+00 0. -1.
         23    2    1    2    0    0 -0.31411741461E+03 -0.63512970218E+03  0.84518730789E+03  0.11067651750E+04  0.92347596149E+02 0.  0.
         13    1    3    3    0    0 -0.13482117206E+03 -0.35553056859E+03  0.40794695700E+03  0.55767324964E+03  0.00000000000E+00 0.  1.
        -13    1    3    3    0    0 -0.17929624254E+03 -0.27959913359E+03  0.43724035088E+03  0.54909192539E+03  0.00000000000E+00 0. -1.
         22    1    1    2    0    0  0.31411741461E+03  0.63512970218E+03  0.65907568692E+02  0.71162019108E+03  0.00000000000E+00 0. -1.
<mgrwt>
<rscale>  0 0.15736682E+04</rscale>
<asrwt>0</asrwt>
<pdfrwt beam="1">  1        2 0.20996002E+00 0.15736682E+04</pdfrwt>
<pdfrwt beam="2">  1       -2 0.69791577E-01 0.15736682E+04</pdfrwt>
<totfact> 0.27258173E+01</totfact>
</mgrwt>
</event>
<event>
 6    1  0.1878398E-004  0.4226588E+04  0.7818608E-02  0.7960334E-01
         -1   -1    0    0    0  501 -0.00000000000E+00  0.00000000000E+00  0.26085578761E+04  0.26085578761E+04  0.00000000000E+00 0. -1.
          1   -1    0    0  501    0  0.00000000000E+00 -0.00000000000E+00 -0.17120612485E+04  0.17120612485E+04  0.00000000000E+00 0.  1.
         23    2    1    2    0    0  0.10557300266E+04 -0.30043900342E+03  0.22933186724E+04  0.25441222040E+04  0.91748415951E+02 0.  0.
         13    1    3    3    0    0  0.77465024218E+03 -0.19046719907E+03  0.15948596740E+04  0.17832381029E+04  0.00000000000E+00 0. -1.
        -13    1    3    3    0    0  0.28107978447E+03 -0.10997180435E+03  0.69845899838E+03  0.76088410117E+03  0.00000000000E+00 0.  1.
         22    1    1    2    0    0 -0.10557300266E+04  0.30043900342E+03 -0.13968220448E+04  0.17764969205E+04  0.00000000000E+00 0.  1.
<mgrwt>
<rscale>  0 0.42265877E+04</rscale>
<asrwt>0</asrwt>
<pdfrwt beam="1">  1        1 0.26339404E+00 0.42265877E+04</pdfrwt>
<pdfrwt beam="2">  1       -1 0.40131660E+00 0.42265877E+04</pdfrwt>
<totfact> 0.25164167E-02</totfact>
</mgrwt>
</event>
<event>
 6    1  0.1878398E-004  0.2686305E+04  0.7818608E-02  0.8339462E-01
          2   -1    0    0  501    0  0.00000000000E+00  0.00000000000E+00  0.14256201799E+04  0.14256201799E+04  0.00000000000E+00 0.  1.
         -2   -1    0    0    0  501 -0.00000000000E+00 -0.00000000000E+00 -0.12654554416E+04  0.12654554416E+04  0.00000000000E+00 0. -1.
         23    2    1    2    0    0 -0.57263369454E+03 -0.58965872613E+03  0.11424736798E+04  0.14102408866E+04  0.89030825233E+02 0.  0.
         11    1    3    3    0    0 -0.14456689668E+03 -0.11775040957E+03  0.31279580180E+03  0.36415101290E+03  0.00000000000E+00 0.  1.
        -11    1    3    3    0    0 -0.42806679786E+03 -0.47190831656E+03  0.82967787798E+03  0.10460898737E+04  0.00000000000E+00 0. -1.
         22    1    1    2    0    0  0.57263369454E+03  0.58965872613E+03 -0.98230894154E+03  0.12808347349E+04  0.00000000000E+00 0. -1.
<mgrwt>
<rscale>  0 0.26863051E+04</rscale>
<asrwt>0</asrwt>
<pdfrwt beam="1">  1        2 0.21932618E+00 0.26863051E+04</pdfrwt>
<pdfrwt beam="2">  1       -2 0.19468545E+00 0.26863051E+04</pdfrwt>
<totfact> 0.17721942E+00</totfact>
</mgrwt>
</event>
<event>
 6    1  0.1878398E-004  0.3330230E+04  0.7818608E-02  0.8155246E-01
         -2   -1    0    0    0  501 -0.00000000000E+00  0.00000000000E+00  0.14232562118E+04  0.14232562118E+04  0.00000000000E+00 0. -1.
          2   -1    0    0  501    0  0.00000000000E+00 -0.00000000000E+00 -0.19480738121E+04  0.19480738121E+04  0.00000000000E+00 0.  1.
         23    2    1    2    0    0 -0.12381630557E+04 -0.75258230029E+03 -0.10905874104E+04  0.18158483141E+04  0.92175534096E+02 0.  0.
         11    1    3    3    0    0 -0.70501333226E+03 -0.45225015099E+03 -0.68089891936E+03  0.10794430676E+04  0.00000000000E+00 0. -1.
        -11    1    3    3    0    0 -0.53314972343E+03 -0.30033214930E+03 -0.40968849099E+03  0.73640524655E+03  0.00000000000E+00 0.  1.
         22    1    1    2    0    0  0.12381630557E+04  0.75258230029E+03  0.56576981005E+03  0.15554817097E+04  0.00000000000E+00 0. -1.
<mgrwt>
<rscale>  0 0.33302301E+04</rscale>
<asrwt>0</asrwt>
<pdfrwt beam="1">  1        2 0.29970366E+00 0.33302301E+04</pdfrwt>
<pdfrwt beam="2">  1       -2 0.21896249E+00 0.33302301E+04</pdfrwt>
<totfact> 0.59702002E-01</totfact>
</mgrwt>
</event>
<event>
 6    1  0.1878398E-004  0.4886999E+04  0.7818608E-02  0.7846179E-01
         -2   -1    0    0    0  501 -0.00000000000E+00  0.00000000000E+00  0.16783340132E+04  0.16783340132E+04  0.00000000000E+00 0. -1.
          2   -1    0    0  501    0  0.00000000000E+00 -0.00000000000E+00 -0.35575092990E+04  0.35575092990E+04  0.00000000000E+00 0.  1.
         23    2    1    2    0    0 -0.18841163569E+04 -0.50903064149E+03  0.63407343236E+03  0.20537958959E+04  0.83796323028E+02 0.  0.
         13    1    3    3    0    0 -0.17197958965E+04 -0.44863113785E+03  0.59617548969E+03  0.18746714480E+04  0.00000000000E+00 0. -1.
        -13    1    3    3    0    0 -0.16432046047E+03 -0.60399503637E+02  0.37897942670E+02  0.17912444788E+03  0.00000000000E+00 0.  1.
         22    1    1    2    0    0  0.18841163569E+04  0.50903064149E+03 -0.25132487182E+04  0.31820474164E+04  0.00000000000E+00 0.  1.
<mgrwt>
<rscale>  0 0.48869986E+04</rscale>
<asrwt>0</asrwt>
<pdfrwt beam="1">  1        2 0.54730912E+00 0.48869986E+04</pdfrwt>
<pdfrwt beam="2">  1       -2 0.25820523E+00 0.48869986E+04</pdfrwt>
<totfact> 0.31055160E-02</totfact>
</mgrwt>
</event>
<event>
 6    1  0.1878398E-004  0.5958160E+04  0.7818608E-02  0.7695611E-01
         -1   -1    0    0    0  501 -0.00000000000E+00  0.00000000000E+00  0.40337472172E+04  0.40337472172E+04  0.00000000000E+00 0. -1.
          1   -1    0    0  501    0  0.00000000000E+00 -0.00000000000E+00 -0.22001668451E+04  0.22001668451E+04  0.00000000000E+00 0.  1.
         23    2    1    2    0    0  0.40332028468E+03 -0.24333827185E+04 -0.82960783046E+03  0.26039567472E+04  0.91229829900E+02 0.  0.
         11    1    3    3    0    0  0.11446358449E+03 -0.94324282626E+03 -0.33654564940E+03  0.10080039264E+04  0.00000000000E+00 0.  1.
        -11    1    3    3    0    0  0.28885670019E+03 -0.14901398923E+04 -0.49306218106E+03  0.15959528208E+04  0.00000000000E+00 0. -1.
         22    1    1    2    0    0 -0.40332028468E+03  0.24333827185E+04  0.26631882026E+04  0.36299573151E+04  0.00000000000E+00 0. -1.
<mgrwt>
<rscale>  0 0.59581597E+04</rscale>
<asrwt>0</asrwt>
<pdfrwt beam="1">  1        1 0.33848721E+00 0.59581597E+04</pdfrwt>
<pdfrwt beam="2">  1       -1 0.62057650E+00 0.59581597E+04</pdfrwt>
<totfact> 0.54970757E-04</totfact>
</mgrwt>
</event>
<event>
 6    1  0.2103716E-004  0.3593502E+04  0.7818608E-02  0.8091982E-01
          1   -1    0    0  501    0  0.00000000000E+00  0.00000000000E+00  0.31027287659E+04  0.31027287659E+04  0.00000000000E+00 0.  1.
         -1   -1    0    0    0  501 -0.00000000000E+00 -0.00000000000E+00 -0.10404758945E+04  0.10404758945E+04  0.00000000000E+00 0. -1.
         23    2    1    2    0    0 -0.76288842588E+03  0.18683171691E+03 -0.82983611558E+03  0.11463590605E+04  0.92770016891E+02 0.  0.
         11    1    3    3    0    0 -0.37311923571E+03  0.62834003493E+02 -0.34507330889E+03  0.51209536666E+03  0.00000000000E+00 0. -1.
        -11    1    3    3    0    0 -0.38976919017E+03  0.12399771342E+03 -0.48476280669E+03  0.63426369381E+03  0.00000000000E+00 0.  1.
         22    1    1    2    0    0  0.76288842588E+03 -0.18683171691E+03  0.28920889870E+04  0.29968455999E+04  0.00000000000E+00 0.  1.
<mgrwt>
<rscale>  0 0.35935022E+04</rscale>
<asrwt>0</asrwt>
<pdfrwt beam="1">  1        1 0.47734288E+00 0.35935022E+04</pdfrwt>
<pdfrwt beam="2">  1       -1 0.16007322E+00 0.35935022E+04</pdfrwt>
<totfact> 0.11857559E-01</totfact>
</mgrwt>
</event>
<event>
 6    1  0.1878398E-004  0.2151063E+04  0.7818608E-02  0.8539078E-01
          2   -1    0    0  501    0  0.00000000000E+00  0.00000000000E+00  0.11521364001E+04  0.11521364001E+04  0.00000000000E+00 0.  1.
         -2   -1    0    0    0  501 -0.00000000000E+00 -0.00000000000E+00 -0.10040195898E+04  0.10040195898E+04  0.00000000000E+00 0. -1.
         23    2    1    2    0    0  0.34338909444E+03  0.10130092832E+04 -0.19177454978E+02  0.10735243585E+04  0.89347051163E+02 0.  0.
         11    1    3    3    0    0  0.12419367520E+03  0.50414566382E+03 -0.31621701873E+01  0.51922723217E+03  0.00000000000E+00 0. -1.
        -11    1    3    3    0    0  0.21919541924E+03  0.50886361938E+03 -0.16015284791E+02  0.55429712636E+03  0.00000000000E+00 0.  1.
         22    1    1    2    0    0 -0.34338909444E+03 -0.10130092832E+04  0.16729426528E+03  0.10826316314E+04  0.00000000000E+00 0.  1.
<mgrwt>
<rscale>  0 0.21510625E+04</rscale>
<asrwt>0</asrwt>
<pdfrwt beam="1">  1        2 0.17725175E+00 0.21510625E+04</pdfrwt>
<pdfrwt beam="2">  1       -2 0.15446455E+00 0.21510625E+04</pdfrwt>
<totfact> 0.51473078E+00</totfact>
</mgrwt>
</event>
<event>
 6    1  0.1878398E-004  0.9742266E+03  0.7818608E-02  0.9337273E-01
          2   -1    0    0  501    0  0.00000000000E+00  0.00000000000E+00  0.20873309455E+04  0.20873309455E+04  0.00000000000E+00 0.  1.
         -2   -1    0    0    0  501 -0.00000000000E+00 -0.00000000000E+00 -0.11367596821E+03  0.11367596821E+03  0.00000000000E+00 0. -1.
         23    2    1    2    0    0 -0.21005156754E+00  0.48113610518E+03  0.90676568260E+03  0.10306459596E+04  0.92277272519E+02 0.  0.
         13    1    3    3    0    0 -0.24878259277E+02  0.25516956678E+03  0.56163481235E+03  0.61738488647E+03  0.00000000000E+00 0.  1.
        -13    1    3    3    0    0  0.24668207710E+02  0.22596653840E+03  0.34513087024E+03  0.41326107310E+03  0.00000000000E+00 0. -1.
         22    1    1    2    0    0  0.21005156754E+00 -0.48113610518E+03  0.10668892947E+04  0.11703609541E+04  0.00000000000E+00 0.  1.
<mgrwt>
<rscale>  0 0.97422660E+03</rscale>
<asrwt>0</asrwt>
<pdfrwt beam="1">  1        2 0.32112781E+00 0.97422660E+03</pdfrwt>
<pdfrwt beam="2">  1       -2 0.17488612E-01 0.97422660E+03</pdfrwt>
<totfact> 0.16215004E+02</totfact>
</mgrwt>
</event>
<event>
 6    1  0.1878398E-004  0.1587660E+04  0.7818608E-02  0.8828165E-01
         -2   -1    0    0    0  501 -0.00000000000E+00  0.00000000000E+00  0.68842478079E+03  0.68842478079E+03  0.00000000000E+00 0. -1.
          2   -1    0    0  501    0  0.00000000000E+00 -0.00000000000E+00 -0.91537339955E+03  0.91537339955E+03  0.00000000000E+00 0.  1.
         23    2    1    2    0    0 -0.57658722444E+03  0.31302041540E+02 -0.66053119911E+03  0.88169950345E+03  0.87520878620E+02 0.  0.
         11    1    3    3    0    0 -0.40231604327E+03  0.71380894150E+01 -0.40036160989E+03  0.56762537793E+03  0.00000000000E+00 0. -1.
        -11    1    3    3    0    0 -0.17427118118E+03  0.24163952125E+02 -0.26016958922E+03  0.31407412553E+03  0.00000000000E+00 0.  1.
         22    1    1    2    0    0  0.57658722444E+03 -0.31302041540E+02  0.43358258034E+03  0.72209867689E+03  0.00000000000E+00 0. -1.
<mgrwt>
<rscale>  0 0.15876596E+04</rscale>
<asrwt>0</asrwt>
<pdfrwt beam="1">  1        2 0.14082668E+00 0.15876596E+04</pdfrwt>
<pdfrwt beam="2">  1       -2 0.10591150E+00 0.15876596E+04</pdfrwt>
<totfact> 0.19787304E+01</totfact>
</mgrwt>
</event>
<event>
 6    1  0.1878398E-004  0.2027966E+04  0.7818608E-02  0.8593656E-01
          2   -1    0    0  501    0  0.00000000000E+00  0.00000000000E+00  0.12551668848E+04  0.12551668848E+04  0.00000000000E+00 0.  1.
         -2   -1    0    0    0  501 -0.00000000000E+00 -0.00000000000E+00 -0.81914309191E+03  0.81914309191E+03  0.00000000000E+00 0. -1.
         23    2    1    2    0    0  0.43239799861E+03  0.33347804992E+03 -0.65273915793E+03  0.85628682337E+03  0.94779093715E+02 0.  0.
         11    1    3    3    0    0  0.36629178407E+03  0.28955390979E+03 -0.49972062321E+03  0.68390923303E+03  0.00000000000E+00 0. -1.
        -11    1    3    3    0    0  0.66106214535E+02  0.43924140134E+02 -0.15301853472E+03  0.17237759035E+03  0.00000000000E+00 0.  1.
         22    1    1    2    0    0 -0.43239799861E+03 -0.33347804992E+03  0.10887629508E+04  0.12180231533E+04  0.00000000000E+00 0.  1.
<mgrwt>
<rscale>  0 0.20279658E+04</rscale>
<asrwt>0</asrwt>
<pdfrwt beam="1">  1        2 0.19310260E+00 0.20279658E+04</pdfrwt>
<pdfrwt beam="2">  1       -2 0.12602201E+00 0.20279658E+04</pdfrwt>
<totfact> 0.76495110E+00</totfact>
</mgrwt>
</event>
<event>
 6    1  0.1878398E-004  0.2356422E+04  0.7818608E-02  0.8456001E-01
          1   -1    0    0  501    0  0.00000000000E+00  0.00000000000E+00  0.16285970101E+04  0.16285970101E+04  0.00000000000E+00 0.  1.
         -1   -1    0    0    0  501 -0.00000000000E+00 -0.00000000000E+00 -0.85237873544E+03  0.85237873544E+03  0.00000000000E+00 0. -1.
         23    2    1    2    0    0 -0.49859030765E+03  0.10603151962E+04  0.50049287961E+03  0.12772793122E+04  0.89937247952E+02 0.  0.
         13    1    3    3    0    0 -0.24645573501E+03  0.42116443520E+03  0.21509445980E+03  0.53327810516E+03  0.00000000000E+00 0. -1.
        -13    1    3    3    0    0 -0.25213457264E+03  0.63915076102E+03  0.28539841980E+03  0.74400120703E+03  0.00000000000E+00 0.  1.
         22    1    1    2    0    0  0.49859030765E+03 -0.10603151962E+04  0.27572539507E+03  0.12036964334E+04  0.00000000000E+00 0. -1.
<mgrwt>
<rscale>  0 0.23564223E+04</rscale>
<asrwt>0</asrwt>
<pdfrwt beam="1">  1        1 0.25055339E+00 0.23564223E+04</pdfrwt>
<pdfrwt beam="2">  1       -1 0.13113519E+00 0.23564223E+04</pdfrwt>
<totfact> 0.23799268E+00</totfact>
</mgrwt>
</event>
<event>
 6    1  0.1878398E-004  0.2029325E+04  0.7818608E-02  0.8593032E-01
          2   -1    0    0  501    0  0.00000000000E+00  0.00000000000E+00  0.19580919368E+04  0.19580919368E+04  0.00000000000E+00 0.  1.
         -2   -1    0    0    0  501 -0.00000000000E+00 -0.00000000000E+00 -0.52578728644E+03  0.52578728644E+03  0.00000000000E+00 0. -1.
         23    2    1    2    0    0 -0.84481300027E+03  0.50138319544E+03  0.10180575275E+04  0.14177203266E+04  0.91627949395E+02 0.  0.
         11    1    3    3    0    0 -0.37855208815E+03  0.17915958566E+03  0.46554540882E+03  0.62620473349E+03  0.00000000000E+00 0. -1.
        -11    1    3    3    0    0 -0.46626091212E+03  0.32222360978E+03  0.55251211869E+03  0.79151559313E+03  0.00000000000E+00 0.  1.
         22    1    1    2    0    0  0.84481300027E+03 -0.50138319544E+03  0.41424712290E+03  0.10661588967E+04  0.00000000000E+00 0.  1.
<mgrwt>
<rscale>  0 0.20293249E+04</rscale>
<asrwt>0</asrwt>
<pdfrwt beam="1">  1        2 0.30124491E+00 0.20293249E+04</pdfrwt>
<pdfrwt beam="2">  1       -2 0.80890353E-01 0.20293249E+04</pdfrwt>
<totfact> 0.88086580E+00</totfact>
</mgrwt>
</event>
<event>
 6    1  0.1878398E-004  0.2289816E+04  0.7818608E-02  0.8481948E-01
         -2   -1    0    0    0  501 -0.00000000000E+00  0.00000000000E+00  0.15867256620E+04  0.15867256620E+04  0.00000000000E+00 0. -1.
          2   -1    0    0  501    0  0.00000000000E+00 -0.00000000000E+00 -0.82611241888E+03  0.82611241888E+03  0.00000000000E+00 0.  1.
         23    2    1    2    0    0 -0.54164048629E+03  0.89539790657E+03  0.86547797013E+03  0.13611211806E+04  0.92124502624E+02 0.  0.
         13    1    3    3    0    0 -0.28076689779E+03  0.47728307369E+03  0.39881276880E+03  0.68240809483E+03  0.00000000000E+00 0.  1.
        -13    1    3    3    0    0 -0.26087358850E+03  0.41811483288E+03  0.46666520133E+03  0.67871308576E+03  0.00000000000E+00 0. -1.
         22    1    1    2    0    0  0.54164048629E+03 -0.89539790657E+03 -0.10486472697E+03  0.10517169003E+04  0.00000000000E+00 0.  1.
<mgrwt>
<rscale>  0 0.22898155E+04</rscale>
<asrwt>0</asrwt>
<pdfrwt beam="1">  1        2 0.12709422E+00 0.22898155E+04</pdfrwt>
<pdfrwt beam="2">  1       -2 0.24411164E+00 0.22898155E+04</pdfrwt>
<totfact> 0.20910000E+00</totfact>
</mgrwt>
</event>
<event>
 6    1  0.1878398E-004  0.5483920E+04  0.7818608E-02  0.7757906E-01
          2   -1    0    0  501    0  0.00000000000E+00  0.00000000000E+00  0.32812150554E+04  0.32812150554E+04  0.00000000000E+00 0.  1.
         -2   -1    0    0    0  501 -0.00000000000E+00 -0.00000000000E+00 -0.22913292183E+04  0.22913292183E+04  0.00000000000E+00 0. -1.
         23    2    1    2    0    0 -0.17132544816E+04  0.21396491555E+04  0.51742747728E+03  0.27910776948E+04  0.95100352112E+02 0.  0.
         11    1    3    3    0    0 -0.10613325415E+04  0.12635099579E+04  0.33762919606E+03  0.16843033134E+04  0.00000000000E+00 0. -1.
        -11    1    3    3    0    0 -0.65192194012E+03  0.87613919752E+03  0.17979828122E+03  0.11067743814E+04  0.00000000000E+00 0.  1.
         22    1    1    2    0    0  0.17132544816E+04 -0.21396491555E+04  0.47245835978E+03  0.27814665788E+04  0.00000000000E+00 0. -1.
<mgrwt>
<rscale>  0 0.54839197E+04</rscale>
<asrwt>0</asrwt>
<pdfrwt beam="1">  1        2 0.50480232E+00 0.54839197E+04</pdfrwt>
<pdfrwt beam="2">  1       -2 0.35251219E+00 0.54839197E+04</pdfrwt>
<totfact> 0.12036785E-02</totfact>
</mgrwt>
</event>
<event>
 6    1  0.1878398E-004  0.4096510E+04  0.7818608E-02  0.7985355E-01
         -2   -1    0    0    0  501 -0.00000000000E+00  0.00000000000E+00  0.26298798424E+04  0.26298798424E+04  0.00000000000E+00 0. -1.
          2   -1    0    0  501    0  0.00000000000E+00 -0.00000000000E+00 -0.15952628085E+04  0.15952628085E+04  0.00000000000E+00 0.  1.
         23    2    1    2    0    0 -0.32111546078E+03  0.73209495907E+03  0.24613387953E+04  0.25897181946E+04  0.96816805493E+02 0.  0.
         13    1    3    3    0    0 -0.18909168217E+03  0.50244462753E+03  0.15306208223E+04  0.16220377214E+04  0.00000000000E+00 0. -1.
        -13    1    3    3    0    0 -0.13202377861E+03  0.22965033154E+03  0.93071797299E+03  0.96768047316E+03  0.00000000000E+00 0.  1.
         22    1    1    2    0    0  0.32111546078E+03 -0.73209495907E+03 -0.14267217613E+04  0.16354244564E+04  0.00000000000E+00 0.  1.
<mgrwt>
<rscale>  0 0.40965105E+04</rscale>
<asrwt>0</asrwt>
<pdfrwt beam="1">  1        2 0.24542505E+00 0.40965105E+04</pdfrwt>
<pdfrwt beam="2">  1       -2 0.40459690E+00 0.40965105E+04</pdfrwt>
<totfact> 0.60800781E-02</totfact>
</mgrwt>
</event>
<event>
 6    1  0.1878398E-004  0.3493451E+04  0.7818608E-02  0.8115344E-01
         -1   -1    0    0    0  501 -0.00000000000E+00  0.00000000000E+00  0.40971202027E+04  0.40971202027E+04  0.00000000000E+00 0. -1.
          1   -1    0    0  501    0  0.00000000000E+00 -0.00000000000E+00 -0.74468164573E+03  0.74468164573E+03  0.00000000000E+00 0.  1.
         23    2    1    2    0    0  0.15196954801E+04 -0.43924568465E+03  0.65457958691E+03  0.17143661343E+04  0.90364170302E+02 0.  0.
         13    1    3    3    0    0  0.68722940876E+03 -0.20163021727E+03  0.24788784182E+03  0.75788349164E+03  0.00000000000E+00 0.  1.
        -13    1    3    3    0    0  0.83246607130E+03 -0.23761546738E+03  0.40669174509E+03  0.95648264267E+03  0.00000000000E+00 0. -1.
         22    1    1    2    0    0 -0.15196954801E+04  0.43924568465E+03  0.26978589700E+04  0.31274357141E+04  0.00000000000E+00 0. -1.
<mgrwt>
<rscale>  0 0.34934511E+04</rscale>
<asrwt>0</asrwt>
<pdfrwt beam="1">  1        1 0.11456641E+00 0.34934511E+04</pdfrwt>
<pdfrwt beam="2">  1       -1 0.63032617E+00 0.34934511E+04</pdfrwt>
<totfact> 0.68471837E-03</totfact>
</mgrwt>
</event>
<event>
 6    1  0.1878398E-004  0.1602089E+04  0.7818608E-02  0.8819266E-01
          2   -1    0    0  501    0  0.00000000000E+00  0.00000000000E+00  0.14692075098E+04  0.14692075098E+04  0.00000000000E+00 0.  1.
         -2   -1    0    0    0  501 -0.00000000000E+00 -0.00000000000E+00 -0.43674737988E+03  0.43674737988E+03  0.00000000000E+00 0. -1.
         23    2    1    2    0    0  0.22091607440E+03 -0.75109279252E+03  0.70475811340E+03  0.10572306079E+04  0.90045904817E+02 0.  0.
         13    1    3    3    0    0  0.92140233624E+00 -0.15231880436E+02  0.34991216499E+02  0.38173870592E+02  0.00000000000E+00 0. -1.
        -13    1    3    3    0    0  0.21999467206E+03 -0.73586091208E+03  0.66976689690E+03  0.10190567373E+04  0.00000000000E+00 0.  1.
         22    1    1    2    0    0 -0.22091607440E+03  0.75109279252E+03  0.32770201656E+03  0.84872428183E+03  0.00000000000E+00 0. -1.
<mgrwt>
<rscale>  0 0.16020893E+04</rscale>
<asrwt>0</asrwt>
<pdfrwt beam="1">  1        2 0.22603192E+00 0.16020893E+04</pdfrwt>
<pdfrwt beam="2">  1       -2 0.67191905E-01 0.16020893E+04</pdfrwt>
<totfact> 0.25744738E+01</totfact>
</mgrwt>
</event>
<event>
 6    1  0.1878398E-004  0.2414884E+04  0.7818608E-02  0.8433952E-01
          2   -1    0    0  501    0  0.00000000000E+00  0.00000000000E+00  0.12780095445E+04  0.12780095445E+04  0.00000000000E+00 0.  1.
         -2   -1    0    0    0  501 -0.00000000000E+00 -0.00000000000E+00 -0.11407713459E+04  0.11407713459E+04  0.00000000000E+00 0. -1.
         23    2    1    2    0    0 -0.78659797132E+03  0.87889906986E+03  0.31748935929E+03  0.12255958987E+04  0.10042843295E+03 0.  0.
         11    1    3    3    0    0 -0.39626302317E+03  0.47098523863E+03  0.21369906076E+03  0.65155104720E+03  0.00000000000E+00 0. -1.
        -11    1    3    3    0    0 -0.39033494815E+03  0.40791383123E+03  0.10379029853E+03  0.57404485149E+03  0.00000000000E+00 0.  1.
         22    1    1    2    0    0  0.78659797132E+03 -0.87889906986E+03 -0.18025116063E+03  0.11931849917E+04  0.00000000000E+00 0. -1.
<mgrwt>
<rscale>  0 0.24148844E+04</rscale>
<asrwt>0</asrwt>
<pdfrwt beam="1">  1        2 0.19661685E+00 0.24148844E+04</pdfrwt>
<pdfrwt beam="2">  1       -2 0.17550328E+00 0.24148844E+04</pdfrwt>
<totfact> 0.29808009E+00</totfact>
</mgrwt>
</event>
<event>
 6    1  0.1878398E-004  0.1419944E+04  0.7818608E-02  0.8939507E-01
         -2   -1    0    0    0  501 -0.00000000000E+00  0.00000000000E+00  0.37480650201E+03  0.37480650201E+03  0.00000000000E+00 0. -1.
          2   -1    0    0  501    0  0.00000000000E+00 -0.00000000000E+00 -0.13448540100E+04  0.13448540100E+04  0.00000000000E+00 0.  1.
         23    2    1    2    0    0  0.48267765858E+02  0.13454281317E+03 -0.13256265513E+04  0.13364268994E+04  0.91211612457E+02 0.  0.
         13    1    3    3    0    0  0.47888262599E+02  0.14252196758E+03 -0.10526354084E+04  0.10633189080E+04  0.00000000000E+00 0.  1.
        -13    1    3    3    0    0  0.37950325810E+00 -0.79791544162E+01 -0.27299114286E+03  0.27310799147E+03  0.00000000000E+00 0. -1.
         22    1    1    2    0    0 -0.48267765858E+02 -0.13454281317E+03  0.35557904329E+03  0.38323361259E+03  0.00000000000E+00 0. -1.
<mgrwt>
<rscale>  0 0.14199437E+04</rscale>
<asrwt>0</asrwt>
<pdfrwt beam="1">  1        2 0.20690062E+00 0.14199437E+04</pdfrwt>
<pdfrwt beam="2">  1       -2 0.57662538E-01 0.14199437E+04</pdfrwt>
<totfact> 0.42608366E+01</totfact>
</mgrwt>
</event>
<event>
 6    1  0.1878398E-004  0.2138334E+04  0.7818608E-02  0.8544542E-01
         -2   -1    0    0    0  501 -0.00000000000E+00  0.00000000000E+00  0.27249770158E+03  0.27249770158E+03  0.00000000000E+00 0. -1.
          2   -1    0    0  501    0  0.00000000000E+00 -0.00000000000E+00 -0.41949648489E+04  0.41949648489E+04  0.00000000000E+00 0.  1.
         23    2    1    2    0    0  0.50520880585E+03 -0.77699000410E+03 -0.30702298807E+04  0.32083923528E+04  0.92306909011E+02 0.  0.
         11    1    3    3    0    0  0.26194600531E+03 -0.46343587983E+03 -0.16492705320E+04  0.17330556287E+04  0.00000000000E+00 0.  1.
        -11    1    3    3    0    0  0.24326280053E+03 -0.31355412427E+03 -0.14209593487E+04  0.14753367241E+04  0.00000000000E+00 0. -1.
         22    1    1    2    0    0 -0.50520880585E+03  0.77699000410E+03 -0.85223726663E+03  0.12590701976E+04  0.00000000000E+00 0. -1.
<mgrwt>
<rscale>  0 0.21383342E+04</rscale>
<asrwt>0</asrwt>
<pdfrwt beam="1">  1        2 0.64537915E+00 0.21383342E+04</pdfrwt>
<pdfrwt beam="2">  1       -2 0.41922727E-01 0.21383342E+04</pdfrwt>
<totfact> 0.11751789E+00</totfact>
</mgrwt>
</event>
<event>
 6    1  0.1878398E-004  0.8829644E+03  0.7818608E-02  0.9447131E-01
         -2   -1    0    0    0  501 -0.00000000000E+00  0.00000000000E+00  0.34344085159E+03  0.34344085159E+03  0.00000000000E+00 0. -1.
          2   -1    0    0  501    0  0.00000000000E+00 -0.00000000000E+00 -0.56751124144E+03  0.56751124144E+03  0.00000000000E+00 0.  1.
         23    2    1    2    0    0 -0.37789459260E+03  0.12213777187E+03 -0.30094315251E+03  0.50643833545E+03  0.90504409496E+02 0.  0.
         13    1    3    3    0    0 -0.27405511871E+03  0.10098597869E+03 -0.16983704987E+03  0.33785943748E+03  0.00000000000E+00 0. -1.
        -13    1    3    3    0    0 -0.10383947388E+03  0.21151793181E+02 -0.13110610264E+03  0.16857889797E+03  0.00000000000E+00 0.  1.
         22    1    1    2    0    0  0.37789459260E+03 -0.12213777187E+03  0.76872762670E+02  0.40451375758E+03  0.00000000000E+00 0. -1.
<mgrwt>
<rscale>  0 0.88296443E+03</rscale>
<asrwt>0</asrwt>
<pdfrwt beam="1">  1        2 0.87309421E-01 0.88296443E+03</pdfrwt>
<pdfrwt beam="2">  1       -2 0.52837055E-01 0.88296443E+03</pdfrwt>
<totfact> 0.17994717E+02</totfact>
</mgrwt>
</event>
<event>
 6    1  0.1878398E-004  0.4312872E+04  0.7818608E-02  0.7944242E-01
          2   -1    0    0  501    0  0.00000000000E+00  0.00000000000E+00  0.31509509434E+04  0.31509509434E+04  0.00000000000E+00 0.  1.
         -2   -1    0    0    0  501 -0.00000000000E+00 -0.00000000000E+00 -0.14758136521E+04  0.14758136521E+04  0.00000000000E+00 0. -1.
         23    2    1    2    0    0 -0.18191209803E+04 -0.59655839679E+03  0.19004713810E+04  0.26991083725E+04  0.91167290727E+02 0.  0.
         13    1    3    3    0    0 -0.94979167147E+03 -0.30668447639E+03  0.10545081235E+04  0.14519459252E+04  0.00000000000E+00 0.  1.
        -13    1    3    3    0    0 -0.86932930882E+03 -0.28987392040E+03  0.84596325749E+03  0.12471624473E+04  0.00000000000E+00 0. -1.
         22    1    1    2    0    0  0.18191209803E+04  0.59655839679E+03 -0.22533408968E+03  0.19276562229E+04  0.00000000000E+00 0.  1.
<mgrwt>
<rscale>  0 0.43128721E+04</rscale>
<asrwt>0</asrwt>
<pdfrwt beam="1">  1        2 0.48476168E+00 0.43128721E+04</pdfrwt>
<pdfrwt beam="2">  1       -2 0.22704825E+00 0.43128721E+04</pdfrwt>
<totfact> 0.95691724E-02</totfact>
</mgrwt>
</event>
<event>
 6    1  0.1878398E-004  0.2297992E+04  0.7818608E-02  0.8478713E-01
         -1   -1    0    0    0  501 -0.00000000000E+00  0.00000000000E+00  0.59737325470E+03  0.59737325470E+03  0.00000000000E+00 0.  1.
          1   -1    0    0  501    0  0.00000000000E+00 -0.00000000000E+00 -0.22099944051E+04  0.22099944051E+04  0.00000000000E+00 0. -1.
         23    2    1    2    0    0 -0.52421015307E+03  0.37014535432E+03 -0.19693685748E+04  0.20731520289E+04  0.87993656730E+02 0.  0.
         13    1    3    3    0    0 -0.12882225701E+03  0.10932835212E+03 -0.63967343111E+03  0.66161163906E+03  0.00000000000E+00 0.  1.
        -13    1    3    3    0    0 -0.39538789606E+03  0.26081700221E+03 -0.13296951437E+04  0.14115403898E+04  0.00000000000E+00 0. -1.
         22    1    1    2    0    0  0.52421015307E+03 -0.37014535432E+03  0.35674742437E+03  0.73421563093E+03  0.00000000000E+00 0.  1.
<mgrwt>
<rscale>  0 0.22979918E+04</rscale>
<asrwt>0</asrwt>
<pdfrwt beam="1">  1        1 0.33999914E+00 0.22979918E+04</pdfrwt>
<pdfrwt beam="2">  1       -1 0.91903577E-01 0.22979918E+04</pdfrwt>
<totfact> 0.22352704E+00</totfact>
</mgrwt>
</event>
<event>
 6    1  0.1878398E-004  0.5096056E+04  0.7818608E-02  0.7813858E-01
          2   -1    0    0  501    0  0.00000000000E+00  0.00000000000E+00  0.35469728915E+04  0.35469728915E+04  0.00000000000E+00 0. -1.
         -2   -1    0    0    0  501 -0.00000000000E+00 -0.00000000000E+00 -0.18304193668E+04  0.18304193668E+04  0.00000000000E+00 0.  1.
         23    2    1    2    0    0  0.18832095817E+04  0.14696204779E+04 -0.74958860514E+02  0.23914620341E+04  0.84906727300E+02 0.  0.
         11    1    3    3    0    0  0.13133229748E+04  0.10150673681E+04 -0.90412497931E+02  0.16623337263E+04  0.00000000000E+00 0. -1.
        -11    1    3    3    0    0  0.56988660695E+03  0.45455310976E+03  0.15453637417E+02  0.72912830783E+03  0.00000000000E+00 0.  1.
         22    1    1    2    0    0 -0.18832095817E+04 -0.14696204779E+04  0.17915123852E+04  0.29859302242E+04  0.00000000000E+00 0. -1.
<mgrwt>
<rscale>  0 0.50960565E+04</rscale>
<asrwt>0</asrwt>
<pdfrwt beam="1">  1        2 0.54568813E+00 0.50960565E+04</pdfrwt>
<pdfrwt beam="2">  1       -2 0.28160298E+00 0.50960565E+04</pdfrwt>
<totfact> 0.22360713E-02</totfact>
</mgrwt>
</event>
<event>
 6    1  0.1878398E-004  0.1095758E+04  0.7818608E-02  0.9209336E-01
         -2   -1    0    0    0  501 -0.00000000000E+00  0.00000000000E+00  0.19310702941E+03  0.19310702941E+03  0.00000000000E+00 0. -1.
          2   -1    0    0  501    0  0.00000000000E+00 -0.00000000000E+00 -0.15544304479E+04  0.15544304479E+04  0.00000000000E+00 0.  1.
         23    2    1    2    0    0 -0.23305224936E+03 -0.16563120734E+03 -0.14235167700E+04  0.14549369634E+04  0.93244437603E+02 0.  0.
         11    1    3    3    0    0 -0.10180207279E+03 -0.78156113241E+02 -0.86890557097E+03  0.87833304123E+03  0.00000000000E+00 0. -1.
        -11    1    3    3    0    0 -0.13125017657E+03 -0.87475094103E+02 -0.55461119902E+03  0.57660392213E+03  0.00000000000E+00 0.  1.
         22    1    1    2    0    0  0.23305224936E+03  0.16563120734E+03  0.62193351526E+02  0.29260051393E+03  0.00000000000E+00 0. -1.
<mgrwt>
<rscale>  0 0.10957581E+04</rscale>
<asrwt>0</asrwt>
<pdfrwt beam="1">  1        2 0.23914314E+00 0.10957581E+04</pdfrwt>
<pdfrwt beam="2">  1       -2 0.29708774E-01 0.10957581E+04</pdfrwt>
<totfact> 0.12259207E+02</totfact>
</mgrwt>
</event>
<event>
 6    1  0.1878398E-004  0.4194962E+04  0.7818608E-02  0.7966331E-01
          2   -1    0    0  501    0  0.00000000000E+00  0.00000000000E+00  0.20479159747E+04  0.20479159747E+04  0.00000000000E+00 0.  1.
         -2   -1    0    0    0  501 -0.00000000000E+00 -0.00000000000E+00 -0.21482454777E+04  0.21482454777E+04  0.00000000000E+00 0. -1.
         23    2    1    2    0    0  0.59811977321E+03  0.78841985248E+03 -0.18984467952E+04  0.21437046505E+04  0.10961873683E+03 0.  0.
         13    1    3    3    0    0  0.37779230378E+03  0.48025023472E+03 -0.10569028862E+04  0.12208239118E+04  0.00000000000E+00 0.  1.
        -13    1    3    3    0    0  0.22032746943E+03  0.30816961776E+03 -0.84154390901E+03  0.92288073871E+03  0.00000000000E+00 0. -1.
         22    1    1    2    0    0 -0.59811977321E+03 -0.78841985248E+03  0.17981172922E+04  0.20524568018E+04  0.00000000000E+00 0.  1.
<mgrwt>
<rscale>  0 0.41949619E+04</rscale>
<asrwt>0</asrwt>
<pdfrwt beam="1">  1        2 0.31506399E+00 0.41949619E+04</pdfrwt>
<pdfrwt beam="2">  1       -2 0.33049931E+00 0.41949619E+04</pdfrwt>
<totfact> 0.10055679E-01</totfact>
</mgrwt>
</event>
<event>
 6    1  0.1878398E-004  0.5462679E+03  0.7818608E-02  0.1002361E+00
         -2   -1    0    0    0  501 -0.00000000000E+00  0.00000000000E+00  0.27902862135E+03  0.27902862135E+03  0.00000000000E+00 0. -1.
          2   -1    0    0  501    0  0.00000000000E+00 -0.00000000000E+00 -0.26736383805E+03  0.26736383805E+03  0.00000000000E+00 0.  1.
         23    2    1    2    0    0  0.23269682066E+02  0.23216890082E+03 -0.12175527151E+03  0.27760855430E+03  0.88307908318E+02 0.  0.
         11    1    3    3    0    0 -0.31801867434E+02  0.11703695849E+03 -0.49895514068E+02  0.13114332141E+03  0.00000000000E+00 0.  1.
        -11    1    3    3    0    0  0.55071549499E+02  0.11513194232E+03 -0.71859757446E+02  0.14646523290E+03  0.00000000000E+00 0. -1.
         22    1    1    2    0    0 -0.23269682066E+02 -0.23216890082E+03  0.13342005481E+03  0.26878390509E+03  0.00000000000E+00 0. -1.
<mgrwt>
<rscale>  0 0.54626793E+03</rscale>
<asrwt>0</asrwt>
<pdfrwt beam="1">  1        2 0.41132898E-01 0.54626793E+03</pdfrwt>
<pdfrwt beam="2">  1       -2 0.42927480E-01 0.54626793E+03</pdfrwt>
<totfact> 0.64641021E+02</totfact>
</mgrwt>
</event>
<event>
 6    1  0.1878398E-004  0.1195656E+04  0.7818608E-02  0.9116668E-01
          2   -1    0    0  501    0  0.00000000000E+00  0.00000000000E+00  0.46403448371E+03  0.46403448371E+03  0.00000000000E+00 0.  1.
         -2   -1    0    0    0  501 -0.00000000000E+00 -0.00000000000E+00 -0.77019719492E+03  0.77019719492E+03  0.00000000000E+00 0. -1.
         23    2    1    2    0    0 -0.31110810695E+03  0.93032316779E+02  0.36027533880E+03  0.49289306458E+03  0.87760966182E+02 0.  0.
         13    1    3    3    0    0 -0.47548166442E+02 -0.34071029035E+01  0.19697098653E+02  0.51579183567E+02  0.00000000000E+00 0.  1.
        -13    1    3    3    0    0 -0.26355994050E+03  0.96439419682E+02  0.34057824015E+03  0.44131388101E+03  0.00000000000E+00 0. -1.
         22    1    1    2    0    0  0.31110810695E+03 -0.93032316779E+02 -0.66643805002E+03  0.74133861405E+03  0.00000000000E+00 0. -1.
<mgrwt>
<rscale>  0 0.11956556E+04</rscale>
<asrwt>0</asrwt>
<pdfrwt beam="1">  1        2 0.71389920E-01 0.11956556E+04</pdfrwt>
<pdfrwt beam="2">  1       -2 0.11849188E+00 0.11956556E+04</pdfrwt>
<totfact> 0.36299983E+01</totfact>
</mgrwt>
</event>
<event>
 6    1  0.1878398E-004  0.8525984E+03  0.7818608E-02  0.9486856E-01
          1   -1    0    0  501    0  0.00000000000E+00  0.00000000000E+00  0.10927108244E+03  0.10927108244E+03  0.00000000000E+00 0.  1.
         -1   -1    0    0    0  501 -0.00000000000E+00 -0.00000000000E+00 -0.16631209753E+04  0.16631209753E+04  0.00000000000E+00 0. -1.
         23    2    1    2    0    0  0.33684064722E+03  0.14593062194E+03 -0.12153529246E+04  0.12730549316E+04  0.93961478383E+02 0.  0.
         11    1    3    3    0    0  0.21891235867E+03  0.91789482449E+02 -0.62384197285E+03  0.66747789248E+03  0.00000000000E+00 0.  1.
        -11    1    3    3    0    0  0.11792828855E+03  0.54141139495E+02 -0.59151095178E+03  0.60557703912E+03  0.00000000000E+00 0. -1.
         22    1    1    2    0    0 -0.33684064722E+03 -0.14593062194E+03 -0.33849696820E+03  0.49933712612E+03  0.00000000000E+00 0.  1.
<mgrwt>
<rscale>  0 0.85259845E+03</rscale>
<asrwt>0</asrwt>
<pdfrwt beam="1">  1        1 0.16810937E-01 0.85259845E+03</pdfrwt>
<pdfrwt beam="2">  1       -1 0.25586474E+00 0.85259845E+03</pdfrwt>
<totfact> 0.21604834E+01</totfact>
</mgrwt>
</event>
<event>
 6    1  0.1878398E-004  0.1824870E+04  0.7818608E-02  0.8693185E-01
          2   -1    0    0  501    0  0.00000000000E+00  0.00000000000E+00  0.27332723717E+04  0.27332723717E+04  0.00000000000E+00 0.  1.
         -2   -1    0    0    0  501 -0.00000000000E+00 -0.00000000000E+00 -0.30459362821E+03  0.30459362821E+03  0.00000000000E+00 0. -1.
         23    2    1    2    0    0  0.36627917258E+03  0.48640438894E+03  0.91425879687E+02  0.62260191265E+03  0.92329780226E+02 0.  0.
         13    1    3    3    0    0  0.22073238677E+03  0.30684766623E+03  0.10104294961E+03  0.39126455820E+03  0.00000000000E+00 0.  1.
        -13    1    3    3    0    0  0.14554678581E+03  0.17955672271E+03 -0.96170699238E+01  0.23133735445E+03  0.00000000000E+00 0. -1.
         22    1    1    2    0    0 -0.36627917258E+03 -0.48640438894E+03  0.23372528638E+04  0.24152640873E+04  0.00000000000E+00 0.  1.
<mgrwt>
<rscale>  0 0.18248697E+04</rscale>
<asrwt>0</asrwt>
<pdfrwt beam="1">  1        2 0.42050343E+00 0.18248697E+04</pdfrwt>
<pdfrwt beam="2">  1       -2 0.46860560E-01 0.18248697E+04</pdfrwt>
<totfact> 0.10338865E+01</totfact>
</mgrwt>
</event>
<event>
 6    1  0.1878398E-004  0.3024886E+04  0.7818608E-02  0.8236660E-01
         -2   -1    0    0    0  501 -0.00000000000E+00  0.00000000000E+00  0.13601218680E+04  0.13601218680E+04  0.00000000000E+00 0.  1.
          2   -1    0    0  501    0  0.00000000000E+00 -0.00000000000E+00 -0.16818228931E+04  0.16818228931E+04  0.00000000000E+00 0. -1.
         23    2    1    2    0    0  0.10253048254E+04 -0.10320626956E+04  0.25000507768E+03  0.14788544692E+04  0.90025605896E+02 0.  0.
         11    1    3    3    0    0  0.32240375757E+02 -0.40625453794E+02 -0.67565877361E+01  0.52302206481E+02  0.00000000000E+00 0. -1.
        -11    1    3    3    0    0  0.99306444961E+03 -0.99143724180E+03  0.25676166542E+03  0.14265522627E+04  0.00000000000E+00 0.  1.
         22    1    1    2    0    0 -0.10253048254E+04  0.10320626956E+04 -0.57170610273E+03  0.15630902918E+04  0.00000000000E+00 0. -1.
<mgrwt>
<rscale>  0 0.30248862E+04</rscale>
<asrwt>0</asrwt>
<pdfrwt beam="1">  1        2 0.25874198E+00 0.30248862E+04</pdfrwt>
<pdfrwt beam="2">  1       -2 0.20924952E+00 0.30248862E+04</pdfrwt>
<totfact> 0.99304657E-01</totfact>
</mgrwt>
</event>
<event>
 6    1  0.1878398E-004  0.2768735E+04  0.7818608E-02  0.8313041E-01
          2   -1    0    0  501    0  0.00000000000E+00  0.00000000000E+00  0.27245275792E+04  0.27245275792E+04  0.00000000000E+00 0.  1.
         -2   -1    0    0    0  501 -0.00000000000E+00 -0.00000000000E+00 -0.70341482409E+03  0.70341482409E+03  0.00000000000E+00 0. -1.
         23    2    1    2    0    0  0.94596888315E+03  0.26373505914E+03 -0.19345178463E+03  0.10054004718E+04  0.94832517370E+02 0.  0.
         11    1    3    3    0    0  0.73236897955E+03  0.17401871020E+03 -0.17604604026E+03  0.77307117525E+03  0.00000000000E+00 0. -1.
        -11    1    3    3    0    0  0.21359990359E+03  0.89716348944E+02 -0.17405744367E+02  0.23232929652E+03  0.00000000000E+00 0.  1.
         22    1    1    2    0    0 -0.94596888315E+03 -0.26373505914E+03  0.22145645397E+04  0.24225419315E+04  0.00000000000E+00 0.  1.
<mgrwt>
<rscale>  0 0.27687348E+04</rscale>
<asrwt>0</asrwt>
<pdfrwt beam="1">  1        2 0.41915808E+00 0.27687348E+04</pdfrwt>
<pdfrwt beam="2">  1       -2 0.10821767E+00 0.27687348E+04</pdfrwt>
<totfact> 0.15304019E+00</totfact>
</mgrwt>
</event>
<event>
 6    1  0.1878398E-004  0.3567396E+04  0.7818608E-02  0.8098001E-01
         -2   -1    0    0    0  501 -0.00000000000E+00  0.00000000000E+00  0.78089975430E+03  0.78089975430E+03  0.00000000000E+00 0. -1.
          2   -1    0    0  501    0  0.00000000000E+00 -0.00000000000E+00 -0.40742472703E+04  0.40742472703E+04  0.00000000000E+00 0.  1.
         23    2    1    2    0    0  0.99270507174E+03 -0.12022767955E+04 -0.47168243011E+03  0.16313717984E+04  0.89200769616E+02 0.  0.
         11    1    3    3    0    0  0.49507310223E+03 -0.53238625504E+03 -0.23235810745E+03  0.76323180699E+03  0.00000000000E+00 0. -1.
        -11    1    3    3    0    0  0.49763196951E+03 -0.66989054042E+03 -0.23932432267E+03  0.86813999138E+03  0.00000000000E+00 0.  1.
         22    1    1    2    0    0 -0.99270507174E+03  0.12022767955E+04 -0.28216650859E+04  0.32237752262E+04  0.00000000000E+00 0.  1.
<mgrwt>
<rscale>  0 0.35673961E+04</rscale>
<asrwt>0</asrwt>
<pdfrwt beam="1">  1        2 0.62680725E+00 0.35673961E+04</pdfrwt>
<pdfrwt beam="2">  1       -2 0.12013843E+00 0.35673961E+04</pdfrwt>
<totfact> 0.12826431E-01</totfact>
</mgrwt>
</event>
<event>
 6    1  0.1878398E-004  0.5760950E+04  0.7818608E-02  0.7720769E-01
         -2   -1    0    0    0  501 -0.00000000000E+00  0.00000000000E+00  0.48690331847E+04  0.48690331847E+04  0.00000000000E+00 0. -1.
          2   -1    0    0  501    0  0.00000000000E+00 -0.00000000000E+00 -0.17040626109E+04  0.17040626109E+04  0.00000000000E+00 0.  1.
         23    2    1    2    0    0 -0.28512648609E+04 -0.37583390998E+03  0.17527828594E+04  0.33691550072E+04  0.89416303035E+02 0.  0.
         13    1    3    3    0    0 -0.16569369127E+04 -0.18103726505E+03  0.10435716307E+04  0.19665340506E+04  0.00000000000E+00 0. -1.
        -13    1    3    3    0    0 -0.11943279483E+04 -0.19479664493E+03  0.70921122868E+03  0.14026209566E+04  0.00000000000E+00 0.  1.
         22    1    1    2    0    0  0.28512648609E+04  0.37583390998E+03  0.14121877144E+04  0.32039407884E+04  0.00000000000E+00 0. -1.
<mgrwt>
<rscale>  0 0.57609504E+04</rscale>
<asrwt>0</asrwt>
<pdfrwt beam="1">  1        2 0.26216348E+00 0.57609504E+04</pdfrwt>
<pdfrwt beam="2">  1       -2 0.74908202E+00 0.57609504E+04</pdfrwt>
<totfact> 0.97891890E-04</totfact>
</mgrwt>
</event>
<event>
 6    1  0.1878398E-004  0.7004965E+03  0.7818608E-02  0.9716383E-01
          2   -1    0    0  501    0  0.00000000000E+00  0.00000000000E+00  0.28571379370E+04  0.28571379370E+04  0.00000000000E+00 0.  1.
         -2   -1    0    0    0  501 -0.00000000000E+00 -0.00000000000E+00 -0.42935922187E+02  0.42935922187E+02  0.00000000000E+00 0. -1.
         23    2    1    2    0    0 -0.20610372499E+03 -0.10772785434E+03  0.24820952997E+04  0.24946371733E+04  0.91288079398E+02 0.  0.
         13    1    3    3    0    0  0.42501020213E+01 -0.13985264040E+02  0.66428884275E+02  0.68017994998E+02  0.00000000000E+00 0.  1.
        -13    1    3    3    0    0 -0.21035382701E+03 -0.93742590297E+02  0.24156664154E+04  0.24266191783E+04  0.00000000000E+00 0. -1.
         22    1    1    2    0    0  0.20610372499E+03  0.10772785434E+03  0.33210671509E+03  0.40543668589E+03  0.00000000000E+00 0. -1.
<mgrwt>
<rscale>  0 0.70049654E+03</rscale>
<asrwt>0</asrwt>
<pdfrwt beam="1">  1        2 0.43955954E+00 0.70049654E+03</pdfrwt>
<pdfrwt beam="2">  1       -2 0.66055287E-02 0.70049654E+03</pdfrwt>
<totfact> 0.30062091E+02</totfact>
</mgrwt>
</event>
<event>
 6    1  0.1878398E-004  0.1244868E+04  0.7818608E-02  0.9074465E-01
         -2   -1    0    0    0  501 -0.00000000000E+00  0.00000000000E+00  0.26636295575E+03  0.26636295575E+03  0.00000000000E+00 0. -1.
          2   -1    0    0  501    0  0.00000000000E+00 -0.00000000000E+00 -0.14544977710E+04  0.14544977710E+04  0.00000000000E+00 0.  1.
         23    2    1    2    0    0 -0.57253448627E+03  0.23400983439E+03 -0.63263473085E+03  0.88951441846E+03  0.91939422473E+02 0.  0.
         11    1    3    3    0    0 -0.11394811146E+03  0.20974265364E+02 -0.15857129478E+03  0.19638978446E+03  0.00000000000E+00 0.  1.
        -11    1    3    3    0    0 -0.45858637482E+03  0.21303556902E+03 -0.47406343607E+03  0.69312463400E+03  0.00000000000E+00 0. -1.
         22    1    1    2    0    0  0.57253448627E+03 -0.23400983439E+03 -0.55550008441E+03  0.83134630831E+03  0.00000000000E+00 0. -1.
<mgrwt>
<rscale>  0 0.12448684E+04</rscale>
<asrwt>0</asrwt>
<pdfrwt beam="1">  1        2 0.22376889E+00 0.12448684E+04</pdfrwt>
<pdfrwt beam="2">  1       -2 0.40978916E-01 0.12448684E+04</pdfrwt>
<totfact> 0.74707184E+01</totfact>
</mgrwt>
</event>
<event>
 6    1  0.1878398E-004  0.4216187E+04  0.7818608E-02  0.7962300E-01
          2   -1    0    0  501    0  0.00000000000E+00  0.00000000000E+00  0.27461815202E+04  0.27461815202E+04  0.00000000000E+00 0.  1.
         -2   -1    0    0    0  501 -0.00000000000E+00 -0.00000000000E+00 -0.16182682489E+04  0.16182682489E+04  0.00000000000E+00 0. -1.
         23    2    1    2    0    0  0.25616319694E+03  0.85494846564E+03  0.25401118931E+04  0.26938626238E+04  0.90393272840E+02 0.  0.
         13    1    3    3    0    0  0.21917598430E+03  0.59978260902E+03  0.17619728147E+04  0.18741199241E+04  0.00000000000E+00 0.  1.
        -13    1    3    3    0    0  0.36987212642E+02  0.25516585663E+03  0.77813907842E+03  0.81974269966E+03  0.00000000000E+00 0. -1.
         22    1    1    2    0    0 -0.25616319694E+03 -0.85494846564E+03 -0.14121986218E+04  0.16705871453E+04  0.00000000000E+00 0. -1.
<mgrwt>
<rscale>  0 0.42161871E+04</rscale>
<asrwt>0</asrwt>
<pdfrwt beam="1">  1        2 0.42248947E+00 0.42161871E+04</pdfrwt>
<pdfrwt beam="2">  1       -2 0.24896435E+00 0.42161871E+04</pdfrwt>
<totfact> 0.12595404E-01</totfact>
</mgrwt>
</event>
<event>
 6    1  0.1878398E-004  0.1567536E+04  0.7818608E-02  0.8840744E-01
          1   -1    0    0  501    0  0.00000000000E+00  0.00000000000E+00  0.10911375246E+04  0.10911375246E+04  0.00000000000E+00 0.  1.
         -1   -1    0    0    0  501 -0.00000000000E+00 -0.00000000000E+00 -0.56298327255E+03  0.56298327255E+03  0.00000000000E+00 0. -1.
         23    2    1    2    0    0  0.35395148188E+03 -0.54820277464E+03 -0.18780883017E+03  0.68540460098E+03  0.93270449319E+02 0.  0.
         13    1    3    3    0    0  0.22247952193E+03 -0.32960914877E+03 -0.67435160159E+02  0.40334455427E+03  0.00000000000E+00 0. -1.
        -13    1    3    3    0    0  0.13147195995E+03 -0.21859362587E+03 -0.12037367001E+03  0.28206004672E+03  0.00000000000E+00 0.  1.
         22    1    1    2    0    0 -0.35395148188E+03  0.54820277464E+03  0.71596308225E+03  0.96871619621E+03  0.00000000000E+00 0.  1.
<mgrwt>
<rscale>  0 0.15675359E+04</rscale>
<asrwt>0</asrwt>
<pdfrwt beam="1">  1        1 0.16786731E+00 0.15675359E+04</pdfrwt>
<pdfrwt beam="2">  1       -1 0.86612812E-01 0.15675359E+04</pdfrwt>
<totfact> 0.16282011E+01</totfact>
</mgrwt>
</event>
<event>
 6    1  0.1878398E-004  0.2629384E+04  0.7818608E-02  0.8358288E-01
          2   -1    0    0  501    0  0.00000000000E+00  0.00000000000E+00  0.20928491168E+04  0.20928491168E+04  0.00000000000E+00 0.  1.
         -2   -1    0    0    0  501 -0.00000000000E+00 -0.00000000000E+00 -0.82586732232E+03  0.82586732232E+03  0.00000000000E+00 0. -1.
         23    2    1    2    0    0 -0.67383090898E+03 -0.11269800953E+04  0.64297880411E+03  0.14649241703E+04  0.91917642776E+02 0.  0.
         11    1    3    3    0    0 -0.14588161330E+03 -0.19719213022E+03  0.15009380061E+03  0.28756621899E+03  0.00000000000E+00 0. -1.
        -11    1    3    3    0    0 -0.52794929568E+03 -0.92978796505E+03  0.49288500349E+03  0.11773579513E+04  0.00000000000E+00 0.  1.
         22    1    1    2    0    0  0.67383090898E+03  0.11269800953E+04  0.62400299041E+03  0.14537922689E+04  0.00000000000E+00 0. -1.
<mgrwt>
<rscale>  0 0.26293845E+04</rscale>
<asrwt>0</asrwt>
<pdfrwt beam="1">  1        2 0.32197679E+00 0.26293845E+04</pdfrwt>
<pdfrwt beam="2">  1       -2 0.12705651E+00 0.26293845E+04</pdfrwt>
<totfact> 0.24080752E+00</totfact>
</mgrwt>
</event>
<event>
 6    1  0.1878398E-004  0.1136329E+04  0.7818608E-02  0.9170489E-01
          4   -1    0    0  501    0  0.00000000000E+00  0.00000000000E+00  0.23925969077E+03  0.23925969077E+03  0.00000000000E+00 0.  1.
         -4   -1    0    0    0  501 -0.00000000000E+00 -0.00000000000E+00 -0.13492070586E+04  0.13492070586E+04  0.00000000000E+00 0. -1.
         23    2    1    2    0    0  0.12967679463E+03  0.30700511641E+03 -0.11949697230E+04  0.12445234205E+04  0.99084271031E+02 0.  0.
         13    1    3    3    0    0  0.79710588357E+02  0.88745784526E+02 -0.51511886520E+03  0.52875044913E+03  0.00000000000E+00 0.  1.
        -13    1    3    3    0    0  0.49966206271E+02  0.21825933188E+03 -0.67985085782E+03  0.71577297141E+03  0.00000000000E+00 0. -1.
         22    1    1    2    0    0 -0.12967679463E+03 -0.30700511641E+03  0.85022355193E+02  0.34394332883E+03  0.00000000000E+00 0.  1.
<mgrwt>
<rscale>  0 0.11363289E+04</rscale>
<asrwt>0</asrwt>
<pdfrwt beam="1">  1        4 0.36809184E-01 0.11363289E+04</pdfrwt>
<pdfrwt beam="2">  1       -4 0.20757031E+00 0.11363289E+04</pdfrwt>
<totfact> 0.16740179E+00</totfact>
</mgrwt>
</event>
<event>
 6    1  0.1878398E-004  0.1825487E+04  0.7818608E-02  0.8692862E-01
         -1   -1    0    0    0  501 -0.00000000000E+00  0.00000000000E+00  0.10608230898E+04  0.10608230898E+04  0.00000000000E+00 0. -1.
          1   -1    0    0  501    0  0.00000000000E+00 -0.00000000000E+00 -0.78533420189E+03  0.78533420189E+03  0.00000000000E+00 0.  1.
         23    2    1    2    0    0  0.14114029279E+03 -0.59915045442E+03  0.81646196178E+03  0.10266734811E+04  0.92447025460E+02 0.  0.
         11    1    3    3    0    0  0.13979367147E+03 -0.41736814852E+03  0.59642288117E+03  0.74125481122E+03  0.00000000000E+00 0. -1.
        -11    1    3    3    0    0  0.13466213210E+01 -0.18178230590E+03  0.22003908061E+03  0.28541866989E+03  0.00000000000E+00 0.  1.
         22    1    1    2    0    0 -0.14114029279E+03  0.59915045442E+03 -0.54097307382E+03  0.81948381063E+03  0.00000000000E+00 0.  1.
<mgrwt>
<rscale>  0 0.18254870E+04</rscale>
<asrwt>0</asrwt>
<pdfrwt beam="1">  1        1 0.12082065E+00 0.18254870E+04</pdfrwt>
<pdfrwt beam="2">  1       -1 0.16320355E+00 0.18254870E+04</pdfrwt>
<totfact> 0.59274885E+00</totfact>
</mgrwt>
</event>
<event>
 6    1  0.1878398E-004  0.1903388E+04  0.7818608E-02  0.8653172E-01
          2   -1    0    0  501    0  0.00000000000E+00  0.00000000000E+00  0.16081748762E+04  0.16081748762E+04  0.00000000000E+00 0.  1.
         -2   -1    0    0    0  501 -0.00000000000E+00 -0.00000000000E+00 -0.56319835862E+03  0.56319835862E+03  0.00000000000E+00 0. -1.
         23    2    1    2    0    0  0.47659954046E+02 -0.62516437461E+03  0.13371576861E+04  0.14796566731E+04  0.91056169664E+02 0.  0.
         11    1    3    3    0    0 -0.19638155665E+02 -0.23747502617E+03  0.55903888746E+03  0.60770430549E+03  0.00000000000E+00 0.  1.
        -11    1    3    3    0    0  0.67298109711E+02 -0.38768934844E+03  0.77811879867E+03  0.87195236756E+03  0.00000000000E+00 0. -1.
         22    1    1    2    0    0 -0.47659954046E+02  0.62516437461E+03 -0.29218116859E+03  0.69171656173E+03  0.00000000000E+00 0. -1.
<mgrwt>
<rscale>  0 0.19033880E+04</rscale>
<asrwt>0</asrwt>
<pdfrwt beam="1">  1        2 0.24741152E+00 0.19033880E+04</pdfrwt>
<pdfrwt beam="2">  1       -2 0.86645902E-01 0.19033880E+04</pdfrwt>
<totfact> 0.11915636E+01</totfact>
</mgrwt>
</event>
<event>
 6    1  0.1878398E-004  0.2305068E+04  0.7818608E-02  0.8475925E-01
          2   -1    0    0  501    0  0.00000000000E+00  0.00000000000E+00  0.18367660645E+04  0.18367660645E+04  0.00000000000E+00 0.  1.
         -2   -1    0    0    0  501 -0.00000000000E+00 -0.00000000000E+00 -0.72319225644E+03  0.72319225644E+03  0.00000000000E+00 0. -1.
         23    2    1    2    0    0  0.86596338881E+03 -0.29594888519E+03 -0.21710036002E+03  0.94497470646E+03  0.91467459385E+02 0.  0.
         13    1    3    3    0    0  0.79914520863E+03 -0.26552538313E+03 -0.22356042029E+03  0.87127266403E+03  0.00000000000E+00 0. -1.
        -13    1    3    3    0    0  0.66818180176E+02 -0.30423502065E+02  0.64600602674E+01  0.73702042431E+02  0.00000000000E+00 0.  1.
         22    1    1    2    0    0 -0.86596338881E+03  0.29594888519E+03  0.13306741681E+04  0.16149836145E+04  0.00000000000E+00 0.  1.
<mgrwt>
<rscale>  0 0.23050683E+04</rscale>
<asrwt>0</asrwt>
<pdfrwt beam="1">  1        2 0.28257939E+00 0.23050683E+04</pdfrwt>
<pdfrwt beam="2">  1       -2 0.11126035E+00 0.23050683E+04</pdfrwt>
<totfact> 0.47683671E+00</totfact>
</mgrwt>
</event>
<event>
 6    1  0.1878398E-004  0.1814274E+04  0.7818608E-02  0.8698745E-01
          1   -1    0    0  501    0  0.00000000000E+00  0.00000000000E+00  0.86091147021E+03  0.86091147021E+03  0.00000000000E+00 0.  1.
         -1   -1    0    0    0  501 -0.00000000000E+00 -0.00000000000E+00 -0.95584436327E+03  0.95584436327E+03  0.00000000000E+00 0. -1.
         23    2    1    2    0    0 -0.65342044140E+03 -0.22465934203E+03 -0.63262421017E+03  0.94123196419E+03  0.90962222486E+02 0.  0.
         13    1    3    3    0    0 -0.27504315173E+03 -0.12148958539E+03 -0.22476944702E+03  0.37540612540E+03  0.00000000000E+00 0. -1.
        -13    1    3    3    0    0 -0.37837728967E+03 -0.10316975664E+03 -0.40785476315E+03  0.56582583879E+03  0.00000000000E+00 0.  1.
         22    1    1    2    0    0  0.65342044140E+03  0.22465934203E+03  0.53769131711E+03  0.87552386929E+03  0.00000000000E+00 0.  1.
<mgrwt>
<rscale>  0 0.18142738E+04</rscale>
<asrwt>0</asrwt>
<pdfrwt beam="1">  1        1 0.13244792E+00 0.18142738E+04</pdfrwt>
<pdfrwt beam="2">  1       -1 0.14705298E+00 0.18142738E+04</pdfrwt>
<totfact> 0.68016421E+00</totfact>
</mgrwt>
</event>
<event>
 6    1  0.1878398E-004  0.3447246E+04  0.7818608E-02  0.8126407E-01
         -2   -1    0    0    0  501 -0.00000000000E+00  0.00000000000E+00  0.99334320322E+03  0.99334320322E+03  0.00000000000E+00 0. -1.
          2   -1    0    0  501    0  0.00000000000E+00 -0.00000000000E+00 -0.29907848159E+04  0.29907848159E+04  0.00000000000E+00 0.  1.
         23    2    1    2    0    0  0.26565306133E+03 -0.14520267406E+04  0.25653332851E+02  0.14797585649E+04  0.10036987872E+03 0.  0.
         13    1    3    3    0    0  0.26915204313E+03 -0.13052064658E+04  0.24279034988E+02  0.13328901726E+04  0.00000000000E+00 0.  1.
        -13    1    3    3    0    0 -0.34989818022E+01 -0.14682027483E+03  0.13742978631E+01  0.14686839234E+03  0.00000000000E+00 0. -1.
         22    1    1    2    0    0 -0.26565306133E+03  0.14520267406E+04 -0.20230949456E+04  0.25043694542E+04  0.00000000000E+00 0.  1.
<mgrwt>
<rscale>  0 0.34472457E+04</rscale>
<asrwt>0</asrwt>
<pdfrwt beam="1">  1        2 0.46012074E+00 0.34472457E+04</pdfrwt>
<pdfrwt beam="2">  1       -2 0.15282203E+00 0.34472457E+04</pdfrwt>
<totfact> 0.41487578E-01</totfact>
</mgrwt>
</event>
<event>
 6    1  0.1878398E-004  0.9351917E+03  0.7818608E-02  0.9382629E-01
         -2   -1    0    0    0  501 -0.00000000000E+00  0.00000000000E+00  0.17222793262E+03  0.17222793262E+03  0.00000000000E+00 0. -1.
          2   -1    0    0  501    0  0.00000000000E+00 -0.00000000000E+00 -0.12695146708E+04  0.12695146708E+04  0.00000000000E+00 0.  1.
         23    2    1    2    0    0  0.20232937914E+03 -0.41493826404E+03 -0.61408708772E+03  0.77346658050E+03  0.89647416095E+02 0.  0.
         11    1    3    3    0    0  0.15697443755E+03 -0.38000217065E+03 -0.51453395899E+03  0.65862570455E+03  0.00000000000E+00 0. -1.
        -11    1    3    3    0    0  0.45354941591E+02 -0.34936093396E+02 -0.99553128731E+02  0.11484087595E+03  0.00000000000E+00 0.  1.
         22    1    1    2    0    0 -0.20232937914E+03  0.41493826404E+03 -0.48319965051E+03  0.66827602297E+03  0.00000000000E+00 0.  1.
<mgrwt>
<rscale>  0 0.93519172E+03</rscale>
<asrwt>0</asrwt>
<pdfrwt beam="1">  1        2 0.19530995E+00 0.93519172E+03</pdfrwt>
<pdfrwt beam="2">  1       -2 0.26496605E-01 0.93519172E+03</pdfrwt>
<totfact> 0.22221994E+02</totfact>
</mgrwt>
</event>
<event>
 6    1  0.1878398E-004  0.1024245E+04  0.7818608E-02  0.9282346E-01
         -1   -1    0    0    0  501 -0.00000000000E+00  0.00000000000E+00  0.71151540407E+02  0.71151540407E+02  0.00000000000E+00 0. -1.
          1   -1    0    0  501    0  0.00000000000E+00 -0.00000000000E+00 -0.36860650879E+04  0.36860650879E+04  0.00000000000E+00 0.  1.
         23    2    1    2    0    0 -0.49636743672E+03 -0.40646799459E+01 -0.22189770528E+04  0.22756512902E+04  0.91282418285E+02 0.  0.
         13    1    3    3    0    0 -0.24355185960E+03  0.43553151321E+02 -0.11004870138E+04  0.11279565829E+04  0.00000000000E+00 0. -1.
        -13    1    3    3    0    0 -0.25281557712E+03 -0.47617831267E+02 -0.11184900389E+04  0.11476947073E+04  0.00000000000E+00 0.  1.
         22    1    1    2    0    0  0.49636743672E+03  0.40646799459E+01 -0.13959364947E+04  0.14815653381E+04  0.00000000000E+00 0.  1.
<mgrwt>
<rscale>  0 0.10242445E+04</rscale>
<asrwt>0</asrwt>
<pdfrwt beam="1">  1        1 0.56708721E+00 0.10242445E+04</pdfrwt>
<pdfrwt beam="2">  1       -1 0.10946386E-01 0.10242445E+04</pdfrwt>
<totfact> 0.10074094E+01</totfact>
</mgrwt>
</event>
<event>
 6    1  0.1878398E-004  0.2509654E+04  0.7818608E-02  0.8399554E-01
         -2   -1    0    0    0  501 -0.00000000000E+00  0.00000000000E+00  0.75682961735E+03  0.75682961735E+03  0.00000000000E+00 0. -1.
          2   -1    0    0  501    0  0.00000000000E+00 -0.00000000000E+00 -0.20805096520E+04  0.20805096520E+04  0.00000000000E+00 0.  1.
         23    2    1    2    0    0 -0.11100575997E+04 -0.55405117119E+03 -0.86176622615E+03  0.15134945121E+04  0.93936333143E+02 0.  0.
         13    1    3    3    0    0 -0.88104947247E+03 -0.44843618301E+03 -0.64015083940E+03  0.11777674984E+04  0.00000000000E+00 0. -1.
        -13    1    3    3    0    0 -0.22900812721E+03 -0.10561498819E+03 -0.22161538674E+03  0.33572701366E+03  0.00000000000E+00 0.  1.
         22    1    1    2    0    0  0.11100575997E+04  0.55405117119E+03 -0.46191380853E+03  0.13238447573E+04  0.00000000000E+00 0. -1.
<mgrwt>
<rscale>  0 0.25096544E+04</rscale>
<asrwt>0</asrwt>
<pdfrwt beam="1">  1        2 0.32007840E+00 0.25096544E+04</pdfrwt>
<pdfrwt beam="2">  1       -2 0.11643533E+00 0.25096544E+04</pdfrwt>
<totfact> 0.30712792E+00</totfact>
</mgrwt>
</event>
<event>
 6    1  0.1878398E-004  0.8926352E+03  0.7818608E-02  0.9434835E-01
          2   -1    0    0  501    0  0.00000000000E+00  0.00000000000E+00  0.50287755899E+03  0.50287755899E+03  0.00000000000E+00 0.  1.
         -2   -1    0    0    0  501 -0.00000000000E+00 -0.00000000000E+00 -0.39611910713E+03  0.39611910713E+03  0.00000000000E+00 0. -1.
         23    2    1    2    0    0  0.14494732930E+03  0.16800268878E+03  0.43852618413E+03  0.49986703820E+03  0.91253547871E+02 0.  0.
         13    1    3    3    0    0  0.13041269950E+03  0.11968386797E+03  0.26138647096E+03  0.31568114869E+03  0.00000000000E+00 0.  1.
        -13    1    3    3    0    0  0.14534629801E+02  0.48318820819E+02  0.17713971318E+03  0.18418588951E+03  0.00000000000E+00 0. -1.
         22    1    1    2    0    0 -0.14494732930E+03 -0.16800268878E+03 -0.33176773227E+03  0.39912962793E+03  0.00000000000E+00 0. -1.
<mgrwt>
<rscale>  0 0.89263522E+03</rscale>
<asrwt>0</asrwt>
<pdfrwt beam="1">  1        2 0.77365778E-01 0.89263522E+03</pdfrwt>
<pdfrwt beam="2">  1       -2 0.60941401E-01 0.89263522E+03</pdfrwt>
<totfact> 0.15392868E+02</totfact>
</mgrwt>
</event>
<event>
 6    1  0.1878398E-004  0.9750505E+03  0.7818608E-02  0.9336340E-01
          2   -1    0    0  501    0  0.00000000000E+00  0.00000000000E+00  0.51092098457E+03  0.51092098457E+03  0.00000000000E+00 0.  1.
         -2   -1    0    0    0  501 -0.00000000000E+00 -0.00000000000E+00 -0.46520088246E+03  0.46520088246E+03  0.00000000000E+00 0. -1.
         23    2    1    2    0    0 -0.12291405529E+03 -0.22290877406E+03  0.43468798224E+03  0.51126468648E+03  0.87417110448E+02 0.  0.
         11    1    3    3    0    0 -0.50682676426E+02 -0.15442414862E+03  0.32349663017E+03  0.36202986216E+03  0.00000000000E+00 0. -1.
        -11    1    3    3    0    0 -0.72231378866E+02 -0.68484625438E+02  0.11119135207E+03  0.14923482432E+03  0.00000000000E+00 0.  1.
         22    1    1    2    0    0  0.12291405529E+03  0.22290877406E+03 -0.38896788012E+03  0.46485718055E+03  0.00000000000E+00 0. -1.
<mgrwt>
<rscale>  0 0.97505055E+03</rscale>
<asrwt>0</asrwt>
<pdfrwt beam="1">  1        2 0.78603229E-01 0.97505055E+03</pdfrwt>
<pdfrwt beam="2">  1       -2 0.71569366E-01 0.97505055E+03</pdfrwt>
<totfact> 0.10637665E+02</totfact>
</mgrwt>
</event>
<event>
 6    1  0.1878398E-004  0.8166049E+03  0.7818608E-02  0.9536288E-01
         -1   -1    0    0    0  501 -0.00000000000E+00  0.00000000000E+00  0.47305723075E+03  0.47305723075E+03  0.00000000000E+00 0. -1.
          1   -1    0    0  501    0  0.00000000000E+00 -0.00000000000E+00 -0.35241163242E+03  0.35241163242E+03  0.00000000000E+00 0.  1.
         23    2    1    2    0    0 -0.23106184765E+03  0.76258220063E+02 -0.26360207221E+03  0.37065992980E+03  0.93262197688E+02 0.  0.
         13    1    3    3    0    0 -0.86279316171E+02  0.23867054478E+02 -0.37376630314E+02  0.97009119066E+02  0.00000000000E+00 0. -1.
        -13    1    3    3    0    0 -0.14478253148E+03  0.52391165585E+02 -0.22622544190E+03  0.27365081073E+03  0.00000000000E+00 0.  1.
         22    1    1    2    0    0  0.23106184765E+03 -0.76258220063E+02  0.38424767054E+03  0.45480893338E+03  0.00000000000E+00 0. -1.
<mgrwt>
<rscale>  0 0.81660485E+03</rscale>
<asrwt>0</asrwt>
<pdfrwt beam="1">  1        1 0.54217174E-01 0.81660485E+03</pdfrwt>
<pdfrwt beam="2">  1       -1 0.72778036E-01 0.81660485E+03</pdfrwt>
<totfact> 0.13671877E+02</totfact>
</mgrwt>
</event>
<event>
 6    1  0.1878398E-004  0.1032610E+04  0.7818608E-02  0.9273485E-01
          2   -1    0    0  501    0  0.00000000000E+00  0.00000000000E+00  0.29468073083E+03  0.29468073083E+03  0.00000000000E+00 0.  1.
         -2   -1    0    0    0  501 -0.00000000000E+00 -0.00000000000E+00 -0.90460824190E+03  0.90460824190E+03  0.00000000000E+00 0. -1.
         23    2    1    2    0    0 -0.34317193940E+02 -0.43940642670E+03 -0.61066877796E+03  0.75854389096E+03  0.90646569250E+02 0.  0.
         13    1    3    3    0    0 -0.44024741873E+01 -0.23769535292E+03 -0.40023329984E+03  0.46551601141E+03  0.00000000000E+00 0.  1.
        -13    1    3    3    0    0 -0.29914719752E+02 -0.20171107378E+03 -0.21043547812E+03  0.29302787955E+03  0.00000000000E+00 0. -1.
         22    1    1    2    0    0  0.34317193940E+02  0.43940642670E+03  0.74126688995E+00  0.44074508176E+03  0.00000000000E+00 0.  1.
<mgrwt>
<rscale>  0 0.10326095E+04</rscale>
<asrwt>0</asrwt>
<pdfrwt beam="1">  1        2 0.45335497E-01 0.10326095E+04</pdfrwt>
<pdfrwt beam="2">  1       -2 0.13917050E+00 0.10326095E+04</pdfrwt>
<totfact> 0.40681248E+01</totfact>
</mgrwt>
</event>
<event>
 6    1  0.1972520E-004  0.3128964E+04  0.7818608E-02  0.8207834E-01
         -2   -1    0    0    0  501 -0.00000000000E+00  0.00000000000E+00  0.87032278227E+03  0.87032278227E+03  0.00000000000E+00 0. -1.
          2   -1    0    0  501    0  0.00000000000E+00 -0.00000000000E+00 -0.28122952644E+04  0.28122952644E+04  0.00000000000E+00 0.  1.
         23    2    1    2    0    0  0.32364390869E+02 -0.61175229010E+03 -0.26643975539E+04  0.27354188582E+04  0.90629390831E+02 0.  0.
         11    1    3    3    0    0  0.45956517679E+01 -0.20391316777E+03 -0.70932714627E+03  0.73806957697E+03  0.00000000000E+00 0. -1.
        -11    1    3    3    0    0  0.27768739101E+02 -0.40783912233E+03 -0.19550704076E+04  0.19973492812E+04  0.00000000000E+00 0.  1.
         22    1    1    2    0    0 -0.32364390869E+02  0.61175229010E+03  0.72242507178E+03  0.94719918844E+03  0.00000000000E+00 0. -1.
<mgrwt>
<rscale>  0 0.31289645E+04</rscale>
<asrwt>0</asrwt>
<pdfrwt beam="1">  1        2 0.43266081E+00 0.31289645E+04</pdfrwt>
<pdfrwt beam="2">  1       -2 0.13389581E+00 0.31289645E+04</pdfrwt>
<totfact> 0.77527892E-01</totfact>
</mgrwt>
</event>
<event>
 6    1  0.1878398E-004  0.1479311E+04  0.7818608E-02  0.8898329E-01
         -2   -1    0    0    0  501 -0.00000000000E+00  0.00000000000E+00  0.83730327540E+03  0.83730327540E+03  0.00000000000E+00 0. -1.
          2   -1    0    0  501    0  0.00000000000E+00 -0.00000000000E+00 -0.65339547390E+03  0.65339547390E+03  0.00000000000E+00 0.  1.
         23    2    1    2    0    0 -0.19416170190E+03 -0.26831149655E+03  0.75560456701E+03  0.82999683666E+03  0.90921183058E+02 0.  0.
         13    1    3    3    0    0 -0.18487500740E+03 -0.19394897263E+03  0.57013795144E+03  0.62996210682E+03  0.00000000000E+00 0. -1.
        -13    1    3    3    0    0 -0.92866944986E+01 -0.74362523914E+02  0.18546661556E+03  0.20003472985E+03  0.00000000000E+00 0.  1.
         22    1    1    2    0    0  0.19416170190E+03  0.26831149655E+03 -0.57169676550E+03  0.66070191263E+03  0.00000000000E+00 0.  1.
<mgrwt>
<rscale>  0 0.14793109E+04</rscale>
<asrwt>0</asrwt>
<pdfrwt beam="1">  1        2 0.10052238E+00 0.14793109E+04</pdfrwt>
<pdfrwt beam="2">  1       -2 0.12881589E+00 0.14793109E+04</pdfrwt>
<totfact> 0.19208265E+01</totfact>
</mgrwt>
</event>
<event>
 6    1  0.1878398E-004  0.2272667E+04  0.7818608E-02  0.8488777E-01
         -1   -1    0    0    0  501 -0.00000000000E+00  0.00000000000E+00  0.94790294427E+03  0.94790294427E+03  0.00000000000E+00 0. -1.
          1   -1    0    0  501    0  0.00000000000E+00 -0.00000000000E+00 -0.13622214601E+04  0.13622214601E+04  0.00000000000E+00 0.  1.
         23    2    1    2    0    0  0.73755383460E+03  0.76589562300E+03  0.19456793127E+03  0.10848389398E+04  0.91853585383E+02 0.  0.
         11    1    3    3    0    0  0.56068667679E+03  0.54827882337E+03  0.17655068803E+03  0.80383416395E+03  0.00000000000E+00 0. -1.
        -11    1    3    3    0    0  0.17686715780E+03  0.21761679963E+03  0.18017243236E+02  0.28100477584E+03  0.00000000000E+00 0.  1.
         22    1    1    2    0    0 -0.73755383460E+03 -0.76589562300E+03 -0.60888644708E+03  0.12252854646E+04  0.00000000000E+00 0.  1.
<mgrwt>
<rscale>  0 0.22726669E+04</rscale>
<asrwt>0</asrwt>
<pdfrwt beam="1">  1        1 0.20957253E+00 0.22726669E+04</pdfrwt>
<pdfrwt beam="2">  1       -1 0.14583122E+00 0.22726669E+04</pdfrwt>
<totfact> 0.27853289E+00</totfact>
</mgrwt>
</event>
<event>
 6    1  0.1878398E-004  0.2949644E+04  0.7818608E-02  0.8258258E-01
         -2   -1    0    0    0  501 -0.00000000000E+00  0.00000000000E+00  0.65448113753E+03  0.65448113753E+03  0.00000000000E+00 0. -1.
          2   -1    0    0  501    0  0.00000000000E+00 -0.00000000000E+00 -0.33233948943E+04  0.33233948943E+04  0.00000000000E+00 0.  1.
         23    2    1    2    0    0  0.11191180094E+04 -0.19854282986E+03 -0.71227951196E+02  0.11424191165E+04  0.90573961929E+02 0.  0.
         11    1    3    3    0    0  0.20086514651E+03 -0.11782416954E+01 -0.18438314023E+02  0.20171308029E+03  0.00000000000E+00 0. -1.
        -11    1    3    3    0    0  0.91825286285E+03 -0.19736458817E+03 -0.52789637172E+02  0.94070603622E+03  0.00000000000E+00 0.  1.
         22    1    1    2    0    0 -0.11191180094E+04  0.19854282986E+03 -0.25976858056E+04  0.28354569153E+04  0.00000000000E+00 0.  1.
<mgrwt>
<rscale>  0 0.29496436E+04</rscale>
<asrwt>0</asrwt>
<pdfrwt beam="1">  1        2 0.51129152E+00 0.29496436E+04</pdfrwt>
<pdfrwt beam="2">  1       -2 0.10068941E+00 0.29496436E+04</pdfrwt>
<totfact> 0.74996860E-01</totfact>
</mgrwt>
</event>
<event>
 6    1  0.1878398E-004  0.2965995E+04  0.7818608E-02  0.8253508E-01
         -1   -1    0    0    0  501 -0.00000000000E+00  0.00000000000E+00  0.19040642917E+04  0.19040642917E+04  0.00000000000E+00 0. -1.
          1   -1    0    0  501    0  0.00000000000E+00 -0.00000000000E+00 -0.11550456773E+04  0.11550456773E+04  0.00000000000E+00 0.  1.
         23    2    1    2    0    0 -0.11505665472E+04 -0.48684689874E+03  0.11962913252E+04  0.17321298786E+04  0.91311002743E+02 0.  0.
         13    1    3    3    0    0 -0.49494352728E+03 -0.17247536500E+03  0.54215853526E+03  0.75409066039E+03  0.00000000000E+00 0.  1.
        -13    1    3    3    0    0 -0.65562301995E+03 -0.31437153374E+03  0.65413278992E+03  0.97803921821E+03  0.00000000000E+00 0. -1.
         22    1    1    2    0    0  0.11505665472E+04  0.48684689874E+03 -0.44727271080E+03  0.13269800904E+04  0.00000000000E+00 0. -1.
<mgrwt>
<rscale>  0 0.29659948E+04</rscale>
<asrwt>0</asrwt>
<pdfrwt beam="1">  1        1 0.17769934E+00 0.29659948E+04</pdfrwt>
<pdfrwt beam="2">  1       -1 0.29293297E+00 0.29659948E+04</pdfrwt>
<totfact> 0.36120325E-01</totfact>
</mgrwt>
</event>
<event>
 6    1  0.1878398E-004  0.3461591E+04  0.7818608E-02  0.8122953E-01
          1   -1    0    0  501    0  0.00000000000E+00  0.00000000000E+00  0.62644065868E+03  0.62644065868E+03  0.00000000000E+00 0.  1.
         -1   -1    0    0    0  501 -0.00000000000E+00 -0.00000000000E+00 -0.47820221171E+04  0.47820221171E+04  0.00000000000E+00 0. -1.
         23    2    1    2    0    0 -0.54647369991E+03  0.16161154694E+04 -0.25237392136E+04  0.30476637952E+04  0.92370314278E+02 0.  0.
         13    1    3    3    0    0 -0.54213922463E+02  0.23472480578E+03 -0.31878097172E+03  0.39957000859E+03  0.00000000000E+00 0. -1.
        -13    1    3    3    0    0 -0.49225977745E+03  0.13813906636E+04 -0.22049582419E+04  0.26480937866E+04  0.00000000000E+00 0.  1.
         22    1    1    2    0    0  0.54647369991E+03 -0.16161154694E+04 -0.16318422448E+04  0.23607989806E+04  0.00000000000E+00 0.  1.
<mgrwt>
<rscale>  0 0.34615910E+04</rscale>
<asrwt>0</asrwt>
<pdfrwt beam="1">  1        1 0.96375482E-01 0.34615910E+04</pdfrwt>
<pdfrwt beam="2">  1       -1 0.73569574E+00 0.34615910E+04</pdfrwt>
<totfact> 0.38533926E-03</totfact>
</mgrwt>
</event>
<event>
 6    1  0.1878398E-004  0.4083558E+04  0.7818608E-02  0.7987899E-01
         -2   -1    0    0    0  501 -0.00000000000E+00  0.00000000000E+00  0.20953489385E+04  0.20953489385E+04  0.00000000000E+00 0. -1.
          2   -1    0    0  501    0  0.00000000000E+00 -0.00000000000E+00 -0.19895789065E+04  0.19895789065E+04  0.00000000000E+00 0.  1.
         23    2    1    2    0    0 -0.16555810794E+04  0.61686265331E+03 -0.96877854861E+03  0.20170490054E+04  0.92122583753E+02 0.  0.
         11    1    3    3    0    0 -0.10560024854E+04  0.37546426961E+03 -0.66092554110E+03  0.13011292164E+04  0.00000000000E+00 0.  1.
        -11    1    3    3    0    0 -0.59957859399E+03  0.24139838370E+03 -0.30785300751E+03  0.71591978898E+03  0.00000000000E+00 0. -1.
         22    1    1    2    0    0  0.16555810794E+04 -0.61686265331E+03  0.10745485806E+04  0.20678788396E+04  0.00000000000E+00 0. -1.
<mgrwt>
<rscale>  0 0.40835583E+04</rscale>
<asrwt>0</asrwt>
<pdfrwt beam="1">  1        2 0.30608906E+00 0.40835583E+04</pdfrwt>
<pdfrwt beam="2">  1       -2 0.32236137E+00 0.40835583E+04</pdfrwt>
<totfact> 0.12283205E-01</totfact>
</mgrwt>
</event>
<event>
 6    1  0.1878398E-004  0.2693531E+04  0.7818608E-02  0.8337107E-01
         -2   -1    0    0    0  501 -0.00000000000E+00  0.00000000000E+00  0.15665119196E+04  0.15665119196E+04  0.00000000000E+00 0. -1.
          2   -1    0    0  501    0  0.00000000000E+00 -0.00000000000E+00 -0.11578449937E+04  0.11578449937E+04  0.00000000000E+00 0.  1.
         23    2    1    2    0    0  0.66011454275E+03 -0.81034467264E+03  0.10611653366E+04  0.14922189851E+04  0.90752023550E+02 0.  0.
         13    1    3    3    0    0  0.31825231014E+03 -0.38879040576E+03  0.44579984296E+03  0.67169934681E+03  0.00000000000E+00 0. -1.
        -13    1    3    3    0    0  0.34186223261E+03 -0.42155426688E+03  0.61536549365E+03  0.82051963826E+03  0.00000000000E+00 0.  1.
         22    1    1    2    0    0 -0.66011454275E+03  0.81034467264E+03 -0.65249841073E+03  0.12321379282E+04  0.00000000000E+00 0.  1.
<mgrwt>
<rscale>  0 0.26935315E+04</rscale>
<asrwt>0</asrwt>
<pdfrwt beam="1">  1        2 0.17813000E+00 0.26935315E+04</pdfrwt>
<pdfrwt beam="2">  1       -2 0.24100184E+00 0.26935315E+04</pdfrwt>
<totfact> 0.12871091E+00</totfact>
</mgrwt>
</event>
<event>
 6    1  0.1878398E-004  0.1058468E+04  0.7818608E-02  0.9246645E-01
          2   -1    0    0  501    0  0.00000000000E+00  0.00000000000E+00  0.40667670903E+03  0.40667670903E+03  0.00000000000E+00 0.  1.
         -2   -1    0    0    0  501 -0.00000000000E+00 -0.00000000000E+00 -0.68872526797E+03  0.68872526797E+03  0.00000000000E+00 0. -1.
         23    2    1    2    0    0  0.25980237984E+03 -0.36401523653E+03 -0.42695341351E+03  0.62529370662E+03  0.93266463625E+02 0.  0.
         13    1    3    3    0    0  0.15971472245E+03 -0.20093281607E+03 -0.18291397740E+03  0.31518298220E+03  0.00000000000E+00 0. -1.
        -13    1    3    3    0    0  0.10008765739E+03 -0.16308242047E+03 -0.24403943610E+03  0.31011072442E+03  0.00000000000E+00 0.  1.
         22    1    1    2    0    0 -0.25980237984E+03  0.36401523653E+03  0.14490485457E+03  0.47010827038E+03  0.00000000000E+00 0.  1.
<mgrwt>
<rscale>  0 0.10584678E+04</rscale>
<asrwt>0</asrwt>
<pdfrwt beam="1">  1        2 0.62565648E-01 0.10584678E+04</pdfrwt>
<pdfrwt beam="2">  1       -2 0.10595773E+00 0.10584678E+04</pdfrwt>
<totfact> 0.55866891E+01</totfact>
</mgrwt>
</event>
<event>
 6    1  0.1878398E-004  0.3628277E+04  0.7818608E-02  0.8084045E-01
          2   -1    0    0  501    0  0.00000000000E+00  0.00000000000E+00  0.16134921249E+04  0.16134921249E+04  0.00000000000E+00 0.  1.
         -2   -1    0    0    0  501 -0.00000000000E+00 -0.00000000000E+00 -0.20397367012E+04  0.20397367012E+04  0.00000000000E+00 0. -1.
         23    2    1    2    0    0  0.77800477716E+03 -0.39572010590E+03  0.13867209849E+04  0.16410832147E+04  0.90957089968E+02 0.  0.
         11    1    3    3    0    0  0.26111927460E+03 -0.16458373042E+03  0.42883875542E+03  0.52836896013E+03  0.00000000000E+00 0.  1.
        -11    1    3    3    0    0  0.51688550256E+03 -0.23113637549E+03  0.95788222944E+03  0.11127142546E+04  0.00000000000E+00 0. -1.
         22    1    1    2    0    0 -0.77800477716E+03  0.39572010590E+03 -0.18129655612E+04  0.20121456114E+04  0.00000000000E+00 0. -1.
<mgrwt>
<rscale>  0 0.36282773E+04</rscale>
<asrwt>0</asrwt>
<pdfrwt beam="1">  1        2 0.24822956E+00 0.36282773E+04</pdfrwt>
<pdfrwt beam="2">  1       -2 0.31380565E+00 0.36282773E+04</pdfrwt>
<totfact> 0.23297985E-01</totfact>
</mgrwt>
</event>
<event>
 6    1  0.1878398E-004  0.2380536E+04  0.7818608E-02  0.8446827E-01
         -3   -1    0    0    0  501 -0.00000000000E+00  0.00000000000E+00  0.13666101008E+04  0.13666101008E+04  0.00000000000E+00 0. -1.
          3   -1    0    0  501    0  0.00000000000E+00 -0.00000000000E+00 -0.10366800601E+04  0.10366800601E+04  0.00000000000E+00 0.  1.
         23    2    1    2    0    0  0.99577233983E+03 -0.49653335903E+03 -0.25630590270E+03  0.11456016022E+04  0.92749047253E+02 0.  0.
         11    1    3    3    0    0  0.41830139556E+03 -0.20131241771E+03 -0.15351799411E+03  0.48894838333E+03  0.00000000000E+00 0. -1.
        -11    1    3    3    0    0  0.57747094428E+03 -0.29522094131E+03 -0.10278790859E+03  0.65665321885E+03  0.00000000000E+00 0.  1.
         22    1    1    2    0    0 -0.99577233983E+03  0.49653335903E+03  0.58623594336E+03  0.12576885587E+04  0.00000000000E+00 0. -1.
<mgrwt>
<rscale>  0 0.23805356E+04</rscale>
<asrwt>0</asrwt>
<pdfrwt beam="1">  1        3 0.15948924E+00 0.23805356E+04</pdfrwt>
<pdfrwt beam="2">  1       -3 0.21024771E+00 0.23805356E+04</pdfrwt>
<totfact> 0.81706749E-02</totfact>
</mgrwt>
</event>
<event>
 6    1  0.1878398E-004  0.2630056E+04  0.7818608E-02  0.8358063E-01
          2   -1    0    0  501    0  0.00000000000E+00  0.00000000000E+00  0.10973045183E+04  0.10973045183E+04  0.00000000000E+00 0.  1.
         -2   -1    0    0    0  501 -0.00000000000E+00 -0.00000000000E+00 -0.15759509663E+04  0.15759509663E+04  0.00000000000E+00 0. -1.
         23    2    1    2    0    0  0.59843734033E+02 -0.13099190270E+04 -0.31621499480E+03  0.13519481370E+04  0.91119220871E+02 0.  0.
         13    1    3    3    0    0  0.67811728386E+02 -0.10050282328E+04 -0.27503308772E+03  0.10441855097E+04  0.00000000000E+00 0. -1.
        -13    1    3    3    0    0 -0.79679943527E+01 -0.30489079419E+03 -0.41181907074E+02  0.30776262734E+03  0.00000000000E+00 0.  1.
         22    1    1    2    0    0 -0.59843734033E+02  0.13099190270E+04 -0.16243145317E+03  0.13213073476E+04  0.00000000000E+00 0. -1.
<mgrwt>
<rscale>  0 0.26300556E+04</rscale>
<asrwt>0</asrwt>
<pdfrwt beam="1">  1        2 0.16881608E+00 0.26300556E+04</pdfrwt>
<pdfrwt beam="2">  1       -2 0.24245400E+00 0.26300556E+04</pdfrwt>
<totfact> 0.13802361E+00</totfact>
</mgrwt>
</event>
<event>
 6    1  0.1878398E-004  0.3249829E+04  0.7818608E-02  0.8175780E-01
         -2   -1    0    0    0  501 -0.00000000000E+00  0.00000000000E+00  0.89429756497E+03  0.89429756497E+03  0.00000000000E+00 0. -1.
          2   -1    0    0  501    0  0.00000000000E+00 -0.00000000000E+00 -0.29524251263E+04  0.29524251263E+04  0.00000000000E+00 0.  1.
         23    2    1    2    0    0  0.15381288423E+04  0.13050278163E+03 -0.16256532377E+04  0.22436302571E+04  0.90867870375E+02 0.  0.
         13    1    3    3    0    0  0.69247150360E+03  0.25755207395E+02 -0.77421261682E+03  0.10390309380E+04  0.00000000000E+00 0.  1.
        -13    1    3    3    0    0  0.84565733875E+03  0.10474757424E+03 -0.85144062084E+03  0.12045993192E+04  0.00000000000E+00 0. -1.
         22    1    1    2    0    0 -0.15381288423E+04 -0.13050278163E+03 -0.43247432363E+03  0.16030924341E+04  0.00000000000E+00 0.  1.
<mgrwt>
<rscale>  0 0.32498287E+04</rscale>
<asrwt>0</asrwt>
<pdfrwt beam="1">  1        2 0.45421925E+00 0.32498287E+04</pdfrwt>
<pdfrwt beam="2">  1       -2 0.13758424E+00 0.32498287E+04</pdfrwt>
<totfact> 0.58712297E-01</totfact>
</mgrwt>
</event>
<event>
 6    1  0.1878398E-004  0.1786956E+04  0.7818608E-02  0.8713267E-01
          2   -1    0    0  501    0  0.00000000000E+00  0.00000000000E+00  0.21949850878E+04  0.21949850878E+04  0.00000000000E+00 0.  1.
         -2   -1    0    0    0  501 -0.00000000000E+00 -0.00000000000E+00 -0.36369386175E+03  0.36369386175E+03  0.00000000000E+00 0. -1.
         23    2    1    2    0    0  0.29459770214E+03 -0.78547349524E+03  0.48944274530E+03  0.97617657575E+03  0.98031057747E+02 0.  0.
         13    1    3    3    0    0  0.18211723536E+03 -0.41409634732E+03  0.31173701011E+03  0.54938368719E+03  0.00000000000E+00 0. -1.
        -13    1    3    3    0    0  0.11248046677E+03 -0.37137714792E+03  0.17770573519E+03  0.42679288856E+03  0.00000000000E+00 0.  1.
         22    1    1    2    0    0 -0.29459770214E+03  0.78547349524E+03  0.13418484808E+04  0.15825023738E+04  0.00000000000E+00 0.  1.
<mgrwt>
<rscale>  0 0.17869556E+04</rscale>
<asrwt>0</asrwt>
<pdfrwt beam="1">  1        2 0.33769000E+00 0.17869556E+04</pdfrwt>
<pdfrwt beam="2">  1       -2 0.55952903E-01 0.17869556E+04</pdfrwt>
<totfact> 0.14738201E+01</totfact>
</mgrwt>
</event>
<event>
 6    1  0.1878398E-004  0.3037846E+04  0.7818608E-02  0.8233006E-01
          2   -1    0    0  501    0  0.00000000000E+00  0.00000000000E+00  0.33344291456E+04  0.33344291456E+04  0.00000000000E+00 0.  1.
         -2   -1    0    0    0  501 -0.00000000000E+00 -0.00000000000E+00 -0.69191049039E+03  0.69191049039E+03  0.00000000000E+00 0. -1.
         23    2    1    2    0    0  0.10254139779E+04 -0.18041509655E+03 -0.14106629518E+03  0.10544095209E+04  0.88635799449E+02 0.  0.
         11    1    3    3    0    0  0.98163305242E+03 -0.15497480735E+03 -0.12711976965E+03  0.10018882554E+04  0.00000000000E+00 0. -1.
        -11    1    3    3    0    0  0.43780925475E+02 -0.25440289203E+02 -0.13946525529E+02  0.52521265450E+02  0.00000000000E+00 0.  1.
         22    1    1    2    0    0 -0.10254139779E+04  0.18041509655E+03  0.27835849503E+04  0.29719301151E+04  0.00000000000E+00 0.  1.
<mgrwt>
<rscale>  0 0.30378456E+04</rscale>
<asrwt>0</asrwt>
<pdfrwt beam="1">  1        2 0.51298909E+00 0.30378456E+04</pdfrwt>
<pdfrwt beam="2">  1       -2 0.10644777E+00 0.30378456E+04</pdfrwt>
<totfact> 0.64053399E-01</totfact>
</mgrwt>
</event>
<event>
 6    1  0.1878398E-004  0.1810197E+04  0.7818608E-02  0.8700896E-01
          1   -1    0    0  501    0  0.00000000000E+00  0.00000000000E+00  0.14371968690E+04  0.14371968690E+04  0.00000000000E+00 0.  1.
         -1   -1    0    0    0  501 -0.00000000000E+00 -0.00000000000E+00 -0.57000062190E+03  0.57000062190E+03  0.00000000000E+00 0. -1.
         23    2    1    2    0    0  0.25254590919E+03 -0.55325563052E+03  0.11744298533E+04  0.13258284882E+04  0.93083139614E+02 0.  0.
         11    1    3    3    0    0  0.80820072761E+02 -0.10012229757E+03  0.20507161166E+03  0.24209651907E+03  0.00000000000E+00 0. -1.
        -11    1    3    3    0    0  0.17172583643E+03 -0.45313333295E+03  0.96935824166E+03  0.10837319692E+04  0.00000000000E+00 0.  1.
         22    1    1    2    0    0 -0.25254590919E+03  0.55325563052E+03 -0.30723360625E+03  0.68136900264E+03  0.00000000000E+00 0.  1.
<mgrwt>
<rscale>  0 0.18101968E+04</rscale>
<asrwt>0</asrwt>
<pdfrwt beam="1">  1        1 0.22110721E+00 0.18101968E+04</pdfrwt>
<pdfrwt beam="2">  1       -1 0.87692404E-01 0.18101968E+04</pdfrwt>
<totfact> 0.87241490E+00</totfact>
</mgrwt>
</event>
<event>
 6    1  0.1878398E-004  0.9710531E+03  0.7818608E-02  0.9340876E-01
          2   -1    0    0  501    0  0.00000000000E+00  0.00000000000E+00  0.40486769850E+03  0.40486769850E+03  0.00000000000E+00 0.  1.
         -2   -1    0    0    0  501 -0.00000000000E+00 -0.00000000000E+00 -0.58225447817E+03  0.58225447817E+03  0.00000000000E+00 0. -1.
         23    2    1    2    0    0  0.33402908801E+03 -0.30194483180E+03  0.83101604281E+02  0.46692960535E+03  0.91494626268E+02 0.  0.
         11    1    3    3    0    0  0.16906293071E+03 -0.21108415795E+03  0.61637564278E+02  0.27737697382E+03  0.00000000000E+00 0. -1.
        -11    1    3    3    0    0  0.16496615730E+03 -0.90860673845E+02  0.21464040002E+02  0.18955263153E+03  0.00000000000E+00 0.  1.
         22    1    1    2    0    0 -0.33402908801E+03  0.30194483180E+03 -0.26048838395E+03  0.52019257132E+03  0.00000000000E+00 0. -1.
<mgrwt>
<rscale>  0 0.97105310E+03</rscale>
<asrwt>0</asrwt>
<pdfrwt beam="1">  1        2 0.62287339E-01 0.97105310E+03</pdfrwt>
<pdfrwt beam="2">  1       -2 0.89577612E-01 0.97105310E+03</pdfrwt>
<totfact> 0.83834866E+01</totfact>
</mgrwt>
</event>
<event>
 6    1  0.1878398E-004  0.2512725E+04  0.7818608E-02  0.8398466E-01
          2   -1    0    0  501    0  0.00000000000E+00  0.00000000000E+00  0.36228603533E+04  0.36228603533E+04  0.00000000000E+00 0.  1.
         -2   -1    0    0    0  501 -0.00000000000E+00 -0.00000000000E+00 -0.43569087477E+03  0.43569087477E+03  0.00000000000E+00 0. -1.
         23    2    1    2    0    0  0.48152636290E+02 -0.90816295752E+03  0.29919079523E+04  0.31283868891E+04  0.90623942407E+02 0.  0.
         11    1    3    3    0    0 -0.49478110609E+01 -0.46819103911E+03  0.14198761333E+04  0.14950837983E+04  0.00000000000E+00 0.  1.
        -11    1    3    3    0    0  0.53100447351E+02 -0.43997191842E+03  0.15720318190E+04  0.16333030908E+04  0.00000000000E+00 0. -1.
         22    1    1    2    0    0 -0.48152636290E+02  0.90816295752E+03  0.19526152615E+03  0.93016433892E+03  0.00000000000E+00 0. -1.
<mgrwt>
<rscale>  0 0.25127254E+04</rscale>
<asrwt>0</asrwt>
<pdfrwt beam="1">  1        2 0.55736311E+00 0.25127254E+04</pdfrwt>
<pdfrwt beam="2">  1       -2 0.67029368E-01 0.25127254E+04</pdfrwt>
<totfact> 0.12117761E+00</totfact>
</mgrwt>
</event>
<event>
 6    1  0.1878398E-004  0.2278876E+04  0.7818608E-02  0.8486297E-01
          1   -1    0    0  501    0  0.00000000000E+00  0.00000000000E+00  0.88369117173E+03  0.88369117173E+03  0.00000000000E+00 0.  1.
         -1   -1    0    0    0  501 -0.00000000000E+00 -0.00000000000E+00 -0.14692004194E+04  0.14692004194E+04  0.00000000000E+00 0. -1.
         23    2    1    2    0    0  0.93063132284E+03 -0.21785812749E+02  0.38180074487E+03  0.10104170467E+04  0.92852134338E+02 0.  0.
         11    1    3    3    0    0  0.80063656023E+03  0.17744618934E+01  0.29981894502E+03  0.85493476364E+03  0.00000000000E+00 0. -1.
        -11    1    3    3    0    0  0.12999476261E+03 -0.23560274642E+02  0.81981799851E+02  0.15548228309E+03  0.00000000000E+00 0.  1.
         22    1    1    2    0    0 -0.93063132284E+03  0.21785812749E+02 -0.96730999253E+03  0.13424745444E+04  0.00000000000E+00 0.  1.
<mgrwt>
<rscale>  0 0.22788764E+04</rscale>
<asrwt>0</asrwt>
<pdfrwt beam="1">  1        1 0.13595249E+00 0.22788764E+04</pdfrwt>
<pdfrwt beam="2">  1       -1 0.22603083E+00 0.22788764E+04</pdfrwt>
<totfact> 0.17046156E+00</totfact>
</mgrwt>
</event>
<event>
 6    1  0.1878398E-004  0.2585112E+04  0.7818608E-02  0.8373276E-01
         -2   -1    0    0    0  501 -0.00000000000E+00  0.00000000000E+00  0.61512791674E+03  0.61512791674E+03  0.00000000000E+00 0. -1.
          2   -1    0    0  501    0  0.00000000000E+00 -0.00000000000E+00 -0.27160215443E+04  0.27160215443E+04  0.00000000000E+00 0.  1.
         23    2    1    2    0    0  0.11499685685E+04  0.50565421022E+03 -0.14350416655E+04  0.19093644125E+04  0.90631060379E+02 0.  0.
         13    1    3    3    0    0  0.43933301664E+03  0.17984001945E+03 -0.47901645259E+03  0.67439802339E+03  0.00000000000E+00 0.  1.
        -13    1    3    3    0    0  0.71063555187E+03  0.32581419077E+03 -0.95602521291E+03  0.12349663891E+04  0.00000000000E+00 0. -1.
         22    1    1    2    0    0 -0.11499685685E+04 -0.50565421022E+03 -0.66585196205E+03  0.14217850485E+04  0.00000000000E+00 0. -1.
<mgrwt>
<rscale>  0 0.25851117E+04</rscale>
<asrwt>0</asrwt>
<pdfrwt beam="1">  1        2 0.41784947E+00 0.25851117E+04</pdfrwt>
<pdfrwt beam="2">  1       -2 0.94635064E-01 0.25851117E+04</pdfrwt>
<totfact> 0.21631397E+00</totfact>
</mgrwt>
</event>
<event>
 6    1  0.1878398E-004  0.2040819E+04  0.7818608E-02  0.8587771E-01
         -3   -1    0    0    0  501 -0.00000000000E+00  0.00000000000E+00  0.78538229607E+03  0.78538229607E+03  0.00000000000E+00 0. -1.
          3   -1    0    0  501    0  0.00000000000E+00 -0.00000000000E+00 -0.13257689479E+04  0.13257689479E+04  0.00000000000E+00 0.  1.
         23    2    1    2    0    0 -0.32447063939E+03  0.70689006270E+03  0.40916161099E+03  0.88370810476E+03  0.92477207666E+02 0.  0.
         13    1    3    3    0    0 -0.22575606897E+03  0.49375275343E+03  0.33242613922E+03  0.63660405452E+03  0.00000000000E+00 0.  1.
        -13    1    3    3    0    0 -0.98714570423E+02  0.21313730926E+03  0.76735471773E+02  0.24710405023E+03  0.00000000000E+00 0. -1.
         22    1    1    2    0    0  0.32447063939E+03 -0.70689006270E+03 -0.94954826281E+03  0.12274431392E+04  0.00000000000E+00 0.  1.
<mgrwt>
<rscale>  0 0.20408189E+04</rscale>
<asrwt>0</asrwt>
<pdfrwt beam="1">  1        3 0.20396445E+00 0.20408189E+04</pdfrwt>
<pdfrwt beam="2">  1       -3 0.12082805E+00 0.20408189E+04</pdfrwt>
<totfact> 0.18707350E-01</totfact>
</mgrwt>
</event>
<event>
 6    1  0.1878398E-004  0.1881250E+04  0.7818608E-02  0.8664246E-01
         -1   -1    0    0    0  501 -0.00000000000E+00  0.00000000000E+00  0.11163300271E+04  0.11163300271E+04  0.00000000000E+00 0.  1.
          1   -1    0    0  501    0  0.00000000000E+00 -0.00000000000E+00 -0.79257508195E+03  0.79257508195E+03  0.00000000000E+00 0. -1.
         23    2    1    2    0    0  0.30072825293E+03  0.92959529168E+02 -0.73478371294E+03  0.80455776928E+03  0.91253181535E+02 0.  0.
         13    1    3    3    0    0  0.11077609694E+03 -0.63797320154E+01 -0.29853185837E+03  0.31848597316E+03  0.00000000000E+00 0. -1.
        -13    1    3    3    0    0  0.18995215599E+03  0.99339261183E+02 -0.43625185457E+03  0.48607179613E+03  0.00000000000E+00 0.  1.
         22    1    1    2    0    0 -0.30072825293E+03 -0.92959529168E+02  0.10585386580E+04  0.11043473397E+04  0.00000000000E+00 0.  1.
<mgrwt>
<rscale>  0 0.18812500E+04</rscale>
<asrwt>0</asrwt>
<pdfrwt beam="1">  1        1 0.12193463E+00 0.18812500E+04</pdfrwt>
<pdfrwt beam="2">  1       -1 0.17174308E+00 0.18812500E+04</pdfrwt>
<totfact> 0.50246634E+00</totfact>
</mgrwt>
</event>
<event>
 6    1  0.1878398E-004  0.1470199E+04  0.7818608E-02  0.8904516E-01
         -2   -1    0    0    0  501 -0.00000000000E+00  0.00000000000E+00  0.52528488206E+03  0.52528488206E+03  0.00000000000E+00 0. -1.
          2   -1    0    0  501    0  0.00000000000E+00 -0.00000000000E+00 -0.10287198397E+04  0.10287198397E+04  0.00000000000E+00 0.  1.
         23    2    1    2    0    0 -0.16205801378E+03  0.55696963232E+03 -0.72496693865E+03  0.93307446016E+03  0.92590036730E+02 0.  0.
         13    1    3    3    0    0 -0.11665870053E+03  0.23671915312E+03 -0.31944026314E+03  0.41435165208E+03  0.00000000000E+00 0. -1.
        -13    1    3    3    0    0 -0.45399313251E+02  0.32025047920E+03 -0.40552667551E+03  0.51872280808E+03  0.00000000000E+00 0.  1.
         22    1    1    2    0    0  0.16205801378E+03 -0.55696963232E+03  0.22153198102E+03  0.62093026160E+03  0.00000000000E+00 0. -1.
<mgrwt>
<rscale>  0 0.14701986E+04</rscale>
<asrwt>0</asrwt>
<pdfrwt beam="1">  1        2 0.15826459E+00 0.14701986E+04</pdfrwt>
<pdfrwt beam="2">  1       -2 0.80813059E-01 0.14701986E+04</pdfrwt>
<totfact> 0.31598593E+01</totfact>
</mgrwt>
</event>
<event>
 6    1  0.1878398E-004  0.1573898E+04  0.7818608E-02  0.8836746E-01
         -1   -1    0    0    0  501 -0.00000000000E+00  0.00000000000E+00  0.52197463312E+03  0.52197463312E+03  0.00000000000E+00 0.  1.
          1   -1    0    0  501    0  0.00000000000E+00 -0.00000000000E+00 -0.11864341682E+04  0.11864341682E+04  0.00000000000E+00 0. -1.
         23    2    1    2    0    0  0.46331562262E+03 -0.16899785588E+03 -0.99537923474E+03  0.11144984638E+04  0.90029791920E+02 0.  0.
         11    1    3    3    0    0  0.79210637241E+01 -0.43748461616E+01 -0.65189931208E+02  0.65814965322E+02  0.00000000000E+00 0.  1.
        -11    1    3    3    0    0  0.45539455889E+03 -0.16462300971E+03 -0.93018930353E+03  0.10486834985E+04  0.00000000000E+00 0. -1.
         22    1    1    2    0    0 -0.46331562262E+03  0.16899785588E+03  0.33091969962E+03  0.59391033755E+03  0.00000000000E+00 0.  1.
<mgrwt>
<rscale>  0 0.15738978E+04</rscale>
<asrwt>0</asrwt>
<pdfrwt beam="1">  1        1 0.18252833E+00 0.15738978E+04</pdfrwt>
<pdfrwt beam="2">  1       -1 0.80303791E-01 0.15738978E+04</pdfrwt>
<totfact> 0.16269182E+01</totfact>
</mgrwt>
</event>
<event>
 6    1  0.1878398E-004  0.1226104E+04  0.7818608E-02  0.9090310E-01
         -1   -1    0    0    0  501 -0.00000000000E+00  0.00000000000E+00  0.28189484978E+03  0.28189484978E+03  0.00000000000E+00 0.  1.
          1   -1    0    0  501    0  0.00000000000E+00 -0.00000000000E+00 -0.13332366746E+04  0.13332366746E+04  0.00000000000E+00 0. -1.
         23    2    1    2    0    0  0.47194584754E+03 -0.29047796002E+03 -0.86341049560E+03  0.10299576077E+04  0.90689919304E+02 0.  0.
         13    1    3    3    0    0  0.65157350069E+02 -0.60324599086E+02 -0.90970682312E+02  0.12712278538E+03  0.00000000000E+00 0. -1.
        -13    1    3    3    0    0  0.40678849747E+03 -0.23015336093E+03 -0.77243981329E+03  0.90283482231E+03  0.00000000000E+00 0.  1.
         22    1    1    2    0    0 -0.47194584754E+03  0.29047796002E+03 -0.18793132921E+03  0.58517391668E+03  0.00000000000E+00 0.  1.
<mgrwt>
<rscale>  0 0.12261037E+04</rscale>
<asrwt>0</asrwt>
<pdfrwt beam="1">  1        1 0.20511333E+00 0.12261037E+04</pdfrwt>
<pdfrwt beam="2">  1       -1 0.43368439E-01 0.12261037E+04</pdfrwt>
<totfact> 0.44375684E+01</totfact>
</mgrwt>
</event>
<event>
 6    1  0.1878398E-004  0.1189013E+04  0.7818608E-02  0.9122528E-01
          2   -1    0    0  501    0  0.00000000000E+00  0.00000000000E+00  0.14158169648E+04  0.14158169648E+04  0.00000000000E+00 0.  1.
         -2   -1    0    0    0  501 -0.00000000000E+00 -0.00000000000E+00 -0.24963530885E+03  0.24963530885E+03  0.00000000000E+00 0. -1.
         23    2    1    2    0    0 -0.33201862979E+03  0.40612675842E+03  0.96842118431E+03  0.11048414295E+04  0.87519595691E+02 0.  0.
         11    1    3    3    0    0 -0.21112367550E+03  0.30940242901E+03  0.63537895507E+03  0.73756998717E+03  0.00000000000E+00 0. -1.
        -11    1    3    3    0    0 -0.12089495429E+03  0.96724329416E+02  0.33304222924E+03  0.36727144231E+03  0.00000000000E+00 0.  1.
         22    1    1    2    0    0  0.33201862979E+03 -0.40612675842E+03  0.19776047159E+03  0.56061084414E+03  0.00000000000E+00 0. -1.
<mgrwt>
<rscale>  0 0.11890129E+04</rscale>
<asrwt>0</asrwt>
<pdfrwt beam="1">  1        2 0.21781799E+00 0.11890129E+04</pdfrwt>
<pdfrwt beam="2">  1       -2 0.38405433E-01 0.11890129E+04</pdfrwt>
<totfact> 0.89552827E+01</totfact>
</mgrwt>
</event>
<event>
 6    1  0.1878398E-004  0.9086120E+03  0.7818608E-02  0.9414880E-01
         -2   -1    0    0    0  501 -0.00000000000E+00  0.00000000000E+00  0.10421286939E+03  0.10421286939E+03  0.00000000000E+00 0. -1.
          2   -1    0    0  501    0  0.00000000000E+00 -0.00000000000E+00 -0.19805033075E+04  0.19805033075E+04  0.00000000000E+00 0.  1.
         23    2    1    2    0    0  0.35560059076E+03  0.49095012988E+02 -0.15695084171E+04  0.16125114450E+04  0.89299430673E+02 0.  0.
         13    1    3    3    0    0  0.20066517746E+03  0.28215707026E+02 -0.10731707198E+04  0.10921346224E+04  0.00000000000E+00 0. -1.
        -13    1    3    3    0    0  0.15493541330E+03  0.20879305962E+02 -0.49633769728E+03  0.52037682256E+03  0.00000000000E+00 0.  1.
         22    1    1    2    0    0 -0.35560059076E+03 -0.49095012988E+02 -0.30678202104E+03  0.47220473195E+03  0.00000000000E+00 0. -1.
<mgrwt>
<rscale>  0 0.90861198E+03</rscale>
<asrwt>0</asrwt>
<pdfrwt beam="1">  1        2 0.30469279E+00 0.90861198E+03</pdfrwt>
<pdfrwt beam="2">  1       -2 0.16032750E-01 0.90861198E+03</pdfrwt>
<totfact> 0.21660787E+02</totfact>
</mgrwt>
</event>
<event>
 6    1  0.1878398E-004  0.1213402E+04  0.7818608E-02  0.9101206E-01
         -2   -1    0    0    0  501 -0.00000000000E+00  0.00000000000E+00  0.23399397169E+03  0.23399397169E+03  0.00000000000E+00 0. -1.
          2   -1    0    0  501    0  0.00000000000E+00 -0.00000000000E+00 -0.15730578611E+04  0.15730578611E+04  0.00000000000E+00 0.  1.
         23    2    1    2    0    0  0.17890614973E+03 -0.24057992900E+03 -0.14529657458E+04  0.14863342849E+04  0.90520911410E+02 0.  0.
         11    1    3    3    0    0  0.10402989885E+03 -0.11552702837E+03 -0.54483083828E+03  0.56657687605E+03  0.00000000000E+00 0. -1.
        -11    1    3    3    0    0  0.74876250886E+02 -0.12505290063E+03 -0.90813490752E+03  0.91975740886E+03  0.00000000000E+00 0.  1.
         22    1    1    2    0    0 -0.17890614973E+03  0.24057992900E+03  0.11390185636E+03  0.32071754790E+03  0.00000000000E+00 0. -1.
<mgrwt>
<rscale>  0 0.12134019E+04</rscale>
<asrwt>0</asrwt>
<pdfrwt beam="1">  1        2 0.24200890E+00 0.12134019E+04</pdfrwt>
<pdfrwt beam="2">  1       -2 0.35999073E-01 0.12134019E+04</pdfrwt>
<totfact> 0.82581847E+01</totfact>
</mgrwt>
</event>
<event>
 6    1  0.1878398E-004  0.3784052E+04  0.7818608E-02  0.8049586E-01
          2   -1    0    0  501    0  0.00000000000E+00  0.00000000000E+00  0.12668039612E+04  0.12668039612E+04  0.00000000000E+00 0.  1.
         -2   -1    0    0    0  501 -0.00000000000E+00 -0.00000000000E+00 -0.28258219016E+04  0.28258219016E+04  0.00000000000E+00 0. -1.
         23    2    1    2    0    0  0.59158649335E+03 -0.10333942973E+03  0.11594424230E+04  0.13086214871E+04  0.86774692348E+02 0.  0.
         11    1    3    3    0    0  0.39914967814E+03 -0.10926165478E+03  0.76836624039E+03  0.87272289653E+03  0.00000000000E+00 0. -1.
        -11    1    3    3    0    0  0.19243681521E+03  0.59222250431E+01  0.39107618264E+03  0.43589859053E+03  0.00000000000E+00 0.  1.
         22    1    1    2    0    0 -0.59158649335E+03  0.10333942973E+03 -0.27184603634E+04  0.27840043757E+04  0.00000000000E+00 0. -1.
<mgrwt>
<rscale>  0 0.37840520E+04</rscale>
<asrwt>0</asrwt>
<pdfrwt beam="1">  1        2 0.19489292E+00 0.37840520E+04</pdfrwt>
<pdfrwt beam="2">  1       -2 0.43474183E+00 0.37840520E+04</pdfrwt>
<totfact> 0.60756200E-02</totfact>
</mgrwt>
</event>
<event>
 6    1  0.1878398E-004  0.2022239E+04  0.7818608E-02  0.8596293E-01
         -2   -1    0    0    0  501 -0.00000000000E+00  0.00000000000E+00  0.13483555362E+04  0.13483555362E+04  0.00000000000E+00 0. -1.
          2   -1    0    0  501    0  0.00000000000E+00 -0.00000000000E+00 -0.75822920129E+03  0.75822920129E+03  0.00000000000E+00 0.  1.
         23    2    1    2    0    0  0.54056776833E+03  0.77822780488E+03 -0.65953497411E+02  0.95406889167E+03  0.89697033328E+02 0.  0.
         11    1    3    3    0    0  0.23901103120E+02  0.30630184426E+02  0.15138252162E+02  0.41696973593E+02  0.00000000000E+00 0. -1.
        -11    1    3    3    0    0  0.51666666521E+03  0.74759762045E+03 -0.81091749574E+02  0.91237191808E+03  0.00000000000E+00 0.  1.
         22    1    1    2    0    0 -0.54056776833E+03 -0.77822780488E+03  0.65607983230E+03  0.11525158458E+04  0.00000000000E+00 0.  1.
<mgrwt>
<rscale>  0 0.20222389E+04</rscale>
<asrwt>0</asrwt>
<pdfrwt beam="1">  1        2 0.11665065E+00 0.20222389E+04</pdfrwt>
<pdfrwt beam="2">  1       -2 0.20743931E+00 0.20222389E+04</pdfrwt>
<totfact> 0.40761031E+00</totfact>
</mgrwt>
</event>
<event>
 6    1  0.1878398E-004  0.1695664E+04  0.7818608E-02  0.8763841E-01
         -2   -1    0    0    0  501 -0.00000000000E+00  0.00000000000E+00  0.73016645511E+03  0.73016645511E+03  0.00000000000E+00 0. -1.
          2   -1    0    0  501    0  0.00000000000E+00 -0.00000000000E+00 -0.98445888464E+03  0.98445888464E+03  0.00000000000E+00 0.  1.
         23    2    1    2    0    0 -0.59131488117E+03  0.44803789025E+03 -0.53709871253E+03  0.92066650361E+03  0.93597778183E+02 0.  0.
         11    1    3    3    0    0 -0.76375849205E+02  0.85081155342E+02 -0.11610498381E+03  0.16294919638E+03  0.00000000000E+00 0. -1.
        -11    1    3    3    0    0 -0.51493903197E+03  0.36295673490E+03 -0.42099372872E+03  0.75771730723E+03  0.00000000000E+00 0.  1.
         22    1    1    2    0    0  0.59131488117E+03 -0.44803789025E+03  0.28280628300E+03  0.79395883614E+03  0.00000000000E+00 0. -1.
<mgrwt>
<rscale>  0 0.16956637E+04</rscale>
<asrwt>0</asrwt>
<pdfrwt beam="1">  1        2 0.15145521E+00 0.16956637E+04</pdfrwt>
<pdfrwt beam="2">  1       -2 0.11233330E+00 0.16956637E+04</pdfrwt>
<totfact> 0.15321729E+01</totfact>
</mgrwt>
</event>
<event>
 6    1  0.1878398E-004  0.6015606E+03  0.7818608E-02  0.9902174E-01
          1   -1    0    0  501    0  0.00000000000E+00  0.00000000000E+00  0.16600274728E+03  0.16600274728E+03  0.00000000000E+00 0.  1.
         -1   -1    0    0    0  501 -0.00000000000E+00 -0.00000000000E+00 -0.54498363912E+03  0.54498363912E+03  0.00000000000E+00 0. -1.
         23    2    1    2    0    0 -0.80904825745E+02 -0.58823757628E+01 -0.52747156218E+03  0.54178333576E+03  0.93395614595E+02 0.  0.
         13    1    3    3    0    0  0.94305519820E+01  0.23677576771E+02 -0.16961460166E+03  0.17151873381E+03  0.00000000000E+00 0.  1.
        -13    1    3    3    0    0 -0.90335377727E+02 -0.29559952534E+02 -0.35785696052E+03  0.37026460195E+03  0.00000000000E+00 0. -1.
         22    1    1    2    0    0  0.80904825745E+02  0.58823757628E+01  0.14849067033E+03  0.16920305065E+03  0.00000000000E+00 0.  1.
<mgrwt>
<rscale>  0 0.60156057E+03</rscale>
<asrwt>0</asrwt>
<pdfrwt beam="1">  1        1 0.25538885E-01 0.60156057E+03</pdfrwt>
<pdfrwt beam="2">  1       -1 0.83843636E-01 0.60156057E+03</pdfrwt>
<totfact> 0.27207723E+02</totfact>
</mgrwt>
</event>
<event>
 6    1  0.1878398E-004  0.5106651E+04  0.7818608E-02  0.7812263E-01
          2   -1    0    0  501    0  0.00000000000E+00  0.00000000000E+00  0.30696179317E+04  0.30696179317E+04  0.00000000000E+00 0.  1.
         -2   -1    0    0    0  501 -0.00000000000E+00 -0.00000000000E+00 -0.21238702071E+04  0.21238702071E+04  0.00000000000E+00 0. -1.
         23    2    1    2    0    0  0.20897957211E+04  0.14422667013E+04  0.73777941130E+03  0.26458166111E+04  0.92992934743E+02 0.  0.
         11    1    3    3    0    0  0.48302084244E+03  0.28792937920E+03  0.15332844754E+03  0.58285682159E+03  0.00000000000E+00 0. -1.
        -11    1    3    3    0    0  0.16067748787E+04  0.11543373221E+04  0.58445096376E+03  0.20629597895E+04  0.00000000000E+00 0.  1.
         22    1    1    2    0    0 -0.20897957211E+04 -0.14422667013E+04  0.20796831324E+03  0.25476715277E+04  0.00000000000E+00 0.  1.
<mgrwt>
<rscale>  0 0.51066506E+04</rscale>
<asrwt>0</asrwt>
<pdfrwt beam="1">  1        2 0.47224891E+00 0.51066506E+04</pdfrwt>
<pdfrwt beam="2">  1       -2 0.32674926E+00 0.51066506E+04</pdfrwt>
<totfact> 0.24687371E-02</totfact>
</mgrwt>
</event>
<event>
 6    1  0.2979092E-004  0.2268216E+04  0.7818608E-02  0.8490559E-01
         -1   -1    0    0    0  501 -0.00000000000E+00  0.00000000000E+00  0.53890701173E+03  0.53890701173E+03  0.00000000000E+00 0. -1.
          1   -1    0    0  501    0  0.00000000000E+00 -0.00000000000E+00 -0.23866851045E+04  0.23866851045E+04  0.00000000000E+00 0.  1.
         23    2    1    2    0    0  0.76263607780E+03 -0.64975791379E+03 -0.16054453054E+04  0.18948039161E+04  0.95016409156E+02 0.  0.
         13    1    3    3    0    0  0.38218911265E+03 -0.29141637494E+03 -0.69458665623E+03  0.84465534061E+03  0.00000000000E+00 0.  1.
        -13    1    3    3    0    0  0.38044696515E+03 -0.35834153885E+03 -0.91085864919E+03  0.10501485755E+04  0.00000000000E+00 0. -1.
         22    1    1    2    0    0 -0.76263607780E+03  0.64975791379E+03 -0.24233278731E+03  0.10307882001E+04  0.00000000000E+00 0.  1.
<mgrwt>
<rscale>  0 0.22682163E+04</rscale>
<asrwt>0</asrwt>
<pdfrwt beam="1">  1        1 0.36718232E+00 0.22682163E+04</pdfrwt>
<pdfrwt beam="2">  1       -1 0.82908773E-01 0.22682163E+04</pdfrwt>
<totfact> 0.21247056E+00</totfact>
</mgrwt>
</event>
<event>
 6    1  0.1878398E-004  0.8347506E+03  0.7818608E-02  0.9511036E-01
          2   -1    0    0  501    0  0.00000000000E+00  0.00000000000E+00  0.10851278602E+04  0.10851278602E+04  0.00000000000E+00 0.  1.
         -2   -1    0    0    0  501 -0.00000000000E+00 -0.00000000000E+00 -0.16053603642E+03  0.16053603642E+03  0.00000000000E+00 0. -1.
         23    2    1    2    0    0  0.29944224709E+03  0.27686207185E+03  0.37730481734E+03  0.56313819484E+03  0.91909929403E+02 0.  0.
         13    1    3    3    0    0  0.22940382514E+03  0.19603983513E+03  0.22221720085E+03  0.37475087231E+03  0.00000000000E+00 0. -1.
        -13    1    3    3    0    0  0.70038421952E+02  0.80822236721E+02  0.15508761650E+03  0.18838732253E+03  0.00000000000E+00 0.  1.
         22    1    1    2    0    0 -0.29944224709E+03 -0.27686207185E+03  0.54728700646E+03  0.68252570179E+03  0.00000000000E+00 0.  1.
<mgrwt>
<rscale>  0 0.83475056E+03</rscale>
<asrwt>0</asrwt>
<pdfrwt beam="1">  1        2 0.16694274E+00 0.83475056E+03</pdfrwt>
<pdfrwt beam="2">  1       -2 0.24697852E-01 0.83475056E+03</pdfrwt>
<totfact> 0.32735331E+02</totfact>
</mgrwt>
</event>
<event>
 6    1  0.1878398E-004  0.5349448E+04  0.7818608E-02  0.7776752E-01
          2   -1    0    0  501    0  0.00000000000E+00  0.00000000000E+00  0.22844088422E+04  0.22844088422E+04  0.00000000000E+00 0.  1.
         -2   -1    0    0    0  501 -0.00000000000E+00 -0.00000000000E+00 -0.31317288807E+04  0.31317288807E+04  0.00000000000E+00 0. -1.
         23    2    1    2    0    0  0.20806822951E+04 -0.16791344806E+04 -0.38662544163E+03  0.27030267910E+04  0.90239589676E+02 0.  0.
         13    1    3    3    0    0  0.48310025796E+03 -0.42758289878E+03 -0.67968405371E+02  0.64871619272E+03  0.00000000000E+00 0. -1.
        -13    1    3    3    0    0  0.15975820372E+04 -0.12515515818E+04 -0.31865703626E+03  0.20543105983E+04  0.00000000000E+00 0.  1.
         22    1    1    2    0    0 -0.20806822951E+04  0.16791344806E+04 -0.46069459684E+03  0.27131109319E+04  0.00000000000E+00 0.  1.
<mgrwt>
<rscale>  0 0.53494483E+04</rscale>
<asrwt>0</asrwt>
<pdfrwt beam="1">  1        2 0.35144752E+00 0.53494483E+04</pdfrwt>
<pdfrwt beam="2">  1       -2 0.48180444E+00 0.53494483E+04</pdfrwt>
<totfact> 0.70912542E-03</totfact>
</mgrwt>
</event>
<event>
 6    1  0.1878398E-004  0.1826747E+04  0.7818608E-02  0.8692204E-01
          1   -1    0    0  501    0  0.00000000000E+00  0.00000000000E+00  0.68732365762E+03  0.68732365762E+03  0.00000000000E+00 0.  1.
         -1   -1    0    0    0  501 -0.00000000000E+00 -0.00000000000E+00 -0.12137675437E+04  0.12137675437E+04  0.00000000000E+00 0. -1.
         23    2    1    2    0    0 -0.57506901137E+02 -0.50069611160E+03  0.52592640165E+03  0.73426350952E+03  0.92415808187E+02 0.  0.
         13    1    3    3    0    0 -0.50401322609E+01 -0.12445275981E+03  0.18982006046E+03  0.22703644578E+03  0.00000000000E+00 0. -1.
        -13    1    3    3    0    0 -0.52466768876E+02 -0.37624335179E+03  0.33610634119E+03  0.50722706374E+03  0.00000000000E+00 0.  1.
         22    1    1    2    0    0  0.57506901137E+02  0.50069611160E+03 -0.10523702877E+04  0.11668276918E+04  0.00000000000E+00 0. -1.
<mgrwt>
<rscale>  0 0.18267470E+04</rscale>
<asrwt>0</asrwt>
<pdfrwt beam="1">  1        1 0.10574210E+00 0.18267470E+04</pdfrwt>
<pdfrwt beam="2">  1       -1 0.18673347E+00 0.18267470E+04</pdfrwt>
<totfact> 0.49129052E+00</totfact>
</mgrwt>
</event>
<event>
 6    1  0.1878398E-004  0.2057716E+04  0.7818608E-02  0.8580102E-01
          2   -1    0    0  501    0  0.00000000000E+00  0.00000000000E+00  0.12741652590E+04  0.12741652590E+04  0.00000000000E+00 0.  1.
         -2   -1    0    0    0  501 -0.00000000000E+00 -0.00000000000E+00 -0.83077799162E+03  0.83077799162E+03  0.00000000000E+00 0. -1.
         23    2    1    2    0    0 -0.67282838958E+03 -0.29736275132E+03 -0.51072464080E+03  0.90018095829E+03  0.91451906788E+02 0.  0.
         11    1    3    3    0    0 -0.24744249112E+03 -0.12195929277E+03 -0.14040602046E+03  0.30954112180E+03  0.00000000000E+00 0. -1.
        -11    1    3    3    0    0 -0.42538589847E+03 -0.17540345855E+03 -0.37031862034E+03  0.59063983650E+03  0.00000000000E+00 0.  1.
         22    1    1    2    0    0  0.67282838958E+03  0.29736275132E+03  0.95411190823E+03  0.12047622924E+04  0.00000000000E+00 0.  1.
<mgrwt>
<rscale>  0 0.20577157E+04</rscale>
<asrwt>0</asrwt>
<pdfrwt beam="1">  1        2 0.19602542E+00 0.20577157E+04</pdfrwt>
<pdfrwt beam="2">  1       -2 0.12781200E+00 0.20577157E+04</pdfrwt>
<totfact> 0.71773390E+00</totfact>
</mgrwt>
</event>
<event>
 6    1  0.1878398E-004  0.1650798E+04  0.7818608E-02  0.8789935E-01
         -2   -1    0    0    0  501 -0.00000000000E+00  0.00000000000E+00  0.22127346222E+03  0.22127346222E+03  0.00000000000E+00 0. -1.
          2   -1    0    0  501    0  0.00000000000E+00 -0.00000000000E+00 -0.30789200157E+04  0.30789200157E+04  0.00000000000E+00 0.  1.
         23    2    1    2    0    0 -0.28924403739E+03  0.30360542286E+03 -0.28486322254E+04  0.28807657439E+04  0.90924967825E+02 0.  0.
         11    1    3    3    0    0 -0.17303702805E+02  0.61564205840E+02 -0.35790131209E+03  0.36356968901E+03  0.00000000000E+00 0. -1.
        -11    1    3    3    0    0 -0.27194033459E+03  0.24204121702E+03 -0.24907309133E+04  0.25171960549E+04  0.00000000000E+00 0.  1.
         22    1    1    2    0    0  0.28924403739E+03 -0.30360542286E+03 -0.90143280922E+01  0.41942773402E+03  0.00000000000E+00 0. -1.
<mgrwt>
<rscale>  0 0.16507977E+04</rscale>
<asrwt>0</asrwt>
<pdfrwt beam="1">  1        2 0.47367998E+00 0.16507977E+04</pdfrwt>
<pdfrwt beam="2">  1       -2 0.34042073E-01 0.16507977E+04</pdfrwt>
<totfact> 0.12050517E+01</totfact>
</mgrwt>
</event>
<event>
 6    1  0.1878398E-004  0.1946103E+04  0.7818608E-02  0.8632242E-01
         -2   -1    0    0    0  501 -0.00000000000E+00  0.00000000000E+00  0.38092860096E+03  0.38092860096E+03  0.00000000000E+00 0. -1.
          2   -1    0    0  501    0  0.00000000000E+00 -0.00000000000E+00 -0.24855828912E+04  0.24855828912E+04  0.00000000000E+00 0.  1.
         23    2    1    2    0    0  0.37853525202E+03  0.17310262914E+03  0.23734043951E+03  0.48781588923E+03  0.91544526404E+02 0.  0.
         13    1    3    3    0    0  0.18753707051E+03  0.13376444044E+03  0.14359946456E+03  0.27144775660E+03  0.00000000000E+00 0. -1.
        -13    1    3    3    0    0  0.19099818151E+03  0.39338188704E+02  0.93740974956E+02  0.21636813263E+03  0.00000000000E+00 0.  1.
         22    1    1    2    0    0 -0.37853525202E+03 -0.17310262914E+03 -0.23419947298E+04  0.23786956030E+04  0.00000000000E+00 0.  1.
<mgrwt>
<rscale>  0 0.19461034E+04</rscale>
<asrwt>0</asrwt>
<pdfrwt beam="1">  1        2 0.38239737E+00 0.19461034E+04</pdfrwt>
<pdfrwt beam="2">  1       -2 0.58604399E-01 0.19461034E+04</pdfrwt>
<totfact> 0.90192519E+00</totfact>
</mgrwt>
</event>
<event>
 6    1  0.1878398E-004  0.2421720E+04  0.7818608E-02  0.8431416E-01
          2   -1    0    0  501    0  0.00000000000E+00  0.00000000000E+00  0.11175718845E+04  0.11175718845E+04  0.00000000000E+00 0.  1.
         -2   -1    0    0    0  501 -0.00000000000E+00 -0.00000000000E+00 -0.13119356869E+04  0.13119356869E+04  0.00000000000E+00 0. -1.
         23    2    1    2    0    0  0.23440944556E+03  0.57996728173E+03 -0.11354229582E+04  0.12995066109E+04  0.90676908659E+02 0.  0.
         11    1    3    3    0    0  0.90767852784E+02  0.21086802302E+03 -0.33040523083E+03  0.40233287560E+03  0.00000000000E+00 0. -1.
        -11    1    3    3    0    0  0.14364159278E+03  0.36909925871E+03 -0.80501772738E+03  0.89717373532E+03  0.00000000000E+00 0.  1.
         22    1    1    2    0    0 -0.23440944556E+03 -0.57996728173E+03  0.94105915581E+03  0.11300009605E+04  0.00000000000E+00 0.  1.
<mgrwt>
<rscale>  0 0.24217204E+04</rscale>
<asrwt>0</asrwt>
<pdfrwt beam="1">  1        2 0.17193414E+00 0.24217204E+04</pdfrwt>
<pdfrwt beam="2">  1       -2 0.20183626E+00 0.24217204E+04</pdfrwt>
<totfact> 0.24672726E+00</totfact>
</mgrwt>
</event>
<event>
 6    1  0.1878398E-004  0.2306071E+04  0.7818608E-02  0.8475531E-01
         -1   -1    0    0    0  501 -0.00000000000E+00  0.00000000000E+00  0.65035531819E+03  0.65035531819E+03  0.00000000000E+00 0. -1.
          1   -1    0    0  501    0  0.00000000000E+00 -0.00000000000E+00 -0.20442537991E+04  0.20442537991E+04  0.00000000000E+00 0.  1.
         23    2    1    2    0    0  0.10022854466E+04 -0.32191603738E+03 -0.15391987271E+03  0.10680320363E+04  0.93781937289E+02 0.  0.
         11    1    3    3    0    0  0.80312956065E+03 -0.21816247631E+03 -0.11556386458E+03  0.84021840260E+03  0.00000000000E+00 0. -1.
        -11    1    3    3    0    0  0.19915588594E+03 -0.10375356107E+03 -0.38356008129E+02  0.22781363370E+03  0.00000000000E+00 0.  1.
         22    1    1    2    0    0 -0.10022854466E+04  0.32191603738E+03 -0.12399786082E+04  0.16265770809E+04  0.00000000000E+00 0.  1.
<mgrwt>
<rscale>  0 0.23060714E+04</rscale>
<asrwt>0</asrwt>
<pdfrwt beam="1">  1        1 0.31450058E+00 0.23060714E+04</pdfrwt>
<pdfrwt beam="2">  1       -1 0.10005467E+00 0.23060714E+04</pdfrwt>
<totfact> 0.23909672E+00</totfact>
</mgrwt>
</event>
<event>
 6    1  0.1878398E-004  0.1219188E+04  0.7818608E-02  0.9096225E-01
          1   -1    0    0  501    0  0.00000000000E+00  0.00000000000E+00  0.23445799790E+04  0.23445799790E+04  0.00000000000E+00 0. -1.
         -1   -1    0    0    0  501 -0.00000000000E+00 -0.00000000000E+00 -0.15849525780E+03  0.15849525780E+03  0.00000000000E+00 0.  1.
         23    2    1    2    0    0  0.54120805804E+03 -0.24585738613E+03  0.13449701050E+04  0.14731112501E+04  0.88091743829E+02 0.  0.
         13    1    3    3    0    0  0.24307547477E+03 -0.12720838107E+03  0.51999341952E+03  0.58792926020E+03  0.00000000000E+00 0.  1.
        -13    1    3    3    0    0  0.29813258327E+03 -0.11864900506E+03  0.82497668552E+03  0.88518198991E+03  0.00000000000E+00 0. -1.
         22    1    1    2    0    0 -0.54120805804E+03  0.24585738613E+03  0.84111461616E+03  0.10299639867E+04  0.00000000000E+00 0. -1.
<mgrwt>
<rscale>  0 0.12191879E+04</rscale>
<asrwt>0</asrwt>
<pdfrwt beam="1">  1        1 0.36070459E+00 0.12191879E+04</pdfrwt>
<pdfrwt beam="2">  1       -1 0.24383888E-01 0.12191879E+04</pdfrwt>
<totfact> 0.25174873E+01</totfact>
</mgrwt>
</event>
<event>
 6    1  0.1878398E-004  0.8992942E+03  0.7818608E-02  0.9426464E-01
          2   -1    0    0  501    0  0.00000000000E+00  0.00000000000E+00  0.11483688269E+04  0.11483688269E+04  0.00000000000E+00 0.  1.
         -2   -1    0    0    0  501 -0.00000000000E+00 -0.00000000000E+00 -0.17606059763E+03  0.17606059763E+03  0.00000000000E+00 0. -1.
         23    2    1    2    0    0 -0.16465370047E+03 -0.34921006082E+03  0.16505251758E+03  0.42959966881E+03  0.90857218891E+02 0.  0.
         11    1    3    3    0    0 -0.10332727101E+03 -0.25782712202E+03  0.15745129597E+03  0.31928398079E+03  0.00000000000E+00 0. -1.
        -11    1    3    3    0    0 -0.61326429460E+02 -0.91382938798E+02  0.76012216101E+01  0.11031568802E+03  0.00000000000E+00 0.  1.
         22    1    1    2    0    0  0.16465370047E+03  0.34921006082E+03  0.80725571165E+03  0.89482975568E+03  0.00000000000E+00 0.  1.
<mgrwt>
<rscale>  0 0.89929417E+03</rscale>
<asrwt>0</asrwt>
<pdfrwt beam="1">  1        2 0.17667212E+00 0.89929417E+03</pdfrwt>
<pdfrwt beam="2">  1       -2 0.27086247E-01 0.89929417E+03</pdfrwt>
<totfact> 0.25243213E+02</totfact>
</mgrwt>
</event>
<event>
 6    1  0.1878398E-004  0.1112725E+04  0.7818608E-02  0.9192877E-01
         -1   -1    0    0    0  501 -0.00000000000E+00  0.00000000000E+00  0.54873710827E+03  0.54873710827E+03  0.00000000000E+00 0. -1.
          1   -1    0    0  501    0  0.00000000000E+00 -0.00000000000E+00 -0.56409397611E+03  0.56409397611E+03  0.00000000000E+00 0.  1.
         23    2    1    2    0    0 -0.14476970705E+03 -0.52798001888E+03 -0.83421413581E+02  0.56114824905E+03  0.90592807417E+02 0.  0.
         13    1    3    3    0    0 -0.14563271190E+03 -0.51124729042E+03 -0.96016944890E+02  0.54018694213E+03  0.00000000000E+00 0.  1.
        -13    1    3    3    0    0  0.86300485225E+00 -0.16732728456E+02  0.12595531309E+02  0.20961306923E+02  0.00000000000E+00 0. -1.
         22    1    1    2    0    0  0.14476970705E+03  0.52798001888E+03  0.68064545735E+02  0.55168283533E+03  0.00000000000E+00 0. -1.
<mgrwt>
<rscale>  0 0.11127251E+04</rscale>
<asrwt>0</asrwt>
<pdfrwt beam="1">  1        1 0.86783689E-01 0.11127251E+04</pdfrwt>
<pdfrwt beam="2">  1       -1 0.84421094E-01 0.11127251E+04</pdfrwt>
<totfact> 0.51803602E+01</totfact>
</mgrwt>
</event>
<event>
 6    1  0.1878398E-004  0.2150336E+04  0.7818608E-02  0.8539389E-01
         -2   -1    0    0    0  501 -0.00000000000E+00  0.00000000000E+00  0.75893420030E+03  0.75893420030E+03  0.00000000000E+00 0. -1.
          2   -1    0    0  501    0  0.00000000000E+00 -0.00000000000E+00 -0.15231701256E+04  0.15231701256E+04  0.00000000000E+00 0.  1.
         23    2    1    2    0    0  0.40054266221E+03 -0.98932494101E+03 -0.50216095028E+03  0.11830676770E+04  0.91023321869E+02 0.  0.
         13    1    3    3    0    0  0.20800313301E+03 -0.55991549688E+03 -0.32678632488E+03  0.68085238423E+03  0.00000000000E+00 0. -1.
        -13    1    3    3    0    0  0.19253952920E+03 -0.42940944413E+03 -0.17537462540E+03  0.50221529272E+03  0.00000000000E+00 0.  1.
         22    1    1    2    0    0 -0.40054266221E+03  0.98932494101E+03 -0.26207497500E+03  0.10990366489E+04  0.00000000000E+00 0.  1.
<mgrwt>
<rscale>  0 0.21503357E+04</rscale>
<asrwt>0</asrwt>
<pdfrwt beam="1">  1        2 0.23433386E+00 0.21503357E+04</pdfrwt>
<pdfrwt beam="2">  1       -2 0.11675911E+00 0.21503357E+04</pdfrwt>
<totfact> 0.64234719E+00</totfact>
</mgrwt>
</event>
<event>
 6    1  0.1878398E-004  0.2618549E+04  0.7818608E-02  0.8361928E-01
          2   -1    0    0  501    0  0.00000000000E+00  0.00000000000E+00  0.10211341601E+04  0.10211341601E+04  0.00000000000E+00 0.  1.
         -2   -1    0    0    0  501 -0.00000000000E+00 -0.00000000000E+00 -0.16787218339E+04  0.16787218339E+04  0.00000000000E+00 0. -1.
         23    2    1    2    0    0  0.88345417889E+03 -0.12964320260E+03 -0.13142278297E+04  0.15914901065E+04  0.91363694083E+02 0.  0.
         13    1    3    3    0    0  0.23714886049E+03 -0.61718805553E+02 -0.41631196879E+03  0.48307809756E+03  0.00000000000E+00 0.  1.
        -13    1    3    3    0    0  0.64630531840E+03 -0.67924397052E+02 -0.89791586092E+03  0.11084120090E+04  0.00000000000E+00 0. -1.
         22    1    1    2    0    0 -0.88345417889E+03  0.12964320260E+03  0.65664015588E+03  0.11083658875E+04  0.00000000000E+00 0.  1.
<mgrwt>
<rscale>  0 0.26185494E+04</rscale>
<asrwt>0</asrwt>
<pdfrwt beam="1">  1        2 0.15709756E+00 0.26185494E+04</pdfrwt>
<pdfrwt beam="2">  1       -2 0.25826490E+00 0.26185494E+04</pdfrwt>
<totfact> 0.12328189E+00</totfact>
</mgrwt>
</event>
<event>
 6    1  0.1878398E-004  0.2571535E+04  0.7818608E-02  0.8377935E-01
         -2   -1    0    0    0  501 -0.00000000000E+00  0.00000000000E+00  0.25729757170E+04  0.25729757170E+04  0.00000000000E+00 0. -1.
          2   -1    0    0  501    0  0.00000000000E+00 -0.00000000000E+00 -0.64252383159E+03  0.64252383159E+03  0.00000000000E+00 0.  1.
         23    2    1    2    0    0  0.12600856875E+04  0.13171609394E+03  0.12274485215E+04  0.17665762245E+04  0.94850486981E+02 0.  0.
         13    1    3    3    0    0  0.25706482156E+03  0.64938185748E+02  0.26591066770E+03  0.37551001804E+03  0.00000000000E+00 0. -1.
        -13    1    3    3    0    0  0.10030208660E+04  0.66777908195E+02  0.96153785375E+03  0.13910662065E+04  0.00000000000E+00 0.  1.
         22    1    1    2    0    0 -0.12600856875E+04 -0.13171609394E+03  0.70300336393E+03  0.14489233241E+04  0.00000000000E+00 0. -1.
<mgrwt>
<rscale>  0 0.25715351E+04</rscale>
<asrwt>0</asrwt>
<pdfrwt beam="1">  1        2 0.98849822E-01 0.25715351E+04</pdfrwt>
<pdfrwt beam="2">  1       -2 0.39584241E+00 0.25715351E+04</pdfrwt>
<totfact> 0.31958602E-01</totfact>
</mgrwt>
</event>
<event>
 6    1  0.2600235E-004  0.3019436E+04  0.7818608E-02  0.8238202E-01
         -2   -1    0    0    0  501 -0.00000000000E+00  0.00000000000E+00  0.12981922061E+04  0.12981922061E+04  0.00000000000E+00 0. -1.
          2   -1    0    0  501    0  0.00000000000E+00 -0.00000000000E+00 -0.17557100772E+04  0.17557100772E+04  0.00000000000E+00 0.  1.
         23    2    1    2    0    0 -0.64581423713E+03 -0.24769579015E+03  0.11267819161E+04  0.13251932133E+04  0.89835031167E+02 0.  0.
         11    1    3    3    0    0 -0.42868800636E+03 -0.16622138922E+03  0.82651779861E+03  0.94579840793E+03  0.00000000000E+00 0.  1.
        -11    1    3    3    0    0 -0.21712623077E+03 -0.81474400927E+02  0.30026411745E+03  0.37939480535E+03  0.00000000000E+00 0. -1.
         22    1    1    2    0    0  0.64581423713E+03  0.24769579015E+03 -0.15842997872E+04  0.17287090701E+04  0.00000000000E+00 0.  1.
<mgrwt>
<rscale>  0 0.30194365E+04</rscale>
<asrwt>0</asrwt>
<pdfrwt beam="1">  1        2 0.27010924E+00 0.30194365E+04</pdfrwt>
<pdfrwt beam="2">  1       -2 0.19972188E+00 0.30194365E+04</pdfrwt>
<totfact> 0.10424806E+00</totfact>
</mgrwt>
</event>
<event>
 6    1  0.1878398E-004  0.1487542E+04  0.7818608E-02  0.8892780E-01
          2   -1    0    0  501    0  0.00000000000E+00  0.00000000000E+00  0.32100736356E+04  0.32100736356E+04  0.00000000000E+00 0.  1.
         -2   -1    0    0    0  501 -0.00000000000E+00 -0.00000000000E+00 -0.17233106588E+03  0.17233106588E+03  0.00000000000E+00 0. -1.
         23    2    1    2    0    0  0.35972975121E+03 -0.14579361972E+03  0.29598534325E+04  0.29865158393E+04  0.88787630287E+02 0.  0.
         13    1    3    3    0    0  0.24230440747E+03 -0.63719826774E+02  0.20867203969E+04  0.21017073195E+04  0.00000000000E+00 0.  1.
        -13    1    3    3    0    0  0.11742534374E+03 -0.82073792946E+02  0.87313303563E+03  0.88480851982E+03  0.00000000000E+00 0. -1.
         22    1    1    2    0    0 -0.35972975121E+03  0.14579361972E+03  0.77889137206E+02  0.39588886212E+03  0.00000000000E+00 0. -1.
<mgrwt>
<rscale>  0 0.14875421E+04</rscale>
<asrwt>0</asrwt>
<pdfrwt beam="1">  1        2 0.49385744E+00 0.14875421E+04</pdfrwt>
<pdfrwt beam="2">  1       -2 0.26512474E-01 0.14875421E+04</pdfrwt>
<totfact> 0.16083424E+01</totfact>
</mgrwt>
</event>
<event>
 6    1  0.1878398E-004  0.1875440E+04  0.7818608E-02  0.8667179E-01
         -2   -1    0    0    0  501 -0.00000000000E+00  0.00000000000E+00  0.39278924948E+03  0.39278924948E+03  0.00000000000E+00 0. -1.
          2   -1    0    0  501    0  0.00000000000E+00 -0.00000000000E+00 -0.22386521005E+04  0.22386521005E+04  0.00000000000E+00 0.  1.
         23    2    1    2    0    0  0.51095287939E+03 -0.73070008053E+03 -0.13219215680E+04  0.15972702226E+04  0.93808738398E+02 0.  0.
         13    1    3    3    0    0  0.33784135913E+03 -0.50821494853E+03 -0.97526918445E+03  0.11504647756E+04  0.00000000000E+00 0. -1.
        -13    1    3    3    0    0  0.17311152026E+03 -0.22248513201E+03 -0.34665238355E+03  0.44680544696E+03  0.00000000000E+00 0.  1.
         22    1    1    2    0    0 -0.51095287939E+03  0.73070008053E+03 -0.52394128300E+03  0.10341711274E+04  0.00000000000E+00 0. -1.
<mgrwt>
<rscale>  0 0.18754397E+04</rscale>
<asrwt>0</asrwt>
<pdfrwt beam="1">  1        2 0.34440801E+00 0.18754397E+04</pdfrwt>
<pdfrwt beam="2">  1       -2 0.60429116E-01 0.18754397E+04</pdfrwt>
<totfact> 0.11759852E+01</totfact>
</mgrwt>
</event>
<event>
 6    1  0.1878398E-004  0.4909053E+04  0.7818608E-02  0.7842692E-01
         -2   -1    0    0    0  501 -0.00000000000E+00  0.00000000000E+00  0.31754094207E+04  0.31754094207E+04  0.00000000000E+00 0. -1.
          2   -1    0    0  501    0  0.00000000000E+00 -0.00000000000E+00 -0.18972986932E+04  0.18972986932E+04  0.00000000000E+00 0.  1.
         23    2    1    2    0    0 -0.13583989568E+04 -0.19670433959E+04  0.67658423228E+02  0.23932114768E+04  0.91520833365E+02 0.  0.
         11    1    3    3    0    0 -0.11450987497E+04 -0.16957728410E+04  0.81925421719E+02  0.20478301809E+04  0.00000000000E+00 0.  1.
        -11    1    3    3    0    0 -0.21330020712E+03 -0.27127055490E+03 -0.14266998491E+02  0.34538129590E+03  0.00000000000E+00 0. -1.
         22    1    1    2    0    0  0.13583989568E+04  0.19670433959E+04  0.12104523042E+04  0.26794966371E+04  0.00000000000E+00 0. -1.
<mgrwt>
<rscale>  0 0.49090529E+04</rscale>
<asrwt>0</asrwt>
<pdfrwt beam="1">  1        2 0.29189211E+00 0.49090529E+04</pdfrwt>
<pdfrwt beam="2">  1       -2 0.48852453E+00 0.49090529E+04</pdfrwt>
<totfact> 0.10939320E-02</totfact>
</mgrwt>
</event>
<event>
 6    1  0.1878398E-004  0.1640439E+04  0.7818608E-02  0.8796083E-01
          2   -1    0    0  501    0  0.00000000000E+00  0.00000000000E+00  0.16085999136E+04  0.16085999136E+04  0.00000000000E+00 0.  1.
         -2   -1    0    0    0  501 -0.00000000000E+00 -0.00000000000E+00 -0.41822690696E+03  0.41822690696E+03  0.00000000000E+00 0. -1.
         23    2    1    2    0    0  0.82007830816E+02  0.59165567477E+03 -0.92832528639E+02  0.61141233441E+03  0.91790209122E+02 0.  0.
         13    1    3    3    0    0  0.74547944775E+02  0.28084597637E+03 -0.15209287347E+02  0.29096938144E+03  0.00000000000E+00 0. -1.
        -13    1    3    3    0    0  0.74598860416E+01  0.31080969840E+03 -0.77623241292E+02  0.32044295297E+03  0.00000000000E+00 0.  1.
         22    1    1    2    0    0 -0.82007830816E+02 -0.59165567477E+03  0.12832055352E+04  0.14154144861E+04  0.00000000000E+00 0.  1.
<mgrwt>
<rscale>  0 0.16404387E+04</rscale>
<asrwt>0</asrwt>
<pdfrwt beam="1">  1        2 0.24747691E+00 0.16404387E+04</pdfrwt>
<pdfrwt beam="2">  1       -2 0.64342602E-01 0.16404387E+04</pdfrwt>
<totfact> 0.23523495E+01</totfact>
</mgrwt>
</event>
<event>
 6    1  0.1878398E-004  0.1734786E+04  0.7818608E-02  0.8741770E-01
          2   -1    0    0  501    0  0.00000000000E+00  0.00000000000E+00  0.37050755327E+04  0.37050755327E+04  0.00000000000E+00 0.  1.
         -2   -1    0    0    0  501 -0.00000000000E+00 -0.00000000000E+00 -0.20306479066E+03  0.20306479066E+03  0.00000000000E+00 0. -1.
         23    2    1    2    0    0  0.17878173418E+02 -0.54302861844E+03  0.23968755325E+03  0.60088280426E+03  0.91707751780E+02 0.  0.
         13    1    3    3    0    0 -0.25276086554E+02 -0.56045945379E+02  0.17887530435E+02  0.64031182169E+02  0.00000000000E+00 0. -1.
        -13    1    3    3    0    0  0.43154259972E+02 -0.48698267306E+03  0.22180002281E+03  0.53685162209E+03  0.00000000000E+00 0.  1.
         22    1    1    2    0    0 -0.17878173418E+02  0.54302861844E+03  0.32623231888E+04  0.33072575191E+04  0.00000000000E+00 0.  1.
<mgrwt>
<rscale>  0 0.17347857E+04</rscale>
<asrwt>0</asrwt>
<pdfrwt beam="1">  1        2 0.57001157E+00 0.17347857E+04</pdfrwt>
<pdfrwt beam="2">  1       -2 0.31240740E-01 0.17347857E+04</pdfrwt>
<totfact> 0.52818904E+00</totfact>
</mgrwt>
</event>
<event>
 6    1  0.1878398E-004  0.1997541E+04  0.7818608E-02  0.8607771E-01
          2   -1    0    0  501    0  0.00000000000E+00  0.00000000000E+00  0.12640625895E+04  0.12640625895E+04  0.00000000000E+00 0.  1.
         -2   -1    0    0    0  501 -0.00000000000E+00 -0.00000000000E+00 -0.78915555712E+03  0.78915555712E+03  0.00000000000E+00 0. -1.
         23    2    1    2    0    0 -0.99440476273E+03 -0.52251610125E+02  0.28130847976E+03  0.10387964087E+04  0.91610343099E+02 0.  0.
         11    1    3    3    0    0 -0.49119769086E+03 -0.25126787793E+02  0.18653412453E+03  0.52602424525E+03  0.00000000000E+00 0. -1.
        -11    1    3    3    0    0 -0.50320707187E+03 -0.27124822332E+02  0.94774355231E+02  0.51277216341E+03  0.00000000000E+00 0.  1.
         22    1    1    2    0    0  0.99440476273E+03  0.52251610125E+02  0.19359855263E+03  0.10144217380E+04  0.00000000000E+00 0. -1.
<mgrwt>
<rscale>  0 0.19975405E+04</rscale>
<asrwt>0</asrwt>
<pdfrwt beam="1">  1        2 0.19447117E+00 0.19975405E+04</pdfrwt>
<pdfrwt beam="2">  1       -2 0.12140855E+00 0.19975405E+04</pdfrwt>
<totfact> 0.83186576E+00</totfact>
</mgrwt>
</event>
<event>
 6    1  0.1878398E-004  0.4488417E+04  0.7818608E-02  0.7912668E-01
          2   -1    0    0  501    0  0.00000000000E+00  0.00000000000E+00  0.26401032195E+04  0.26401032195E+04  0.00000000000E+00 0.  1.
         -2   -1    0    0    0  501 -0.00000000000E+00 -0.00000000000E+00 -0.19076800110E+04  0.19076800110E+04  0.00000000000E+00 0. -1.
         23    2    1    2    0    0 -0.65955512127E+03 -0.72209914151E+03  0.24119014980E+04  0.26043101916E+04  0.93394913163E+02 0.  0.
         11    1    3    3    0    0 -0.10162096881E+03 -0.15586382098E+03  0.51480230438E+03  0.54739543713E+03  0.00000000000E+00 0. -1.
        -11    1    3    3    0    0 -0.55793415246E+03 -0.56623532053E+03  0.18970991936E+04  0.20569147544E+04  0.00000000000E+00 0.  1.
         22    1    1    2    0    0  0.65955512127E+03  0.72209914151E+03 -0.16794782895E+04  0.19434730390E+04  0.00000000000E+00 0. -1.
<mgrwt>
<rscale>  0 0.44884172E+04</rscale>
<asrwt>0</asrwt>
<pdfrwt beam="1">  1        2 0.40616972E+00 0.44884172E+04</pdfrwt>
<pdfrwt beam="2">  1       -2 0.29348923E+00 0.44884172E+04</pdfrwt>
<totfact> 0.76140479E-02</totfact>
</mgrwt>
</event>
<event>
 6    1  0.1878398E-004  0.8735528E+03  0.7818608E-02  0.9459259E-01
         -2   -1    0    0    0  501 -0.00000000000E+00  0.00000000000E+00  0.18074207605E+03  0.18074207605E+03  0.00000000000E+00 0. -1.
          2   -1    0    0  501    0  0.00000000000E+00 -0.00000000000E+00 -0.10555020909E+04  0.10555020909E+04  0.00000000000E+00 0.  1.
         23    2    1    2    0    0  0.11071639989E+03  0.35987888712E+03 -0.14223851573E+03  0.41261883874E+03  0.90838186495E+02 0.  0.
         13    1    3    3    0    0  0.37249165033E+02  0.60856389269E+02  0.45675474248E+01  0.71497292955E+02  0.00000000000E+00 0.  1.
        -13    1    3    3    0    0  0.73467234858E+02  0.29902249785E+03 -0.14680606315E+03  0.34112154578E+03  0.00000000000E+00 0. -1.
         22    1    1    2    0    0 -0.11071639989E+03 -0.35987888712E+03 -0.73252149912E+03  0.82362532821E+03  0.00000000000E+00 0.  1.
<mgrwt>
<rscale>  0 0.87355284E+03</rscale>
<asrwt>0</asrwt>
<pdfrwt beam="1">  1        2 0.16238494E+00 0.87355284E+03</pdfrwt>
<pdfrwt beam="2">  1       -2 0.27806473E-01 0.87355284E+03</pdfrwt>
<totfact> 0.27472130E+02</totfact>
</mgrwt>
</event>
<event>
 6    1  0.1878398E-004  0.1027449E+04  0.7818608E-02  0.9278941E-01
         -4   -1    0    0    0  501 -0.00000000000E+00  0.00000000000E+00  0.47053064485E+03  0.47053064485E+03  0.00000000000E+00 0. -1.
          4   -1    0    0  501    0  0.00000000000E+00 -0.00000000000E+00 -0.56088374091E+03  0.56088374091E+03  0.00000000000E+00 0.  1.
         23    2    1    2    0    0 -0.21975598090E+03  0.45195347445E+03  0.38681714586E+02  0.51256506604E+03  0.93123776081E+02 0.  0.
         13    1    3    3    0    0 -0.18985998449E+03  0.31727403787E+03  0.17391600420E+01  0.36974674237E+03  0.00000000000E+00 0. -1.
        -13    1    3    3    0    0 -0.29895996409E+02  0.13467943658E+03  0.36942554544E+02  0.14281832367E+03  0.00000000000E+00 0.  1.
         22    1    1    2    0    0  0.21975598090E+03 -0.45195347445E+03 -0.12903481064E+03  0.51884931971E+03  0.00000000000E+00 0.  1.
<mgrwt>
<rscale>  0 0.10274492E+04</rscale>
<asrwt>0</asrwt>
<pdfrwt beam="1">  1        4 0.86289806E-01 0.10274492E+04</pdfrwt>
<pdfrwt beam="2">  1       -4 0.72389330E-01 0.10274492E+04</pdfrwt>
<totfact> 0.40193219E+00</totfact>
</mgrwt>
</event>
<event>
 6    1  0.1878398E-004  0.4275232E+04  0.7818608E-02  0.7951214E-01
          2   -1    0    0  501    0  0.00000000000E+00  0.00000000000E+00  0.20234912132E+04  0.20234912132E+04  0.00000000000E+00 0.  1.
         -2   -1    0    0    0  501 -0.00000000000E+00 -0.00000000000E+00 -0.22581774317E+04  0.22581774317E+04  0.00000000000E+00 0. -1.
         23    2    1    2    0    0  0.16833122358E+04  0.20094408667E+03  0.11852760715E+04  0.20702863818E+04  0.85368189571E+02 0.  0.
         11    1    3    3    0    0  0.48954157645E+03  0.97594108301E+02  0.34768866833E+03  0.60832801607E+03  0.00000000000E+00 0. -1.
        -11    1    3    3    0    0  0.11937706593E+04  0.10334997837E+03  0.83758740314E+03  0.14619583657E+04  0.00000000000E+00 0.  1.
         22    1    1    2    0    0 -0.16833122358E+04 -0.20094408667E+03 -0.14199622899E+04  0.22113822632E+04  0.00000000000E+00 0. -1.
<mgrwt>
<rscale>  0 0.42752320E+04</rscale>
<asrwt>0</asrwt>
<pdfrwt beam="1">  1        2 0.31130634E+00 0.42752320E+04</pdfrwt>
<pdfrwt beam="2">  1       -2 0.34741191E+00 0.42752320E+04</pdfrwt>
<totfact> 0.80792626E-02</totfact>
</mgrwt>
</event>
<event>
 6    1  0.1878398E-004  0.2800634E+04  0.7818608E-02  0.8303072E-01
          2   -1    0    0  501    0  0.00000000000E+00  0.00000000000E+00  0.34117734269E+04  0.34117734269E+04  0.00000000000E+00 0.  1.
         -2   -1    0    0    0  501 -0.00000000000E+00 -0.00000000000E+00 -0.57474143424E+03  0.57474143424E+03  0.00000000000E+00 0. -1.
         23    2    1    2    0    0 -0.11980359190E+04  0.26533610016E+03  0.46416968575E+03  0.13151540025E+04  0.92104526592E+02 0.  0.
         13    1    3    3    0    0 -0.38008044243E+03  0.11712875456E+03  0.11977647157E+03  0.41536332409E+03  0.00000000000E+00 0. -1.
        -13    1    3    3    0    0 -0.81795547662E+03  0.14820734560E+03  0.34439321418E+03  0.89979067843E+03  0.00000000000E+00 0.  1.
         22    1    1    2    0    0  0.11980359190E+04 -0.26533610016E+03  0.23728623069E+04  0.26713608586E+04  0.00000000000E+00 0.  1.
<mgrwt>
<rscale>  0 0.28006339E+04</rscale>
<asrwt>0</asrwt>
<pdfrwt beam="1">  1        2 0.52488821E+00 0.28006339E+04</pdfrwt>
<pdfrwt beam="2">  1       -2 0.88421761E-01 0.28006339E+04</pdfrwt>
<totfact> 0.89616501E-01</totfact>
</mgrwt>
</event>
<event>
 6    1  0.1878398E-004  0.2118562E+04  0.7818608E-02  0.8553110E-01
         -1   -1    0    0    0  501 -0.00000000000E+00  0.00000000000E+00  0.94198033665E+03  0.94198033665E+03  0.00000000000E+00 0. -1.
          1   -1    0    0  501    0  0.00000000000E+00 -0.00000000000E+00 -0.11911889218E+04  0.11911889218E+04  0.00000000000E+00 0.  1.
         23    2    1    2    0    0  0.82043448865E+03 -0.19501368393E+03  0.51743596568E+03  0.99348204065E+03  0.90130457901E+02 0.  0.
         13    1    3    3    0    0  0.36464797385E+03 -0.10057231529E+03  0.18218733656E+03  0.41985135588E+03  0.00000000000E+00 0.  1.
        -13    1    3    3    0    0  0.45578651480E+03 -0.94441368635E+02  0.33524862912E+03  0.57363068477E+03  0.00000000000E+00 0. -1.
         22    1    1    2    0    0 -0.82043448865E+03  0.19501368393E+03 -0.76664455078E+03  0.11396872178E+04  0.00000000000E+00 0.  1.
<mgrwt>
<rscale>  0 0.21185623E+04</rscale>
<asrwt>0</asrwt>
<pdfrwt beam="1">  1        1 0.18325983E+00 0.21185623E+04</pdfrwt>
<pdfrwt beam="2">  1       -1 0.14492005E+00 0.21185623E+04</pdfrwt>
<totfact> 0.38109048E+00</totfact>
</mgrwt>
</event>
<event>
 6    1  0.1878398E-004  0.2332557E+04  0.7818608E-02  0.8465194E-01
         -2   -1    0    0    0  501 -0.00000000000E+00  0.00000000000E+00  0.99910488414E+03  0.99910488414E+03  0.00000000000E+00 0. -1.
          2   -1    0    0  501    0  0.00000000000E+00 -0.00000000000E+00 -0.13614238019E+04  0.13614238019E+04  0.00000000000E+00 0.  1.
         23    2    1    2    0    0  0.11356771435E+04 -0.23460514288E+02  0.78867492877E+02  0.11419399864E+04  0.86567204719E+02 0.  0.
         11    1    3    3    0    0  0.31515175325E+03  0.31441118902E+02  0.29866130479E+02  0.31812129336E+03  0.00000000000E+00 0. -1.
        -11    1    3    3    0    0  0.82052539029E+03 -0.54901633190E+02  0.49001362398E+02  0.82381869301E+03  0.00000000000E+00 0.  1.
         22    1    1    2    0    0 -0.11356771435E+04  0.23460514288E+02 -0.44118641066E+03  0.12185886997E+04  0.00000000000E+00 0.  1.
<mgrwt>
<rscale>  0 0.23325567E+04</rscale>
<asrwt>0</asrwt>
<pdfrwt beam="1">  1        2 0.20944982E+00 0.23325567E+04</pdfrwt>
<pdfrwt beam="2">  1       -2 0.15370844E+00 0.23325567E+04</pdfrwt>
<totfact> 0.38664202E+00</totfact>
</mgrwt>
</event>
<event>
 6    1  0.1878398E-004  0.1090891E+04  0.7818608E-02  0.9214116E-01
          2   -1    0    0  501    0  0.00000000000E+00  0.00000000000E+00  0.25058527861E+03  0.25058527861E+03  0.00000000000E+00 0.  1.
         -2   -1    0    0    0  501 -0.00000000000E+00 -0.00000000000E+00 -0.11872627788E+04  0.11872627788E+04  0.00000000000E+00 0. -1.
         23    2    1    2    0    0  0.32269446304E+03 -0.43324637262E+03 -0.51883570528E+03  0.75489425119E+03  0.94025026143E+02 0.  0.
         11    1    3    3    0    0  0.15630138321E+03 -0.26492950422E+03 -0.33817562053E+03  0.45714386676E+03  0.00000000000E+00 0. -1.
        -11    1    3    3    0    0  0.16639307983E+03 -0.16831686840E+03 -0.18066008475E+03  0.29775038442E+03  0.00000000000E+00 0.  1.
         22    1    1    2    0    0 -0.32269446304E+03  0.43324637262E+03 -0.41784179491E+03  0.68295380623E+03  0.00000000000E+00 0.  1.
<mgrwt>
<rscale>  0 0.10908906E+04</rscale>
<asrwt>0</asrwt>
<pdfrwt beam="1">  1        2 0.38551581E-01 0.10908906E+04</pdfrwt>
<pdfrwt beam="2">  1       -2 0.18265581E+00 0.10908906E+04</pdfrwt>
<totfact> 0.23166478E+01</totfact>
</mgrwt>
</event>
<event>
 6    1  0.1878398E-004  0.2162061E+04  0.7818608E-02  0.8534387E-01
          1   -1    0    0  501    0  0.00000000000E+00  0.00000000000E+00  0.29678821642E+04  0.29678821642E+04  0.00000000000E+00 0. -1.
         -1   -1    0    0    0  501 -0.00000000000E+00 -0.00000000000E+00 -0.39375776227E+03  0.39375776227E+03  0.00000000000E+00 0.  1.
         23    2    1    2    0    0 -0.95376574937E+03  0.21090519759E+03  0.20030410394E+04  0.22301425495E+04  0.84925136086E+02 0.  0.
         11    1    3    3    0    0 -0.61830634217E+03  0.16427576753E+03  0.12398374149E+04  0.13951652504E+04  0.00000000000E+00 0. -1.
        -11    1    3    3    0    0 -0.33545940720E+03  0.46629430064E+02  0.76320362446E+03  0.83497729910E+03  0.00000000000E+00 0.  1.
         22    1    1    2    0    0  0.95376574937E+03 -0.21090519759E+03  0.57108336256E+03  0.11314973769E+04  0.00000000000E+00 0.  1.
<mgrwt>
<rscale>  0 0.21620607E+04</rscale>
<asrwt>0</asrwt>
<pdfrwt beam="1">  1        1 0.45659724E+00 0.21620607E+04</pdfrwt>
<pdfrwt beam="2">  1       -1 0.60578119E-01 0.21620607E+04</pdfrwt>
<totfact> 0.15962620E+00</totfact>
</mgrwt>
</event>
<event>
 6    1  0.1878398E-004  0.3836213E+04  0.7818608E-02  0.8038428E-01
          1   -1    0    0  501    0  0.00000000000E+00  0.00000000000E+00  0.19911172480E+04  0.19911172480E+04  0.00000000000E+00 0.  1.
         -1   -1    0    0    0  501 -0.00000000000E+00 -0.00000000000E+00 -0.18477730085E+04  0.18477730085E+04  0.00000000000E+00 0. -1.
         23    2    1    2    0    0  0.14997998916E+03 -0.45231660279E+03 -0.17864450363E+04  0.18511350012E+04  0.90722755960E+02 0.  0.
         13    1    3    3    0    0  0.73206501008E+01 -0.12474512095E+03 -0.38006800320E+03  0.40008327155E+03  0.00000000000E+00 0.  1.
        -13    1    3    3    0    0  0.14265933906E+03 -0.32757148184E+03 -0.14063770331E+04  0.14510517296E+04  0.00000000000E+00 0. -1.
         22    1    1    2    0    0 -0.14997998916E+03  0.45231660279E+03  0.19297892758E+04  0.19877552554E+04  0.00000000000E+00 0.  1.
<mgrwt>
<rscale>  0 0.38362131E+04</rscale>
<asrwt>0</asrwt>
<pdfrwt beam="1">  1        1 0.30632573E+00 0.38362131E+04</pdfrwt>
<pdfrwt beam="2">  1       -1 0.28427277E+00 0.38362131E+04</pdfrwt>
<totfact> 0.10010224E-01</totfact>
</mgrwt>
</event>
<event>
 6    1  0.1878398E-004  0.2579212E+04  0.7818608E-02  0.8375297E-01
          1   -1    0    0  501    0  0.00000000000E+00  0.00000000000E+00  0.24252694711E+04  0.24252694711E+04  0.00000000000E+00 0. -1.
         -1   -1    0    0    0  501 -0.00000000000E+00 -0.00000000000E+00 -0.68573152725E+03  0.68573152725E+03  0.00000000000E+00 0.  1.
         23    2    1    2    0    0 -0.74447916204E+03 -0.17557424060E+03  0.21208030569E+04  0.22563439776E+04  0.90592506507E+02 0.  0.
         13    1    3    3    0    0 -0.51778507433E+03 -0.98226726547E+02  0.15567879864E+04  0.16435749777E+04  0.00000000000E+00 0. -1.
        -13    1    3    3    0    0 -0.22669408771E+03 -0.77347514052E+02  0.56401507058E+03  0.61276899985E+03  0.00000000000E+00 0.  1.
         22    1    1    2    0    0  0.74447916204E+03  0.17557424060E+03 -0.38126511309E+03  0.85465702076E+03  0.00000000000E+00 0.  1.
<mgrwt>
<rscale>  0 0.25792121E+04</rscale>
<asrwt>0</asrwt>
<pdfrwt beam="1">  1        1 0.37311838E+00 0.25792121E+04</pdfrwt>
<pdfrwt beam="2">  1       -1 0.10549716E+00 0.25792121E+04</pdfrwt>
<totfact> 0.11334421E+00</totfact>
</mgrwt>
</event>
<event>
 6    1  0.1878398E-004  0.2610639E+04  0.7818608E-02  0.8364596E-01
         -2   -1    0    0    0  501 -0.00000000000E+00  0.00000000000E+00  0.12976293048E+04  0.12976293048E+04  0.00000000000E+00 0. -1.
          2   -1    0    0  501    0  0.00000000000E+00 -0.00000000000E+00 -0.13130553117E+04  0.13130553117E+04  0.00000000000E+00 0.  1.
         23    2    1    2    0    0  0.54081683075E+03  0.10517779870E+04 -0.55632019553E+03  0.13101899791E+04  0.91574249334E+02 0.  0.
         11    1    3    3    0    0  0.22462213269E+03  0.34312555396E+03 -0.20087029428E+03  0.45666084067E+03  0.00000000000E+00 0. -1.
        -11    1    3    3    0    0  0.31619469806E+03  0.70865243302E+03 -0.35544990124E+03  0.85352913846E+03  0.00000000000E+00 0.  1.
         22    1    1    2    0    0 -0.54081683075E+03 -0.10517779870E+04  0.54089418862E+03  0.13004946373E+04  0.00000000000E+00 0. -1.
<mgrwt>
<rscale>  0 0.26106390E+04</rscale>
<asrwt>0</asrwt>
<pdfrwt beam="1">  1        2 0.20200851E+00 0.26106390E+04</pdfrwt>
<pdfrwt beam="2">  1       -2 0.19963528E+00 0.26106390E+04</pdfrwt>
<totfact> 0.19200528E+00</totfact>
</mgrwt>
</event>
<event>
 6    1  0.1878398E-004  0.5208664E+04  0.7818608E-02  0.7797101E-01
          2   -1    0    0  501    0  0.00000000000E+00  0.00000000000E+00  0.33254739742E+04  0.33254739742E+04  0.00000000000E+00 0.  1.
         -2   -1    0    0    0  501 -0.00000000000E+00 -0.00000000000E+00 -0.20395722402E+04  0.20395722402E+04  0.00000000000E+00 0. -1.
         23    2    1    2    0    0 -0.21563850274E+04 -0.94223185555E+03 -0.50424059967E+03  0.24082900813E+04  0.88347478770E+02 0.  0.
         11    1    3    3    0    0 -0.13531488017E+04 -0.56332458294E+03 -0.27882117111E+03  0.14920078789E+04  0.00000000000E+00 0. -1.
        -11    1    3    3    0    0 -0.80323622572E+03 -0.37890727261E+03 -0.22541942855E+03  0.91628220233E+03  0.00000000000E+00 0.  1.
         22    1    1    2    0    0  0.21563850274E+04  0.94223185555E+03  0.17901423337E+04  0.29567561332E+04  0.00000000000E+00 0.  1.
<mgrwt>
<rscale>  0 0.52086637E+04</rscale>
<asrwt>0</asrwt>
<pdfrwt beam="1">  1        2 0.51161138E+00 0.52086637E+04</pdfrwt>
<pdfrwt beam="2">  1       -2 0.31378034E+00 0.52086637E+04</pdfrwt>
<totfact> 0.20031927E-02</totfact>
</mgrwt>
</event>
<event>
 6    1  0.1878398E-004  0.2000399E+04  0.7818608E-02  0.8606434E-01
          2   -1    0    0  501    0  0.00000000000E+00  0.00000000000E+00  0.31854781155E+04  0.31854781155E+04  0.00000000000E+00 0.  1.
         -2   -1    0    0    0  501 -0.00000000000E+00 -0.00000000000E+00 -0.31404992984E+03  0.31404992984E+03  0.00000000000E+00 0. -1.
         23    2    1    2    0    0  0.76854549935E+03 -0.44477660783E+03  0.22360100921E+04  0.24076285220E+04  0.91899686647E+02 0.  0.
         13    1    3    3    0    0  0.53745555024E+03 -0.31166194163E+03  0.14460092360E+04  0.15738279273E+04  0.00000000000E+00 0.  1.
        -13    1    3    3    0    0  0.23108994911E+03 -0.13311466620E+03  0.79000085614E+03  0.83380059465E+03  0.00000000000E+00 0. -1.
         22    1    1    2    0    0 -0.76854549935E+03  0.44477660783E+03  0.63541809351E+03  0.10918995233E+04  0.00000000000E+00 0. -1.
<mgrwt>
<rscale>  0 0.20003991E+04</rscale>
<asrwt>0</asrwt>
<pdfrwt beam="1">  1        2 0.49007353E+00 0.20003991E+04</pdfrwt>
<pdfrwt beam="2">  1       -2 0.48315376E-01 0.20003991E+04</pdfrwt>
<totfact> 0.50134876E+00</totfact>
</mgrwt>
</event>
<event>
 6    1  0.1878398E-004  0.7731053E+03  0.7818608E-02  0.9599783E-01
         -1   -1    0    0    0  501 -0.00000000000E+00  0.00000000000E+00  0.23823500495E+03  0.23823500495E+03  0.00000000000E+00 0. -1.
          1   -1    0    0  501    0  0.00000000000E+00 -0.00000000000E+00 -0.62720819922E+03  0.62720819922E+03  0.00000000000E+00 0.  1.
         23    2    1    2    0    0 -0.33027808615E+03  0.11742960910E+01  0.15600244271E+02  0.34317444162E+03  0.91871304555E+02 0.  0.
         11    1    3    3    0    0 -0.74977105525E+02 -0.17871784585E+02  0.38469718984E+02  0.86144566374E+02  0.00000000000E+00 0. -1.
        -11    1    3    3    0    0 -0.25530098062E+03  0.19046080676E+02 -0.22869474714E+02  0.25702987525E+03  0.00000000000E+00 0.  1.
         22    1    1    2    0    0  0.33027808615E+03 -0.11742960910E+01 -0.40457343854E+03  0.52226876255E+03  0.00000000000E+00 0.  1.
<mgrwt>
<rscale>  0 0.77310529E+03</rscale>
<asrwt>0</asrwt>
<pdfrwt beam="1">  1        1 0.96493568E-01 0.77310529E+03</pdfrwt>
<pdfrwt beam="2">  1       -1 0.36651540E-01 0.77310529E+03</pdfrwt>
<totfact> 0.23178869E+02</totfact>
</mgrwt>
</event>
<event>
 6    1  0.1878398E-004  0.3684303E+04  0.7818608E-02  0.8071449E-01
          2   -1    0    0  501    0  0.00000000000E+00  0.00000000000E+00  0.16031511697E+04  0.16031511697E+04  0.00000000000E+00 0.  1.
         -2   -1    0    0    0  501 -0.00000000000E+00 -0.00000000000E+00 -0.21167825818E+04  0.21167825818E+04  0.00000000000E+00 0. -1.
         23    2    1    2    0    0 -0.28669794949E+03  0.13714731844E+04  0.94893466257E+03  0.16945365232E+04  0.88558595939E+02 0.  0.
         13    1    3    3    0    0 -0.18898513764E+02  0.13485562798E+03  0.63752833915E+02  0.15035829892E+03  0.00000000000E+00 0. -1.
        -13    1    3    3    0    0 -0.26779943572E+03  0.12366175564E+04  0.88518182866E+03  0.15441782243E+04  0.00000000000E+00 0.  1.
         22    1    1    2    0    0  0.28669794949E+03 -0.13714731844E+04 -0.14625660747E+04  0.20253972283E+04  0.00000000000E+00 0. -1.
<mgrwt>
<rscale>  0 0.36843032E+04</rscale>
<asrwt>0</asrwt>
<pdfrwt beam="1">  1        2 0.24663864E+00 0.36843032E+04</pdfrwt>
<pdfrwt beam="2">  1       -2 0.32565886E+00 0.36843032E+04</pdfrwt>
<totfact> 0.19853520E-01</totfact>
</mgrwt>
</event>
<event>
 6    1  0.1878398E-004  0.2712036E+04  0.7818608E-02  0.8331110E-01
         -2   -1    0    0    0  501 -0.00000000000E+00  0.00000000000E+00  0.17884823637E+04  0.17884823637E+04  0.00000000000E+00 0. -1.
          2   -1    0    0  501    0  0.00000000000E+00 -0.00000000000E+00 -0.10281258237E+04  0.10281258237E+04  0.00000000000E+00 0.  1.
         23    2    1    2    0    0  0.12404479612E+04 -0.31439944078E+03  0.84198334375E+03  0.15343363411E+04  0.87714899181E+02 0.  0.
         13    1    3    3    0    0  0.94746943460E+03 -0.27771968905E+03  0.64113694346E+03  0.11772353781E+04  0.00000000000E+00 0. -1.
        -13    1    3    3    0    0  0.29297852659E+03 -0.36679751726E+02  0.20084640029E+03  0.35710096295E+03  0.00000000000E+00 0.  1.
         22    1    1    2    0    0 -0.12404479612E+04  0.31439944078E+03 -0.81626803796E+02  0.12822718463E+04  0.00000000000E+00 0.  1.
<mgrwt>
<rscale>  0 0.27120361E+04</rscale>
<asrwt>0</asrwt>
<pdfrwt beam="1">  1        2 0.15817320E+00 0.27120361E+04</pdfrwt>
<pdfrwt beam="2">  1       -2 0.27515113E+00 0.27120361E+04</pdfrwt>
<totfact> 0.95480179E-01</totfact>
</mgrwt>
</event>
<event>
 6    1  0.1878398E-004  0.1278931E+04  0.7818608E-02  0.9046442E-01
         -2   -1    0    0    0  501 -0.00000000000E+00  0.00000000000E+00  0.13320683486E+03  0.13320683486E+03  0.00000000000E+00 0. -1.
          2   -1    0    0  501    0  0.00000000000E+00 -0.00000000000E+00 -0.30697857457E+04  0.30697857457E+04  0.00000000000E+00 0.  1.
         23    2    1    2    0    0 -0.17175659487E+03  0.12857022898E+03 -0.29757947285E+04  0.29848905127E+04  0.90479138524E+02 0.  0.
         13    1    3    3    0    0 -0.30377794855E+02 -0.11792325310E+02 -0.32956169158E+03  0.33116880577E+03  0.00000000000E+00 0. -1.
        -13    1    3    3    0    0 -0.14137880001E+03  0.14036255429E+03 -0.26462330370E+04  0.26537217069E+04  0.00000000000E+00 0.  1.
         22    1    1    2    0    0  0.17175659487E+03 -0.12857022898E+03  0.39215817702E+02  0.21810206789E+03  0.00000000000E+00 0. -1.
<mgrwt>
<rscale>  0 0.12789315E+04</rscale>
<asrwt>0</asrwt>
<pdfrwt beam="1">  1        2 0.47227466E+00 0.12789315E+04</pdfrwt>
<pdfrwt beam="2">  1       -2 0.20493362E-01 0.12789315E+04</pdfrwt>
<totfact> 0.32038286E+01</totfact>
</mgrwt>
</event>
<event>
 6    1  0.1878398E-004  0.8110706E+03  0.7818608E-02  0.9544130E-01
          2   -1    0    0  501    0  0.00000000000E+00  0.00000000000E+00  0.38870208438E+03  0.38870208438E+03  0.00000000000E+00 0.  1.
         -2   -1    0    0    0  501 -0.00000000000E+00 -0.00000000000E+00 -0.42309749333E+03  0.42309749333E+03  0.00000000000E+00 0. -1.
         23    2    1    2    0    0 -0.38315283073E+03 -0.40874073177E+02  0.90708543708E+02  0.40667270805E+03  0.93155085859E+02 0.  0.
         11    1    3    3    0    0 -0.24952051136E+03  0.17485253715E+02  0.66876187909E+02  0.25891821913E+03  0.00000000000E+00 0. -1.
        -11    1    3    3    0    0 -0.13363231936E+03 -0.58359326892E+02  0.23832355799E+02  0.14775448892E+03  0.00000000000E+00 0.  1.
         22    1    1    2    0    0  0.38315283073E+03  0.40874073177E+02 -0.12510395266E+03  0.40512686966E+03  0.00000000000E+00 0. -1.
<mgrwt>
<rscale>  0 0.81107060E+03</rscale>
<asrwt>0</asrwt>
<pdfrwt beam="1">  1        2 0.59800321E-01 0.81107060E+03</pdfrwt>
<pdfrwt beam="2">  1       -2 0.65091922E-01 0.81107060E+03</pdfrwt>
<totfact> 0.18008446E+02</totfact>
</mgrwt>
</event>
<event>
 6    1  0.1878398E-004  0.1832608E+04  0.7818608E-02  0.8689149E-01
          2   -1    0    0  501    0  0.00000000000E+00  0.00000000000E+00  0.26697149852E+04  0.26697149852E+04  0.00000000000E+00 0.  1.
         -2   -1    0    0    0  501 -0.00000000000E+00 -0.00000000000E+00 -0.31449539091E+03  0.31449539091E+03  0.00000000000E+00 0. -1.
         23    2    1    2    0    0  0.44904508125E+03 -0.31161228786E+03 -0.12288657384E+02  0.55442869360E+03  0.92176256412E+02 0.  0.
         11    1    3    3    0    0  0.21667894461E+03 -0.11882832901E+03  0.32307815865E+02  0.24922626623E+03  0.00000000000E+00 0.  1.
        -11    1    3    3    0    0  0.23236613664E+03 -0.19278395884E+03 -0.44596473249E+02  0.30520242737E+03  0.00000000000E+00 0. -1.
         22    1    1    2    0    0 -0.44904508125E+03  0.31161228786E+03  0.23675082517E+04  0.24297816825E+04  0.00000000000E+00 0.  1.
<mgrwt>
<rscale>  0 0.18326080E+04</rscale>
<asrwt>0</asrwt>
<pdfrwt beam="1">  1        2 0.41072537E+00 0.18326080E+04</pdfrwt>
<pdfrwt beam="2">  1       -2 0.48383908E-01 0.18326080E+04</pdfrwt>
<totfact> 0.10564050E+01</totfact>
</mgrwt>
</event>
<event>
 6    1  0.1878398E-004  0.3475279E+04  0.7818608E-02  0.8119674E-01
          1   -1    0    0  501    0  0.00000000000E+00  0.00000000000E+00  0.23989944953E+04  0.23989944953E+04  0.00000000000E+00 0.  1.
         -1   -1    0    0    0  501 -0.00000000000E+00 -0.00000000000E+00 -0.12586068818E+04  0.12586068818E+04  0.00000000000E+00 0. -1.
         23    2    1    2    0    0 -0.12776935023E+04  0.72935163736E+03 -0.40017435325E+03  0.15273934835E+04  0.91306317900E+02 0.  0.
         13    1    3    3    0    0 -0.10141873949E+04  0.55080468000E+03 -0.28381006953E+03  0.11884906491E+04  0.00000000000E+00 0. -1.
        -13    1    3    3    0    0 -0.26350610736E+03  0.17854695735E+03 -0.11636428372E+03  0.33890283434E+03  0.00000000000E+00 0.  1.
         22    1    1    2    0    0  0.12776935023E+04 -0.72935163736E+03  0.15405619667E+04  0.21302078936E+04  0.00000000000E+00 0.  1.
<mgrwt>
<rscale>  0 0.34752790E+04</rscale>
<asrwt>0</asrwt>
<pdfrwt beam="1">  1        1 0.36907608E+00 0.34752790E+04</pdfrwt>
<pdfrwt beam="2">  1       -1 0.19363183E+00 0.34752790E+04</pdfrwt>
<totfact> 0.21676254E-01</totfact>
</mgrwt>
</event>
<event>
 6    1  0.1878398E-004  0.2638333E+04  0.7818608E-02  0.8355296E-01
          1   -1    0    0  501    0  0.00000000000E+00  0.00000000000E+00  0.29382794988E+04  0.29382794988E+04  0.00000000000E+00 0.  1.
         -1   -1    0    0    0  501 -0.00000000000E+00 -0.00000000000E+00 -0.59225165024E+03  0.59225165024E+03  0.00000000000E+00 0. -1.
         23    2    1    2    0    0  0.90695049944E+03  0.73108883474E+03  0.35187025969E+03  0.12210475310E+04  0.10047039688E+03 0.  0.
         13    1    3    3    0    0  0.30819545232E+03  0.24056244034E+03  0.69355652654E+02  0.39707043593E+03  0.00000000000E+00 0.  1.
        -13    1    3    3    0    0  0.59875504712E+03  0.49052639440E+03  0.28251460703E+03  0.82397709509E+03  0.00000000000E+00 0. -1.
         22    1    1    2    0    0 -0.90695049944E+03 -0.73108883474E+03  0.19941575889E+04  0.23094836181E+04  0.00000000000E+00 0.  1.
<mgrwt>
<rscale>  0 0.26383335E+04</rscale>
<asrwt>0</asrwt>
<pdfrwt beam="1">  1        1 0.45204299E+00 0.26383335E+04</pdfrwt>
<pdfrwt beam="2">  1       -1 0.91115640E-01 0.26383335E+04</pdfrwt>
<totfact> 0.68368649E-01</totfact>
</mgrwt>
</event>
<event>
 6    1  0.1878398E-004  0.2130804E+04  0.7818608E-02  0.8547794E-01
         -2   -1    0    0    0  501 -0.00000000000E+00  0.00000000000E+00  0.59880080169E+03  0.59880080169E+03  0.00000000000E+00 0. -1.
          2   -1    0    0  501    0  0.00000000000E+00 -0.00000000000E+00 -0.18955904451E+04  0.18955904451E+04  0.00000000000E+00 0.  1.
         23    2    1    2    0    0 -0.54693755147E+03  0.80679728903E+03 -0.11453527860E+04  0.15079858166E+04  0.11011661054E+03 0.  0.
         11    1    3    3    0    0 -0.24270828674E+03  0.45546520178E+03 -0.61153713534E+03  0.80020842934E+03  0.00000000000E+00 0.  1.
        -11    1    3    3    0    0 -0.30422926473E+03  0.35133208725E+03 -0.53381565069E+03  0.70777738730E+03  0.00000000000E+00 0. -1.
         22    1    1    2    0    0  0.54693755147E+03 -0.80679728903E+03 -0.15143685733E+03  0.98640543011E+03  0.00000000000E+00 0. -1.
<mgrwt>
<rscale>  0 0.21308037E+04</rscale>
<asrwt>0</asrwt>
<pdfrwt beam="1">  1        2 0.29162929E+00 0.21308037E+04</pdfrwt>
<pdfrwt beam="2">  1       -2 0.92123202E-01 0.21308037E+04</pdfrwt>
<totfact> 0.70280570E+00</totfact>
</mgrwt>
</event>
<event>
 6    1  0.1878398E-004  0.3254402E+04  0.7818608E-02  0.8174596E-01
          2   -1    0    0  501    0  0.00000000000E+00  0.00000000000E+00  0.23600815847E+04  0.23600815847E+04  0.00000000000E+00 0.  1.
         -2   -1    0    0    0  501 -0.00000000000E+00 -0.00000000000E+00 -0.11219032036E+04  0.11219032036E+04  0.00000000000E+00 0. -1.
         23    2    1    2    0    0 -0.36349880121E+03 -0.15823798127E+04  0.71294372840E+03  0.17755473619E+04  0.90677585137E+02 0.  0.
         11    1    3    3    0    0 -0.28546864910E+03 -0.13582953533E+04  0.62914073647E+03  0.15239017956E+04  0.00000000000E+00 0.  1.
        -11    1    3    3    0    0 -0.78030152101E+02 -0.22408445938E+03  0.83802991928E+02  0.25164556628E+03  0.00000000000E+00 0. -1.
         22    1    1    2    0    0  0.36349880121E+03  0.15823798127E+04  0.52523465275E+03  0.17064374265E+04  0.00000000000E+00 0. -1.
<mgrwt>
<rscale>  0 0.32544020E+04</rscale>
<asrwt>0</asrwt>
<pdfrwt beam="1">  1        2 0.36308947E+00 0.32544020E+04</pdfrwt>
<pdfrwt beam="2">  1       -2 0.17260049E+00 0.32544020E+04</pdfrwt>
<totfact> 0.71750484E-01</totfact>
</mgrwt>
</event>
<event>
 6    1  0.1878398E-004  0.3942808E+04  0.7818608E-02  0.8016184E-01
          2   -1    0    0  501    0  0.00000000000E+00  0.00000000000E+00  0.19656609977E+04  0.19656609977E+04  0.00000000000E+00 0. -1.
         -2   -1    0    0    0  501 -0.00000000000E+00 -0.00000000000E+00 -0.19771638561E+04  0.19771638561E+04  0.00000000000E+00 0.  1.
         23    2    1    2    0    0  0.35469878396E+03  0.74835554295E+03  0.17820575805E+04  0.19672980142E+04  0.93193402510E+02 0.  0.
         13    1    3    3    0    0  0.31547087568E+03  0.60750103522E+03  0.14050008733E+04  0.15628841400E+04  0.00000000000E+00 0.  1.
        -13    1    3    3    0    0  0.39227908274E+02  0.14085450773E+03  0.37705670721E+03  0.40441387413E+03  0.00000000000E+00 0. -1.
         22    1    1    2    0    0 -0.35469878396E+03 -0.74835554295E+03 -0.17935604389E+04  0.19755268396E+04  0.00000000000E+00 0.  1.
<mgrwt>
<rscale>  0 0.39428081E+04</rscale>
<asrwt>0</asrwt>
<pdfrwt beam="1">  1        2 0.30240938E+00 0.39428081E+04</pdfrwt>
<pdfrwt beam="2">  1       -2 0.30417906E+00 0.39428081E+04</pdfrwt>
<totfact> 0.16579164E-01</totfact>
</mgrwt>
</event>
<event>
 6    1  0.1878398E-004  0.1356586E+04  0.7818608E-02  0.8985858E-01
         -2   -1    0    0    0  501 -0.00000000000E+00  0.00000000000E+00  0.41409173611E+03  0.41409173611E+03  0.00000000000E+00 0. -1.
          2   -1    0    0  501    0  0.00000000000E+00 -0.00000000000E+00 -0.11110612946E+04  0.11110612946E+04  0.00000000000E+00 0.  1.
         23    2    1    2    0    0 -0.13332396718E+03  0.18283520329E+03 -0.10653064569E+04  0.10928613901E+04  0.90907531105E+02 0.  0.
         11    1    3    3    0    0 -0.71463716687E+02  0.16410976896E+03 -0.80334878110E+03  0.82304820222E+03  0.00000000000E+00 0.  1.
        -11    1    3    3    0    0 -0.61860250494E+02  0.18725434333E+02 -0.26195767578E+03  0.26981318793E+03  0.00000000000E+00 0. -1.
         22    1    1    2    0    0  0.13332396718E+03 -0.18283520329E+03  0.36833689839E+03  0.43229164057E+03  0.00000000000E+00 0. -1.
<mgrwt>
<rscale>  0 0.13565859E+04</rscale>
<asrwt>0</asrwt>
<pdfrwt beam="1">  1        2 0.17093251E+00 0.13565859E+04</pdfrwt>
<pdfrwt beam="2">  1       -2 0.63706421E-01 0.13565859E+04</pdfrwt>
<totfact> 0.47734046E+01</totfact>
</mgrwt>
</event>
<event>
 6    1  0.1878398E-004  0.1708469E+04  0.7818608E-02  0.8756549E-01
          2   -1    0    0  501    0  0.00000000000E+00  0.00000000000E+00  0.77765659212E+03  0.77765659212E+03  0.00000000000E+00 0.  1.
         -2   -1    0    0    0  501 -0.00000000000E+00 -0.00000000000E+00 -0.93835352057E+03  0.93835352057E+03  0.00000000000E+00 0. -1.
         23    2    1    2    0    0 -0.45568599429E+03 -0.38255080974E+03 -0.69254676503E+03  0.91797559208E+03  0.95201462538E+02 0.  0.
         13    1    3    3    0    0 -0.69357040880E+02 -0.91748635228E+02 -0.94195371019E+02  0.14866398053E+03  0.00000000000E+00 0. -1.
        -13    1    3    3    0    0 -0.38632895341E+03 -0.29080217451E+03 -0.59835139401E+03  0.76931161155E+03  0.00000000000E+00 0.  1.
         22    1    1    2    0    0  0.45568599429E+03  0.38255080974E+03  0.53184983658E+03  0.79803452062E+03  0.00000000000E+00 0.  1.
<mgrwt>
<rscale>  0 0.17084693E+04</rscale>
<asrwt>0</asrwt>
<pdfrwt beam="1">  1        2 0.11963948E+00 0.17084693E+04</pdfrwt>
<pdfrwt beam="2">  1       -2 0.14436208E+00 0.17084693E+04</pdfrwt>
<totfact> 0.11269486E+01</totfact>
</mgrwt>
</event>
<event>
 6    1  0.1878398E-004  0.2358655E+04  0.7818608E-02  0.8455147E-01
          2   -1    0    0  501    0  0.00000000000E+00  0.00000000000E+00  0.13171004878E+04  0.13171004878E+04  0.00000000000E+00 0.  1.
         -2   -1    0    0    0  501 -0.00000000000E+00 -0.00000000000E+00 -0.10559658158E+04  0.10559658158E+04  0.00000000000E+00 0. -1.
         23    2    1    2    0    0  0.75357407400E+03  0.36572130841E+03  0.96353360623E+03  0.12799102199E+04  0.90261843323E+02 0.  0.
         13    1    3    3    0    0  0.28348886065E+03  0.90691841377E+02  0.35417600343E+03  0.46263547811E+03  0.00000000000E+00 0. -1.
        -13    1    3    3    0    0  0.47008521335E+03  0.27502946703E+03  0.60935760280E+03  0.81727474183E+03  0.00000000000E+00 0.  1.
         22    1    1    2    0    0 -0.75357407400E+03 -0.36572130841E+03 -0.70239893423E+03  0.10931560837E+04  0.00000000000E+00 0. -1.
<mgrwt>
<rscale>  0 0.23586548E+04</rscale>
<asrwt>0</asrwt>
<pdfrwt beam="1">  1        2 0.20263085E+00 0.23586548E+04</pdfrwt>
<pdfrwt beam="2">  1       -2 0.16245628E+00 0.23586548E+04</pdfrwt>
<totfact> 0.35225863E+00</totfact>
</mgrwt>
</event>
<event>
 6    1  0.1878398E-004  0.2092541E+04  0.7818608E-02  0.8564536E-01
          2   -1    0    0  501    0  0.00000000000E+00  0.00000000000E+00  0.79475401404E+03  0.79475401404E+03  0.00000000000E+00 0.  1.
         -2   -1    0    0    0  501 -0.00000000000E+00 -0.00000000000E+00 -0.13773846546E+04  0.13773846546E+04  0.00000000000E+00 0. -1.
         23    2    1    2    0    0  0.24508833208E+03  0.64766631077E+03  0.51943503033E+03  0.87056704803E+03  0.92381241306E+02 0.  0.
         13    1    3    3    0    0  0.17341554625E+03  0.49184340207E+03  0.34124442195E+03  0.62324203914E+03  0.00000000000E+00 0. -1.
        -13    1    3    3    0    0  0.71672785834E+02  0.15582290870E+03  0.17819060838E+03  0.24732500888E+03  0.00000000000E+00 0.  1.
         22    1    1    2    0    0 -0.24508833208E+03 -0.64766631077E+03 -0.11020656709E+04  0.13015716207E+04  0.00000000000E+00 0. -1.
<mgrwt>
<rscale>  0 0.20925410E+04</rscale>
<asrwt>0</asrwt>
<pdfrwt beam="1">  1        2 0.12226985E+00 0.20925410E+04</pdfrwt>
<pdfrwt beam="2">  1       -2 0.21190533E+00 0.20925410E+04</pdfrwt>
<totfact> 0.35653481E+00</totfact>
</mgrwt>
</event>
<event>
 6    1  0.1878398E-004  0.2956405E+04  0.7818608E-02  0.8256290E-01
          2   -1    0    0  501    0  0.00000000000E+00  0.00000000000E+00  0.12001219858E+04  0.12001219858E+04  0.00000000000E+00 0.  1.
         -2   -1    0    0    0  501 -0.00000000000E+00 -0.00000000000E+00 -0.18207177081E+04  0.18207177081E+04  0.00000000000E+00 0. -1.
         23    2    1    2    0    0  0.67479418934E+03 -0.98247746042E+03  0.58064815400E+03  0.13286233931E+04  0.86479383145E+02 0.  0.
         13    1    3    3    0    0  0.37272066048E+03 -0.54887646551E+03  0.37064573046E+03  0.75997652769E+03  0.00000000000E+00 0. -1.
        -13    1    3    3    0    0  0.30207352886E+03 -0.43360099491E+03  0.21000242354E+03  0.56864686539E+03  0.00000000000E+00 0.  1.
         22    1    1    2    0    0 -0.67479418934E+03  0.98247746042E+03 -0.12012438764E+04  0.16922163008E+04  0.00000000000E+00 0. -1.
<mgrwt>
<rscale>  0 0.29564055E+04</rscale>
<asrwt>0</asrwt>
<pdfrwt beam="1">  1        2 0.18463415E+00 0.29564055E+04</pdfrwt>
<pdfrwt beam="2">  1       -2 0.28011042E+00 0.29564055E+04</pdfrwt>
<totfact> 0.68404350E-01</totfact>
</mgrwt>
</event>
<event>
 6    1  0.1878398E-004  0.9031506E+03  0.7818608E-02  0.9421652E-01
         -1   -1    0    0    0  501 -0.00000000000E+00  0.00000000000E+00  0.14681313630E+03  0.14681313630E+03  0.00000000000E+00 0. -1.
          1   -1    0    0  501    0  0.00000000000E+00 -0.00000000000E+00 -0.13889781501E+04  0.13889781501E+04  0.00000000000E+00 0.  1.
         23    2    1    2    0    0 -0.64841004449E+02 -0.36110684152E+03 -0.18830058903E+03  0.41989132106E+03  0.79051267058E+02 0.  0.
         13    1    3    3    0    0  0.42123455175E+01 -0.13597275469E+03 -0.40801518979E+02  0.14202499014E+03  0.00000000000E+00 0.  1.
        -13    1    3    3    0    0 -0.69053349967E+02 -0.22513408682E+03 -0.14749907005E+03  0.27786633092E+03  0.00000000000E+00 0. -1.
         22    1    1    2    0    0  0.64841004449E+02  0.36110684152E+03 -0.10538644247E+04  0.11158999653E+04  0.00000000000E+00 0.  1.
<mgrwt>
<rscale>  0 0.90315057E+03</rscale>
<asrwt>0</asrwt>
<pdfrwt beam="1">  1        1 0.21368894E+00 0.90315057E+03</pdfrwt>
<pdfrwt beam="2">  1       -1 0.22586637E-01 0.90315057E+03</pdfrwt>
<totfact> 0.13128579E+02</totfact>
</mgrwt>
</event>
<event>
 6    1  0.1878398E-004  0.1960577E+04  0.7818608E-02  0.8625277E-01
         -1   -1    0    0    0  501 -0.00000000000E+00  0.00000000000E+00  0.46800074450E+03  0.46800074450E+03  0.00000000000E+00 0. -1.
          1   -1    0    0  501    0  0.00000000000E+00 -0.00000000000E+00 -0.20533423833E+04  0.20533423833E+04  0.00000000000E+00 0.  1.
         23    2    1    2    0    0  0.70331055092E+03 -0.13983202688E+03  0.62185453435E+02  0.72452809936E+03  0.82916882288E+02 0.  0.
         13    1    3    3    0    0  0.28247948903E+03 -0.89767199736E+02  0.49758172252E+02  0.30054731338E+03  0.00000000000E+00 0.  1.
        -13    1    3    3    0    0  0.42083106188E+03 -0.50064827147E+02  0.12427281184E+02  0.42398078598E+03  0.00000000000E+00 0. -1.
         22    1    1    2    0    0 -0.70331055092E+03  0.13983202688E+03 -0.16475270922E+04  0.17968150284E+04  0.00000000000E+00 0.  1.
<mgrwt>
<rscale>  0 0.19605772E+04</rscale>
<asrwt>0</asrwt>
<pdfrwt beam="1">  1        1 0.31589883E+00 0.19605772E+04</pdfrwt>
<pdfrwt beam="2">  1       -1 0.72000114E-01 0.19605772E+04</pdfrwt>
<totfact> 0.49673253E+00</totfact>
</mgrwt>
</event>
<event>
 6    1  0.1878398E-004  0.2847340E+04  0.7818608E-02  0.8288720E-01
          2   -1    0    0  501    0  0.00000000000E+00  0.00000000000E+00  0.15653633038E+04  0.15653633038E+04  0.00000000000E+00 0.  1.
         -2   -1    0    0    0  501 -0.00000000000E+00 -0.00000000000E+00 -0.12948023144E+04  0.12948023144E+04  0.00000000000E+00 0. -1.
         23    2    1    2    0    0 -0.37475162820E+03 -0.66742594941E+03  0.13393852218E+04  0.15455244426E+04  0.93791522170E+02 0.  0.
         11    1    3    3    0    0 -0.19100161523E+03 -0.24942159031E+03  0.52157356306E+03  0.60887743300E+03  0.00000000000E+00 0. -1.
        -11    1    3    3    0    0 -0.18375001296E+03 -0.41800435909E+03  0.81781165872E+03  0.93664700962E+03  0.00000000000E+00 0.  1.
         22    1    1    2    0    0  0.37475162820E+03  0.66742594941E+03 -0.10688242324E+04  0.13146411756E+04  0.00000000000E+00 0. -1.
<mgrwt>
<rscale>  0 0.28473398E+04</rscale>
<asrwt>0</asrwt>
<pdfrwt beam="1">  1        2 0.24082512E+00 0.28473398E+04</pdfrwt>
<pdfrwt beam="2">  1       -2 0.19920035E+00 0.28473398E+04</pdfrwt>
<totfact> 0.13609687E+00</totfact>
</mgrwt>
</event>
<event>
 6    1  0.1878398E-004  0.2140892E+04  0.7818608E-02  0.8543441E-01
         -2   -1    0    0    0  501 -0.00000000000E+00  0.00000000000E+00  0.15451805702E+04  0.15451805702E+04  0.00000000000E+00 0. -1.
          2   -1    0    0  501    0  0.00000000000E+00 -0.00000000000E+00 -0.74156666169E+03  0.74156666169E+03  0.00000000000E+00 0.  1.
         23    2    1    2    0    0  0.51897766055E+03 -0.74822158655E+03  0.99966762548E+03  0.13552911596E+04  0.91134027738E+02 0.  0.
         11    1    3    3    0    0  0.40950219488E+03 -0.62477615813E+03  0.85981100056E+03  0.11389961598E+04  0.00000000000E+00 0. -1.
        -11    1    3    3    0    0  0.10947546567E+03 -0.12344542843E+03  0.13985662492E+03  0.21629499975E+03  0.00000000000E+00 0.  1.
         22    1    1    2    0    0 -0.51897766055E+03  0.74822158655E+03 -0.19605371698E+03  0.93145607233E+03  0.00000000000E+00 0.  1.
<mgrwt>
<rscale>  0 0.21408918E+04</rscale>
<asrwt>0</asrwt>
<pdfrwt beam="1">  1        2 0.11408718E+00 0.21408918E+04</pdfrwt>
<pdfrwt beam="2">  1       -2 0.23772009E+00 0.21408918E+04</pdfrwt>
<totfact> 0.26738964E+00</totfact>
</mgrwt>
</event>
<event>
 6    1  0.1878398E-004  0.3703116E+04  0.7818608E-02  0.8067272E-01
         -2   -1    0    0    0  501 -0.00000000000E+00  0.00000000000E+00  0.12763784447E+04  0.12763784447E+04  0.00000000000E+00 0. -1.
          2   -1    0    0  501    0  0.00000000000E+00 -0.00000000000E+00 -0.26859335192E+04  0.26859335192E+04  0.00000000000E+00 0.  1.
         23    2    1    2    0    0 -0.87328707763E+03 -0.18153997752E+03 -0.24400031176E+04  0.25994435723E+04  0.88907749267E+02 0.  0.
         11    1    3    3    0    0 -0.37298054010E+03 -0.80325477427E+02 -0.91808470622E+03  0.99420631331E+03  0.00000000000E+00 0. -1.
        -11    1    3    3    0    0 -0.50030653752E+03 -0.10121450010E+03 -0.15219184114E+04  0.16052372590E+04  0.00000000000E+00 0.  1.
         22    1    1    2    0    0  0.87328707763E+03  0.18153997752E+03  0.10304480431E+04  0.13628683916E+04  0.00000000000E+00 0. -1.
<mgrwt>
<rscale>  0 0.37031163E+04</rscale>
<asrwt>0</asrwt>
<pdfrwt beam="1">  1        2 0.41322054E+00 0.37031163E+04</pdfrwt>
<pdfrwt beam="2">  1       -2 0.19636591E+00 0.37031163E+04</pdfrwt>
<totfact> 0.30745395E-01</totfact>
</mgrwt>
</event>
<event>
 6    1  0.1878398E-004  0.4269451E+04  0.7818608E-02  0.7952291E-01
         -2   -1    0    0    0  501 -0.00000000000E+00  0.00000000000E+00  0.95947213403E+03  0.95947213403E+03  0.00000000000E+00 0. -1.
          2   -1    0    0  501    0  0.00000000000E+00 -0.00000000000E+00 -0.47495427210E+04  0.47495427210E+04  0.00000000000E+00 0.  1.
         23    2    1    2    0    0  0.14898198771E+04 -0.44067159954E+03 -0.38516446870E+04  0.41541688515E+04  0.90539088306E+02 0.  0.
         13    1    3    3    0    0  0.11483857295E+04 -0.32782089359E+03 -0.30544526280E+04  0.32796245485E+04  0.00000000000E+00 0.  1.
        -13    1    3    3    0    0  0.34143414762E+03 -0.11285070595E+03 -0.79719205899E+03  0.87454430300E+03  0.00000000000E+00 0. -1.
         22    1    1    2    0    0 -0.14898198771E+04  0.44067159954E+03  0.61574100086E+02  0.15548460035E+04  0.00000000000E+00 0. -1.
<mgrwt>
<rscale>  0 0.42694514E+04</rscale>
<asrwt>0</asrwt>
<pdfrwt beam="1">  1        2 0.73069887E+00 0.42694514E+04</pdfrwt>
<pdfrwt beam="2">  1       -2 0.14761110E+00 0.42694514E+04</pdfrwt>
<totfact> 0.16183680E-02</totfact>
</mgrwt>
</event>
<event>
 6    1  0.1878398E-004  0.1223304E+04  0.7818608E-02  0.9092699E-01
         -2   -1    0    0    0  501 -0.00000000000E+00  0.00000000000E+00  0.17337138511E+03  0.17337138511E+03  0.00000000000E+00 0. -1.
          2   -1    0    0  501    0  0.00000000000E+00 -0.00000000000E+00 -0.21579019988E+04  0.21579019988E+04  0.00000000000E+00 0.  1.
         23    2    1    2    0    0 -0.39009577936E+03 -0.43956812133E+03 -0.69936552862E+03  0.91810526007E+03  0.91707554649E+02 0.  0.
         13    1    3    3    0    0 -0.12096030526E+03 -0.18518445518E+03 -0.21577945221E+03  0.30900720038E+03  0.00000000000E+00 0.  1.
        -13    1    3    3    0    0 -0.26913547410E+03 -0.25438366615E+03 -0.48358607640E+03  0.60909805969E+03  0.00000000000E+00 0. -1.
         22    1    1    2    0    0  0.39009577936E+03  0.43956812133E+03 -0.12851650851E+04  0.14131681238E+04  0.00000000000E+00 0.  1.
<mgrwt>
<rscale>  0 0.12233045E+04</rscale>
<asrwt>0</asrwt>
<pdfrwt beam="1">  1        2 0.33198492E+00 0.12233045E+04</pdfrwt>
<pdfrwt beam="2">  1       -2 0.26672521E-01 0.12233045E+04</pdfrwt>
<totfact> 0.68648923E+01</totfact>
</mgrwt>
</event>
<event>
 6    1  0.1878398E-004  0.4625918E+04  0.7818608E-02  0.7888956E-01
          1   -1    0    0  501    0  0.00000000000E+00  0.00000000000E+00  0.14558373467E+04  0.14558373467E+04  0.00000000000E+00 0. -1.
         -1   -1    0    0    0  501 -0.00000000000E+00 -0.00000000000E+00 -0.36747099771E+04  0.36747099771E+04  0.00000000000E+00 0.  1.
         23    2    1    2    0    0  0.25127123928E+03 -0.12628205821E+04 -0.32396640773E+04  0.34874197462E+04  0.93915357398E+02 0.  0.
         11    1    3    3    0    0  0.41578799423E+02 -0.33068837979E+03 -0.93132394596E+03  0.98916525081E+03  0.00000000000E+00 0.  1.
        -11    1    3    3    0    0  0.20969243985E+03 -0.93213220230E+03 -0.23083401313E+04  0.24982544954E+04  0.00000000000E+00 0. -1.
         22    1    1    2    0    0 -0.25127123928E+03  0.12628205821E+04  0.10207914469E+04  0.16431275776E+04  0.00000000000E+00 0. -1.
<mgrwt>
<rscale>  0 0.46259183E+04</rscale>
<asrwt>0</asrwt>
<pdfrwt beam="1">  1        1 0.22397498E+00 0.46259183E+04</pdfrwt>
<pdfrwt beam="2">  1       -1 0.56533999E+00 0.46259183E+04</pdfrwt>
<totfact> 0.32965389E-03</totfact>
</mgrwt>
</event>
<event>
 6    1  0.1878398E-004  0.2138722E+04  0.7818608E-02  0.8544375E-01
         -1   -1    0    0    0  501 -0.00000000000E+00  0.00000000000E+00  0.87808789575E+03  0.87808789575E+03  0.00000000000E+00 0. -1.
          1   -1    0    0  501    0  0.00000000000E+00 -0.00000000000E+00 -0.13022984735E+04  0.13022984735E+04  0.00000000000E+00 0.  1.
         23    2    1    2    0    0 -0.39609517455E+03 -0.93330724198E+03 -0.55279315074E+03  0.11583847679E+04  0.91220653784E+02 0.  0.
         11    1    3    3    0    0 -0.18648419152E+03 -0.42731288159E+03 -0.30582162702E+03  0.55758364395E+03  0.00000000000E+00 0.  1.
        -11    1    3    3    0    0 -0.20961098304E+03 -0.50599436039E+03 -0.24697152373E+03  0.60080112391E+03  0.00000000000E+00 0. -1.
         22    1    1    2    0    0  0.39609517455E+03  0.93330724198E+03  0.12858257295E+03  0.10220016014E+04  0.00000000000E+00 0.  1.
<mgrwt>
<rscale>  0 0.21387216E+04</rscale>
<asrwt>0</asrwt>
<pdfrwt beam="1">  1        1 0.20035361E+00 0.21387216E+04</pdfrwt>
<pdfrwt beam="2">  1       -1 0.13509045E+00 0.21387216E+04</pdfrwt>
<totfact> 0.37985554E+00</totfact>
</mgrwt>
</event>
<event>
 6    1  0.1878398E-004  0.1415647E+04  0.7818608E-02  0.8942570E-01
          1   -1    0    0  501    0  0.00000000000E+00  0.00000000000E+00  0.13799520517E+04  0.13799520517E+04  0.00000000000E+00 0.  1.
         -1   -1    0    0    0  501 -0.00000000000E+00 -0.00000000000E+00 -0.36306608980E+03  0.36306608980E+03  0.00000000000E+00 0. -1.
         23    2    1    2    0    0  0.15121341900E+02 -0.92861481576E+02  0.13705945350E+04  0.13770104032E+04  0.93682236350E+02 0.  0.
         13    1    3    3    0    0 -0.54450771315E+01 -0.10828764522E+02  0.80835458828E+03  0.80844545357E+03  0.00000000000E+00 0. -1.
        -13    1    3    3    0    0  0.20566419032E+02 -0.82032717054E+02  0.56223994674E+03  0.56856494965E+03  0.00000000000E+00 0.  1.
         22    1    1    2    0    0 -0.15121341900E+02  0.92861481576E+02 -0.35370857315E+03  0.36600773826E+03  0.00000000000E+00 0. -1.
<mgrwt>
<rscale>  0 0.14156466E+04</rscale>
<asrwt>0</asrwt>
<pdfrwt beam="1">  1        1 0.21230031E+00 0.14156466E+04</pdfrwt>
<pdfrwt beam="2">  1       -1 0.55856322E-01 0.14156466E+04</pdfrwt>
<totfact> 0.25057005E+01</totfact>
</mgrwt>
</event>
<event>
 6    1  0.1878398E-004  0.3756225E+04  0.7818608E-02  0.8055615E-01
         -1   -1    0    0    0  501 -0.00000000000E+00  0.00000000000E+00  0.13895959319E+04  0.13895959319E+04  0.00000000000E+00 0.  1.
          1   -1    0    0  501    0  0.00000000000E+00 -0.00000000000E+00 -0.25383684621E+04  0.25383684621E+04  0.00000000000E+00 0. -1.
         23    2    1    2    0    0  0.11055734360E+02  0.61825749565E+03  0.12785424177E+04  0.14231245954E+04  0.90820371128E+02 0.  0.
         13    1    3    3    0    0 -0.38740341302E+02  0.19745737589E+03  0.41843926089E+03  0.46430770443E+03  0.00000000000E+00 0. -1.
        -13    1    3    3    0    0  0.49796075662E+02  0.42080011976E+03  0.86010315686E+03  0.95881689095E+03  0.00000000000E+00 0.  1.
         22    1    1    2    0    0 -0.11055734360E+02 -0.61825749565E+03 -0.24273149479E+04  0.25048397986E+04  0.00000000000E+00 0. -1.
<mgrwt>
<rscale>  0 0.37562250E+04</rscale>
<asrwt>0</asrwt>
<pdfrwt beam="1">  1        1 0.39051822E+00 0.37562250E+04</pdfrwt>
<pdfrwt beam="2">  1       -1 0.21378399E+00 0.37562250E+04</pdfrwt>
<totfact> 0.12328353E-01</totfact>
</mgrwt>
</event>
<event>
 6    1  0.1878398E-004  0.5339027E+04  0.7818608E-02  0.7778236E-01
         -1   -1    0    0    0  501 -0.00000000000E+00  0.00000000000E+00  0.39128191920E+04  0.39128191920E+04  0.00000000000E+00 0.  1.
          1   -1    0    0  501    0  0.00000000000E+00 -0.00000000000E+00 -0.18212704526E+04  0.18212704526E+04  0.00000000000E+00 0. -1.
         23    2    1    2    0    0 -0.14768183665E+04  0.18120573709E+04  0.24288129781E+04  0.33722489282E+04  0.91574820507E+02 0.  0.
         13    1    3    3    0    0 -0.17168558647E+03  0.18141528198E+03  0.29115449335E+03  0.38361228361E+03  0.00000000000E+00 0. -1.
        -13    1    3    3    0    0 -0.13051327800E+04  0.16306420890E+04  0.21376584848E+04  0.29886366446E+04  0.00000000000E+00 0.  1.
         22    1    1    2    0    0  0.14768183665E+04 -0.18120573709E+04 -0.33726423877E+03  0.23618407165E+04  0.00000000000E+00 0. -1.
<mgrwt>
<rscale>  0 0.53390269E+04</rscale>
<asrwt>0</asrwt>
<pdfrwt beam="1">  1        1 0.28019545E+00 0.53390269E+04</pdfrwt>
<pdfrwt beam="2">  1       -1 0.60197218E+00 0.53390269E+04</pdfrwt>
<totfact> 0.12170799E-03</totfact>
</mgrwt>
</event>
<event>
 6    1  0.1878398E-004  0.1615022E+04  0.7818608E-02  0.8811372E-01
          2   -1    0    0  501    0  0.00000000000E+00  0.00000000000E+00  0.25597744980E+04  0.25597744980E+04  0.00000000000E+00 0.  1.
         -2   -1    0    0    0  501 -0.00000000000E+00 -0.00000000000E+00 -0.25473881623E+03  0.25473881623E+03  0.00000000000E+00 0. -1.
         23    2    1    2    0    0 -0.71216171712E+03  0.85388686687E+02  0.51962731326E+03  0.89041649196E+03  0.91451874337E+02 0.  0.
         11    1    3    3    0    0 -0.39591530931E+03  0.81259334975E+02  0.32891969879E+03  0.52109517357E+03  0.00000000000E+00 0. -1.
        -11    1    3    3    0    0 -0.31624640782E+03  0.41293517121E+01  0.19070761447E+03  0.36932131839E+03  0.00000000000E+00 0.  1.
         22    1    1    2    0    0  0.71216171712E+03 -0.85388686687E+02  0.17854083685E+04  0.19240968223E+04  0.00000000000E+00 0.  1.
<mgrwt>
<rscale>  0 0.16150219E+04</rscale>
<asrwt>0</asrwt>
<pdfrwt beam="1">  1        2 0.39381144E+00 0.16150219E+04</pdfrwt>
<pdfrwt beam="2">  1       -2 0.39190589E-01 0.16150219E+04</pdfrwt>
<totfact> 0.18989958E+01</totfact>
</mgrwt>
</event>
<event>
 6    1  0.1878398E-004  0.5042850E+04  0.7818608E-02  0.7821931E-01
         -3   -1    0    0    0  501 -0.00000000000E+00  0.00000000000E+00  0.32064529216E+04  0.32064529216E+04  0.00000000000E+00 0. -1.
          3   -1    0    0  501    0  0.00000000000E+00 -0.00000000000E+00 -0.19827465638E+04  0.19827465638E+04  0.00000000000E+00 0.  1.
         23    2    1    2    0    0  0.16523031432E+04  0.11459912497E+02 -0.13466715911E+04  0.21335359229E+04  0.90631967358E+02 0.  0.
         11    1    3    3    0    0  0.97431192114E+03 -0.35928385640E+02 -0.81009648779E+03  0.12676083339E+04  0.00000000000E+00 0.  1.
        -11    1    3    3    0    0  0.67799122203E+03  0.47388298137E+02 -0.53657510332E+03  0.86592758904E+03  0.00000000000E+00 0. -1.
         22    1    1    2    0    0 -0.16523031432E+04 -0.11459912497E+02  0.25703779490E+04  0.30556635625E+04  0.00000000000E+00 0. -1.
<mgrwt>
<rscale>  0 0.50428498E+04</rscale>
<asrwt>0</asrwt>
<pdfrwt beam="1">  1        3 0.30503793E+00 0.50428498E+04</pdfrwt>
<pdfrwt beam="2">  1       -3 0.49330045E+00 0.50428498E+04</pdfrwt>
<totfact> 0.22237076E-04</totfact>
</mgrwt>
</event>
<event>
 6    1  0.1878398E-004  0.3406578E+04  0.7818608E-02  0.8136294E-01
          2   -1    0    0  501    0  0.00000000000E+00  0.00000000000E+00  0.13248515665E+04  0.13248515665E+04  0.00000000000E+00 0.  1.
         -2   -1    0    0    0  501 -0.00000000000E+00 -0.00000000000E+00 -0.21898247538E+04  0.21898247538E+04  0.00000000000E+00 0. -1.
         23    2    1    2    0    0 -0.21320945169E+03 -0.48018505769E+03 -0.21031076508E+04  0.21696808148E+04  0.91744686439E+02 0.  0.
         11    1    3    3    0    0 -0.20160286540E+03 -0.46818817721E+03 -0.19447870919E+04  0.20104827076E+04  0.00000000000E+00 0. -1.
        -11    1    3    3    0    0 -0.11606586288E+02 -0.11996880483E+02 -0.15832055889E+03  0.15919810725E+03  0.00000000000E+00 0.  1.
         22    1    1    2    0    0  0.21320945169E+03  0.48018505769E+03  0.12381344635E+04  0.13449955055E+04  0.00000000000E+00 0.  1.
<mgrwt>
<rscale>  0 0.34065776E+04</rscale>
<asrwt>0</asrwt>
<pdfrwt beam="1">  1        2 0.20382332E+00 0.34065776E+04</pdfrwt>
<pdfrwt beam="2">  1       -2 0.33689611E+00 0.34065776E+04</pdfrwt>
<totfact> 0.24885263E-01</totfact>
</mgrwt>
</event>
<event>
 6    1  0.1878398E-004  0.5508762E+04  0.7818608E-02  0.7754485E-01
         -2   -1    0    0    0  501 -0.00000000000E+00  0.00000000000E+00  0.29490974481E+04  0.29490974481E+04  0.00000000000E+00 0. -1.
          2   -1    0    0  501    0  0.00000000000E+00 -0.00000000000E+00 -0.25725210599E+04  0.25725210599E+04  0.00000000000E+00 0.  1.
         23    2    1    2    0    0 -0.11186375920E+04 -0.24591559342E+04 -0.34518978207E+03  0.27252379231E+04  0.94698368584E+02 0.  0.
         13    1    3    3    0    0 -0.25508352422E+03 -0.58341130997E+03 -0.42050978161E+02  0.63812588546E+03  0.00000000000E+00 0. -1.
        -13    1    3    3    0    0 -0.86355406775E+03 -0.18757446243E+04 -0.30313880391E+03  0.20871120377E+04  0.00000000000E+00 0.  1.
         22    1    1    2    0    0  0.11186375920E+04  0.24591559342E+04  0.72176617020E+03  0.27963805849E+04  0.00000000000E+00 0. -1.
<mgrwt>
<rscale>  0 0.55087622E+04</rscale>
<asrwt>0</asrwt>
<pdfrwt beam="1">  1        2 0.39577247E+00 0.55087622E+04</pdfrwt>
<pdfrwt beam="2">  1       -2 0.45370730E+00 0.55087622E+04</pdfrwt>
<totfact> 0.72763525E-03</totfact>
</mgrwt>
</event>
<event>
 6    1  0.1878398E-004  0.2022356E+04  0.7818608E-02  0.8596239E-01
          1   -1    0    0  501    0  0.00000000000E+00  0.00000000000E+00  0.14950655743E+04  0.14950655743E+04  0.00000000000E+00 0. -1.
         -1   -1    0    0    0  501 -0.00000000000E+00 -0.00000000000E+00 -0.68390367602E+03  0.68390367602E+03  0.00000000000E+00 0.  1.
         23    2    1    2    0    0 -0.90480368092E+03  0.43935950319E+03  0.49539626610E+03  0.11247328401E+04  0.88882097044E+02 0.  0.
         11    1    3    3    0    0 -0.11377303770E+03  0.85987202516E+02  0.85616463418E+02  0.16633785472E+03  0.00000000000E+00 0.  1.
        -11    1    3    3    0    0 -0.79103064322E+03  0.35337230068E+03  0.40977980268E+03  0.95839498542E+03  0.00000000000E+00 0. -1.
         22    1    1    2    0    0  0.90480368092E+03 -0.43935950319E+03  0.31576563215E+03  0.10542364102E+04  0.00000000000E+00 0.  1.
<mgrwt>
<rscale>  0 0.20223559E+04</rscale>
<asrwt>0</asrwt>
<pdfrwt beam="1">  1        1 0.23001009E+00 0.20223559E+04</pdfrwt>
<pdfrwt beam="2">  1       -1 0.10521595E+00 0.20223559E+04</pdfrwt>
<totfact> 0.51722648E+00</totfact>
</mgrwt>
</event>
<event>
 6    1  0.1878398E-004  0.1813015E+04  0.7818608E-02  0.8699409E-01
          1   -1    0    0  501    0  0.00000000000E+00  0.00000000000E+00  0.13089956712E+04  0.13089956712E+04  0.00000000000E+00 0.  1.
         -1   -1    0    0    0  501 -0.00000000000E+00 -0.00000000000E+00 -0.62777611656E+03  0.62777611656E+03  0.00000000000E+00 0. -1.
         23    2    1    2    0    0 -0.41665671988E+03 -0.12970495907E+03  0.11874390813E+04  0.12684272600E+04  0.92032295743E+02 0.  0.
         11    1    3    3    0    0 -0.32518982136E+03 -0.83819615508E+02  0.99989634977E+03  0.10547828488E+04  0.00000000000E+00 0.  1.
        -11    1    3    3    0    0 -0.91466898527E+02 -0.45885343562E+02  0.18754273153E+03  0.21364441119E+03  0.00000000000E+00 0. -1.
         22    1    1    2    0    0  0.41665671988E+03  0.12970495907E+03 -0.50621952666E+03  0.66834452778E+03  0.00000000000E+00 0. -1.
<mgrwt>
<rscale>  0 0.18130154E+04</rscale>
<asrwt>0</asrwt>
<pdfrwt beam="1">  1        1 0.20138395E+00 0.18130154E+04</pdfrwt>
<pdfrwt beam="2">  1       -1 0.96580941E-01 0.18130154E+04</pdfrwt>
<totfact> 0.86668701E+00</totfact>
</mgrwt>
</event>
<event>
 6    1  0.1878398E-004  0.3981456E+04  0.7818608E-02  0.8008298E-01
          2   -1    0    0  501    0  0.00000000000E+00  0.00000000000E+00  0.20882922198E+04  0.20882922198E+04  0.00000000000E+00 0.  1.
         -2   -1    0    0    0  501 -0.00000000000E+00 -0.00000000000E+00 -0.18977221319E+04  0.18977221319E+04  0.00000000000E+00 0. -1.
         23    2    1    2    0    0  0.16614261792E+04  0.92876525074E+03 -0.48260081317E+03  0.19670787653E+04  0.11641943063E+03 0.  0.
         13    1    3    3    0    0  0.31066862483E+03  0.12338712948E+03 -0.79157702406E+02  0.34351902425E+03  0.00000000000E+00 0. -1.
        -13    1    3    3    0    0  0.13507575544E+04  0.80537812126E+03 -0.40344311076E+03  0.16235597410E+04  0.00000000000E+00 0.  1.
         22    1    1    2    0    0 -0.16614261792E+04 -0.92876525074E+03  0.67317090111E+03  0.20189355864E+04  0.00000000000E+00 0.  1.
<mgrwt>
<rscale>  0 0.39814562E+04</rscale>
<asrwt>0</asrwt>
<pdfrwt beam="1">  1        2 0.32127573E+00 0.39814562E+04</pdfrwt>
<pdfrwt beam="2">  1       -2 0.29195725E+00 0.39814562E+04</pdfrwt>
<totfact> 0.16776341E-01</totfact>
</mgrwt>
</event>
<event>
 6    1  0.1878398E-004  0.8752992E+03  0.7818608E-02  0.9456996E-01
         -2   -1    0    0    0  501 -0.00000000000E+00  0.00000000000E+00  0.15931393246E+04  0.15931393246E+04  0.00000000000E+00 0.  1.
          2   -1    0    0  501    0  0.00000000000E+00 -0.00000000000E+00 -0.12022625040E+03  0.12022625040E+03  0.00000000000E+00 0. -1.
         23    2    1    2    0    0  0.14341325490E+03 -0.32881075163E+03  0.12197030542E+04  0.12742765336E+04  0.86146802408E+02 0.  0.
         11    1    3    3    0    0  0.13803070972E+03 -0.22204955741E+03  0.83271651629E+03  0.87279738730E+03  0.00000000000E+00 0. -1.
        -11    1    3    3    0    0  0.53825451794E+01 -0.10676119422E+03  0.38698653791E+03  0.40147914629E+03  0.00000000000E+00 0.  1.
         22    1    1    2    0    0 -0.14341325490E+03  0.32881075163E+03  0.25321002004E+03  0.43908904145E+03  0.00000000000E+00 0. -1.
<mgrwt>
<rscale>  0 0.87529919E+03</rscale>
<asrwt>0</asrwt>
<pdfrwt beam="1">  1        2 0.18496347E-01 0.87529919E+03</pdfrwt>
<pdfrwt beam="2">  1       -2 0.24509834E+00 0.87529919E+03</pdfrwt>
<totfact> 0.21815952E+01</totfact>
</mgrwt>
</event>
<event>
 6    1  0.1878398E-004  0.6480894E+03  0.7818608E-02  0.9810371E-01
         -1   -1    0    0    0  501 -0.00000000000E+00  0.00000000000E+00  0.51868891923E+02  0.51868891923E+02  0.00000000000E+00 0. -1.
          1   -1    0    0  501    0  0.00000000000E+00 -0.00000000000E+00 -0.20244302924E+04  0.20244302924E+04  0.00000000000E+00 0.  1.
         23    2    1    2    0    0  0.66379982211E+02  0.28832682578E+03 -0.63744953258E+03  0.70879695021E+03  0.92263478887E+02 0.  0.
         13    1    3    3    0    0  0.75593121930E+02  0.26154627445E+03 -0.61530729449E+03  0.67284756106E+03  0.00000000000E+00 0.  1.
        -13    1    3    3    0    0 -0.92131397191E+01  0.26780551331E+02 -0.22142238088E+02  0.35949389155E+02  0.00000000000E+00 0. -1.
         22    1    1    2    0    0 -0.66379982211E+02 -0.28832682578E+03 -0.13351118679E+04  0.13675022341E+04  0.00000000000E+00 0.  1.
<mgrwt>
<rscale>  0 0.64808936E+03</rscale>
<asrwt>0</asrwt>
<pdfrwt beam="1">  1        1 0.31145085E+00 0.64808936E+03</pdfrwt>
<pdfrwt beam="2">  1       -1 0.79798287E-02 0.64808936E+03</pdfrwt>
<totfact> 0.26817738E+02</totfact>
</mgrwt>
</event>
<event>
 6    1  0.1878398E-004  0.1607085E+04  0.7818608E-02  0.8816207E-01
          2   -1    0    0  501    0  0.00000000000E+00  0.00000000000E+00  0.87277972811E+03  0.87277972811E+03  0.00000000000E+00 0.  1.
         -2   -1    0    0    0  501 -0.00000000000E+00 -0.00000000000E+00 -0.73979794317E+03  0.73979794317E+03  0.00000000000E+00 0. -1.
         23    2    1    2    0    0  0.45319477239E+03  0.49341374833E+03  0.50729365710E+03  0.84514558541E+03  0.89897593097E+02 0.  0.
         13    1    3    3    0    0  0.33489432598E+03  0.39565121939E+03  0.35043770203E+03  0.62570015182E+03  0.00000000000E+00 0. -1.
        -13    1    3    3    0    0  0.11830044641E+03  0.97762528945E+02  0.15685595507E+03  0.21944543360E+03  0.00000000000E+00 0.  1.
         22    1    1    2    0    0 -0.45319477239E+03 -0.49341374833E+03 -0.37431187216E+03  0.76743208586E+03  0.00000000000E+00 0. -1.
<mgrwt>
<rscale>  0 0.16070851E+04</rscale>
<asrwt>0</asrwt>
<pdfrwt beam="1">  1        2 0.13427380E+00 0.16070851E+04</pdfrwt>
<pdfrwt beam="2">  1       -2 0.11381507E+00 0.16070851E+04</pdfrwt>
<totfact> 0.17739388E+01</totfact>
</mgrwt>
</event>
<event>
 6    1  0.1878398E-004  0.1011453E+04  0.7818608E-02  0.9296072E-01
         -2   -1    0    0    0  501 -0.00000000000E+00  0.00000000000E+00  0.35018761496E+03  0.35018761496E+03  0.00000000000E+00 0. -1.
          2   -1    0    0  501    0  0.00000000000E+00 -0.00000000000E+00 -0.73034916234E+03  0.73034916234E+03  0.00000000000E+00 0.  1.
         23    2    1    2    0    0 -0.50146182857E+03  0.12766435717E+02 -0.18957100260E+03  0.54392546252E+03  0.91053810201E+02 0.  0.
         11    1    3    3    0    0 -0.29590047489E+03  0.10645148231E+02 -0.63660392438E+02  0.30285814466E+03  0.00000000000E+00 0.  1.
        -11    1    3    3    0    0 -0.20556135368E+03  0.21212874864E+01 -0.12591061016E+03  0.24106731785E+03  0.00000000000E+00 0. -1.
         22    1    1    2    0    0  0.50146182857E+03 -0.12766435717E+02 -0.19059054478E+03  0.53661131478E+03  0.00000000000E+00 0. -1.
<mgrwt>
<rscale>  0 0.10114529E+04</rscale>
<asrwt>0</asrwt>
<pdfrwt beam="1">  1        2 0.11236141E+00 0.10114529E+04</pdfrwt>
<pdfrwt beam="2">  1       -2 0.53875018E-01 0.10114529E+04</pdfrwt>
<totfact> 0.12570743E+02</totfact>
</mgrwt>
</event>
<event>
 6    1  0.1878398E-004  0.1632077E+04  0.7818608E-02  0.8801081E-01
         -2   -1    0    0    0  501 -0.00000000000E+00  0.00000000000E+00  0.24446364359E+03  0.24446364359E+03  0.00000000000E+00 0. -1.
          2   -1    0    0  501    0  0.00000000000E+00 -0.00000000000E+00 -0.27239983788E+04  0.27239983788E+04  0.00000000000E+00 0.  1.
         23    2    1    2    0    0 -0.52251060820E+02  0.60049735195E+03 -0.25888232803E+03  0.66745694708E+03  0.12309132133E+03 0.  0.
         13    1    3    3    0    0 -0.35998587521E+02  0.49528222915E+03 -0.26094342291E+03  0.56097402326E+03  0.00000000000E+00 0.  1.
        -13    1    3    3    0    0 -0.16252473299E+02  0.10521512280E+03  0.20610948715E+01  0.10648292382E+03  0.00000000000E+00 0. -1.
         22    1    1    2    0    0  0.52251060820E+02 -0.60049735195E+03 -0.22206524071E+04  0.23010050753E+04  0.00000000000E+00 0.  1.
<mgrwt>
<rscale>  0 0.16320767E+04</rscale>
<asrwt>0</asrwt>
<pdfrwt beam="1">  1        2 0.41907667E+00 0.16320767E+04</pdfrwt>
<pdfrwt beam="2">  1       -2 0.37609791E-01 0.16320767E+04</pdfrwt>
<totfact> 0.16446439E+01</totfact>
</mgrwt>
</event>
<event>
 6    1  0.1878398E-004  0.2791337E+04  0.7818608E-02  0.8305963E-01
          2   -1    0    0  501    0  0.00000000000E+00  0.00000000000E+00  0.15925420640E+04  0.15925420640E+04  0.00000000000E+00 0.  1.
         -2   -1    0    0    0  501 -0.00000000000E+00 -0.00000000000E+00 -0.12231333037E+04  0.12231333037E+04  0.00000000000E+00 0. -1.
         23    2    1    2    0    0 -0.82998067512E+03 -0.83820034430E+01  0.13146887078E+04  0.15577038425E+04  0.95376534822E+02 0.  0.
         11    1    3    3    0    0 -0.45347537468E+03 -0.44536835285E+02  0.76596820190E+03  0.89125233883E+03  0.00000000000E+00 0.  1.
        -11    1    3    3    0    0 -0.37650530044E+03  0.36154831842E+02  0.54872050591E+03  0.66645150366E+03  0.00000000000E+00 0. -1.
         22    1    1    2    0    0  0.82998067512E+03  0.83820034430E+01 -0.94527994752E+03  0.12579715252E+04  0.00000000000E+00 0. -1.
<mgrwt>
<rscale>  0 0.27913375E+04</rscale>
<asrwt>0</asrwt>
<pdfrwt beam="1">  1        2 0.24500647E+00 0.27913375E+04</pdfrwt>
<pdfrwt beam="2">  1       -2 0.18817435E+00 0.27913375E+04</pdfrwt>
<totfact> 0.15635694E+00</totfact>
</mgrwt>
</event>
<event>
 6    1  0.1878398E-004  0.2258283E+04  0.7818608E-02  0.8494554E-01
         -2   -1    0    0    0  501 -0.00000000000E+00  0.00000000000E+00  0.68108841840E+03  0.68108841840E+03  0.00000000000E+00 0. -1.
          2   -1    0    0  501    0  0.00000000000E+00 -0.00000000000E+00 -0.18719457771E+04  0.18719457771E+04  0.00000000000E+00 0.  1.
         23    2    1    2    0    0 -0.16407691286E+03  0.10080564832E+04 -0.11357558456E+04  0.15302266459E+04  0.92483188542E+02 0.  0.
         13    1    3    3    0    0 -0.12970369458E+03  0.74383255206E+03 -0.89670715513E+03  0.11722600547E+04  0.00000000000E+00 0.  1.
        -13    1    3    3    0    0 -0.34373218279E+02  0.26422393119E+03 -0.23904869051E+03  0.35796659115E+03  0.00000000000E+00 0. -1.
         22    1    1    2    0    0  0.16407691286E+03 -0.10080564832E+04 -0.55101513034E+02  0.10228075496E+04  0.00000000000E+00 0. -1.
<mgrwt>
<rscale>  0 0.22582831E+04</rscale>
<asrwt>0</asrwt>
<pdfrwt beam="1">  1        2 0.28799166E+00 0.22582831E+04</pdfrwt>
<pdfrwt beam="2">  1       -2 0.10478283E+00 0.22582831E+04</pdfrwt>
<totfact> 0.52894028E+00</totfact>
</mgrwt>
</event>
<event>
 6    1  0.1878398E-004  0.2178879E+04  0.7818608E-02  0.8527271E-01
         -2   -1    0    0    0  501 -0.00000000000E+00  0.00000000000E+00  0.10403978204E+04  0.10403978204E+04  0.00000000000E+00 0. -1.
          2   -1    0    0  501    0  0.00000000000E+00 -0.00000000000E+00 -0.11407930107E+04  0.11407930107E+04  0.00000000000E+00 0.  1.
         23    2    1    2    0    0  0.82744484190E+03  0.66543980402E+03 -0.28525231366E+03  0.11033934219E+04  0.92914271323E+02 0.  0.
         13    1    3    3    0    0  0.29539136046E+03  0.24915624916E+03 -0.14941370491E+03  0.41431793051E+03  0.00000000000E+00 0. -1.
        -13    1    3    3    0    0  0.53205348144E+03  0.41628355486E+03 -0.13583860874E+03  0.68907549136E+03  0.00000000000E+00 0.  1.
         22    1    1    2    0    0 -0.82744484190E+03 -0.66543980402E+03  0.18485712334E+03  0.10777974092E+04  0.00000000000E+00 0. -1.
<mgrwt>
<rscale>  0 0.21788791E+04</rscale>
<asrwt>0</asrwt>
<pdfrwt beam="1">  1        2 0.17550662E+00 0.21788791E+04</pdfrwt>
<pdfrwt beam="2">  1       -2 0.16006120E+00 0.21788791E+04</pdfrwt>
<totfact> 0.47384011E+00</totfact>
</mgrwt>
</event>
<event>
 6    1  0.1878398E-004  0.1681449E+04  0.7818608E-02  0.8772016E-01
          1   -1    0    0  501    0  0.00000000000E+00  0.00000000000E+00  0.21674568742E+04  0.21674568742E+04  0.00000000000E+00 0. -1.
         -1   -1    0    0    0  501 -0.00000000000E+00 -0.00000000000E+00 -0.32610449952E+03  0.32610449952E+03  0.00000000000E+00 0.  1.
         23    2    1    2    0    0  0.25603569072E+03  0.72328574658E+03  0.14239699778E+04  0.16201172648E+04  0.91612815852E+02 0.  0.
         13    1    3    3    0    0  0.15287334175E+03  0.37825052210E+03  0.84402190435E+03  0.93745223404E+03  0.00000000000E+00 0. -1.
        -13    1    3    3    0    0  0.10316234897E+03  0.34503522448E+03  0.57994807346E+03  0.68266503081E+03  0.00000000000E+00 0.  1.
         22    1    1    2    0    0 -0.25603569072E+03 -0.72328574658E+03  0.41738239690E+03  0.87344410890E+03  0.00000000000E+00 0.  1.
<mgrwt>
<rscale>  0 0.16814487E+04</rscale>
<asrwt>0</asrwt>
<pdfrwt beam="1">  1        1 0.33345489E+00 0.16814487E+04</pdfrwt>
<pdfrwt beam="2">  1       -1 0.50169924E-01 0.16814487E+04</pdfrwt>
<totfact> 0.87199181E+00</totfact>
</mgrwt>
</event>
<event>
 6    1  0.1878398E-004  0.2707371E+04  0.7818608E-02  0.8332617E-01
         -2   -1    0    0    0  501 -0.00000000000E+00  0.00000000000E+00  0.12921669760E+04  0.12921669760E+04  0.00000000000E+00 0. -1.
          2   -1    0    0  501    0  0.00000000000E+00 -0.00000000000E+00 -0.14181327937E+04  0.14181327937E+04  0.00000000000E+00 0.  1.
         23    2    1    2    0    0  0.35180114884E+03 -0.12684983264E+03 -0.13638248667E+04  0.14171833969E+04  0.92388230036E+02 0.  0.
         13    1    3    3    0    0  0.17150177168E+03 -0.10995625598E+03 -0.68961534480E+03  0.71907757558E+03  0.00000000000E+00 0. -1.
        -13    1    3    3    0    0  0.18029937716E+03 -0.16893576654E+02 -0.67420952195E+03  0.69810582137E+03  0.00000000000E+00 0.  1.
         22    1    1    2    0    0 -0.35180114884E+03  0.12684983264E+03  0.12378590491E+04  0.12931163728E+04  0.00000000000E+00 0. -1.
<mgrwt>
<rscale>  0 0.27073709E+04</rscale>
<asrwt>0</asrwt>
<pdfrwt beam="1">  1        2 0.21817428E+00 0.27073709E+04</pdfrwt>
<pdfrwt beam="2">  1       -2 0.19879492E+00 0.27073709E+04</pdfrwt>
<totfact> 0.16781039E+00</totfact>
</mgrwt>
</event>
<event>
 6    1  0.1878398E-004  0.2690762E+04  0.7818608E-02  0.8338009E-01
         -1   -1    0    0    0  501 -0.00000000000E+00  0.00000000000E+00  0.69854521555E+03  0.69854521555E+03  0.00000000000E+00 0. -1.
          1   -1    0    0  501    0  0.00000000000E+00 -0.00000000000E+00 -0.25911712296E+04  0.25911712296E+04  0.00000000000E+00 0.  1.
         23    2    1    2    0    0  0.22281654397E+03  0.44159440759E+03 -0.24749370801E+04  0.25256882974E+04  0.95577152080E+02 0.  0.
         11    1    3    3    0    0  0.68783337097E+02  0.11239558411E+03 -0.88372745418E+03  0.89349769337E+03  0.00000000000E+00 0.  1.
        -11    1    3    3    0    0  0.15403320687E+03  0.32919882348E+03 -0.15912096259E+04  0.16321906040E+04  0.00000000000E+00 0. -1.
         22    1    1    2    0    0 -0.22281654397E+03 -0.44159440759E+03  0.58231106600E+03  0.76402814782E+03  0.00000000000E+00 0. -1.
<mgrwt>
<rscale>  0 0.26907622E+04</rscale>
<asrwt>0</asrwt>
<pdfrwt beam="1">  1        1 0.39864172E+00 0.26907622E+04</pdfrwt>
<pdfrwt beam="2">  1       -1 0.10746850E+00 0.26907622E+04</pdfrwt>
<totfact> 0.82420686E-01</totfact>
</mgrwt>
</event>
<event>
 6    1  0.1878398E-004  0.1123915E+04  0.7818608E-02  0.9182192E-01
         -2   -1    0    0    0  501 -0.00000000000E+00  0.00000000000E+00  0.10432890148E+03  0.10432890148E+03  0.00000000000E+00 0. -1.
          2   -1    0    0  501    0  0.00000000000E+00 -0.00000000000E+00 -0.30269272624E+04  0.30269272624E+04  0.00000000000E+00 0.  1.
         23    2    1    2    0    0 -0.27184039021E+03  0.48666882736E+03 -0.15482436406E+04  0.16481531187E+04  0.92771691840E+02 0.  0.
         13    1    3    3    0    0 -0.36225426150E+02  0.14883226480E+03 -0.42951350788E+03  0.45601006348E+03  0.00000000000E+00 0. -1.
        -13    1    3    3    0    0 -0.23561496406E+03  0.33783656256E+03 -0.11187301327E+04  0.11921430552E+04  0.00000000000E+00 0.  1.
         22    1    1    2    0    0  0.27184039021E+03 -0.48666882736E+03 -0.13743547204E+04  0.14831030452E+04  0.00000000000E+00 0. -1.
<mgrwt>
<rscale>  0 0.11239146E+04</rscale>
<asrwt>0</asrwt>
<pdfrwt beam="1">  1        2 0.46568117E+00 0.11239146E+04</pdfrwt>
<pdfrwt beam="2">  1       -2 0.16050598E-01 0.11239146E+04</pdfrwt>
<totfact> 0.52913865E+01</totfact>
</mgrwt>
</event>
<event>
 6    1  0.1878398E-004  0.7743890E+03  0.7818608E-02  0.9597846E-01
          2   -1    0    0  501    0  0.00000000000E+00  0.00000000000E+00  0.30814910483E+04  0.30814910483E+04  0.00000000000E+00 0.  1.
         -2   -1    0    0    0  501 -0.00000000000E+00 -0.00000000000E+00 -0.48651635747E+02  0.48651635747E+02  0.00000000000E+00 0. -1.
         23    2    1    2    0    0  0.61508766399E+02  0.27729879179E+03  0.25673473496E+04  0.25848346894E+04  0.97056736897E+02 0.  0.
         11    1    3    3    0    0  0.86183569677E+02  0.22431760775E+03  0.21574275941E+04  0.21707694075E+04  0.00000000000E+00 0. -1.
        -11    1    3    3    0    0 -0.24674803278E+02  0.52981184034E+02  0.40991975549E+03  0.41406528196E+03  0.00000000000E+00 0.  1.
         22    1    1    2    0    0 -0.61508766399E+02 -0.27729879179E+03  0.46549206298E+03  0.54530799459E+03  0.00000000000E+00 0. -1.
<mgrwt>
<rscale>  0 0.77438900E+03</rscale>
<asrwt>0</asrwt>
<pdfrwt beam="1">  1        2 0.47407539E+00 0.77438900E+03</pdfrwt>
<pdfrwt beam="2">  1       -2 0.74848694E-02 0.77438900E+03</pdfrwt>
<totfact> 0.17860958E+02</totfact>
</mgrwt>
</event>
<event>
 6    1  0.1878398E-004  0.2765477E+04  0.7818608E-02  0.8314067E-01
         -2   -1    0    0    0  501 -0.00000000000E+00  0.00000000000E+00  0.66114912129E+03  0.66114912129E+03  0.00000000000E+00 0. -1.
          2   -1    0    0  501    0  0.00000000000E+00 -0.00000000000E+00 -0.28918821304E+04  0.28918821304E+04  0.00000000000E+00 0.  1.
         23    2    1    2    0    0  0.89581235280E+03  0.60591791343E+03 -0.22204992647E+04  0.24714948359E+04  0.89741015393E+02 0.  0.
         13    1    3    3    0    0  0.28073171469E+03  0.14818233022E+03 -0.70061019333E+03  0.76917029429E+03  0.00000000000E+00 0. -1.
        -13    1    3    3    0    0  0.61508063811E+03  0.45773558321E+03 -0.15198890714E+04  0.17023245416E+04  0.00000000000E+00 0.  1.
         22    1    1    2    0    0 -0.89581235280E+03 -0.60591791343E+03 -0.10233744400E+02  0.10815364158E+04  0.00000000000E+00 0. -1.
<mgrwt>
<rscale>  0 0.27654767E+04</rscale>
<asrwt>0</asrwt>
<pdfrwt beam="1">  1        2 0.44490494E+00 0.27654767E+04</pdfrwt>
<pdfrwt beam="2">  1       -2 0.10171525E+00 0.27654767E+04</pdfrwt>
<totfact> 0.14061989E+00</totfact>
</mgrwt>
</event>
<event>
 6    1  0.1878398E-004  0.1986857E+04  0.7818608E-02  0.8612790E-01
          1   -1    0    0  501    0  0.00000000000E+00  0.00000000000E+00  0.61951141009E+03  0.61951141009E+03  0.00000000000E+00 0.  1.
         -1   -1    0    0    0  501 -0.00000000000E+00 -0.00000000000E+00 -0.15930291936E+04  0.15930291936E+04  0.00000000000E+00 0. -1.
         23    2    1    2    0    0 -0.27487851574E+03  0.65276478705E+03  0.28453207731E+03  0.76881295696E+03  0.91949954545E+02 0.  0.
         13    1    3    3    0    0 -0.82666939762E+02  0.31304947547E+03  0.12199473781E+03  0.34600074144E+03  0.00000000000E+00 0. -1.
        -13    1    3    3    0    0 -0.19221157598E+03  0.33971531158E+03  0.16253733950E+03  0.42281221552E+03  0.00000000000E+00 0.  1.
         22    1    1    2    0    0  0.27487851574E+03 -0.65276478705E+03 -0.12580498608E+04  0.14437276467E+04  0.00000000000E+00 0.  1.
<mgrwt>
<rscale>  0 0.19868566E+04</rscale>
<asrwt>0</asrwt>
<pdfrwt beam="1">  1        1 0.95309448E-01 0.19868566E+04</pdfrwt>
<pdfrwt beam="2">  1       -1 0.24508141E+00 0.19868566E+04</pdfrwt>
<totfact> 0.22793550E+00</totfact>
</mgrwt>
</event>
<event>
 6    1  0.1878398E-004  0.5114592E+04  0.7818608E-02  0.7811069E-01
          2   -1    0    0  501    0  0.00000000000E+00  0.00000000000E+00  0.45781890481E+04  0.45781890481E+04  0.00000000000E+00 0.  1.
         -2   -1    0    0    0  501 -0.00000000000E+00 -0.00000000000E+00 -0.14284607810E+04  0.14284607810E+04  0.00000000000E+00 0. -1.
         23    2    1    2    0    0  0.13791416218E+04 -0.55762802442E+03  0.40170615591E+04  0.42846603791E+04  0.92468198327E+02 0.  0.
         13    1    3    3    0    0  0.52563660360E+03 -0.17943479310E+03  0.15930217789E+04  0.16870711521E+04  0.00000000000E+00 0. -1.
        -13    1    3    3    0    0  0.85350501823E+03 -0.37819323132E+03  0.24240397802E+04  0.25975892270E+04  0.00000000000E+00 0.  1.
         22    1    1    2    0    0 -0.13791416218E+04  0.55762802442E+03 -0.86733329200E+03  0.17219894501E+04  0.00000000000E+00 0. -1.
<mgrwt>
<rscale>  0 0.51145923E+04</rscale>
<asrwt>0</asrwt>
<pdfrwt beam="1">  1        2 0.70433677E+00 0.51145923E+04</pdfrwt>
<pdfrwt beam="2">  1       -2 0.21976320E+00 0.51145923E+04</pdfrwt>
<totfact> 0.72787599E-03</totfact>
</mgrwt>
</event>
<event>
 6    1  0.1878398E-004  0.2647690E+04  0.7818608E-02  0.8352180E-01
          1   -1    0    0  501    0  0.00000000000E+00  0.00000000000E+00  0.12604431705E+04  0.12604431705E+04  0.00000000000E+00 0. -1.
         -1   -1    0    0    0  501 -0.00000000000E+00 -0.00000000000E+00 -0.13904360627E+04  0.13904360627E+04  0.00000000000E+00 0.  1.
         23    2    1    2    0    0 -0.88014711599E+03  0.75942702422E+03 -0.69583363641E+03  0.13579894085E+04  0.92533416084E+02 0.  0.
         13    1    3    3    0    0 -0.27959016455E+03  0.19898901635E+03 -0.17340607571E+03  0.38449571628E+03  0.00000000000E+00 0.  1.
        -13    1    3    3    0    0 -0.60055695144E+03  0.56043800787E+03 -0.52242756070E+03  0.97349369221E+03  0.00000000000E+00 0. -1.
         22    1    1    2    0    0  0.88014711599E+03 -0.75942702422E+03  0.56584074421E+03  0.12928898247E+04  0.00000000000E+00 0. -1.
<mgrwt>
<rscale>  0 0.26476900E+04</rscale>
<asrwt>0</asrwt>
<pdfrwt beam="1">  1        1 0.19391433E+00 0.26476900E+04</pdfrwt>
<pdfrwt beam="2">  1       -1 0.21391324E+00 0.26476900E+04</pdfrwt>
<totfact> 0.10244725E+00</totfact>
</mgrwt>
</event>
<event>
 6    1  0.1878398E-004  0.1294141E+04  0.7818608E-02  0.9034224E-01
          2   -1    0    0  501    0  0.00000000000E+00  0.00000000000E+00  0.10683763959E+04  0.10683763959E+04  0.00000000000E+00 0. -1.
         -2   -1    0    0    0  501 -0.00000000000E+00 -0.00000000000E+00 -0.39190351320E+03  0.39190351320E+03  0.00000000000E+00 0.  1.
         23    2    1    2    0    0 -0.63727275107E+02 -0.31250941533E+03  0.97104723536E+03  0.10261170946E+04  0.90885963331E+02 0.  0.
         11    1    3    3    0    0 -0.85144821259E+02 -0.25201228818E+03  0.81779261506E+03  0.85996778732E+03  0.00000000000E+00 0.  1.
        -11    1    3    3    0    0  0.21417546152E+02 -0.60497127149E+02  0.15325462029E+03  0.16614930730E+03  0.00000000000E+00 0. -1.
         22    1    1    2    0    0  0.63727275107E+02  0.31250941533E+03 -0.29457435264E+03  0.43416281450E+03  0.00000000000E+00 0.  1.
<mgrwt>
<rscale>  0 0.12941414E+04</rscale>
<asrwt>0</asrwt>
<pdfrwt beam="1">  1        2 0.16436560E+00 0.12941414E+04</pdfrwt>
<pdfrwt beam="2">  1       -2 0.60292849E-01 0.12941414E+04</pdfrwt>
<totfact> 0.57300572E+01</totfact>
</mgrwt>
</event>
<event>
 6    1  0.1878398E-004  0.1007963E+04  0.7818608E-02  0.9299854E-01
          3   -1    0    0  501    0  0.00000000000E+00  0.00000000000E+00  0.36502469855E+03  0.36502469855E+03  0.00000000000E+00 0.  1.
         -3   -1    0    0    0  501 -0.00000000000E+00 -0.00000000000E+00 -0.69583562346E+03  0.69583562346E+03  0.00000000000E+00 0. -1.
         23    2    1    2    0    0 -0.16474848776E+02 -0.21612437777E+03 -0.64078523730E+03  0.68262066036E+03  0.91564612683E+02 0.  0.
         13    1    3    3    0    0  0.34288256766E+02 -0.12831924902E+03 -0.39493213604E+03  0.41666882088E+03  0.00000000000E+00 0.  1.
        -13    1    3    3    0    0 -0.50763105542E+02 -0.87805128745E+02 -0.24585310127E+03  0.26595183947E+03  0.00000000000E+00 0. -1.
         22    1    1    2    0    0  0.16474848776E+02  0.21612437777E+03  0.30997431239E+03  0.37823966166E+03  0.00000000000E+00 0.  1.
<mgrwt>
<rscale>  0 0.10079627E+04</rscale>
<asrwt>0</asrwt>
<pdfrwt beam="1">  1        3 0.56157647E-01 0.10079627E+04</pdfrwt>
<pdfrwt beam="2">  1       -3 0.10705163E+00 0.10079627E+04</pdfrwt>
<totfact> 0.60705876E+00</totfact>
</mgrwt>
</event>
<event>
 6    1  0.1878398E-004  0.1994711E+04  0.7818608E-02  0.8609098E-01
         -2   -1    0    0    0  501 -0.00000000000E+00  0.00000000000E+00  0.49488393792E+03  0.49488393792E+03  0.00000000000E+00 0. -1.
          2   -1    0    0  501    0  0.00000000000E+00 -0.00000000000E+00 -0.20100022416E+04  0.20100022416E+04  0.00000000000E+00 0.  1.
         23    2    1    2    0    0  0.66238787528E+03  0.49712638273E+03 -0.14523066908E+04  0.16743215303E+04  0.90914932532E+02 0.  0.
         13    1    3    3    0    0  0.58527619844E+03  0.41363910676E+03 -0.12974544057E+04  0.14822393444E+04  0.00000000000E+00 0.  1.
        -13    1    3    3    0    0  0.77111676839E+02  0.83487275974E+02 -0.15485228511E+03  0.19208218594E+03  0.00000000000E+00 0. -1.
         22    1    1    2    0    0 -0.66238787528E+03 -0.49712638273E+03 -0.62811612813E+02  0.83056464916E+03  0.00000000000E+00 0. -1.
<mgrwt>
<rscale>  0 0.19947108E+04</rscale>
<asrwt>0</asrwt>
<pdfrwt beam="1">  1        2 0.30923112E+00 0.19947108E+04</pdfrwt>
<pdfrwt beam="2">  1       -2 0.76135990E-01 0.19947108E+04</pdfrwt>
<totfact> 0.94671753E+00</totfact>
</mgrwt>
</event>
<event>
 6    1  0.2007264E-004  0.3568441E+04  0.7818608E-02  0.8097759E-01
          1   -1    0    0  501    0  0.00000000000E+00  0.00000000000E+00  0.20975050197E+04  0.20975050197E+04  0.00000000000E+00 0.  1.
         -1   -1    0    0    0  501 -0.00000000000E+00 -0.00000000000E+00 -0.15177280708E+04  0.15177280708E+04  0.00000000000E+00 0. -1.
         23    2    1    2    0    0 -0.88203733499E+03 -0.87333868513E+03 -0.10068147296E+04  0.16007893773E+04  0.90224229020E+02 0.  0.
         13    1    3    3    0    0 -0.47528588283E+03 -0.50011582202E+03 -0.50810561519E+03  0.85684527311E+03  0.00000000000E+00 0. -1.
        -13    1    3    3    0    0 -0.40675145216E+03 -0.37322286310E+03 -0.49870911444E+03  0.74394410422E+03  0.00000000000E+00 0.  1.
         22    1    1    2    0    0  0.88203733499E+03  0.87333868513E+03  0.15865916785E+04  0.20144437132E+04  0.00000000000E+00 0.  1.
<mgrwt>
<rscale>  0 0.35684407E+04</rscale>
<asrwt>0</asrwt>
<pdfrwt beam="1">  1        1 0.32269308E+00 0.35684407E+04</pdfrwt>
<pdfrwt beam="2">  1       -1 0.23349663E+00 0.35684407E+04</pdfrwt>
<totfact> 0.18573616E-01</totfact>
</mgrwt>
</event>
<event>
 6    1  0.1878398E-004  0.2868786E+04  0.7818608E-02  0.8282226E-01
         -2   -1    0    0    0  501 -0.00000000000E+00  0.00000000000E+00  0.12461956652E+04  0.12461956652E+04  0.00000000000E+00 0. -1.
          2   -1    0    0  501    0  0.00000000000E+00 -0.00000000000E+00 -0.16510108768E+04  0.16510108768E+04  0.00000000000E+00 0.  1.
         23    2    1    2    0    0  0.55647914356E+03 -0.23174048087E+03  0.11102242973E+04  0.12666491524E+04  0.91811748469E+02 0.  0.
         11    1    3    3    0    0  0.10866150719E+03 -0.84536988584E+02  0.27688768062E+03  0.30922582891E+03  0.00000000000E+00 0. -1.
        -11    1    3    3    0    0  0.44781763637E+03 -0.14720349228E+03  0.83333661668E+03  0.95742332344E+03  0.00000000000E+00 0.  1.
         22    1    1    2    0    0 -0.55647914356E+03  0.23174048087E+03 -0.15150395088E+04  0.16305573897E+04  0.00000000000E+00 0.  1.
<mgrwt>
<rscale>  0 0.28687855E+04</rscale>
<asrwt>0</asrwt>
<pdfrwt beam="1">  1        2 0.25400167E+00 0.28687855E+04</pdfrwt>
<pdfrwt beam="2">  1       -2 0.19172241E+00 0.28687855E+04</pdfrwt>
<totfact> 0.13640744E+00</totfact>
</mgrwt>
</event>
<event>
 6    1  0.1878398E-004  0.1227049E+04  0.7818608E-02  0.9089504E-01
         -2   -1    0    0    0  501 -0.00000000000E+00  0.00000000000E+00  0.30989020266E+03  0.30989020266E+03  0.00000000000E+00 0. -1.
          2   -1    0    0  501    0  0.00000000000E+00 -0.00000000000E+00 -0.12146637511E+04  0.12146637511E+04  0.00000000000E+00 0.  1.
         23    2    1    2    0    0 -0.32406812501E+03 -0.37252457018E+03 -0.89974686046E+03  0.10307726533E+04  0.95672069539E+02 0.  0.
         11    1    3    3    0    0 -0.89959379607E+02 -0.71079470611E+02 -0.28475222855E+03  0.30696712004E+03  0.00000000000E+00 0. -1.
        -11    1    3    3    0    0 -0.23410874540E+03 -0.30144509957E+03 -0.61499463191E+03  0.72380553328E+03  0.00000000000E+00 0.  1.
         22    1    1    2    0    0  0.32406812501E+03  0.37252457018E+03 -0.50266879360E+01  0.49378130040E+03  0.00000000000E+00 0. -1.
<mgrwt>
<rscale>  0 0.12270491E+04</rscale>
<asrwt>0</asrwt>
<pdfrwt beam="1">  1        2 0.18687135E+00 0.12270491E+04</pdfrwt>
<pdfrwt beam="2">  1       -2 0.47675415E-01 0.12270491E+04</pdfrwt>
<totfact> 0.76200129E+01</totfact>
</mgrwt>
</event>
<event>
 6    1  0.1878398E-004  0.1129780E+04  0.7818608E-02  0.9176643E-01
          2   -1    0    0  501    0  0.00000000000E+00  0.00000000000E+00  0.21740895044E+04  0.21740895044E+04  0.00000000000E+00 0.  1.
         -2   -1    0    0    0  501 -0.00000000000E+00 -0.00000000000E+00 -0.14677442581E+03  0.14677442581E+03  0.00000000000E+00 0. -1.
         23    2    1    2    0    0  0.38991630094E+03  0.39292646810E+03  0.83728552408E+03  0.10083867793E+04  0.96803495556E+02 0.  0.
         11    1    3    3    0    0  0.19795353102E+03  0.18529552188E+03  0.49506787886E+03  0.56445747010E+03  0.00000000000E+00 0. -1.
        -11    1    3    3    0    0  0.19196276992E+03  0.20763094622E+03  0.34221764522E+03  0.44392930920E+03  0.00000000000E+00 0.  1.
         22    1    1    2    0    0 -0.38991630094E+03 -0.39292646810E+03  0.11900295545E+04  0.13124771509E+04  0.00000000000E+00 0.  1.
<mgrwt>
<rscale>  0 0.11297800E+04</rscale>
<asrwt>0</asrwt>
<pdfrwt beam="1">  1        2 0.33447528E+00 0.11297800E+04</pdfrwt>
<pdfrwt beam="2">  1       -2 0.22580683E-01 0.11297800E+04</pdfrwt>
<totfact> 0.91544856E+01</totfact>
</mgrwt>
</event>
<event>
 6    1  0.2463799E-004  0.2230391E+04  0.7818608E-02  0.8505884E-01
          2   -1    0    0  501    0  0.00000000000E+00  0.00000000000E+00  0.21340463268E+04  0.21340463268E+04  0.00000000000E+00 0. -1.
         -2   -1    0    0    0  501 -0.00000000000E+00 -0.00000000000E+00 -0.58277115444E+03  0.58277115444E+03  0.00000000000E+00 0.  1.
         23    2    1    2    0    0 -0.91674157756E+03 -0.60982532637E+03  0.97816076388E+03  0.14755430660E+04  0.90148826639E+02 0.  0.
         11    1    3    3    0    0 -0.51507613776E+03 -0.36078724891E+03  0.50198003653E+03  0.80464577532E+03  0.00000000000E+00 0.  1.
        -11    1    3    3    0    0 -0.40166543980E+03 -0.24903807746E+03  0.47618072735E+03  0.67089729069E+03  0.00000000000E+00 0. -1.
         22    1    1    2    0    0  0.91674157756E+03  0.60982532637E+03  0.57311440851E+03  0.12412744153E+04  0.00000000000E+00 0. -1.
<mgrwt>
<rscale>  0 0.22303907E+04</rscale>
<asrwt>0</asrwt>
<pdfrwt beam="1">  1        2 0.32831481E+00 0.22303907E+04</pdfrwt>
<pdfrwt beam="2">  1       -2 0.89657102E-01 0.22303907E+04</pdfrwt>
<totfact> 0.54659767E+00</totfact>
</mgrwt>
</event>
<event>
 6    1  0.1878398E-004  0.1833981E+04  0.7818608E-02  0.8688434E-01
         -1   -1    0    0    0  501 -0.00000000000E+00  0.00000000000E+00  0.59544604725E+03  0.59544604725E+03  0.00000000000E+00 0. -1.
          1   -1    0    0  501    0  0.00000000000E+00 -0.00000000000E+00 -0.14121714260E+04  0.14121714260E+04  0.00000000000E+00 0.  1.
         23    2    1    2    0    0 -0.55647652668E+02  0.79696556928E+03 -0.89706977950E+03  0.12046816087E+04  0.90954984374E+02 0.  0.
         11    1    3    3    0    0 -0.48233737654E+02  0.72674957981E+03 -0.77410602061E+03  0.10628883179E+04  0.00000000000E+00 0. -1.
        -11    1    3    3    0    0 -0.74139150142E+01  0.70215989468E+02 -0.12296375889E+03  0.14179329079E+03  0.00000000000E+00 0.  1.
         22    1    1    2    0    0  0.55647652668E+02 -0.79696556928E+03  0.80344400738E+02  0.80293586456E+03  0.00000000000E+00 0. -1.
<mgrwt>
<rscale>  0 0.18339813E+04</rscale>
<asrwt>0</asrwt>
<pdfrwt beam="1">  1        1 0.21725714E+00 0.18339813E+04</pdfrwt>
<pdfrwt beam="2">  1       -1 0.91607085E-01 0.18339813E+04</pdfrwt>
<totfact> 0.82320702E+00</totfact>
</mgrwt>
</event>
<event>
 6    1  0.1878398E-004  0.6863583E+04  0.7818608E-02  0.7591670E-01
          2   -1    0    0  501    0  0.00000000000E+00  0.00000000000E+00  0.37867815115E+04  0.37867815115E+04  0.00000000000E+00 0.  1.
         -2   -1    0    0    0  501 -0.00000000000E+00 -0.00000000000E+00 -0.31100800655E+04  0.31100800655E+04  0.00000000000E+00 0. -1.
         23    2    1    2    0    0  0.18772084333E+04  0.13877415591E+04 -0.21884018246E+04  0.32011133594E+04  0.91027780007E+02 0.  0.
         11    1    3    3    0    0  0.52638599305E+03  0.36756479991E+03 -0.65274708683E+03  0.91556805055E+03  0.00000000000E+00 0.  1.
        -11    1    3    3    0    0  0.13508224402E+04  0.10201767592E+04 -0.15356547378E+04  0.22855453088E+04  0.00000000000E+00 0. -1.
         22    1    1    2    0    0 -0.18772084333E+04 -0.13877415591E+04  0.28651032706E+04  0.36957482176E+04  0.00000000000E+00 0.  1.
<mgrwt>
<rscale>  0 0.68635832E+04</rscale>
<asrwt>0</asrwt>
<pdfrwt beam="1">  1        2 0.58258177E+00 0.68635832E+04</pdfrwt>
<pdfrwt beam="2">  1       -2 0.47847385E+00 0.68635832E+04</pdfrwt>
<totfact> 0.71986129E-04</totfact>
</mgrwt>
</event>
<event>
 6    1  0.2187823E-004  0.3984992E+04  0.7818608E-02  0.8007581E-01
         -2   -1    0    0    0  501 -0.00000000000E+00  0.00000000000E+00  0.17361908423E+04  0.17361908423E+04  0.00000000000E+00 0.  1.
          2   -1    0    0  501    0  0.00000000000E+00 -0.00000000000E+00 -0.22866378351E+04  0.22866378351E+04  0.00000000000E+00 0. -1.
         23    2    1    2    0    0 -0.17609287988E+03  0.90989732010E+03 -0.20547791625E+04  0.22559282523E+04  0.90404852344E+02 0.  0.
         13    1    3    3    0    0 -0.20376367451E+02  0.22732085279E+03 -0.58414606686E+03  0.62714957857E+03  0.00000000000E+00 0. -1.
        -13    1    3    3    0    0 -0.15571651243E+03  0.68257646731E+03 -0.14706330956E+04  0.16287786737E+04  0.00000000000E+00 0.  1.
         22    1    1    2    0    0  0.17609287988E+03 -0.90989732010E+03  0.15043321697E+04  0.17669004251E+04  0.00000000000E+00 0.  1.
<mgrwt>
<rscale>  0 0.39849917E+04</rscale>
<asrwt>0</asrwt>
<pdfrwt beam="1">  1        2 0.35179044E+00 0.39849917E+04</pdfrwt>
<pdfrwt beam="2">  1       -2 0.26710628E+00 0.39849917E+04</pdfrwt>
<totfact> 0.18395883E-01</totfact>
</mgrwt>
</event>
<event>
 6    1  0.1878398E-004  0.7654957E+03  0.7818608E-02  0.9611349E-01
          1   -1    0    0  501    0  0.00000000000E+00  0.00000000000E+00  0.27450749083E+04  0.27450749083E+04  0.00000000000E+00 0.  1.
         -1   -1    0    0    0  501 -0.00000000000E+00 -0.00000000000E+00 -0.53366816528E+02  0.53366816528E+02  0.00000000000E+00 0. -1.
         23    2    1    2    0    0  0.23829576975E+03 -0.28958934761E+03  0.15036343256E+04  0.15525821268E+04  0.94594985114E+02 0.  0.
         13    1    3    3    0    0  0.89374232206E+02 -0.17474890925E+03  0.68066774923E+03  0.70840208886E+03  0.00000000000E+00 0. -1.
        -13    1    3    3    0    0  0.14892153754E+03 -0.11484043836E+03  0.82296657639E+03  0.84418003796E+03  0.00000000000E+00 0.  1.
         22    1    1    2    0    0 -0.23829576975E+03  0.28958934761E+03  0.11880737662E+04  0.12458595980E+04  0.00000000000E+00 0. -1.
<mgrwt>
<rscale>  0 0.76549568E+03</rscale>
<asrwt>0</asrwt>
<pdfrwt beam="1">  1        1 0.42231911E+00 0.76549568E+03</pdfrwt>
<pdfrwt beam="2">  1       -1 0.82102816E-02 0.76549568E+03</pdfrwt>
<totfact> 0.82265967E+01</totfact>
</mgrwt>
</event>
<event>
 6    1  0.1878398E-004  0.3028581E+04  0.7818608E-02  0.8235616E-01
          1   -1    0    0  501    0  0.00000000000E+00  0.00000000000E+00  0.10590029104E+04  0.10590029104E+04  0.00000000000E+00 0.  1.
         -1   -1    0    0    0  501 -0.00000000000E+00 -0.00000000000E+00 -0.21653152602E+04  0.21653152602E+04  0.00000000000E+00 0. -1.
         23    2    1    2    0    0 -0.39371386950E+02  0.15034492644E+04 -0.37855991293E+03  0.15535299117E+04  0.90762228584E+02 0.  0.
         13    1    3    3    0    0 -0.10894500983E+02  0.48506433700E+03 -0.78648943671E+02  0.49151984448E+03  0.00000000000E+00 0.  1.
        -13    1    3    3    0    0 -0.28476885967E+02  0.10183849274E+04 -0.29991096926E+03  0.10620100672E+04  0.00000000000E+00 0. -1.
         22    1    1    2    0    0  0.39371386950E+02 -0.15034492644E+04 -0.72775243683E+03  0.16707882589E+04  0.00000000000E+00 0. -1.
<mgrwt>
<rscale>  0 0.30285806E+04</rscale>
<asrwt>0</asrwt>
<pdfrwt beam="1">  1        1 0.16292353E+00 0.30285806E+04</pdfrwt>
<pdfrwt beam="2">  1       -1 0.33312542E+00 0.30285806E+04</pdfrwt>
<totfact> 0.23215600E-01</totfact>
</mgrwt>
</event>
<event>
 6    1  0.1878398E-004  0.2657728E+04  0.7818608E-02  0.8348852E-01
          2   -1    0    0  501    0  0.00000000000E+00  0.00000000000E+00  0.13786228267E+04  0.13786228267E+04  0.00000000000E+00 0.  1.
         -2   -1    0    0    0  501 -0.00000000000E+00 -0.00000000000E+00 -0.12809012614E+04  0.12809012614E+04  0.00000000000E+00 0. -1.
         23    2    1    2    0    0  0.11446824842E+04  0.93447482105E+02 -0.61692308923E+03  0.13068425278E+04  0.90624901920E+02 0.  0.
         13    1    3    3    0    0  0.71320866534E+03  0.43816871663E+02 -0.43040567270E+03  0.83416758607E+03  0.00000000000E+00 0.  1.
        -13    1    3    3    0    0  0.43147381883E+03  0.49630610442E+02 -0.18651741654E+03  0.47267494168E+03  0.00000000000E+00 0. -1.
         22    1    1    2    0    0 -0.11446824842E+04 -0.93447482105E+02  0.71464465458E+03  0.13526815604E+04  0.00000000000E+00 0.  1.
<mgrwt>
<rscale>  0 0.26577281E+04</rscale>
<asrwt>0</asrwt>
<pdfrwt beam="1">  1        2 0.21209582E+00 0.26577281E+04</pdfrwt>
<pdfrwt beam="2">  1       -2 0.19706173E+00 0.26577281E+04</pdfrwt>
<totfact> 0.18225555E+00</totfact>
</mgrwt>
</event>
<event>
 6    1  0.1878398E-004  0.2470540E+04  0.7818608E-02  0.8413557E-01
         -1   -1    0    0    0  501 -0.00000000000E+00  0.00000000000E+00  0.64713532258E+03  0.64713532258E+03  0.00000000000E+00 0. -1.
          1   -1    0    0  501    0  0.00000000000E+00 -0.00000000000E+00 -0.23579178371E+04  0.23579178371E+04  0.00000000000E+00 0.  1.
         23    2    1    2    0    0 -0.38627832279E+03 -0.96297767292E+03 -0.45013361310E+02  0.10425741629E+04  0.91639190041E+02 0.  0.
         13    1    3    3    0    0 -0.20231255676E+03 -0.40900327413E+03  0.86876571443E+01  0.45638747163E+03  0.00000000000E+00 0. -1.
        -13    1    3    3    0    0 -0.18396576602E+03 -0.55397439879E+03 -0.53701018455E+02  0.58618669122E+03  0.00000000000E+00 0.  1.
         22    1    1    2    0    0  0.38627832279E+03  0.96297767292E+03 -0.16657691532E+04  0.19624789969E+04  0.00000000000E+00 0.  1.
<mgrwt>
<rscale>  0 0.24705400E+04</rscale>
<asrwt>0</asrwt>
<pdfrwt beam="1">  1        1 0.36275659E+00 0.24705400E+04</pdfrwt>
<pdfrwt beam="2">  1       -1 0.99559281E-01 0.24705400E+04</pdfrwt>
<totfact> 0.14559542E+00</totfact>
</mgrwt>
</event>
<event>
 6    1  0.1878398E-004  0.5521190E+03  0.7818608E-02  0.1001005E+00
          2   -1    0    0  501    0  0.00000000000E+00  0.00000000000E+00  0.66868745739E+03  0.66868745739E+03  0.00000000000E+00 0.  1.
         -2   -1    0    0    0  501 -0.00000000000E+00 -0.00000000000E+00 -0.11396782051E+03  0.11396782051E+03  0.00000000000E+00 0. -1.
         23    2    1    2    0    0 -0.14437804752E+03  0.12865682096E+03  0.54887891908E+03  0.58918250935E+03  0.92034576804E+02 0.  0.
         11    1    3    3    0    0 -0.24025014976E+02  0.57084051590E+02  0.27136092853E+03  0.27833890103E+03  0.00000000000E+00 0. -1.
        -11    1    3    3    0    0 -0.12035303254E+03  0.71572769371E+02  0.27751799055E+03  0.31084360833E+03  0.00000000000E+00 0.  1.
         22    1    1    2    0    0  0.14437804752E+03 -0.12865682096E+03  0.58407177945E+01  0.19347276855E+03  0.00000000000E+00 0. -1.
<mgrwt>
<rscale>  0 0.55211902E+03</rscale>
<asrwt>0</asrwt>
<pdfrwt beam="1">  1        2 0.10287499E+00 0.55211902E+03</pdfrwt>
<pdfrwt beam="2">  1       -2 0.17533511E-01 0.55211902E+03</pdfrwt>
<totfact> 0.11682486E+03</totfact>
</mgrwt>
</event>
<event>
 6    1  0.1878398E-004  0.3637026E+03  0.7818608E-02  0.1057127E+00
         -1   -1    0    0    0  501 -0.00000000000E+00  0.00000000000E+00  0.21510814239E+02  0.21510814239E+02  0.00000000000E+00 0. -1.
          1   -1    0    0  501    0  0.00000000000E+00 -0.00000000000E+00 -0.15373612457E+04  0.15373612457E+04  0.00000000000E+00 0.  1.
         23    2    1    2    0    0  0.12096992649E+03  0.11040470285E+03 -0.10116955642E+04  0.10287823961E+04  0.89679330799E+02 0.  0.
         13    1    3    3    0    0  0.94692641381E+02  0.41553761504E+02 -0.74308941152E+03  0.75025014824E+03  0.00000000000E+00 0.  1.
        -13    1    3    3    0    0  0.26277285112E+02  0.68850941346E+02 -0.26860615267E+03  0.27853224784E+03  0.00000000000E+00 0. -1.
         22    1    1    2    0    0 -0.12096992649E+03 -0.11040470285E+03 -0.50415486725E+03  0.53008966383E+03  0.00000000000E+00 0.  1.
<mgrwt>
<rscale>  0 0.36370258E+03</rscale>
<asrwt>0</asrwt>
<pdfrwt beam="1">  1        1 0.23651716E+00 0.36370258E+03</pdfrwt>
<pdfrwt beam="2">  1       -1 0.33093553E-02 0.36370258E+03</pdfrwt>
<totfact> 0.22023467E+03</totfact>
</mgrwt>
</event>
<event>
 6    1  0.1878398E-004  0.1757527E+04  0.7818608E-02  0.8729218E-01
         -1   -1    0    0    0  501 -0.00000000000E+00  0.00000000000E+00  0.12495777030E+04  0.12495777030E+04  0.00000000000E+00 0.  1.
          1   -1    0    0  501    0  0.00000000000E+00 -0.00000000000E+00 -0.61798879137E+03  0.61798879137E+03  0.00000000000E+00 0. -1.
         23    2    1    2    0    0  0.20563917805E+03 -0.82896282612E+03  0.52863719072E+03  0.10072956676E+04  0.75633615874E+02 0.  0.
         13    1    3    3    0    0  0.47219429648E+02 -0.18400387116E+03  0.15568884657E+03  0.24561375386E+03  0.00000000000E+00 0.  1.
        -13    1    3    3    0    0  0.15841974840E+03 -0.64495895497E+03  0.37294834415E+03  0.76168191372E+03  0.00000000000E+00 0. -1.
         22    1    1    2    0    0 -0.20563917805E+03  0.82896282612E+03  0.10295172094E+03  0.86027082683E+03  0.00000000000E+00 0.  1.
<mgrwt>
<rscale>  0 0.17575267E+04</rscale>
<asrwt>0</asrwt>
<pdfrwt beam="1">  1        1 0.95075199E-01 0.17575267E+04</pdfrwt>
<pdfrwt beam="2">  1       -1 0.19224272E+00 0.17575267E+04</pdfrwt>
<totfact> 0.52938442E+00</totfact>
</mgrwt>
</event>
<event>
 6    1  0.1878398E-004  0.3075996E+04  0.7818608E-02  0.8222357E-01
          2   -1    0    0  501    0  0.00000000000E+00  0.00000000000E+00  0.10349371239E+04  0.10349371239E+04  0.00000000000E+00 0.  1.
         -2   -1    0    0    0  501 -0.00000000000E+00 -0.00000000000E+00 -0.22855864087E+04  0.22855864087E+04  0.00000000000E+00 0. -1.
         23    2    1    2    0    0 -0.14760073923E+04  0.28114112649E+03 -0.97328660188E+03  0.17925941451E+04  0.92026107817E+02 0.  0.
         13    1    3    3    0    0 -0.13522163610E+04  0.25841940364E+03 -0.85977826588E+03  0.16231106991E+04  0.00000000000E+00 0.  1.
        -13    1    3    3    0    0 -0.12379103134E+03  0.22721722847E+02 -0.11350833599E+03  0.16948344600E+03  0.00000000000E+00 0. -1.
         22    1    1    2    0    0  0.14760073923E+04 -0.28114112649E+03 -0.27736268285E+03  0.15279293875E+04  0.00000000000E+00 0. -1.
<mgrwt>
<rscale>  0 0.30759962E+04</rscale>
<asrwt>0</asrwt>
<pdfrwt beam="1">  1        2 0.15922110E+00 0.30759962E+04</pdfrwt>
<pdfrwt beam="2">  1       -2 0.35162868E+00 0.30759962E+04</pdfrwt>
<totfact> 0.30916972E-01</totfact>
</mgrwt>
</event>
<event>
 6    1  0.1878398E-004  0.5743247E+04  0.7818608E-02  0.7723077E-01
         -1   -1    0    0    0  501 -0.00000000000E+00  0.00000000000E+00  0.25690244854E+04  0.25690244854E+04  0.00000000000E+00 0. -1.
          1   -1    0    0  501    0  0.00000000000E+00 -0.00000000000E+00 -0.32098649254E+04  0.32098649254E+04  0.00000000000E+00 0.  1.
         23    2    1    2    0    0  0.29800987680E+03  0.23926841708E+04  0.12474400811E+04  0.27163168395E+04  0.92320033112E+02 0.  0.
         13    1    3    3    0    0  0.17057239196E+03  0.17045989809E+04  0.87860845471E+03  0.19252806142E+04  0.00000000000E+00 0. -1.
        -13    1    3    3    0    0  0.12743748484E+03  0.68808518992E+03  0.36883162635E+03  0.79103622529E+03  0.00000000000E+00 0.  1.
         22    1    1    2    0    0 -0.29800987680E+03 -0.23926841708E+04 -0.18882805211E+04  0.30625725713E+04  0.00000000000E+00 0.  1.
<mgrwt>
<rscale>  0 0.57432470E+04</rscale>
<asrwt>0</asrwt>
<pdfrwt beam="1">  1        1 0.49382537E+00 0.57432470E+04</pdfrwt>
<pdfrwt beam="2">  1       -1 0.39523454E+00 0.57432470E+04</pdfrwt>
<totfact> 0.21955600E-03</totfact>
</mgrwt>
</event>
<event>
 6    1  0.1878398E-004  0.6052023E+03  0.7818608E-02  0.9894671E-01
         -1   -1    0    0    0  501 -0.00000000000E+00  0.00000000000E+00  0.16138176191E+03  0.16138176191E+03  0.00000000000E+00 0.  1.
          1   -1    0    0  501    0  0.00000000000E+00 -0.00000000000E+00 -0.56739654648E+03  0.56739654648E+03  0.00000000000E+00 0. -1.
         23    2    1    2    0    0 -0.26443416725E+03  0.11256294038E+03 -0.29091875644E+03  0.41919319885E+03  0.92159485454E+02 0.  0.
         13    1    3    3    0    0 -0.22613477122E+03  0.81586290178E+02 -0.27943237864E+03  0.36861322783E+03  0.00000000000E+00 0. -1.
        -13    1    3    3    0    0 -0.38299396024E+02  0.30976650197E+02 -0.11486377804E+02  0.50579971019E+02  0.00000000000E+00 0.  1.
         22    1    1    2    0    0  0.26443416725E+03 -0.11256294038E+03 -0.11509602813E+03  0.30958510954E+03  0.00000000000E+00 0. -1.
<mgrwt>
<rscale>  0 0.60520229E+03</rscale>
<asrwt>0</asrwt>
<pdfrwt beam="1">  1        1 0.87291776E-01 0.60520229E+03</pdfrwt>
<pdfrwt beam="2">  1       -1 0.24827963E-01 0.60520229E+03</pdfrwt>
<totfact> 0.53124000E+02</totfact>
</mgrwt>
</event>
<event>
 6    1  0.1878398E-004  0.5414895E+03  0.7818608E-02  0.1003483E+00
         -2   -1    0    0    0  501 -0.00000000000E+00  0.00000000000E+00  0.30951725422E+02  0.30951725422E+02  0.00000000000E+00 0. -1.
          2   -1    0    0  501    0  0.00000000000E+00 -0.00000000000E+00 -0.23682919619E+04  0.23682919619E+04  0.00000000000E+00 0.  1.
         23    2    1    2    0    0 -0.86492880551E+02  0.49669609182E+02 -0.22804157606E+04  0.22844025605E+04  0.90834622331E+02 0.  0.
         13    1    3    3    0    0  0.11071509311E+02 -0.12702368224E+02 -0.45928128737E+03  0.45959028428E+03  0.00000000000E+00 0. -1.
        -13    1    3    3    0    0 -0.97564389862E+02  0.62371977406E+02 -0.18211344732E+04  0.18248122762E+04  0.00000000000E+00 0.  1.
         22    1    1    2    0    0  0.86492880551E+02 -0.49669609182E+02 -0.56924475868E+02  0.11484112685E+03  0.00000000000E+00 0. -1.
<mgrwt>
<rscale>  0 0.54148951E+03</rscale>
<asrwt>0</asrwt>
<pdfrwt beam="1">  1        2 0.36435268E+00 0.54148951E+03</pdfrwt>
<pdfrwt beam="2">  1       -2 0.47618030E-02 0.54148951E+03</pdfrwt>
<totfact> 0.96929670E+02</totfact>
</mgrwt>
</event>
<event>
 6    1  0.1878398E-004  0.3579624E+04  0.7818608E-02  0.8095175E-01
          2   -1    0    0  501    0  0.00000000000E+00  0.00000000000E+00  0.39394273096E+04  0.39394273096E+04  0.00000000000E+00 0. -1.
         -2   -1    0    0    0  501 -0.00000000000E+00 -0.00000000000E+00 -0.81317093963E+03  0.81317093963E+03  0.00000000000E+00 0.  1.
         23    2    1    2    0    0 -0.17251673531E+04 -0.46824649271E+03  0.16452260864E+04  0.24311961136E+04  0.92133021269E+02 0.  0.
         13    1    3    3    0    0 -0.90608847518E+03 -0.20632536584E+03  0.88930803933E+03  0.12862485259E+04  0.00000000000E+00 0. -1.
        -13    1    3    3    0    0 -0.81907887792E+03 -0.26192112688E+03  0.75591804704E+03  0.11449475878E+04  0.00000000000E+00 0.  1.
         22    1    1    2    0    0  0.17251673531E+04  0.46824649271E+03  0.14810302836E+04  0.23214021356E+04  0.00000000000E+00 0.  1.
<mgrwt>
<rscale>  0 0.35796245E+04</rscale>
<asrwt>0</asrwt>
<pdfrwt beam="1">  1        2 0.60606573E+00 0.35796245E+04</pdfrwt>
<pdfrwt beam="2">  1       -2 0.12510322E+00 0.35796245E+04</pdfrwt>
<totfact> 0.14906450E-01</totfact>
</mgrwt>
</event>
<event>
 6    1  0.1878398E-004  0.2350907E+04  0.7818608E-02  0.8458115E-01
          2   -1    0    0  501    0  0.00000000000E+00  0.00000000000E+00  0.37868553417E+04  0.37868553417E+04  0.00000000000E+00 0.  1.
         -2   -1    0    0    0  501 -0.00000000000E+00 -0.00000000000E+00 -0.36486496293E+03  0.36486496293E+03  0.00000000000E+00 0. -1.
         23    2    1    2    0    0  0.57174774952E+02  0.11605876380E+04  0.14219758948E+04  0.18386507949E+04  0.91589737025E+02 0.  0.
         13    1    3    3    0    0  0.79050410212E+02  0.76937442381E+03  0.96496923687E+03  0.12366695595E+04  0.00000000000E+00 0. -1.
        -13    1    3    3    0    0 -0.21875635260E+02  0.39121321424E+03  0.45700665789E+03  0.60198123539E+03  0.00000000000E+00 0.  1.
         22    1    1    2    0    0 -0.57174774952E+02 -0.11605876380E+04  0.20000144840E+04  0.23130695097E+04  0.00000000000E+00 0. -1.
<mgrwt>
<rscale>  0 0.23509069E+04</rscale>
<asrwt>0</asrwt>
<pdfrwt beam="1">  1        2 0.58259310E+00 0.23509069E+04</pdfrwt>
<pdfrwt beam="2">  1       -2 0.56133074E-01 0.23509069E+04</pdfrwt>
<totfact> 0.13570300E+00</totfact>
</mgrwt>
</event>
<event>
 6    1  0.1878398E-004  0.2332024E+04  0.7818608E-02  0.8465400E-01
         -2   -1    0    0    0  501 -0.00000000000E+00  0.00000000000E+00  0.12029854098E+04  0.12029854098E+04  0.00000000000E+00 0. -1.
          2   -1    0    0  501    0  0.00000000000E+00 -0.00000000000E+00 -0.11301750078E+04  0.11301750078E+04  0.00000000000E+00 0.  1.
         23    2    1    2    0    0  0.10033311279E+04  0.51215329938E+03 -0.25785290008E+03  0.11591448412E+04  0.90301109901E+02 0.  0.
         11    1    3    3    0    0  0.32026476043E+03  0.13427423053E+03 -0.11300107964E+03  0.36519628935E+03  0.00000000000E+00 0.  1.
        -11    1    3    3    0    0  0.68306636748E+03  0.37787906886E+03 -0.14485182044E+03  0.79394855183E+03  0.00000000000E+00 0. -1.
         22    1    1    2    0    0 -0.10033311279E+04 -0.51215329938E+03  0.33066330215E+03  0.11740155764E+04  0.00000000000E+00 0. -1.
<mgrwt>
<rscale>  0 0.23320241E+04</rscale>
<asrwt>0</asrwt>
<pdfrwt beam="1">  1        2 0.17387308E+00 0.23320241E+04</pdfrwt>
<pdfrwt beam="2">  1       -2 0.18507468E+00 0.23320241E+04</pdfrwt>
<totfact> 0.31588475E+00</totfact>
</mgrwt>
</event>
<event>
 6    1  0.1878398E-004  0.5514091E+04  0.7818608E-02  0.7753753E-01
         -1   -1    0    0    0  501 -0.00000000000E+00  0.00000000000E+00  0.20779052730E+04  0.20779052730E+04  0.00000000000E+00 0. -1.
          1   -1    0    0  501    0  0.00000000000E+00 -0.00000000000E+00 -0.36581551665E+04  0.36581551665E+04  0.00000000000E+00 0.  1.
         23    2    1    2    0    0  0.47341920440E+03  0.10060046883E+04 -0.34139569705E+04  0.35916134664E+04  0.91727421873E+02 0.  0.
         13    1    3    3    0    0  0.41108310274E+03  0.81607898561E+03 -0.27158754456E+04  0.28654761670E+04  0.00000000000E+00 0. -1.
        -13    1    3    3    0    0  0.62336101664E+02  0.18992570271E+03 -0.69808152492E+03  0.72613729938E+03  0.00000000000E+00 0.  1.
         22    1    1    2    0    0 -0.47341920440E+03 -0.10060046883E+04  0.18337070770E+04  0.21444469730E+04  0.00000000000E+00 0. -1.
<mgrwt>
<rscale>  0 0.55140910E+04</rscale>
<asrwt>0</asrwt>
<pdfrwt beam="1">  1        1 0.56279310E+00 0.55140910E+04</pdfrwt>
<pdfrwt beam="2">  1       -1 0.31967773E+00 0.55140910E+04</pdfrwt>
<totfact> 0.31779377E-03</totfact>
</mgrwt>
</event>
<event>
 6    1  0.1878398E-004  0.2779590E+04  0.7818608E-02  0.8309633E-01
         -2   -1    0    0    0  501 -0.00000000000E+00  0.00000000000E+00  0.67900123530E+03  0.67900123530E+03  0.00000000000E+00 0. -1.
          2   -1    0    0  501    0  0.00000000000E+00 -0.00000000000E+00 -0.28446632854E+04  0.28446632854E+04  0.00000000000E+00 0.  1.
         23    2    1    2    0    0 -0.47886043227E+03 -0.76487240546E+02  0.56509226314E+03  0.75018714909E+03  0.91070748482E+02 0.  0.
         13    1    3    3    0    0 -0.26791581093E+03 -0.75960408844E+02  0.27376583754E+03  0.39050812957E+03  0.00000000000E+00 0. -1.
        -13    1    3    3    0    0 -0.21094462134E+03 -0.52683170240E+00  0.29132642560E+03  0.35967901952E+03  0.00000000000E+00 0.  1.
         22    1    1    2    0    0  0.47886043227E+03  0.76487240546E+02 -0.27307543133E+04  0.27734773716E+04  0.00000000000E+00 0.  1.
<mgrwt>
<rscale>  0 0.27795898E+04</rscale>
<asrwt>0</asrwt>
<pdfrwt beam="1">  1        2 0.43764050E+00 0.27795898E+04</pdfrwt>
<pdfrwt beam="2">  1       -2 0.10446173E+00 0.27795898E+04</pdfrwt>
<totfact> 0.14085488E+00</totfact>
</mgrwt>
</event>
<event>
 6    1  0.1878398E-004  0.2371982E+04  0.7818608E-02  0.8450068E-01
          2   -1    0    0  501    0  0.00000000000E+00  0.00000000000E+00  0.13464205185E+04  0.13464205185E+04  0.00000000000E+00 0.  1.
         -2   -1    0    0    0  501 -0.00000000000E+00 -0.00000000000E+00 -0.10446767246E+04  0.10446767246E+04  0.00000000000E+00 0. -1.
         23    2    1    2    0    0  0.21259196897E+03 -0.72831134920E+03  0.10676609809E+04  0.13130147306E+04  0.92059469862E+02 0.  0.
         13    1    3    3    0    0  0.16089304296E+03 -0.45374297989E+03  0.73441835344E+03  0.87814553517E+03  0.00000000000E+00 0. -1.
        -13    1    3    3    0    0  0.51698926012E+02 -0.27456836930E+03  0.33324262745E+03  0.43486919542E+03  0.00000000000E+00 0.  1.
         22    1    1    2    0    0 -0.21259196897E+03  0.72831134920E+03 -0.76591718698E+03  0.10780825126E+04  0.00000000000E+00 0. -1.
<mgrwt>
<rscale>  0 0.23719816E+04</rscale>
<asrwt>0</asrwt>
<pdfrwt beam="1">  1        2 0.20714162E+00 0.23719816E+04</pdfrwt>
<pdfrwt beam="2">  1       -2 0.16071950E+00 0.23719816E+04</pdfrwt>
<totfact> 0.34846060E+00</totfact>
</mgrwt>
</event>
<event>
 6    1  0.1878398E-004  0.3843557E+04  0.7818608E-02  0.8036872E-01
         -2   -1    0    0    0  501 -0.00000000000E+00  0.00000000000E+00  0.15481160066E+04  0.15481160066E+04  0.00000000000E+00 0. -1.
          2   -1    0    0  501    0  0.00000000000E+00 -0.00000000000E+00 -0.23856304910E+04  0.23856304910E+04  0.00000000000E+00 0.  1.
         23    2    1    2    0    0  0.31308629109E+02  0.18097952565E+04 -0.10765219961E+04  0.21079689396E+04  0.91073274543E+02 0.  0.
         11    1    3    3    0    0  0.34256468617E+02  0.98791348797E+03 -0.63650839259E+03  0.11757080842E+04  0.00000000000E+00 0. -1.
        -11    1    3    3    0    0 -0.29478395086E+01  0.82188176856E+03 -0.44001360350E+03  0.93226085540E+03  0.00000000000E+00 0.  1.
         22    1    1    2    0    0 -0.31308629109E+02 -0.18097952565E+04  0.23900751175E+03  0.18257775581E+04  0.00000000000E+00 0. -1.
<mgrwt>
<rscale>  0 0.38435571E+04</rscale>
<asrwt>0</asrwt>
<pdfrwt beam="1">  1        2 0.36702008E+00 0.38435571E+04</pdfrwt>
<pdfrwt beam="2">  1       -2 0.23817169E+00 0.38435571E+04</pdfrwt>
<totfact> 0.24613688E-01</totfact>
</mgrwt>
</event>
<event>
 6    1  0.1878398E-004  0.3928247E+04  0.7818608E-02  0.8019180E-01
          2   -1    0    0  501    0  0.00000000000E+00  0.00000000000E+00  0.39695704480E+04  0.39695704480E+04  0.00000000000E+00 0.  1.
         -2   -1    0    0    0  501 -0.00000000000E+00 -0.00000000000E+00 -0.97183840986E+03  0.97183840986E+03  0.00000000000E+00 0. -1.
         23    2    1    2    0    0  0.13649017475E+04  0.82776993224E+02 -0.27208287646E+03  0.13971884377E+04  0.91091316310E+02 0.  0.
         11    1    3    3    0    0  0.45275614619E+03  0.23373823500E+02 -0.13394072036E+03  0.47273098070E+03  0.00000000000E+00 0. -1.
        -11    1    3    3    0    0  0.91214560130E+03  0.59403169724E+02 -0.13814215609E+03  0.92445745702E+03  0.00000000000E+00 0.  1.
         22    1    1    2    0    0 -0.13649017475E+04 -0.82776993224E+02  0.32698149146E+04  0.35442204202E+04  0.00000000000E+00 0.  1.
<mgrwt>
<rscale>  0 0.39282470E+04</rscale>
<asrwt>0</asrwt>
<pdfrwt beam="1">  1        2 0.61070314E+00 0.39282470E+04</pdfrwt>
<pdfrwt beam="2">  1       -2 0.14951360E+00 0.39282470E+04</pdfrwt>
<totfact> 0.86506402E-02</totfact>
</mgrwt>
</event>
<event>
 6    1  0.1878398E-004  0.2910722E+04  0.7818608E-02  0.8269695E-01
          1   -1    0    0  501    0  0.00000000000E+00  0.00000000000E+00  0.27993459724E+04  0.27993459724E+04  0.00000000000E+00 0.  1.
         -1   -1    0    0    0  501 -0.00000000000E+00 -0.00000000000E+00 -0.75663232282E+03  0.75663232282E+03  0.00000000000E+00 0. -1.
         23    2    1    2    0    0  0.54097410433E+03  0.13356338733E+04  0.12592337797E+04  0.19157308957E+04  0.88228837018E+02 0.  0.
         11    1    3    3    0    0  0.34560202659E+03  0.80060043036E+03  0.81217891803E+03  0.11916528038E+04  0.00000000000E+00 0.  1.
        -11    1    3    3    0    0  0.19537207774E+03  0.53503344296E+03  0.44705486166E+03  0.72407809191E+03  0.00000000000E+00 0. -1.
         22    1    1    2    0    0 -0.54097410433E+03 -0.13356338733E+04  0.78347986986E+03  0.16402473995E+04  0.00000000000E+00 0. -1.
<mgrwt>
<rscale>  0 0.29107220E+04</rscale>
<asrwt>0</asrwt>
<pdfrwt beam="1">  1        1 0.43066861E+00 0.29107220E+04</pdfrwt>
<pdfrwt beam="2">  1       -1 0.11640497E+00 0.29107220E+04</pdfrwt>
<totfact> 0.47665643E-01</totfact>
</mgrwt>
</event>
<event>
 6    1  0.1878398E-004  0.1466732E+04  0.7818608E-02  0.8906882E-01
         -2   -1    0    0    0  501 -0.00000000000E+00  0.00000000000E+00  0.48102310135E+03  0.48102310135E+03  0.00000000000E+00 0. -1.
          2   -1    0    0  501    0  0.00000000000E+00 -0.00000000000E+00 -0.11180873261E+04  0.11180873261E+04  0.00000000000E+00 0.  1.
         23    2    1    2    0    0  0.20125587838E+03 -0.19499434034E+03 -0.10553396855E+04  0.10956413793E+04  0.90340793971E+02 0.  0.
         13    1    3    3    0    0  0.20659247687E+03 -0.19932710380E+03 -0.10194178566E+04  0.10590677562E+04  0.00000000000E+00 0. -1.
        -13    1    3    3    0    0 -0.53365984860E+01  0.43327634614E+01 -0.35921828839E+02  0.36573623142E+02  0.00000000000E+00 0.  1.
         22    1    1    2    0    0 -0.20125587838E+03  0.19499434034E+03  0.41827546073E+03  0.50346904810E+03  0.00000000000E+00 0. -1.
<mgrwt>
<rscale>  0 0.14667322E+04</rscale>
<asrwt>0</asrwt>
<pdfrwt beam="1">  1        2 0.17201343E+00 0.14667322E+04</pdfrwt>
<pdfrwt beam="2">  1       -2 0.74003555E-01 0.14667322E+04</pdfrwt>
<totfact> 0.33835551E+01</totfact>
</mgrwt>
</event>
<event>
 6    1  0.1878398E-004  0.3613047E+04  0.7818608E-02  0.8087510E-01
          1   -1    0    0  501    0  0.00000000000E+00  0.00000000000E+00  0.25896484555E+04  0.25896484555E+04  0.00000000000E+00 0. -1.
         -1   -1    0    0    0  501 -0.00000000000E+00 -0.00000000000E+00 -0.12602203085E+04  0.12602203085E+04  0.00000000000E+00 0.  1.
         23    2    1    2    0    0 -0.94658996130E+03 -0.50756449274E+03 -0.88108966292E+03  0.13922188180E+04  0.91104193021E+02 0.  0.
         13    1    3    3    0    0 -0.32899111576E+03 -0.22542728004E+03 -0.33665520216E+03  0.52190931968E+03  0.00000000000E+00 0.  1.
        -13    1    3    3    0    0 -0.61759884555E+03 -0.28213721270E+03 -0.54443446077E+03  0.87030949833E+03  0.00000000000E+00 0. -1.
         22    1    1    2    0    0  0.94658996130E+03  0.50756449274E+03  0.22105178099E+04  0.24576499460E+04  0.00000000000E+00 0. -1.
<mgrwt>
<rscale>  0 0.36130472E+04</rscale>
<asrwt>0</asrwt>
<pdfrwt beam="1">  1        1 0.39840745E+00 0.36130472E+04</pdfrwt>
<pdfrwt beam="2">  1       -1 0.19388005E+00 0.36130472E+04</pdfrwt>
<totfact> 0.15734802E-01</totfact>
</mgrwt>
</event>
<event>
 6    1  0.1878398E-004  0.1520657E+04  0.7818608E-02  0.8870831E-01
         -2   -1    0    0    0  501 -0.00000000000E+00  0.00000000000E+00  0.17726690944E+03  0.17726690944E+03  0.00000000000E+00 0. -1.
          2   -1    0    0  501    0  0.00000000000E+00 -0.00000000000E+00 -0.32611803478E+04  0.32611803478E+04  0.00000000000E+00 0.  1.
         23    2    1    2    0    0  0.96576901650E+02  0.54592228536E+03 -0.37995777623E+03  0.67824174636E+03  0.91025903990E+02 0.  0.
         13    1    3    3    0    0  0.57701729786E+02  0.13950733877E+03 -0.74501259020E+02  0.16835149178E+03  0.00000000000E+00 0.  1.
        -13    1    3    3    0    0  0.38875171864E+02  0.40641494659E+03 -0.30545651721E+03  0.50989025457E+03  0.00000000000E+00 0. -1.
         22    1    1    2    0    0 -0.96576901650E+02 -0.54592228536E+03 -0.27039556621E+04  0.27602055108E+04  0.00000000000E+00 0.  1.
<mgrwt>
<rscale>  0 0.15206569E+04</rscale>
<asrwt>0</asrwt>
<pdfrwt beam="1">  1        2 0.50172005E+00 0.15206569E+04</pdfrwt>
<pdfrwt beam="2">  1       -2 0.27271833E-01 0.15206569E+04</pdfrwt>
<totfact> 0.14097556E+01</totfact>
</mgrwt>
</event>
<event>
 6    1  0.1878398E-004  0.1381988E+04  0.7818608E-02  0.8966961E-01
          2   -1    0    0  501    0  0.00000000000E+00  0.00000000000E+00  0.62206905623E+03  0.62206905623E+03  0.00000000000E+00 0.  1.
         -2   -1    0    0    0  501 -0.00000000000E+00 -0.00000000000E+00 -0.76755587759E+03  0.76755587759E+03  0.00000000000E+00 0. -1.
         23    2    1    2    0    0 -0.11152182411E+03 -0.49032681365E+03  0.39911992664E+03  0.64837328194E+03  0.90739712638E+02 0.  0.
         13    1    3    3    0    0 -0.86339673627E+01 -0.24225187296E+03  0.18968733855E+03  0.30780156230E+03  0.00000000000E+00 0.  1.
        -13    1    3    3    0    0 -0.10288785675E+03 -0.24807494069E+03  0.20943258809E+03  0.34057171964E+03  0.00000000000E+00 0. -1.
         22    1    1    2    0    0  0.11152182411E+03  0.49032681365E+03 -0.54460674801E+03  0.74125165188E+03  0.00000000000E+00 0. -1.
<mgrwt>
<rscale>  0 0.13819881E+04</rscale>
<asrwt>0</asrwt>
<pdfrwt beam="1">  1        2 0.95702932E-01 0.13819881E+04</pdfrwt>
<pdfrwt beam="2">  1       -2 0.11808552E+00 0.13819881E+04</pdfrwt>
<totfact> 0.25556581E+01</totfact>
</mgrwt>
</event>
<event>
 6    1  0.1878398E-004  0.1569521E+04  0.7818608E-02  0.8839494E-01
          2   -1    0    0  501    0  0.00000000000E+00  0.00000000000E+00  0.80909120493E+03  0.80909120493E+03  0.00000000000E+00 0.  1.
         -2   -1    0    0    0  501 -0.00000000000E+00 -0.00000000000E+00 -0.76116149911E+03  0.76116149911E+03  0.00000000000E+00 0. -1.
         23    2    1    2    0    0  0.66171286195E+03 -0.35364122426E+03  0.24500398914E+03  0.79451801982E+03  0.91136721254E+02 0.  0.
         11    1    3    3    0    0  0.56003046625E+03 -0.26214544753E+03  0.18766039784E+03  0.64619717092E+03  0.00000000000E+00 0.  1.
        -11    1    3    3    0    0  0.10168239569E+03 -0.91495776736E+02  0.57343591305E+02  0.14832084890E+03  0.00000000000E+00 0. -1.
         22    1    1    2    0    0 -0.66171286195E+03  0.35364122426E+03 -0.19707428332E+03  0.77573468422E+03  0.00000000000E+00 0. -1.
<mgrwt>
<rscale>  0 0.15695210E+04</rscale>
<asrwt>0</asrwt>
<pdfrwt beam="1">  1        2 0.12447557E+00 0.15695210E+04</pdfrwt>
<pdfrwt beam="2">  1       -2 0.11710177E+00 0.15695210E+04</pdfrwt>
<totfact> 0.18395338E+01</totfact>
</mgrwt>
</event>
<event>
 6    1  0.1878398E-004  0.3051486E+04  0.7818608E-02  0.8229180E-01
          2   -1    0    0  501    0  0.00000000000E+00  0.00000000000E+00  0.13954451552E+04  0.13954451552E+04  0.00000000000E+00 0.  1.
         -2   -1    0    0    0  501 -0.00000000000E+00 -0.00000000000E+00 -0.16682073043E+04  0.16682073043E+04  0.00000000000E+00 0. -1.
         23    2    1    2    0    0  0.14721901665E+04  0.30050989315E+03  0.12278920713E+03  0.15099115037E+04  0.84293992645E+02 0.  0.
         13    1    3    3    0    0  0.35949074564E+03  0.46822407178E+02  0.46103318600E+01  0.36255646343E+03  0.00000000000E+00 0. -1.
        -13    1    3    3    0    0  0.11126994209E+04  0.25368748597E+03  0.11817887527E+03  0.11473550402E+04  0.00000000000E+00 0.  1.
         22    1    1    2    0    0 -0.14721901665E+04 -0.30050989315E+03 -0.39555135622E+03  0.15537409558E+04  0.00000000000E+00 0. -1.
<mgrwt>
<rscale>  0 0.30514861E+04</rscale>
<asrwt>0</asrwt>
<pdfrwt beam="1">  1        2 0.21468387E+00 0.30514861E+04</pdfrwt>
<pdfrwt beam="2">  1       -2 0.25664728E+00 0.30514861E+04</pdfrwt>
<totfact> 0.72588184E-01</totfact>
</mgrwt>
</event>
<event>
 6    1  0.1878398E-004  0.2797070E+04  0.7818608E-02  0.8304179E-01
         -2   -1    0    0    0  501 -0.00000000000E+00  0.00000000000E+00  0.96740800856E+03  0.96740800856E+03  0.00000000000E+00 0. -1.
          2   -1    0    0  501    0  0.00000000000E+00 -0.00000000000E+00 -0.20217946763E+04  0.20217946763E+04  0.00000000000E+00 0.  1.
         23    2    1    2    0    0 -0.71376580005E+03  0.65792065540E+03 -0.16015937996E+04  0.18748612419E+04  0.87640010393E+02 0.  0.
         13    1    3    3    0    0 -0.43251164069E+03  0.44560697345E+03 -0.10676134249E+04  0.12350831224E+04  0.00000000000E+00 0. -1.
        -13    1    3    3    0    0 -0.28125415936E+03  0.21231368195E+03 -0.53398037466E+03  0.63977811953E+03  0.00000000000E+00 0.  1.
         22    1    1    2    0    0  0.71376580005E+03 -0.65792065540E+03  0.54720713190E+03  0.11143414429E+04  0.00000000000E+00 0. -1.
<mgrwt>
<rscale>  0 0.27970702E+04</rscale>
<asrwt>0</asrwt>
<pdfrwt beam="1">  1        2 0.31104533E+00 0.27970702E+04</pdfrwt>
<pdfrwt beam="2">  1       -2 0.14883200E+00 0.27970702E+04</pdfrwt>
<totfact> 0.17298696E+00</totfact>
</mgrwt>
</event>
<event>
 6    1  0.1878398E-004  0.3129492E+04  0.7818608E-02  0.8207690E-01
          2   -1    0    0  501    0  0.00000000000E+00  0.00000000000E+00  0.19076831003E+04  0.19076831003E+04  0.00000000000E+00 0.  1.
         -2   -1    0    0    0  501 -0.00000000000E+00 -0.00000000000E+00 -0.12834575076E+04  0.12834575076E+04  0.00000000000E+00 0. -1.
         23    2    1    2    0    0 -0.13421932481E+04  0.77210139458E+03  0.53322033273E+03  0.16400425336E+04  0.88274061639E+02 0.  0.
         11    1    3    3    0    0 -0.11288741277E+04  0.68256451212E+03  0.46694307261E+03  0.13993880600E+04  0.00000000000E+00 0.  1.
        -11    1    3    3    0    0 -0.21331912038E+03  0.89536882463E+02  0.66277260120E+02  0.24065447357E+03  0.00000000000E+00 0. -1.
         22    1    1    2    0    0  0.13421932481E+04 -0.77210139458E+03  0.91005260050E+02  0.15510980743E+04  0.00000000000E+00 0.  1.
<mgrwt>
<rscale>  0 0.31294921E+04</rscale>
<asrwt>0</asrwt>
<pdfrwt beam="1">  1        2 0.29348971E+00 0.31294921E+04</pdfrwt>
<pdfrwt beam="2">  1       -2 0.19745500E+00 0.31294921E+04</pdfrwt>
<totfact> 0.88045191E-01</totfact>
</mgrwt>
</event>
<event>
 6    1  0.1878398E-004  0.1371117E+04  0.7818608E-02  0.8974995E-01
          2   -1    0    0  501    0  0.00000000000E+00  0.00000000000E+00  0.56758686877E+03  0.56758686877E+03  0.00000000000E+00 0.  1.
         -2   -1    0    0    0  501 -0.00000000000E+00 -0.00000000000E+00 -0.82805031863E+03  0.82805031863E+03  0.00000000000E+00 0. -1.
         23    2    1    2    0    0 -0.56329513480E+03 -0.20346875918E+03 -0.46398101414E+03  0.76308652237E+03  0.91223430578E+02 0.  0.
         13    1    3    3    0    0 -0.32091018017E+03 -0.10273175373E+03 -0.31504024502E+03  0.46128896902E+03  0.00000000000E+00 0. -1.
        -13    1    3    3    0    0 -0.24238495464E+03 -0.10073700546E+03 -0.14894076912E+03  0.30179755335E+03  0.00000000000E+00 0.  1.
         22    1    1    2    0    0  0.56329513480E+03  0.20346875918E+03  0.20351756428E+03  0.63255066503E+03  0.00000000000E+00 0.  1.
<mgrwt>
<rscale>  0 0.13711170E+04</rscale>
<asrwt>0</asrwt>
<pdfrwt beam="1">  1        2 0.87321057E-01 0.13711170E+04</pdfrwt>
<pdfrwt beam="2">  1       -2 0.12739236E+00 0.13711170E+04</pdfrwt>
<totfact> 0.23632177E+01</totfact>
</mgrwt>
</event>
<event>
 6    1  0.1878398E-004  0.1288821E+04  0.7818608E-02  0.9038477E-01
         -1   -1    0    0    0  501 -0.00000000000E+00  0.00000000000E+00  0.72096977089E+03  0.72096977089E+03  0.00000000000E+00 0. -1.
          1   -1    0    0  501    0  0.00000000000E+00 -0.00000000000E+00 -0.57598134448E+03  0.57598134448E+03  0.00000000000E+00 0.  1.
         23    2    1    2    0    0 -0.40517101060E+03 -0.43771337170E+03  0.31012419831E+03  0.67805987552E+03  0.88496513026E+02 0.  0.
         13    1    3    3    0    0 -0.13634236259E+03 -0.21039341883E+03  0.13801156092E+03  0.28618494277E+03  0.00000000000E+00 0. -1.
        -13    1    3    3    0    0 -0.26882864802E+03 -0.22731995286E+03  0.17211263740E+03  0.39187493275E+03  0.00000000000E+00 0.  1.
         22    1    1    2    0    0  0.40517101060E+03  0.43771337170E+03 -0.16513577191E+03  0.61889123985E+03  0.00000000000E+00 0.  1.
<mgrwt>
<rscale>  0 0.12888214E+04</rscale>
<asrwt>0</asrwt>
<pdfrwt beam="1">  1        1 0.88612515E-01 0.12888214E+04</pdfrwt>
<pdfrwt beam="2">  1       -1 0.11091843E+00 0.12888214E+04</pdfrwt>
<totfact> 0.26740486E+01</totfact>
</mgrwt>
</event>
<event>
 6    1  0.1878398E-004  0.2435645E+04  0.7818608E-02  0.8426278E-01
          2   -1    0    0  501    0  0.00000000000E+00  0.00000000000E+00  0.19862927186E+04  0.19862927186E+04  0.00000000000E+00 0.  1.
         -2   -1    0    0    0  501 -0.00000000000E+00 -0.00000000000E+00 -0.74666330524E+03  0.74666330524E+03  0.00000000000E+00 0. -1.
         23    2    1    2    0    0  0.11668547657E+04 -0.29428629028E+03  0.42398470415E+03  0.12791916837E+04  0.91727146946E+02 0.  0.
         11    1    3    3    0    0  0.12572751191E+03 -0.38139891447E+02  0.76912050357E+02  0.15224165679E+03  0.00000000000E+00 0. -1.
        -11    1    3    3    0    0  0.10411272538E+04 -0.25614639883E+03  0.34707265379E+03  0.11269500270E+04  0.00000000000E+00 0.  1.
         22    1    1    2    0    0 -0.11668547657E+04  0.29428629028E+03  0.81564470925E+03  0.14537643401E+04  0.00000000000E+00 0.  1.
<mgrwt>
<rscale>  0 0.24356452E+04</rscale>
<asrwt>0</asrwt>
<pdfrwt beam="1">  1        2 0.30558349E+00 0.24356452E+04</pdfrwt>
<pdfrwt beam="2">  1       -2 0.11487128E+00 0.24356452E+04</pdfrwt>
<totfact> 0.36046489E+00</totfact>
</mgrwt>
</event>
<event>
 6    1  0.1878398E-004  0.4937605E+04  0.7818608E-02  0.7838205E-01
         -2   -1    0    0    0  501 -0.00000000000E+00  0.00000000000E+00  0.33643130479E+04  0.33643130479E+04  0.00000000000E+00 0. -1.
          2   -1    0    0  501    0  0.00000000000E+00 -0.00000000000E+00 -0.18116585555E+04  0.18116585555E+04  0.00000000000E+00 0.  1.
         23    2    1    2    0    0 -0.16692315465E+04 -0.16667207660E+04  0.15372627506E+04  0.28170462181E+04  0.90997596230E+02 0.  0.
         11    1    3    3    0    0 -0.53825975546E+03 -0.50273757445E+03  0.52105117489E+03  0.90219895808E+03  0.00000000000E+00 0. -1.
        -11    1    3    3    0    0 -0.11309717911E+04 -0.11639831916E+04  0.10162115757E+04  0.19148472600E+04  0.00000000000E+00 0.  1.
         22    1    1    2    0    0  0.16692315465E+04  0.16667207660E+04  0.15391741788E+02  0.23589253853E+04  0.00000000000E+00 0.  1.
<mgrwt>
<rscale>  0 0.49376053E+04</rscale>
<asrwt>0</asrwt>
<pdfrwt beam="1">  1        2 0.27871670E+00 0.49376053E+04</pdfrwt>
<pdfrwt beam="2">  1       -2 0.51758662E+00 0.49376053E+04</pdfrwt>
<totfact> 0.80906567E-03</totfact>
</mgrwt>
</event>
<event>
 6    1  0.1878398E-004  0.2558434E+04  0.7818608E-02  0.8382459E-01
         -2   -1    0    0    0  501 -0.00000000000E+00  0.00000000000E+00  0.85100191051E+03  0.85100191051E+03  0.00000000000E+00 0. -1.
          2   -1    0    0  501    0  0.00000000000E+00 -0.00000000000E+00 -0.19229047536E+04  0.19229047536E+04  0.00000000000E+00 0.  1.
         23    2    1    2    0    0 -0.55544063951E+03 -0.23138535395E+03 -0.17585989410E+04  0.18608869398E+04  0.90423900207E+02 0.  0.
         13    1    3    3    0    0 -0.36404408315E+03 -0.19696299352E+03 -0.11817263242E+04  0.12521180538E+04  0.00000000000E+00 0. -1.
        -13    1    3    3    0    0 -0.19139655635E+03 -0.34422360431E+02 -0.57687261678E+03  0.60876888609E+03  0.00000000000E+00 0.  1.
         22    1    1    2    0    0  0.55544063951E+03  0.23138535395E+03  0.68669609788E+03  0.91301972425E+03  0.00000000000E+00 0. -1.
<mgrwt>
<rscale>  0 0.25584336E+04</rscale>
<asrwt>0</asrwt>
<pdfrwt beam="1">  1        2 0.29583150E+00 0.25584336E+04</pdfrwt>
<pdfrwt beam="2">  1       -2 0.13092337E+00 0.25584336E+04</pdfrwt>
<totfact> 0.27922724E+00</totfact>
</mgrwt>
</event>
<event>
 6    1  0.1878398E-004  0.2893418E+04  0.7818608E-02  0.8274838E-01
         -2   -1    0    0    0  501 -0.00000000000E+00  0.00000000000E+00  0.15249697597E+04  0.15249697597E+04  0.00000000000E+00 0. -1.
          2   -1    0    0  501    0  0.00000000000E+00 -0.00000000000E+00 -0.13724646234E+04  0.13724646234E+04  0.00000000000E+00 0.  1.
         23    2    1    2    0    0  0.85236838344E+03 -0.93997664531E+03  0.76925238111E+03  0.14865959378E+04  0.90168185197E+02 0.  0.
         13    1    3    3    0    0  0.25869149623E+03 -0.24738637463E+03  0.25421056825E+03  0.43902656136E+03  0.00000000000E+00 0.  1.
        -13    1    3    3    0    0  0.59367688721E+03 -0.69259027068E+03  0.51504181286E+03  0.10475693764E+04  0.00000000000E+00 0. -1.
         22    1    1    2    0    0 -0.85236838344E+03  0.93997664531E+03 -0.61674724486E+03  0.14108384453E+04  0.00000000000E+00 0. -1.
<mgrwt>
<rscale>  0 0.28934181E+04</rscale>
<asrwt>0</asrwt>
<pdfrwt beam="1">  1        2 0.21114840E+00 0.28934181E+04</pdfrwt>
<pdfrwt beam="2">  1       -2 0.23461073E+00 0.28934181E+04</pdfrwt>
<totfact> 0.10369318E+00</totfact>
</mgrwt>
</event>
<event>
 6    1  0.1878398E-004  0.2724863E+04  0.7818608E-02  0.8326982E-01
         -2   -1    0    0    0  501 -0.00000000000E+00  0.00000000000E+00  0.11418295878E+04  0.11418295878E+04  0.00000000000E+00 0. -1.
          2   -1    0    0  501    0  0.00000000000E+00 -0.00000000000E+00 -0.16256542257E+04  0.16256542257E+04  0.00000000000E+00 0.  1.
         23    2    1    2    0    0 -0.47808560044E+03  0.51850359292E+03  0.93887979607E+03  0.11795607285E+04  0.11160834890E+03 0.  0.
         13    1    3    3    0    0 -0.24575708725E+03  0.27719087558E+03  0.40118477545E+03  0.54605910989E+03  0.00000000000E+00 0. -1.
        -13    1    3    3    0    0 -0.23232851319E+03  0.24131271734E+03  0.53769502062E+03  0.63350161862E+03  0.00000000000E+00 0.  1.
         22    1    1    2    0    0  0.47808560044E+03 -0.51850359292E+03 -0.14227044340E+04  0.15879230850E+04  0.00000000000E+00 0.  1.
<mgrwt>
<rscale>  0 0.27248634E+04</rscale>
<asrwt>0</asrwt>
<pdfrwt beam="1">  1        2 0.25010065E+00 0.27248634E+04</pdfrwt>
<pdfrwt beam="2">  1       -2 0.17566609E+00 0.27248634E+04</pdfrwt>
<totfact> 0.18364187E+00</totfact>
</mgrwt>
</event>
<event>
 6    1  0.1878398E-004  0.1349006E+04  0.7818608E-02  0.8991581E-01
         -1   -1    0    0    0  501 -0.00000000000E+00  0.00000000000E+00  0.51122689666E+03  0.51122689666E+03  0.00000000000E+00 0. -1.
          1   -1    0    0  501    0  0.00000000000E+00 -0.00000000000E+00 -0.88992695676E+03  0.88992695676E+03  0.00000000000E+00 0.  1.
         23    2    1    2    0    0 -0.27324355057E+03  0.24001728905E+03  0.39630075921E+03  0.54506004611E+03  0.88123919244E+02 0.  0.
         13    1    3    3    0    0 -0.23981513198E+03  0.21705151940E+03  0.30249011753E+03  0.44285768685E+03  0.00000000000E+00 0.  1.
        -13    1    3    3    0    0 -0.33428418592E+02  0.22965769649E+02  0.93810641688E+02  0.10220235926E+03  0.00000000000E+00 0. -1.
         22    1    1    2    0    0  0.27324355057E+03 -0.24001728905E+03 -0.77500081931E+03  0.85609380730E+03  0.00000000000E+00 0.  1.
<mgrwt>
<rscale>  0 0.13490064E+04</rscale>
<asrwt>0</asrwt>
<pdfrwt beam="1">  1        1 0.13691184E+00 0.13490064E+04</pdfrwt>
<pdfrwt beam="2">  1       -1 0.78650292E-01 0.13490064E+04</pdfrwt>
<totfact> 0.29375614E+01</totfact>
</mgrwt>
</event>
