<event>
 6    1  0.1727544E-002  0.9394475E+02  0.7546771E-02  0.1408939E+00
         -4   -1    0    0    0  501 -0.00000000000E+00  0.00000000000E+00  0.33695456314E+03  0.33695456314E+03  0.00000000000E+00 0.  1.
          4   -1    0    0  501    0  0.00000000000E+00 -0.00000000000E+00 -0.86421156542E+01  0.86421156542E+01  0.00000000000E+00 0. -1.
         23    2    1    2    0    0  0.30909520927E+01 -0.12751958502E+02  0.30053706493E+03  0.31487798242E+03  0.93023921596E+02 0.  0.
         13    1    3    3    0    0 -0.57549940718E+01  0.40001212726E+02  0.13402127728E+03  0.13998185504E+03  0.00000000000E+00 0. -1.
        -13    1    3    3    0    0  0.88459461645E+01 -0.52753171228E+02  0.16651578765E+03  0.17489612738E+03  0.00000000000E+00 0.  1.
         22    1    1    2    0    0 -0.30909520927E+01  0.12751958502E+02  0.27775382558E+02  0.30718696371E+02  0.00000000000E+00 0.  1.
<mgrwt>
<rscale>  0 0.57431208E+02</rscale>
<asrwt>0</asrwt>
<pdfrwt beam="1">  1        4 0.13295565E-02 0.93944752E+02</pdfrwt>
<pdfrwt beam="2">  1       -4 0.51839154E-01 0.93944752E+02</pdfrwt>
<totfact> 0.10091110E+04</totfact>
</mgrwt>
</event>
<event>
 6    1  0.1727544E-002  0.8740695E+02  0.7546771E-02  0.1403966E+00
          2   -1    0    0  501    0  0.00000000000E+00  0.00000000000E+00  0.91916195309E+02  0.91916195309E+02  0.00000000000E+00 0. -1.
         -2   -1    0    0    0  501 -0.00000000000E+00 -0.00000000000E+00 -0.40477742892E+02  0.40477742892E+02  0.00000000000E+00 0.  1.
         23    2    1    2    0    0 -0.17176877752E+02 -0.38960988366E+01  0.10760879733E+02  0.88066862560E+02  0.85613965175E+02 0.  0.
         13    1    3    3    0    0  0.27109326956E+02  0.23010843954E+02  0.54929675162E+01  0.35980372978E+02  0.00000000000E+00 0. -1.
        -13    1    3    3    0    0 -0.44286204708E+02 -0.26906942791E+02  0.52679122167E+01  0.52086489581E+02  0.00000000000E+00 0.  1.
         22    1    1    2    0    0  0.17176877752E+02  0.38960988366E+01  0.40677572684E+02  0.44327075641E+02  0.00000000000E+00 0. -1.
<mgrwt>
<rscale>  0 0.58562424E+02</rscale>
<asrwt>0</asrwt>
<pdfrwt beam="1">  1        2 0.14140953E-01 0.87406955E+02</pdfrwt>
<pdfrwt beam="2">  1       -2 0.62273451E-02 0.87406955E+02</pdfrwt>
<totfact> 0.50182022E+04</totfact>
</mgrwt>
</event>
<event>
 6    1  0.1727544E-002  0.9770780E+02  0.7546771E-02  0.1335191E+00
          2   -1    0    0  501    0  0.00000000000E+00  0.00000000000E+00  0.91427537074E+03  0.91427537074E+03  0.00000000000E+00 0. -1.
         -2   -1    0    0    0  501 -0.00000000000E+00 -0.00000000000E+00 -0.54627153525E+01  0.54627153525E+01  0.00000000000E+00 0.  1.
         23    2    1    2    0    0  0.69089485865E+01  0.38819238498E+02  0.73763113118E+03  0.74407425635E+03  0.89398805562E+02 0.  0.
         13    1    3    3    0    0  0.13915821644E+02  0.63965542155E+02  0.38921467691E+03  0.39468127064E+03  0.00000000000E+00 0.  1.
        -13    1    3    3    0    0 -0.70068730571E+01 -0.25146303657E+02  0.34841645427E+03  0.34939298571E+03  0.00000000000E+00 0. -1.
         22    1    1    2    0    0 -0.69089485865E+01 -0.38819238498E+02  0.17118152421E+03  0.17566382974E+03  0.00000000000E+00 0. -1.
<mgrwt>
<rscale>  0 0.77875631E+02</rscale>
<asrwt>0</asrwt>
<pdfrwt beam="1">  1        2 0.14065763E+00 0.97707795E+02</pdfrwt>
<pdfrwt beam="2">  1       -2 0.84041847E-03 0.97707795E+02</pdfrwt>
<totfact> 0.73198214E+04</totfact>
</mgrwt>
</event>
<event>
 6    1  0.1727544E-002  0.9028526E+02  0.7546771E-02  0.1423590E+00
         -2   -1    0    0    0  501 -0.00000000000E+00  0.00000000000E+00  0.93168799824E+02  0.93168799824E+02  0.00000000000E+00 0.  1.
          2   -1    0    0  501    0  0.00000000000E+00 -0.00000000000E+00 -0.32919969024E+02  0.32919969024E+02  0.00000000000E+00 0. -1.
         23    2    1    2    0    0  0.19737478049E+01 -0.11618799425E+02  0.67070422239E+02  0.11247163662E+03  0.89512766260E+02 0.  0.
         13    1    3    3    0    0  0.38460779640E+02 -0.28191634032E+02  0.23125658113E+02  0.52998074145E+02  0.00000000000E+00 0. -1.
        -13    1    3    3    0    0 -0.36487031835E+02  0.16572834607E+02  0.43944764125E+02  0.59473562472E+02  0.00000000000E+00 0.  1.
         22    1    1    2    0    0 -0.19737478049E+01  0.11618799425E+02 -0.68215914376E+01  0.13617132231E+02  0.00000000000E+00 0.  1.
<mgrwt>
<rscale>  0 0.54268442E+02</rscale>
<asrwt>0</asrwt>
<pdfrwt beam="1">  1        2 0.50646106E-02 0.90285256E+02</pdfrwt>
<pdfrwt beam="2">  1       -2 0.14333661E-01 0.90285256E+02</pdfrwt>
<totfact> 0.48970816E+04</totfact>
</mgrwt>
</event>
<event>
 6    1  0.1727544E-002  0.1116898E+03  0.7546771E-02  0.1286604E+00
          2   -1    0    0  501    0  0.00000000000E+00  0.00000000000E+00  0.63359000228E+03  0.63359000228E+03  0.00000000000E+00 0. -1.
         -2   -1    0    0    0  501 -0.00000000000E+00 -0.00000000000E+00 -0.12824080653E+02  0.12824080653E+02  0.00000000000E+00 0.  1.
         23    2    1    2    0    0  0.63446160534E+02 -0.56295748059E+01  0.31866756706E+03  0.33767386329E+03  0.91747001303E+02 0.  0.
         11    1    3    3    0    0  0.42973697335E+02  0.28402257168E+02  0.76214424666E+02  0.91989485280E+02  0.00000000000E+00 0.  1.
        -11    1    3    3    0    0  0.20472463199E+02 -0.34031831974E+02  0.24245314240E+03  0.24568437801E+03  0.00000000000E+00 0. -1.
         22    1    1    2    0    0 -0.63446160534E+02  0.56295748059E+01  0.30209835457E+03  0.30874021965E+03  0.00000000000E+00 0. -1.
<mgrwt>
<rscale>  0 0.97059334E+02</rscale>
<asrwt>0</asrwt>
<pdfrwt beam="1">  1        2 0.97475361E-01 0.11168984E+03</pdfrwt>
<pdfrwt beam="2">  1       -2 0.19729360E-02 0.11168984E+03</pdfrwt>
<totfact> 0.34255327E+04</totfact>
</mgrwt>
</event>
<event>
 6    1  0.1727544E-002  0.9351415E+02  0.7546771E-02  0.1378472E+00
          2   -1    0    0  501    0  0.00000000000E+00  0.00000000000E+00  0.88733353699E+02  0.88733353699E+02  0.00000000000E+00 0. -1.
         -2   -1    0    0    0  501 -0.00000000000E+00 -0.00000000000E+00 -0.43279698170E+02  0.43279698170E+02  0.00000000000E+00 0.  1.
         23    2    1    2    0    0  0.88641757492E+01  0.19752852724E+02  0.15094395212E+02  0.94724535011E+02  0.90973336554E+02 0.  0.
         11    1    3    3    0    0  0.13722685522E+02  0.13693224767E+02  0.52790048941E+02  0.56237049795E+02  0.00000000000E+00 0. -1.
        -11    1    3    3    0    0 -0.48585097723E+01  0.60596279574E+01 -0.37695653729E+02  0.38487485216E+02  0.00000000000E+00 0.  1.
         22    1    1    2    0    0 -0.88641757492E+01 -0.19752852724E+02  0.30359260317E+02  0.37288516858E+02  0.00000000000E+00 0.  1.
<mgrwt>
<rscale>  0 0.64867256E+02</rscale>
<asrwt>0</asrwt>
<pdfrwt beam="1">  1        2 0.13651285E-01 0.93514153E+02</pdfrwt>
<pdfrwt beam="2">  1       -2 0.66584151E-02 0.93514153E+02</pdfrwt>
<totfact> 0.47715207E+04</totfact>
</mgrwt>
</event>
<event>
 6    1  0.1727544E-002  0.9266249E+02  0.7546771E-02  0.1394938E+00
          2   -1    0    0  501    0  0.00000000000E+00  0.00000000000E+00  0.10015267628E+02  0.10015267628E+02  0.00000000000E+00 0. -1.
         -2   -1    0    0    0  501 -0.00000000000E+00 -0.00000000000E+00 -0.32928904254E+03  0.32928904254E+03  0.00000000000E+00 0.  1.
         23    2    1    2    0    0 -0.61805191864E+01  0.15897778733E+02 -0.29778428478E+03  0.31186826868E+03  0.91079078634E+02 0.  0.
         13    1    3    3    0    0  0.87857335720E+00 -0.23267772602E+02 -0.24322451260E+03  0.24433649883E+03  0.00000000000E+00 0.  1.
        -13    1    3    3    0    0 -0.70590925436E+01  0.39165551335E+02 -0.54559772181E+02  0.67531769852E+02  0.00000000000E+00 0. -1.
         22    1    1    2    0    0  0.61805191864E+01 -0.15897778733E+02 -0.21489490131E+02  0.27436041481E+02  0.00000000000E+00 0.  1.
<mgrwt>
<rscale>  0 0.60695020E+02</rscale>
<asrwt>0</asrwt>
<pdfrwt beam="1">  1        2 0.15408102E-02 0.92662488E+02</pdfrwt>
<pdfrwt beam="2">  1       -2 0.50659858E-01 0.92662488E+02</pdfrwt>
<totfact> 0.25792510E+04</totfact>
</mgrwt>
</event>
<event>
 6    1  0.1727544E-002  0.9116035E+02  0.7546771E-02  0.1393513E+00
         -2   -1    0    0    0  501 -0.00000000000E+00  0.00000000000E+00  0.13996430826E+02  0.13996430826E+02  0.00000000000E+00 0.  1.
          2   -1    0    0  501    0  0.00000000000E+00 -0.00000000000E+00 -0.22757462461E+03  0.22757462461E+03  0.00000000000E+00 0. -1.
         23    2    1    2    0    0 -0.17862939261E+02 -0.40961476695E+01 -0.15118565755E+03  0.17654266469E+03  0.89299195873E+02 0.  0.
         13    1    3    3    0    0 -0.14879928813E+02 -0.45295032221E+02 -0.61619493720E+02  0.77910296057E+02  0.00000000000E+00 0. -1.
        -13    1    3    3    0    0 -0.29830104484E+01  0.41198884552E+02 -0.89566163830E+02  0.98632368636E+02  0.00000000000E+00 0.  1.
         22    1    1    2    0    0  0.17862939261E+02  0.40961476695E+01 -0.62392536233E+02  0.65028390741E+02  0.00000000000E+00 0. -1.
<mgrwt>
<rscale>  0 0.61041439E+02</rscale>
<asrwt>0</asrwt>
<pdfrwt beam="1">  1        2 0.35011482E-01 0.91160350E+02</pdfrwt>
<pdfrwt beam="2">  1       -2 0.21532970E-02 0.91160350E+02</pdfrwt>
<totfact> 0.87985717E+04</totfact>
</mgrwt>
</event>
<event>
 6    1  0.1727544E-002  0.9306726E+02  0.7546771E-02  0.1413149E+00
         -2   -1    0    0    0  501 -0.00000000000E+00  0.00000000000E+00  0.27123109865E+02  0.27123109865E+02  0.00000000000E+00 0.  1.
          2   -1    0    0  501    0  0.00000000000E+00 -0.00000000000E+00 -0.10577374032E+03  0.10577374032E+03  0.00000000000E+00 0. -1.
         23    2    1    2    0    0 -0.12127712719E+01  0.12580590493E+02 -0.61341033093E+02  0.11146406613E+03  0.92205062914E+02 0.  0.
         13    1    3    3    0    0 -0.29827487084E+02 -0.15865708015E+02  0.46624549145E+01  0.34104811426E+02  0.00000000000E+00 0.  1.
        -13    1    3    3    0    0  0.28614715812E+02  0.28446298508E+02 -0.66003488008E+02  0.77359254708E+02  0.00000000000E+00 0. -1.
         22    1    1    2    0    0  0.12127712719E+01 -0.12580590493E+02 -0.17309597362E+02  0.21432784050E+02  0.00000000000E+00 0. -1.
<mgrwt>
<rscale>  0 0.56496966E+02</rscale>
<asrwt>0</asrwt>
<pdfrwt beam="1">  1        2 0.16272883E-01 0.93067264E+02</pdfrwt>
<pdfrwt beam="2">  1       -2 0.41727861E-02 0.93067264E+02</pdfrwt>
<totfact> 0.78100600E+04</totfact>
</mgrwt>
</event>
<event>
 6    1  0.1727544E-002  0.8973370E+02  0.7546771E-02  0.1427691E+00
          1   -1    0    0  501    0  0.00000000000E+00  0.00000000000E+00  0.37827124405E+02  0.37827124405E+02  0.00000000000E+00 0. -1.
         -1   -1    0    0    0  501 -0.00000000000E+00 -0.00000000000E+00 -0.77047058207E+02  0.77047058207E+02  0.00000000000E+00 0.  1.
         23    2    1    2    0    0  0.31204352107E+01 -0.10835564077E+02 -0.46880814900E+02  0.10124202710E+03  0.89022416729E+02 0.  0.
         11    1    3    3    0    0 -0.37498803306E+02  0.11675132581E+02 -0.36585682905E+02  0.53674772136E+02  0.00000000000E+00 0. -1.
        -11    1    3    3    0    0  0.40619238517E+02 -0.22510696659E+02 -0.10295131995E+02  0.47567254961E+02  0.00000000000E+00 0.  1.
         22    1    1    2    0    0 -0.31204352107E+01  0.10835564077E+02  0.76608810981E+01  0.13632155515E+02  0.00000000000E+00 0.  1.
<mgrwt>
<rscale>  0 0.53426259E+02</rscale>
<asrwt>0</asrwt>
<pdfrwt beam="1">  1        1 0.58195576E-02 0.89733702E+02</pdfrwt>
<pdfrwt beam="2">  1       -1 0.11853393E-01 0.89733702E+02</pdfrwt>
<totfact> 0.53816531E+04</totfact>
</mgrwt>
</event>
<event>
 6    1  0.1727544E-002  0.1284145E+03  0.7546771E-02  0.1246317E+00
          2   -1    0    0  501    0  0.00000000000E+00  0.00000000000E+00  0.30375595737E+03  0.30375595737E+03  0.00000000000E+00 0. -1.
         -2   -1    0    0    0  501 -0.00000000000E+00 -0.00000000000E+00 -0.91046573145E+02  0.91046573145E+02  0.00000000000E+00 0.  1.
         23    2    1    2    0    0 -0.72721985728E+02 -0.55976496709E+02 -0.32939058932E+02  0.13257169134E+03  0.89824363890E+02 0.  0.
         11    1    3    3    0    0  0.14054629113E+02 -0.30725678525E+01  0.14488881981E+02  0.20418153045E+02  0.00000000000E+00 0. -1.
        -11    1    3    3    0    0 -0.86776614841E+02 -0.52903928856E+02 -0.47427940913E+02  0.11215353829E+03  0.00000000000E+00 0.  1.
         22    1    1    2    0    0  0.72721985728E+02  0.55976496709E+02  0.24564844316E+03  0.26223083918E+03  0.00000000000E+00 0. -1.
<mgrwt>
<rscale>  0 0.11806914E+03</rscale>
<asrwt>0</asrwt>
<pdfrwt beam="1">  1        2 0.46731685E-01 0.12841445E+03</pdfrwt>
<pdfrwt beam="2">  1       -2 0.14007165E-01 0.12841445E+03</pdfrwt>
<totfact> 0.39738507E+03</totfact>
</mgrwt>
</event>
<event>
 6    1  0.1727544E-002  0.9354396E+02  0.7546771E-02  0.1368119E+00
          2   -1    0    0  501    0  0.00000000000E+00  0.00000000000E+00  0.22668656215E+02  0.22668656215E+02  0.00000000000E+00 0. -1.
         -2   -1    0    0    0  501 -0.00000000000E+00 -0.00000000000E+00 -0.15686088495E+03  0.15686088495E+03  0.00000000000E+00 0.  1.
         23    2    1    2    0    0 -0.24449187135E+02 -0.77634338552E+01 -0.10771390079E+03  0.14266308612E+03  0.89957979419E+02 0.  0.
         11    1    3    3    0    0 -0.29419078883E+02 -0.31421813055E+02 -0.11025077216E+03  0.11835558838E+03  0.00000000000E+00 0.  1.
        -11    1    3    3    0    0  0.49698917485E+01  0.23658379199E+02  0.25368713671E+01  0.24307497746E+02  0.00000000000E+00 0. -1.
         22    1    1    2    0    0  0.24449187135E+02  0.77634338552E+01 -0.26478327938E+02  0.36866455039E+02  0.00000000000E+00 0. -1.
<mgrwt>
<rscale>  0 0.67692852E+02</rscale>
<asrwt>0</asrwt>
<pdfrwt beam="1">  1        2 0.34874856E-02 0.93543956E+02</pdfrwt>
<pdfrwt beam="2">  1       -2 0.24132444E-01 0.93543956E+02</pdfrwt>
<totfact> 0.33679844E+04</totfact>
</mgrwt>
</event>
<event>
 6    1  0.1727544E-002  0.9289199E+02  0.7546771E-02  0.1414988E+00
         -2   -1    0    0    0  501 -0.00000000000E+00  0.00000000000E+00  0.22614636357E+02  0.22614636357E+02  0.00000000000E+00 0.  1.
          2   -1    0    0  501    0  0.00000000000E+00 -0.00000000000E+00 -0.15745485880E+03  0.15745485880E+03  0.00000000000E+00 0. -1.
         23    2    1    2    0    0 -0.10118530953E+02 -0.70861538299E+01 -0.76214506228E+02  0.12015645111E+03  0.92066951400E+02 0.  0.
         13    1    3    3    0    0 -0.51260368921E+01 -0.22425353227E+02  0.15042002337E+02  0.27485169745E+02  0.00000000000E+00 0.  1.
        -13    1    3    3    0    0 -0.49924940607E+01  0.15339199397E+02 -0.91256508565E+02  0.92671281369E+02  0.00000000000E+00 0. -1.
         22    1    1    2    0    0  0.10118530953E+02  0.70861538299E+01 -0.58625716212E+02  0.59913044040E+02  0.00000000000E+00 0.  1.
<mgrwt>
<rscale>  0 0.56095418E+02</rscale>
<asrwt>0</asrwt>
<pdfrwt beam="1">  1        2 0.24223824E-01 0.92891990E+02</pdfrwt>
<pdfrwt beam="2">  1       -2 0.34791749E-02 0.92891990E+02</pdfrwt>
<totfact> 0.65328907E+04</totfact>
</mgrwt>
</event>
<event>
 6    1  0.1727544E-002  0.9507169E+02  0.7546771E-02  0.1369645E+00
          2   -1    0    0  501    0  0.00000000000E+00  0.00000000000E+00  0.21997791349E+03  0.21997791349E+03  0.00000000000E+00 0. -1.
         -2   -1    0    0    0  501 -0.00000000000E+00 -0.00000000000E+00 -0.16788261345E+02  0.16788261345E+02  0.00000000000E+00 0.  1.
         23    2    1    2    0    0 -0.21116518689E+02  0.11031844756E+02  0.13995492188E+03  0.16919221482E+03  0.92038124913E+02 0.  0.
         13    1    3    3    0    0 -0.36494268469E+02  0.44892614531E+02  0.83186899945E+02  0.10132738422E+03  0.00000000000E+00 0. -1.
        -13    1    3    3    0    0  0.15377749780E+02 -0.33860769776E+02  0.56768021934E+02  0.67864830600E+02  0.00000000000E+00 0.  1.
         22    1    1    2    0    0  0.21116518689E+02 -0.11031844756E+02  0.63234730264E+02  0.67573960013E+02  0.00000000000E+00 0.  1.
<mgrwt>
<rscale>  0 0.67265837E+02</rscale>
<asrwt>0</asrwt>
<pdfrwt beam="1">  1        2 0.33842754E-01 0.95071686E+02</pdfrwt>
<pdfrwt beam="2">  1       -2 0.25828096E-02 0.95071686E+02</pdfrwt>
<totfact> 0.70563672E+04</totfact>
</mgrwt>
</event>
<event>
 6    1  0.1727544E-002  0.9363013E+02  0.7546771E-02  0.1377442E+00
         -2   -1    0    0    0  501 -0.00000000000E+00  0.00000000000E+00  0.19052461469E+02  0.19052461469E+02  0.00000000000E+00 0.  1.
          2   -1    0    0  501    0  0.00000000000E+00 -0.00000000000E+00 -0.19131297244E+03  0.19131297244E+03  0.00000000000E+00 0. -1.
         23    2    1    2    0    0  0.21360422333E+02 -0.49953355464E+01 -0.11055090497E+03  0.14487271300E+03  0.91024059250E+02 0.  0.
         13    1    3    3    0    0  0.49337467387E+01 -0.37258860825E+02 -0.11332905608E+02  0.39255564146E+02  0.00000000000E+00 0.  1.
        -13    1    3    3    0    0  0.16426675595E+02  0.32263525279E+02 -0.99217999361E+02  0.10561714885E+03  0.00000000000E+00 0. -1.
         22    1    1    2    0    0 -0.21360422333E+02  0.49953355464E+01 -0.61709605999E+02  0.65492720908E+02  0.00000000000E+00 0.  1.
<mgrwt>
<rscale>  0 0.65141053E+02</rscale>
<asrwt>0</asrwt>
<pdfrwt beam="1">  1        2 0.29432764E-01 0.93630125E+02</pdfrwt>
<pdfrwt beam="2">  1       -2 0.29311480E-02 0.93630125E+02</pdfrwt>
<totfact> 0.68009161E+04</totfact>
</mgrwt>
</event>
<event>
 6    1  0.1727544E-002  0.9315210E+02  0.7546771E-02  0.1406302E+00
         -3   -1    0    0    0  501 -0.00000000000E+00  0.00000000000E+00  0.12122509673E+03  0.12122509673E+03  0.00000000000E+00 0.  1.
          3   -1    0    0  501    0  0.00000000000E+00 -0.00000000000E+00 -0.23712752129E+02  0.23712752129E+02  0.00000000000E+00 0. -1.
         23    2    1    2    0    0 -0.76286614890E+01 -0.11770653837E+02  0.83199718702E+02  0.12489798788E+03  0.92090007150E+02 0.  0.
         11    1    3    3    0    0  0.25964676078E+02  0.18052206071E+02  0.14952326109E+01  0.31658841868E+02  0.00000000000E+00 0. -1.
        -11    1    3    3    0    0 -0.33593337567E+02 -0.29822859908E+02  0.81704486091E+02  0.93239146014E+02  0.00000000000E+00 0.  1.
         22    1    1    2    0    0  0.76286614890E+01  0.11770653837E+02  0.14312625898E+02  0.20039860977E+02  0.00000000000E+00 0. -1.
<mgrwt>
<rscale>  0 0.58027304E+02</rscale>
<asrwt>0</asrwt>
<pdfrwt beam="1">  1        3 0.36481158E-02 0.93152102E+02</pdfrwt>
<pdfrwt beam="2">  1       -3 0.18650015E-01 0.93152102E+02</pdfrwt>
<totfact> 0.19584610E+04</totfact>
</mgrwt>
</event>
<event>
 6    1  0.1727544E-002  0.9143621E+02  0.7546771E-02  0.1420121E+00
         -2   -1    0    0    0  501 -0.00000000000E+00  0.00000000000E+00  0.98752356805E+01  0.98752356805E+01  0.00000000000E+00 0.  1.
          2   -1    0    0  501    0  0.00000000000E+00 -0.00000000000E+00 -0.28029946175E+03  0.28029946175E+03  0.00000000000E+00 0. -1.
         23    2    1    2    0    0  0.10845942412E+02 -0.50545170595E+01 -0.21794325875E+03  0.23634687432E+03  0.90649866844E+02 0.  0.
         11    1    3    3    0    0  0.41071755618E+02 -0.19254158927E+02 -0.61731678969E+02  0.76605560725E+02  0.00000000000E+00 0.  1.
        -11    1    3    3    0    0 -0.30225813206E+02  0.14199641867E+02 -0.15621157978E+03  0.15974131360E+03  0.00000000000E+00 0. -1.
         22    1    1    2    0    0 -0.10845942412E+02  0.50545170595E+01 -0.52480967327E+02  0.53827823113E+02  0.00000000000E+00 0. -1.
<mgrwt>
<rscale>  0 0.54995222E+02</rscale>
<asrwt>0</asrwt>
<pdfrwt beam="1">  1        2 0.43122986E-01 0.91436213E+02</pdfrwt>
<pdfrwt beam="2">  1       -2 0.15192673E-02 0.91436213E+02</pdfrwt>
<totfact> 0.11656143E+05</totfact>
</mgrwt>
</event>
<event>
 6    1  0.1727544E-002  0.9186787E+02  0.7546771E-02  0.1397187E+00
         -1   -1    0    0    0  501 -0.00000000000E+00  0.00000000000E+00  0.13906274747E+02  0.13906274747E+02  0.00000000000E+00 0.  1.
          1   -1    0    0  501    0  0.00000000000E+00 -0.00000000000E+00 -0.21506094710E+03  0.21506094710E+03  0.00000000000E+00 0. -1.
         23    2    1    2    0    0  0.10925755214E+02 -0.12876869290E+02 -0.16028024533E+03  0.18474161078E+03  0.90302379933E+02 0.  0.
         13    1    3    3    0    0  0.16441293045E+02  0.10386200191E+02 -0.15964508698E+03  0.16082519413E+03  0.00000000000E+00 0. -1.
        -13    1    3    3    0    0 -0.55155378316E+01 -0.23263069480E+02 -0.63515835177E+00  0.23916416649E+02  0.00000000000E+00 0.  1.
         22    1    1    2    0    0 -0.10925755214E+02  0.12876869290E+02 -0.40874427024E+02  0.44225611067E+02  0.00000000000E+00 0. -1.
<mgrwt>
<rscale>  0 0.60153894E+02</rscale>
<asrwt>0</asrwt>
<pdfrwt beam="1">  1        1 0.33086298E-01 0.91867871E+02</pdfrwt>
<pdfrwt beam="2">  1       -1 0.21394270E-02 0.91867871E+02</pdfrwt>
<totfact> 0.71600619E+04</totfact>
</mgrwt>
</event>
<event>
 6    1  0.1727544E-002  0.9325146E+02  0.7546771E-02  0.1401049E+00
          4   -1    0    0  501    0  0.00000000000E+00  0.00000000000E+00  0.16075391724E+03  0.16075391724E+03  0.00000000000E+00 0. -1.
         -4   -1    0    0    0  501 -0.00000000000E+00 -0.00000000000E+00 -0.19455493804E+02  0.19455493804E+02  0.00000000000E+00 0.  1.
         23    2    1    2    0    0 -0.20669927486E+01 -0.15046532728E+02  0.10264325244E+03  0.13867758168E+03  0.92006324679E+02 0.  0.
         11    1    3    3    0    0  0.16613991557E+02  0.24099847143E+02  0.88247877641E+02  0.92975885347E+02  0.00000000000E+00 0. -1.
        -11    1    3    3    0    0 -0.18680984305E+02 -0.39146379872E+02  0.14395374803E+02  0.45701696329E+02  0.00000000000E+00 0.  1.
         22    1    1    2    0    0  0.20669927486E+01  0.15046532728E+02  0.38655170991E+02  0.41531829366E+02  0.00000000000E+00 0.  1.
<mgrwt>
<rscale>  0 0.59240096E+02</rscale>
<asrwt>0</asrwt>
<pdfrwt beam="1">  1        4 0.24731371E-01 0.93251458E+02</pdfrwt>
<pdfrwt beam="2">  1       -4 0.29931530E-02 0.93251458E+02</pdfrwt>
<totfact> 0.12093890E+04</totfact>
</mgrwt>
</event>
<event>
 6    1  0.1727544E-002  0.9083853E+02  0.7546771E-02  0.1388087E+00
          1   -1    0    0  501    0  0.00000000000E+00  0.00000000000E+00  0.28480113208E+03  0.28480113208E+03  0.00000000000E+00 0. -1.
         -1   -1    0    0    0  501 -0.00000000000E+00 -0.00000000000E+00 -0.13241612194E+02  0.13241612194E+02  0.00000000000E+00 0.  1.
         23    2    1    2    0    0  0.61270375236E+01  0.19256078040E+02  0.15428890418E+03  0.17904386008E+03  0.88562411613E+02 0.  0.
         13    1    3    3    0    0  0.43505930413E+02  0.21639050516E+02  0.57622179461E+02  0.75374598203E+02  0.00000000000E+00 0.  1.
        -13    1    3    3    0    0 -0.37378892889E+02 -0.23829724762E+01  0.96666724718E+02  0.10366926188E+03  0.00000000000E+00 0. -1.
         22    1    1    2    0    0 -0.61270375236E+01 -0.19256078040E+02  0.11727061570E+03  0.11899888419E+03  0.00000000000E+00 0. -1.
<mgrwt>
<rscale>  0 0.62384963E+02</rscale>
<asrwt>0</asrwt>
<pdfrwt beam="1">  1        1 0.43815554E-01 0.90838526E+02</pdfrwt>
<pdfrwt beam="2">  1       -1 0.20371713E-02 0.90838526E+02</pdfrwt>
<totfact> 0.54409375E+04</totfact>
</mgrwt>
</event>
<event>
 6    1  0.1727544E-002  0.9091202E+02  0.7546771E-02  0.1425991E+00
          2   -1    0    0  501    0  0.00000000000E+00  0.00000000000E+00  0.14003327602E+03  0.14003327602E+03  0.00000000000E+00 0. -1.
         -2   -1    0    0    0  501 -0.00000000000E+00 -0.00000000000E+00 -0.20253118128E+02  0.20253118128E+02  0.00000000000E+00 0.  1.
         23    2    1    2    0    0  0.10116504485E+02 -0.46345031589E+01  0.87648323891E+02  0.12628232029E+03  0.90228451473E+02 0.  0.
         13    1    3    3    0    0  0.19870454073E+02 -0.29293375478E+02  0.72525828410E+00  0.35404276459E+02  0.00000000000E+00 0.  1.
        -13    1    3    3    0    0 -0.97539495886E+01  0.24658872320E+02  0.86923065607E+02  0.90878043835E+02  0.00000000000E+00 0. -1.
         22    1    1    2    0    0 -0.10116504485E+02  0.46345031589E+01  0.32131833998E+02  0.34004073853E+02  0.00000000000E+00 0. -1.
<mgrwt>
<rscale>  0 0.53773195E+02</rscale>
<asrwt>0</asrwt>
<pdfrwt beam="1">  1        2 0.21543580E-01 0.90912022E+02</pdfrwt>
<pdfrwt beam="2">  1       -2 0.31158644E-02 0.90912022E+02</pdfrwt>
<totfact> 0.87034821E+04</totfact>
</mgrwt>
</event>
<event>
 6    1  0.1727544E-002  0.1069629E+03  0.7546771E-02  0.1309606E+00
          2   -1    0    0  501    0  0.00000000000E+00  0.00000000000E+00  0.10149691029E+02  0.10149691029E+02  0.00000000000E+00 0. -1.
         -2   -1    0    0    0  501 -0.00000000000E+00 -0.00000000000E+00 -0.59836387970E+03  0.59836387970E+03  0.00000000000E+00 0.  1.
         23    2    1    2    0    0  0.45216964766E+02  0.14197958974E+02 -0.36644889985E+03  0.38174055807E+03  0.95890049208E+02 0.  0.
         13    1    3    3    0    0  0.31389012533E+02  0.54787901922E+02 -0.24241408098E+03  0.25050263664E+03  0.00000000000E+00 0.  1.
        -13    1    3    3    0    0  0.13827952233E+02 -0.40589942947E+02 -0.12403481886E+03  0.13123792143E+03  0.00000000000E+00 0. -1.
         22    1    1    2    0    0 -0.45216964766E+02 -0.14197958974E+02 -0.22176528883E+03  0.22677301266E+03  0.00000000000E+00 0. -1.
<mgrwt>
<rscale>  0 0.87267955E+02</rscale>
<asrwt>0</asrwt>
<pdfrwt beam="1">  1        2 0.15614910E-02 0.10696288E+03</pdfrwt>
<pdfrwt beam="2">  1       -2 0.92055978E-01 0.10696288E+03</pdfrwt>
<totfact> 0.73462290E+03</totfact>
</mgrwt>
</event>
<event>
 6    1  0.1727544E-002  0.1467803E+03  0.7546771E-02  0.1215979E+00
         -2   -1    0    0    0  501 -0.00000000000E+00  0.00000000000E+00  0.32538780491E+02  0.32538780491E+02  0.00000000000E+00 0.  1.
          2   -1    0    0  501    0  0.00000000000E+00 -0.00000000000E+00 -0.81944835391E+03  0.81944835391E+03  0.00000000000E+00 0. -1.
         23    2    1    2    0    0 -0.85454347655E+02  0.76731461238E+02 -0.67801480347E+03  0.69372079686E+03  0.91401901472E+02 0.  0.
         11    1    3    3    0    0 -0.39553008544E+02 -0.12522581192E+02 -0.12595646362E+03  0.13261329591E+03  0.00000000000E+00 0.  1.
        -11    1    3    3    0    0 -0.45901339111E+02  0.89254042430E+02 -0.55205833985E+03  0.56110750095E+03  0.00000000000E+00 0. -1.
         22    1    1    2    0    0  0.85454347655E+02 -0.76731461238E+02 -0.10889476995E+03  0.15826633754E+03  0.00000000000E+00 0.  1.
<mgrwt>
<rscale>  0 0.13804866E+03</rscale>
<asrwt>0</asrwt>
<pdfrwt beam="1">  1        2 0.12606899E+00 0.14678035E+03</pdfrwt>
<pdfrwt beam="2">  1       -2 0.50059658E-02 0.14678035E+03</pdfrwt>
<totfact> 0.65291300E+03</totfact>
</mgrwt>
</event>
<event>
 6    1  0.1727544E-002  0.9613792E+02  0.7546771E-02  0.1343619E+00
          2   -1    0    0  501    0  0.00000000000E+00  0.00000000000E+00  0.10027585148E+03  0.10027585148E+03  0.00000000000E+00 0.  1.
         -2   -1    0    0    0  501 -0.00000000000E+00 -0.00000000000E+00 -0.43797887628E+02  0.43797887628E+02  0.00000000000E+00 0. -1.
         23    2    1    2    0    0  0.22149413656E+02 -0.28079477649E+02  0.34742459013E+02  0.10222298331E+03  0.89238143570E+02 0.  0.
         11    1    3    3    0    0  0.51809988049E+02 -0.38332174697E+02  0.19496651038E+02  0.67333126174E+02  0.00000000000E+00 0. -1.
        -11    1    3    3    0    0 -0.29660574393E+02  0.10252697048E+02  0.15245807975E+02  0.34889857135E+02  0.00000000000E+00 0.  1.
         22    1    1    2    0    0 -0.22149413656E+02  0.28079477649E+02  0.21735504836E+02  0.41850755797E+02  0.00000000000E+00 0.  1.
<mgrwt>
<rscale>  0 0.75081361E+02</rscale>
<asrwt>0</asrwt>
<pdfrwt beam="1">  1        2 0.15427054E-01 0.96137921E+02</pdfrwt>
<pdfrwt beam="2">  1       -2 0.67381366E-02 0.96137921E+02</pdfrwt>
<totfact> 0.40801289E+04</totfact>
</mgrwt>
</event>
<event>
 6    1  0.1727544E-002  0.1641459E+03  0.7546771E-02  0.1192571E+00
         -2   -1    0    0    0  501 -0.00000000000E+00  0.00000000000E+00  0.85286230494E+02  0.85286230494E+02  0.00000000000E+00 0.  1.
          2   -1    0    0  501    0  0.00000000000E+00 -0.00000000000E+00 -0.26649347032E+03  0.26649347032E+03  0.00000000000E+00 0. -1.
         23    2    1    2    0    0  0.13350255413E+03  0.26137604536E+02 -0.82553958142E+02  0.18373632452E+03  0.91857360141E+02 0.  0.
         13    1    3    3    0    0 -0.61176563776E+00 -0.19911472241E+02 -0.54226401514E+00  0.19928247145E+02  0.00000000000E+00 0. -1.
        -13    1    3    3    0    0  0.13411431977E+03  0.46049076777E+02 -0.82011694127E+02  0.16380807737E+03  0.00000000000E+00 0.  1.
         22    1    1    2    0    0 -0.13350255413E+03 -0.26137604536E+02 -0.98653281684E+02  0.16804337630E+03  0.00000000000E+00 0. -1.
<mgrwt>
<rscale>  0 0.15661629E+03</rscale>
<asrwt>0</asrwt>
<pdfrwt beam="1">  1        2 0.40998995E-01 0.16414591E+03</pdfrwt>
<pdfrwt beam="2">  1       -2 0.13120959E-01 0.16414591E+03</pdfrwt>
<totfact> 0.51442260E+03</totfact>
</mgrwt>
</event>
<event>
 6    1  0.1727544E-002  0.9148479E+02  0.7546771E-02  0.1423981E+00
          2   -1    0    0  501    0  0.00000000000E+00  0.00000000000E+00  0.85784139940E+01  0.85784139940E+01  0.00000000000E+00 0. -1.
         -2   -1    0    0    0  501 -0.00000000000E+00 -0.00000000000E+00 -0.43642095083E+03  0.43642095083E+03  0.00000000000E+00 0.  1.
         23    2    1    2    0    0 -0.55717520705E+01  0.97850668030E+01 -0.42293467642E+03  0.43271608158E+03  0.90789177690E+02 0.  0.
         13    1    3    3    0    0 -0.11323976732E+02  0.49582699570E+02 -0.25639486326E+03  0.26139051714E+03  0.00000000000E+00 0.  1.
        -13    1    3    3    0    0  0.57522246618E+01 -0.39797632767E+02 -0.16653981316E+03  0.17132556444E+03  0.00000000000E+00 0. -1.
         22    1    1    2    0    0  0.55717520705E+01 -0.97850668030E+01 -0.49078604211E+01  0.12283283250E+02  0.00000000000E+00 0.  1.
<mgrwt>
<rscale>  0 0.54187377E+02</rscale>
<asrwt>0</asrwt>
<pdfrwt beam="1">  1        2 0.13197558E-02 0.91484790E+02</pdfrwt>
<pdfrwt beam="2">  1       -2 0.67141695E-01 0.91484790E+02</pdfrwt>
<totfact> 0.17959119E+04</totfact>
</mgrwt>
</event>
<event>
 6    1  0.1727544E-002  0.9065026E+02  0.7546771E-02  0.1423185E+00
          2   -1    0    0  501    0  0.00000000000E+00  0.00000000000E+00  0.43246617137E+03  0.43246617137E+03  0.00000000000E+00 0. -1.
         -2   -1    0    0    0  501 -0.00000000000E+00 -0.00000000000E+00 -0.61258395533E+01  0.61258395533E+01  0.00000000000E+00 0.  1.
         23    2    1    2    0    0 -0.21943912855E+01 -0.11508687559E+02  0.39056948248E+03  0.40095135598E+03  0.89889954797E+02 0.  0.
         13    1    3    3    0    0 -0.38695258824E+02  0.70274558976E+01  0.28536898399E+03  0.28806625144E+03  0.00000000000E+00 0. -1.
        -13    1    3    3    0    0  0.36500867538E+02 -0.18536143457E+02  0.10520049849E+03  0.11288510454E+03  0.00000000000E+00 0.  1.
         22    1    1    2    0    0  0.21943912855E+01  0.11508687559E+02  0.35770849336E+02  0.37640654945E+02  0.00000000000E+00 0. -1.
<mgrwt>
<rscale>  0 0.54352792E+02</rscale>
<asrwt>0</asrwt>
<pdfrwt beam="1">  1        2 0.66533233E-01 0.90650258E+02</pdfrwt>
<pdfrwt beam="2">  1       -2 0.94243719E-03 0.90650258E+02</pdfrwt>
<totfact> 0.14554886E+05</totfact>
</mgrwt>
</event>
<event>
 6    1  0.1727544E-002  0.9201156E+02  0.7546771E-02  0.1429516E+00
          2   -1    0    0  501    0  0.00000000000E+00  0.00000000000E+00  0.30431124840E+02  0.30431124840E+02  0.00000000000E+00 0. -1.
         -2   -1    0    0    0  501 -0.00000000000E+00 -0.00000000000E+00 -0.88501290089E+02  0.88501290089E+02  0.00000000000E+00 0.  1.
         23    2    1    2    0    0  0.10170564146E+02 -0.22713228941E+00 -0.57986080263E+02  0.10875896741E+03  0.91447446786E+02 0.  0.
         11    1    3    3    0    0  0.36330429849E+02  0.12694111903E+02 -0.67812557725E+02  0.77971684574E+02  0.00000000000E+00 0.  1.
        -11    1    3    3    0    0 -0.26159865703E+02 -0.12921244192E+02  0.98264774625E+01  0.30787282836E+02  0.00000000000E+00 0. -1.
         22    1    1    2    0    0 -0.10170564146E+02  0.22713228941E+00 -0.84084986453E-01  0.10173447519E+02  0.00000000000E+00 0.  1.
<mgrwt>
<rscale>  0 0.53057298E+02</rscale>
<asrwt>0</asrwt>
<pdfrwt beam="1">  1        2 0.46817115E-02 0.92011562E+02</pdfrwt>
<pdfrwt beam="2">  1       -2 0.13615583E-01 0.92011562E+02</pdfrwt>
<totfact> 0.59032173E+04</totfact>
</mgrwt>
</event>
<event>
 6    1  0.1727544E-002  0.9837002E+02  0.7546771E-02  0.1339186E+00
         -2   -1    0    0    0  501 -0.00000000000E+00  0.00000000000E+00  0.15234853983E+02  0.15234853983E+02  0.00000000000E+00 0.  1.
          2   -1    0    0  501    0  0.00000000000E+00 -0.00000000000E+00 -0.34170116255E+03  0.34170116255E+03  0.00000000000E+00 0. -1.
         23    2    1    2    0    0  0.34098599068E+02  0.11679119242E+02 -0.28746544859E+03  0.30383061791E+03  0.91528924163E+02 0.  0.
         11    1    3    3    0    0  0.27007754508E+02 -0.17188756188E+02 -0.27594284150E+02  0.42264839531E+02  0.00000000000E+00 0.  1.
        -11    1    3    3    0    0  0.70908445598E+01  0.28867875430E+02 -0.25987116444E+03  0.26156577837E+03  0.00000000000E+00 0. -1.
         22    1    1    2    0    0 -0.34098599068E+02 -0.11679119242E+02 -0.39000859978E+02  0.53105398631E+02  0.00000000000E+00 0. -1.
<mgrwt>
<rscale>  0 0.76533762E+02</rscale>
<asrwt>0</asrwt>
<pdfrwt beam="1">  1        2 0.52569407E-01 0.98370017E+02</pdfrwt>
<pdfrwt beam="2">  1       -2 0.23438238E-02 0.98370017E+02</pdfrwt>
<totfact> 0.51349940E+04</totfact>
</mgrwt>
</event>
<event>
 6    1  0.1727544E-002  0.9258960E+02  0.7546771E-02  0.1376051E+00
         -2   -1    0    0    0  501 -0.00000000000E+00  0.00000000000E+00  0.16777055846E+02  0.16777055846E+02  0.00000000000E+00 0.  1.
          2   -1    0    0  501    0  0.00000000000E+00 -0.00000000000E+00 -0.19981342217E+03  0.19981342217E+03  0.00000000000E+00 0. -1.
         23    2    1    2    0    0  0.21364521617E+02  0.90633306769E+01 -0.14605130498E+03  0.17292720387E+03  0.89633963450E+02 0.  0.
         11    1    3    3    0    0 -0.50384320548E+01  0.22837236314E+01 -0.14555818926E+03  0.14566326803E+03  0.00000000000E+00 0. -1.
        -11    1    3    3    0    0  0.26402953671E+02  0.67796070455E+01 -0.49311571709E+00  0.27263935838E+02  0.00000000000E+00 0.  1.
         22    1    1    2    0    0 -0.21364521617E+02 -0.90633306769E+01 -0.36985061342E+02  0.43663274148E+02  0.00000000000E+00 0. -1.
<mgrwt>
<rscale>  0 0.65513170E+02</rscale>
<asrwt>0</asrwt>
<pdfrwt beam="1">  1        2 0.30740527E-01 0.92589601E+02</pdfrwt>
<pdfrwt beam="2">  1       -2 0.25810855E-02 0.92589601E+02</pdfrwt>
<totfact> 0.77949574E+04</totfact>
</mgrwt>
</event>
<event>
 6    1  0.1727544E-002  0.9420609E+02  0.7546771E-02  0.1368684E+00
          2   -1    0    0  501    0  0.00000000000E+00  0.00000000000E+00  0.66518709535E+03  0.66518709535E+03  0.00000000000E+00 0. -1.
         -2   -1    0    0    0  501 -0.00000000000E+00 -0.00000000000E+00 -0.59143407717E+01  0.59143407717E+01  0.00000000000E+00 0.  1.
         23    2    1    2    0    0 -0.48486764500E+01 -0.24403878920E+02  0.59047582543E+03  0.59794354913E+03  0.90861039794E+02 0.  0.
         13    1    3    3    0    0  0.12337327612E+02 -0.45280561162E+02  0.52514270041E+03  0.52723561589E+03  0.00000000000E+00 0. -1.
        -13    1    3    3    0    0 -0.17186004062E+02  0.20876682242E+02  0.65333125022E+02  0.70707933234E+02  0.00000000000E+00 0.  1.
         22    1    1    2    0    0  0.48486764500E+01  0.24403878920E+02  0.68796929144E+02  0.73157886994E+02  0.00000000000E+00 0.  1.
<mgrwt>
<rscale>  0 0.67534508E+02</rscale>
<asrwt>0</asrwt>
<pdfrwt beam="1">  1        2 0.10233642E+00 0.94206091E+02</pdfrwt>
<pdfrwt beam="2">  1       -2 0.90989911E-03 0.94206091E+02</pdfrwt>
<totfact> 0.95877525E+04</totfact>
</mgrwt>
</event>
<event>
 6    1  0.1727544E-002  0.9179611E+02  0.7546771E-02  0.1402661E+00
         -1   -1    0    0    0  501 -0.00000000000E+00  0.00000000000E+00  0.74300099696E+02  0.74300099696E+02  0.00000000000E+00 0.  1.
          1   -1    0    0  501    0  0.00000000000E+00 -0.00000000000E+00 -0.40151252106E+02  0.40151252106E+02  0.00000000000E+00 0. -1.
         23    2    1    2    0    0  0.11332864431E+00 -0.15521004684E+02  0.36434909010E+02  0.98762486114E+02  0.90474370067E+02 0.  0.
         11    1    3    3    0    0  0.20590831139E+02 -0.32874797760E+02  0.54143663432E+02  0.66605337208E+02  0.00000000000E+00 0.  1.
        -11    1    3    3    0    0 -0.20477502495E+02  0.17353793076E+02 -0.17708754422E+02  0.32157148905E+02  0.00000000000E+00 0. -1.
         22    1    1    2    0    0 -0.11332864431E+00  0.15521004684E+02 -0.22860614191E+01  0.15688865689E+02  0.00000000000E+00 0. -1.
<mgrwt>
<rscale>  0 0.58864175E+02</rscale>
<asrwt>0</asrwt>
<pdfrwt beam="1">  1        1 0.61771157E-02 0.91796111E+02</pdfrwt>
<pdfrwt beam="2">  1       -1 0.11430785E-01 0.91796111E+02</pdfrwt>
<totfact> 0.52678705E+04</totfact>
</mgrwt>
</event>
<event>
 6    1  0.1727544E-002  0.9613508E+02  0.7546771E-02  0.1346292E+00
         -1   -1    0    0    0  501 -0.00000000000E+00  0.00000000000E+00  0.31698355094E+02  0.31698355094E+02  0.00000000000E+00 0.  1.
          1   -1    0    0  501    0  0.00000000000E+00 -0.00000000000E+00 -0.13450026738E+03  0.13450026738E+03  0.00000000000E+00 0. -1.
         23    2    1    2    0    0  0.10968996992E+02 -0.32351800704E+02 -0.70832752887E+02  0.11941203191E+03  0.89860984748E+02 0.  0.
         13    1    3    3    0    0  0.27511182851E+02 -0.21816144162E+02 -0.87113159914E+02  0.93922904333E+02  0.00000000000E+00 0. -1.
        -13    1    3    3    0    0 -0.16542185859E+02 -0.10535656541E+02  0.16280407028E+02  0.25489127579E+02  0.00000000000E+00 0.  1.
         22    1    1    2    0    0 -0.10968996992E+02  0.32351800704E+02 -0.31969159401E+02  0.46786590564E+02  0.00000000000E+00 0.  1.
<mgrwt>
<rscale>  0 0.74223825E+02</rscale>
<asrwt>0</asrwt>
<pdfrwt beam="1">  1        1 0.20692349E-01 0.96135085E+02</pdfrwt>
<pdfrwt beam="2">  1       -1 0.48766700E-02 0.96135085E+02</pdfrwt>
<totfact> 0.39158846E+04</totfact>
</mgrwt>
</event>
<event>
 6    1  0.1727544E-002  0.1074803E+03  0.7546771E-02  0.1360696E+00
          1   -1    0    0  501    0  0.00000000000E+00  0.00000000000E+00  0.24518054821E+03  0.24518054821E+03  0.00000000000E+00 0.  1.
         -1   -1    0    0    0  501 -0.00000000000E+00 -0.00000000000E+00 -0.22069114767E+02  0.22069114767E+02  0.00000000000E+00 0. -1.
         23    2    1    2    0    0  0.43382692168E+01  0.18644989476E+02  0.11480602338E+03  0.15726549111E+03  0.10576178647E+03 0.  0.
         11    1    3    3    0    0 -0.46649083589E+02  0.68532854865E+01  0.84570299588E+02  0.96825823488E+02  0.00000000000E+00 0.  1.
        -11    1    3    3    0    0  0.50987352806E+02  0.11791703990E+02  0.30235723794E+02  0.60439667624E+02  0.00000000000E+00 0. -1.
         22    1    1    2    0    0 -0.43382692168E+01 -0.18644989476E+02  0.10830541006E+03  0.10998417186E+03  0.00000000000E+00 0.  1.
<mgrwt>
<rscale>  0 0.69823139E+02</rscale>
<asrwt>0</asrwt>
<pdfrwt beam="1">  1        1 0.37720082E-01 0.10748029E+03</pdfrwt>
<pdfrwt beam="2">  1       -1 0.33952486E-02 0.10748029E+03</pdfrwt>
<totfact> 0.31996676E+04</totfact>
</mgrwt>
</event>
<event>
 6    1  0.1727544E-002  0.9430416E+02  0.7546771E-02  0.1393953E+00
         -2   -1    0    0    0  501 -0.00000000000E+00  0.00000000000E+00  0.20730477453E+02  0.20730477453E+02  0.00000000000E+00 0.  1.
          2   -1    0    0  501    0  0.00000000000E+00 -0.00000000000E+00 -0.19376074398E+03  0.19376074398E+03  0.00000000000E+00 0. -1.
         23    2    1    2    0    0  0.13025317187E+02  0.10027335580E+02 -0.91775225671E+02  0.13159014779E+03  0.92860479223E+02 0.  0.
         13    1    3    3    0    0 -0.96125902781E+01 -0.67276932646E+01  0.16199816126E+02  0.20002444627E+02  0.00000000000E+00 0.  1.
        -13    1    3    3    0    0  0.22637907465E+02  0.16755028844E+02 -0.10797504180E+03  0.11158770316E+03  0.00000000000E+00 0. -1.
         22    1    1    2    0    0 -0.13025317187E+02 -0.10027335580E+02 -0.81255040851E+02  0.82901073638E+02  0.00000000000E+00 0.  1.
<mgrwt>
<rscale>  0 0.60934056E+02</rscale>
<asrwt>0</asrwt>
<pdfrwt beam="1">  1        2 0.29809346E-01 0.94304162E+02</pdfrwt>
<pdfrwt beam="2">  1       -2 0.31893041E-02 0.94304162E+02</pdfrwt>
<totfact> 0.59386677E+04</totfact>
</mgrwt>
</event>
<event>
 6    1  0.1727544E-002  0.8974763E+02  0.7546771E-02  0.1411818E+00
          1   -1    0    0  501    0  0.00000000000E+00  0.00000000000E+00  0.18856804552E+02  0.18856804552E+02  0.00000000000E+00 0. -1.
         -1   -1    0    0    0  501 -0.00000000000E+00 -0.00000000000E+00 -0.14452025527E+03  0.14452025527E+03  0.00000000000E+00 0.  1.
         23    2    1    2    0    0 -0.13749333297E+02  0.42416823428E+01 -0.11213101809E+03  0.14362452156E+03  0.88586691654E+02 0.  0.
         11    1    3    3    0    0 -0.15772360070E+02  0.45585530875E+02 -0.63995216906E+02  0.80138603395E+02  0.00000000000E+00 0.  1.
        -11    1    3    3    0    0  0.20230267735E+01 -0.41343848532E+02 -0.48135801188E+02  0.63485918161E+02  0.00000000000E+00 0. -1.
         22    1    1    2    0    0  0.13749333297E+02 -0.42416823428E+01 -0.13532432623E+02  0.19752538265E+02  0.00000000000E+00 0. -1.
<mgrwt>
<rscale>  0 0.56790148E+02</rscale>
<asrwt>0</asrwt>
<pdfrwt beam="1">  1        1 0.29010468E-02 0.89747635E+02</pdfrwt>
<pdfrwt beam="2">  1       -1 0.22233886E-01 0.89747635E+02</pdfrwt>
<totfact> 0.51868979E+04</totfact>
</mgrwt>
</event>
<event>
 6    1  0.1727544E-002  0.1435922E+03  0.7546771E-02  0.1220025E+00
         -2   -1    0    0    0  501 -0.00000000000E+00  0.00000000000E+00  0.45342777376E+02  0.45342777376E+02  0.00000000000E+00 0.  1.
          2   -1    0    0  501    0  0.00000000000E+00 -0.00000000000E+00 -0.47438887408E+03  0.47438887408E+03  0.00000000000E+00 0. -1.
         23    2    1    2    0    0 -0.11218226048E+03  0.10214848662E+02 -0.10851884011E+03  0.17998626897E+03  0.89047827936E+02 0.  0.
         13    1    3    3    0    0 -0.38578627792E+02  0.46377933848E+02 -0.34385919664E+02  0.69437848048E+02  0.00000000000E+00 0. -1.
        -13    1    3    3    0    0 -0.73603632688E+02 -0.36163085187E+02 -0.74132920446E+02  0.11054842092E+03  0.00000000000E+00 0.  1.
         22    1    1    2    0    0  0.11218226048E+03 -0.10214848662E+02 -0.32052725660E+03  0.33974538249E+03  0.00000000000E+00 0. -1.
<mgrwt>
<rscale>  0 0.13513798E+03</rscale>
<asrwt>0</asrwt>
<pdfrwt beam="1">  1        2 0.72982901E-01 0.14359219E+03</pdfrwt>
<pdfrwt beam="2">  1       -2 0.69758121E-02 0.14359219E+03</pdfrwt>
<totfact> 0.74289234E+03</totfact>
</mgrwt>
</event>
<event>
 6    1  0.1727544E-002  0.9086186E+02  0.7546771E-02  0.1421732E+00
         -2   -1    0    0    0  501 -0.00000000000E+00  0.00000000000E+00  0.15157043476E+03  0.15157043476E+03  0.00000000000E+00 0.  1.
          2   -1    0    0  501    0  0.00000000000E+00 -0.00000000000E+00 -0.19242661050E+02  0.19242661050E+02  0.00000000000E+00 0. -1.
         23    2    1    2    0    0 -0.96299122509E+01  0.69848078198E+01  0.13013444035E+03  0.15871625897E+03  0.90079717740E+02 0.  0.
         13    1    3    3    0    0 -0.37880823754E+02 -0.21155664983E+02  0.35626232732E+02  0.56140425968E+02  0.00000000000E+00 0. -1.
        -13    1    3    3    0    0  0.28250911503E+02  0.28140472803E+02  0.94508207614E+02  0.10257583301E+03  0.00000000000E+00 0.  1.
         22    1    1    2    0    0  0.96299122509E+01 -0.69848078198E+01  0.21933333652E+01  0.12096836838E+02  0.00000000000E+00 0. -1.
<mgrwt>
<rscale>  0 0.54656210E+02</rscale>
<asrwt>0</asrwt>
<pdfrwt beam="1">  1        2 0.29604095E-02 0.90861864E+02</pdfrwt>
<pdfrwt beam="2">  1       -2 0.23318528E-01 0.90861864E+02</pdfrwt>
<totfact> 0.44200508E+04</totfact>
</mgrwt>
</event>
<event>
 6    1  0.1727544E-002  0.9777382E+02  0.7546771E-02  0.1343413E+00
         -2   -1    0    0    0  501 -0.00000000000E+00  0.00000000000E+00  0.20460294385E+02  0.20460294385E+02  0.00000000000E+00 0. -1.
          2   -1    0    0  501    0  0.00000000000E+00 -0.00000000000E+00 -0.21634030336E+03  0.21634030336E+03  0.00000000000E+00 0.  1.
         23    2    1    2    0    0 -0.29827427248E+02 -0.16567267848E+02 -0.15813120369E+03  0.18591718119E+03  0.91627347993E+02 0.  0.
         13    1    3    3    0    0 -0.27132673321E+02  0.35912720211E+02 -0.66844665173E+02  0.80586070115E+02  0.00000000000E+00 0.  1.
        -13    1    3    3    0    0 -0.26947539271E+01 -0.52479988059E+02 -0.91286538515E+02  0.10533111107E+03  0.00000000000E+00 0. -1.
         22    1    1    2    0    0  0.29827427248E+02  0.16567267848E+02 -0.37748805287E+02  0.50883416559E+02  0.00000000000E+00 0.  1.
<mgrwt>
<rscale>  0 0.75148109E+02</rscale>
<asrwt>0</asrwt>
<pdfrwt beam="1">  1        2 0.33283124E-01 0.97773824E+02</pdfrwt>
<pdfrwt beam="2">  1       -2 0.31477376E-02 0.97773824E+02</pdfrwt>
<totfact> 0.54077936E+04</totfact>
</mgrwt>
</event>
<event>
 6    1  0.1727544E-002  0.9319376E+02  0.7546771E-02  0.1392002E+00
         -4   -1    0    0    0  501 -0.00000000000E+00  0.00000000000E+00  0.62147916222E+02  0.62147916222E+02  0.00000000000E+00 0. -1.
          4   -1    0    0  501    0  0.00000000000E+00 -0.00000000000E+00 -0.51407328993E+02  0.51407328993E+02  0.00000000000E+00 0.  1.
         23    2    1    2    0    0  0.16610031757E+02 -0.57362184410E+01  0.17323262758E+02  0.94790145319E+02  0.91522012981E+02 0.  0.
         11    1    3    3    0    0  0.27655884196E+02 -0.19243564475E+02 -0.29524780068E+02  0.44798162266E+02  0.00000000000E+00 0.  1.
        -11    1    3    3    0    0 -0.11045852439E+02  0.13507346034E+02  0.46848042826E+02  0.49991983053E+02  0.00000000000E+00 0. -1.
         22    1    1    2    0    0 -0.16610031757E+02  0.57362184410E+01 -0.65826755291E+01  0.18765099896E+02  0.00000000000E+00 0. -1.
<mgrwt>
<rscale>  0 0.61411444E+02</rscale>
<asrwt>0</asrwt>
<pdfrwt beam="1">  1        4 0.79088198E-02 0.93193756E+02</pdfrwt>
<pdfrwt beam="2">  1       -4 0.95612179E-02 0.93193756E+02</pdfrwt>
<totfact> 0.13422272E+04</totfact>
</mgrwt>
</event>
<event>
 6    1  0.1727544E-002  0.9548240E+02  0.7546771E-02  0.1355739E+00
         -2   -1    0    0    0  501 -0.00000000000E+00  0.00000000000E+00  0.74937012222E+01  0.74937012222E+01  0.00000000000E+00 0.  1.
          2   -1    0    0  501    0  0.00000000000E+00 -0.00000000000E+00 -0.53513990573E+03  0.53513990573E+03  0.00000000000E+00 0. -1.
         23    2    1    2    0    0 -0.28726456224E+02  0.74728235543E+01 -0.43469893412E+03  0.44506185155E+03  0.90751506897E+02 0.  0.
         11    1    3    3    0    0 -0.82464823920E+01  0.44276657197E+02 -0.31425673500E+03  0.31746767133E+03  0.00000000000E+00 0. -1.
        -11    1    3    3    0    0 -0.20479973832E+02 -0.36803833643E+02 -0.12044219911E+03  0.12759418022E+03  0.00000000000E+00 0.  1.
         22    1    1    2    0    0  0.28726456224E+02 -0.74728235543E+01 -0.92947270390E+02  0.97571755401E+02  0.00000000000E+00 0.  1.
<mgrwt>
<rscale>  0 0.71296417E+02</rscale>
<asrwt>0</asrwt>
<pdfrwt beam="1">  1        2 0.82329237E-01 0.95482398E+02</pdfrwt>
<pdfrwt beam="2">  1       -2 0.11528768E-02 0.95482398E+02</pdfrwt>
<totfact> 0.87630813E+04</totfact>
</mgrwt>
</event>
<event>
 6    1  0.1727544E-002  0.9210198E+02  0.7546771E-02  0.1394934E+00
         -2   -1    0    0    0  501 -0.00000000000E+00  0.00000000000E+00  0.87568389753E+01  0.87568389753E+01  0.00000000000E+00 0.  1.
          2   -1    0    0  501    0  0.00000000000E+00 -0.00000000000E+00 -0.36400279569E+03  0.36400279569E+03  0.00000000000E+00 0. -1.
         23    2    1    2    0    0 -0.16232592524E+02  0.61857692924E+01 -0.25735457971E+03  0.27333889994E+03  0.90448956434E+02 0.  0.
         11    1    3    3    0    0 -0.50073067443E+02  0.19590208307E+02 -0.12507146776E+03  0.13613948874E+03  0.00000000000E+00 0.  1.
        -11    1    3    3    0    0  0.33840474919E+02 -0.13404439015E+02 -0.13228311195E+03  0.13719941121E+03  0.00000000000E+00 0. -1.
         22    1    1    2    0    0  0.16232592524E+02 -0.61857692924E+01 -0.97891376998E+02  0.99420734721E+02  0.00000000000E+00 0. -1.
<mgrwt>
<rscale>  0 0.60695931E+02</rscale>
<asrwt>0</asrwt>
<pdfrwt beam="1">  1        2 0.56000432E-01 0.92101979E+02</pdfrwt>
<pdfrwt beam="2">  1       -2 0.13472060E-02 0.92101979E+02</pdfrwt>
<totfact> 0.10537192E+05</totfact>
</mgrwt>
</event>
<event>
 6    1  0.1727544E-002  0.9795641E+02  0.7546771E-02  0.1339266E+00
         -1   -1    0    0    0  501 -0.00000000000E+00  0.00000000000E+00  0.35937519799E+02  0.35937519799E+02  0.00000000000E+00 0.  1.
          1   -1    0    0  501    0  0.00000000000E+00 -0.00000000000E+00 -0.15480995047E+03  0.15480995047E+03  0.00000000000E+00 0. -1.
         23    2    1    2    0    0  0.34931481632E+02  0.10416632429E+02 -0.43819243536E+02  0.10731069457E+03  0.90921638923E+02 0.  0.
         11    1    3    3    0    0 -0.22672183176E+02  0.23717359272E+02  0.14611678530E+01  0.32843203746E+02  0.00000000000E+00 0.  1.
        -11    1    3    3    0    0  0.57603664808E+02 -0.13300726843E+02 -0.45280411389E+02  0.74467490822E+02  0.00000000000E+00 0. -1.
         22    1    1    2    0    0 -0.34931481632E+02 -0.10416632429E+02 -0.75053187140E+02  0.83436775705E+02  0.00000000000E+00 0. -1.
<mgrwt>
<rscale>  0 0.76507432E+02</rscale>
<asrwt>0</asrwt>
<pdfrwt beam="1">  1        1 0.23816915E-01 0.97956414E+02</pdfrwt>
<pdfrwt beam="2">  1       -1 0.55288492E-02 0.97956414E+02</pdfrwt>
<totfact> 0.27380107E+04</totfact>
</mgrwt>
</event>
<event>
 6    1  0.1727544E-002  0.9197107E+02  0.7546771E-02  0.1417710E+00
         -2   -1    0    0    0  501 -0.00000000000E+00  0.00000000000E+00  0.65407835438E+02  0.65407835438E+02  0.00000000000E+00 0. -1.
          2   -1    0    0  501    0  0.00000000000E+00 -0.00000000000E+00 -0.44738531960E+02  0.44738531960E+02  0.00000000000E+00 0.  1.
         23    2    1    2    0    0 -0.93472311024E+01 -0.78455651141E+01  0.27713495392E+02  0.96055793918E+02  0.91157852636E+02 0.  0.
         11    1    3    3    0    0  0.40972100852E+02 -0.13552195196E+01  0.15843521575E+02  0.43949594357E+02  0.00000000000E+00 0. -1.
        -11    1    3    3    0    0 -0.50319331955E+02 -0.64903455946E+01  0.11869973817E+02  0.52106199561E+02  0.00000000000E+00 0.  1.
         22    1    1    2    0    0  0.93472311024E+01  0.78455651141E+01 -0.70441919151E+01  0.14090573479E+02  0.00000000000E+00 0. -1.
<mgrwt>
<rscale>  0 0.55508422E+02</rscale>
<asrwt>0</asrwt>
<pdfrwt beam="1">  1        2 0.68828511E-02 0.91971070E+02</pdfrwt>
<pdfrwt beam="2">  1       -2 0.10062744E-01 0.91971070E+02</pdfrwt>
<totfact> 0.58136410E+04</totfact>
</mgrwt>
</event>
<event>
 6    1  0.1727544E-002  0.9132856E+02  0.7546771E-02  0.1396863E+00
          3   -1    0    0  501    0  0.00000000000E+00  0.00000000000E+00  0.29056566543E+02  0.29056566543E+02  0.00000000000E+00 0. -1.
         -3   -1    0    0    0  501 -0.00000000000E+00 -0.00000000000E+00 -0.10662274406E+03  0.10662274406E+03  0.00000000000E+00 0.  1.
         23    2    1    2    0    0 -0.74714238532E+01 -0.15578123816E+02 -0.75071813150E+02  0.11822302321E+03  0.89679462366E+02 0.  0.
         11    1    3    3    0    0 -0.63395371176E+01 -0.53224900520E+02 -0.46254314168E+02  0.70799303283E+02  0.00000000000E+00 0. -1.
        -11    1    3    3    0    0 -0.11318867356E+01  0.37646776703E+02 -0.28817498981E+02  0.47423719922E+02  0.00000000000E+00 0.  1.
         22    1    1    2    0    0  0.74714238532E+01  0.15578123816E+02 -0.24943643644E+01  0.17456287395E+02  0.00000000000E+00 0. -1.
<mgrwt>
<rscale>  0 0.60231409E+02</rscale>
<asrwt>0</asrwt>
<pdfrwt beam="1">  1        3 0.44702410E-02 0.91328561E+02</pdfrwt>
<pdfrwt beam="2">  1       -3 0.16403499E-01 0.91328561E+02</pdfrwt>
<totfact> 0.17729725E+04</totfact>
</mgrwt>
</event>
<event>
 6    1  0.1727544E-002  0.9176674E+02  0.7546771E-02  0.1425225E+00
          1   -1    0    0  501    0  0.00000000000E+00  0.00000000000E+00  0.26802156563E+03  0.26802156563E+03  0.00000000000E+00 0. -1.
         -1   -1    0    0    0  501 -0.00000000000E+00 -0.00000000000E+00 -0.10166311729E+02  0.10166311729E+02  0.00000000000E+00 0.  1.
         23    2    1    2    0    0 -0.25693918016E+01 -0.10640971677E+02  0.21136712230E+03  0.23042828741E+03  0.91111487728E+02 0.  0.
         13    1    3    3    0    0  0.47410446909E+01 -0.11377273703E+02 -0.54571032450E+01  0.13479608210E+02  0.00000000000E+00 0.  1.
        -13    1    3    3    0    0 -0.73104364925E+01  0.73630202667E+00  0.21682422555E+03  0.21694867920E+03  0.00000000000E+00 0. -1.
         22    1    1    2    0    0  0.25693918016E+01  0.10640971677E+02  0.46488131596E+02  0.47759589945E+02  0.00000000000E+00 0. -1.
<mgrwt>
<rscale>  0 0.53930645E+02</rscale>
<asrwt>0</asrwt>
<pdfrwt beam="1">  1        1 0.41234082E-01 0.91766744E+02</pdfrwt>
<pdfrwt beam="2">  1       -1 0.15640482E-02 0.91766744E+02</pdfrwt>
<totfact> 0.85483339E+04</totfact>
</mgrwt>
</event>
<event>
 6    1  0.1727544E-002  0.9264948E+02  0.7546771E-02  0.1402822E+00
         -4   -1    0    0    0  501 -0.00000000000E+00  0.00000000000E+00  0.27171952740E+02  0.27171952740E+02  0.00000000000E+00 0.  1.
          4   -1    0    0  501    0  0.00000000000E+00 -0.00000000000E+00 -0.10876247909E+03  0.10876247909E+03  0.00000000000E+00 0. -1.
         23    2    1    2    0    0  0.10691983704E+02 -0.10603276630E+02 -0.63137750761E+02  0.11211735985E+03  0.91417606716E+02 0.  0.
         13    1    3    3    0    0 -0.31509789275E+02  0.40214382662E+01  0.34344242083E+01  0.31950493823E+02  0.00000000000E+00 0.  1.
        -13    1    3    3    0    0  0.42201772979E+02 -0.14624714896E+02 -0.66572174969E+02  0.80166866027E+02  0.00000000000E+00 0. -1.
         22    1    1    2    0    0 -0.10691983704E+02  0.10603276630E+02 -0.18452775588E+02  0.23817071980E+02  0.00000000000E+00 0. -1.
<mgrwt>
<rscale>  0 0.58826794E+02</rscale>
<asrwt>0</asrwt>
<pdfrwt beam="1">  1        4 0.16732689E-01 0.92649484E+02</pdfrwt>
<pdfrwt beam="2">  1       -4 0.41803004E-02 0.92649484E+02</pdfrwt>
<totfact> 0.14386548E+04</totfact>
</mgrwt>
</event>
<event>
 6    1  0.1727544E-002  0.9096251E+02  0.7546771E-02  0.1409460E+00
          4   -1    0    0  501    0  0.00000000000E+00  0.00000000000E+00  0.28758342111E+02  0.28758342111E+02  0.00000000000E+00 0. -1.
         -4   -1    0    0    0  501 -0.00000000000E+00 -0.00000000000E+00 -0.10980742160E+03  0.10980742160E+03  0.00000000000E+00 0.  1.
         23    2    1    2    0    0 -0.77553907236E+01  0.12058797831E+02 -0.84127478285E+02  0.12390161595E+03  0.89825481590E+02 0.  0.
         13    1    3    3    0    0 -0.37297823121E+02 -0.59817600404E+01 -0.80717047334E+02  0.89118745463E+02  0.00000000000E+00 0.  1.
        -13    1    3    3    0    0  0.29542432397E+02  0.18040557872E+02 -0.34104309519E+01  0.34782870490E+02  0.00000000000E+00 0. -1.
         22    1    1    2    0    0  0.77553907236E+01 -0.12058797831E+02  0.30783987932E+01  0.14664147760E+02  0.00000000000E+00 0. -1.
<mgrwt>
<rscale>  0 0.57314476E+02</rscale>
<asrwt>0</asrwt>
<pdfrwt beam="1">  1        4 0.44243603E-02 0.90962508E+02</pdfrwt>
<pdfrwt beam="2">  1       -4 0.16893450E-01 0.90962508E+02</pdfrwt>
<totfact> 0.12862589E+04</totfact>
</mgrwt>
</event>
<event>
 6    1  0.1727544E-002  0.9101892E+02  0.7546771E-02  0.1400143E+00
          1   -1    0    0  501    0  0.00000000000E+00  0.00000000000E+00  0.10411402838E+03  0.10411402838E+03  0.00000000000E+00 0. -1.
         -1   -1    0    0    0  501 -0.00000000000E+00 -0.00000000000E+00 -0.27841468708E+02  0.27841468708E+02  0.00000000000E+00 0.  1.
         23    2    1    2    0    0  0.15029694497E+02  0.69739658172E+01  0.66442239717E+02  0.11268990324E+03  0.89498129355E+02 0.  0.
         11    1    3    3    0    0 -0.35583580868E+02  0.15327955823E+02  0.20536354546E+02  0.43850647830E+02  0.00000000000E+00 0. -1.
        -11    1    3    3    0    0  0.50613275365E+02 -0.83539900060E+01  0.45905885171E+02  0.68839255411E+02  0.00000000000E+00 0.  1.
         22    1    1    2    0    0 -0.15029694497E+02 -0.69739658172E+01  0.98303199596E+01  0.19265593850E+02  0.00000000000E+00 0.  1.
<mgrwt>
<rscale>  0 0.59452765E+02</rscale>
<asrwt>0</asrwt>
<pdfrwt beam="1">  1        1 0.16017543E-01 0.91018916E+02</pdfrwt>
<pdfrwt beam="2">  1       -1 0.42833029E-02 0.91018916E+02</pdfrwt>
<totfact> 0.64934329E+04</totfact>
</mgrwt>
</event>
<event>
 6    1  0.1727544E-002  0.9921262E+02  0.7546771E-02  0.1331143E+00
         -1   -1    0    0    0  501 -0.00000000000E+00  0.00000000000E+00  0.15211315609E+03  0.15211315609E+03  0.00000000000E+00 0.  1.
          1   -1    0    0  501    0  0.00000000000E+00 -0.00000000000E+00 -0.57910568519E+02  0.57910568519E+02  0.00000000000E+00 0. -1.
         23    2    1    2    0    0  0.40306968863E+02  0.31207981592E+01  0.12472198548E+03  0.15936975369E+03  0.90602172209E+02 0.  0.
         11    1    3    3    0    0  0.15725595399E+02 -0.30044284988E+02  0.70086779494E+01  0.34627662031E+02  0.00000000000E+00 0. -1.
        -11    1    3    3    0    0  0.24581373464E+02  0.33165083148E+02  0.11771330753E+03  0.12474209166E+03  0.00000000000E+00 0.  1.
         22    1    1    2    0    0 -0.40306968863E+02 -0.31207981592E+01 -0.30519397916E+02  0.50653970913E+02  0.00000000000E+00 0. -1.
<mgrwt>
<rscale>  0 0.79267416E+02</rscale>
<asrwt>0</asrwt>
<pdfrwt beam="1">  1        1 0.89093183E-02 0.99212624E+02</pdfrwt>
<pdfrwt beam="2">  1       -1 0.23402024E-01 0.99212624E+02</pdfrwt>
<totfact> 0.10636910E+04</totfact>
</mgrwt>
</event>
<event>
 6    1  0.1727544E-002  0.9272498E+02  0.7546771E-02  0.1384104E+00
          4   -1    0    0  501    0  0.00000000000E+00  0.00000000000E+00  0.43881950747E+02  0.43881950747E+02  0.00000000000E+00 0. -1.
         -4   -1    0    0    0  501 -0.00000000000E+00 -0.00000000000E+00 -0.99296658030E+02  0.99296658030E+02  0.00000000000E+00 0.  1.
         23    2    1    2    0    0 -0.10987806975E+02 -0.17024450482E+02 -0.71675977395E+02  0.11719798673E+03  0.90484023681E+02 0.  0.
         13    1    3    3    0    0  0.28996992975E+02 -0.44626824615E+01  0.50512135263E+01  0.29770050292E+02  0.00000000000E+00 0. -1.
        -13    1    3    3    0    0 -0.39984799950E+02 -0.12561768020E+02 -0.76727190922E+02  0.87427936437E+02  0.00000000000E+00 0.  1.
         22    1    1    2    0    0  0.10987806975E+02  0.17024450482E+02  0.16261270112E+02  0.25980622048E+02  0.00000000000E+00 0.  1.
<mgrwt>
<rscale>  0 0.63397211E+02</rscale>
<asrwt>0</asrwt>
<pdfrwt beam="1">  1        4 0.67510694E-02 0.92724982E+02</pdfrwt>
<pdfrwt beam="2">  1       -4 0.15276409E-01 0.92724982E+02</pdfrwt>
<totfact> 0.78309772E+03</totfact>
</mgrwt>
</event>
<event>
 6    1  0.1727544E-002  0.8998582E+02  0.7546771E-02  0.1422219E+00
          1   -1    0    0  501    0  0.00000000000E+00  0.00000000000E+00  0.32407407796E+03  0.32407407796E+03  0.00000000000E+00 0. -1.
         -1   -1    0    0    0  501 -0.00000000000E+00 -0.00000000000E+00 -0.81741508081E+01  0.81741508081E+01  0.00000000000E+00 0.  1.
         23    2    1    2    0    0  0.10594624704E+02 -0.59598896187E+01  0.26295865081E+03  0.27792930852E+03  0.89160990003E+02 0.  0.
         11    1    3    3    0    0 -0.26363094715E+02  0.26615780164E+02  0.78120726762E+02  0.86638677659E+02  0.00000000000E+00 0. -1.
        -11    1    3    3    0    0  0.36957719419E+02 -0.32575669782E+02  0.18483792405E+03  0.19129063086E+03  0.00000000000E+00 0.  1.
         22    1    1    2    0    0 -0.10594624704E+02  0.59598896187E+01  0.52941276338E+02  0.54318920250E+02  0.00000000000E+00 0. -1.
<mgrwt>
<rscale>  0 0.54554115E+02</rscale>
<asrwt>0</asrwt>
<pdfrwt beam="1">  1        1 0.49857540E-01 0.89985824E+02</pdfrwt>
<pdfrwt beam="2">  1       -1 0.12575619E-02 0.89985824E+02</pdfrwt>
<totfact> 0.92085899E+04</totfact>
</mgrwt>
</event>
<event>
 6    1  0.1727544E-002  0.9273596E+02  0.7546771E-02  0.1395300E+00
         -4   -1    0    0    0  501 -0.00000000000E+00  0.00000000000E+00  0.28189925409E+03  0.28189925409E+03  0.00000000000E+00 0.  1.
          4   -1    0    0  501    0  0.00000000000E+00 -0.00000000000E+00 -0.14724424578E+02  0.14724424578E+02  0.00000000000E+00 0. -1.
         23    2    1    2    0    0  0.16887717092E+02 -0.10169217539E+01  0.26345671259E+03  0.27930162591E+03  0.91179656213E+02 0.  0.
         13    1    3    3    0    0 -0.30503644259E+02  0.11600639273E+02  0.46109296663E+02  0.56489949401E+02  0.00000000000E+00 0. -1.
        -13    1    3    3    0    0  0.47391361351E+02 -0.12617561026E+02  0.21734741593E+03  0.22281167651E+03  0.00000000000E+00 0.  1.
         22    1    1    2    0    0 -0.16887717092E+02  0.10169217539E+01  0.37181169217E+01  0.17322052762E+02  0.00000000000E+00 0. -1.
<mgrwt>
<rscale>  0 0.60607360E+02</rscale>
<asrwt>0</asrwt>
<pdfrwt beam="1">  1        4 0.22652963E-02 0.92735963E+02</pdfrwt>
<pdfrwt beam="2">  1       -4 0.43369112E-01 0.92735963E+02</pdfrwt>
<totfact> 0.63922582E+03</totfact>
</mgrwt>
</event>
<event>
 6    1  0.1727544E-002  0.1024735E+03  0.7546771E-02  0.1317030E+00
         -2   -1    0    0    0  501 -0.00000000000E+00  0.00000000000E+00  0.15434417332E+02  0.15434417332E+02  0.00000000000E+00 0.  1.
          2   -1    0    0  501    0  0.00000000000E+00 -0.00000000000E+00 -0.36961637555E+03  0.36961637555E+03  0.00000000000E+00 0. -1.
         23    2    1    2    0    0  0.32161839800E+02  0.34461907266E+02 -0.26609073624E+03  0.28514048119E+03  0.90987950365E+02 0.  0.
         11    1    3    3    0    0 -0.32796602583E+01  0.57769638320E+02 -0.12367165529E+03  0.13653851326E+03  0.00000000000E+00 0.  1.
        -11    1    3    3    0    0  0.35441500059E+02 -0.23307731054E+02 -0.14241908095E+03  0.14860196793E+03  0.00000000000E+00 0. -1.
         22    1    1    2    0    0 -0.32161839800E+02 -0.34461907266E+02 -0.88091221979E+02  0.99910311687E+02  0.00000000000E+00 0.  1.
<mgrwt>
<rscale>  0 0.84392100E+02</rscale>
<asrwt>0</asrwt>
<pdfrwt beam="1">  1        2 0.56864062E-01 0.10247348E+03</pdfrwt>
<pdfrwt beam="2">  1       -2 0.23745256E-02 0.10247348E+03</pdfrwt>
<totfact> 0.46633660E+04</totfact>
</mgrwt>
</event>
<event>
 6    1  0.1727544E-002  0.9470445E+02  0.7546771E-02  0.1418032E+00
         -1   -1    0    0    0  501 -0.00000000000E+00  0.00000000000E+00  0.21963787765E+02  0.21963787765E+02  0.00000000000E+00 0.  1.
          1   -1    0    0  501    0  0.00000000000E+00 -0.00000000000E+00 -0.12811046666E+03  0.12811046666E+03  0.00000000000E+00 0. -1.
         23    2    1    2    0    0  0.68525617438E+01 -0.87596322261E+01 -0.98043191353E+02  0.13631361238E+03  0.94049161557E+02 0.  0.
         11    1    3    3    0    0  0.27167736582E+02  0.26048771518E+02 -0.86587614525E+02  0.94414190659E+02  0.00000000000E+00 0. -1.
        -11    1    3    3    0    0 -0.20315174838E+02 -0.34808403744E+02 -0.11455576827E+02  0.41899421718E+02  0.00000000000E+00 0.  1.
         22    1    1    2    0    0 -0.68525617438E+01  0.87596322261E+01 -0.81034875401E+01  0.13760642045E+02  0.00000000000E+00 0. -1.
<mgrwt>
<rscale>  0 0.55439471E+02</rscale>
<asrwt>0</asrwt>
<pdfrwt beam="1">  1        1 0.19709303E-01 0.94704454E+02</pdfrwt>
<pdfrwt beam="2">  1       -1 0.33790442E-02 0.94704454E+02</pdfrwt>
<totfact> 0.70852952E+04</totfact>
</mgrwt>
</event>
<event>
 6    1  0.1727544E-002  0.1109317E+03  0.7546771E-02  0.1332852E+00
          4   -1    0    0  501    0  0.00000000000E+00  0.00000000000E+00  0.15499894386E+02  0.15499894386E+02  0.00000000000E+00 0. -1.
         -4   -1    0    0    0  501 -0.00000000000E+00 -0.00000000000E+00 -0.32485700746E+03  0.32485700746E+03  0.00000000000E+00 0.  1.
         23    2    1    2    0    0  0.19634541449E+02  0.20056067192E+02 -0.21525259694E+03  0.24215598023E+03  0.10732230534E+03 0.  0.
         11    1    3    3    0    0  0.39697313732E+02  0.51611549153E+02 -0.17729480445E+03  0.18887317546E+03  0.00000000000E+00 0.  1.
        -11    1    3    3    0    0 -0.20062772283E+02 -0.31555481961E+02 -0.37957792486E+02  0.53282804768E+02  0.00000000000E+00 0. -1.
         22    1    1    2    0    0 -0.19634541449E+02 -0.20056067192E+02 -0.94104516141E+02  0.98200921621E+02  0.00000000000E+00 0. -1.
<mgrwt>
<rscale>  0 0.78675772E+02</rscale>
<asrwt>0</asrwt>
<pdfrwt beam="1">  1        4 0.23845993E-02 0.11093168E+03</pdfrwt>
<pdfrwt beam="2">  1       -4 0.49977997E-01 0.11093168E+03</pdfrwt>
<totfact> 0.46705521E+03</totfact>
</mgrwt>
</event>
<event>
 6    1  0.1727544E-002  0.7596575E+02  0.7546771E-02  0.1445186E+00
          3   -1    0    0  501    0  0.00000000000E+00  0.00000000000E+00  0.10091608143E+02  0.10091608143E+02  0.00000000000E+00 0. -1.
         -3   -1    0    0    0  501 -0.00000000000E+00 -0.00000000000E+00 -0.23538149220E+03  0.23538149220E+03  0.00000000000E+00 0.  1.
         23    2    1    2    0    0  0.23402014564E+01 -0.14096857637E+02 -0.21453744559E+03  0.22758978770E+03  0.74609637224E+02 0.  0.
         11    1    3    3    0    0 -0.15999292862E+02  0.70925939991E+01 -0.81448910112E+01  0.19303406728E+02  0.00000000000E+00 0. -1.
        -11    1    3    3    0    0  0.18339494319E+02 -0.21189451636E+02 -0.20639255458E+03  0.20828638097E+03  0.00000000000E+00 0.  1.
         22    1    1    2    0    0 -0.23402014564E+01  0.14096857637E+02 -0.10752438464E+02  0.17883312641E+02  0.00000000000E+00 0. -1.
<mgrwt>
<rscale>  0 0.50028768E+02</rscale>
<asrwt>0</asrwt>
<pdfrwt beam="1">  1        3 0.15525552E-02 0.75965755E+02</pdfrwt>
<pdfrwt beam="2">  1       -3 0.36212534E-01 0.75965755E+02</pdfrwt>
<totfact> 0.20560201E+04</totfact>
</mgrwt>
</event>
<event>
 6    1  0.1727544E-002  0.8294911E+02  0.7546771E-02  0.1451463E+00
          2   -1    0    0  501    0  0.00000000000E+00  0.00000000000E+00  0.38551705501E+02  0.38551705501E+02  0.00000000000E+00 0. -1.
         -2   -1    0    0    0  501 -0.00000000000E+00 -0.00000000000E+00 -0.56572840970E+02  0.56572840970E+02  0.00000000000E+00 0.  1.
         23    2    1    2    0    0  0.70275303787E+01 -0.71202368236E+01 -0.18921763405E+02  0.85079891856E+02  0.82343614885E+02 0.  0.
         11    1    3    3    0    0  0.39048292708E+02 -0.23717554783E+02 -0.33942195374E+01  0.45812796188E+02  0.00000000000E+00 0. -1.
        -11    1    3    3    0    0 -0.32020762330E+02  0.16597317960E+02 -0.15527543867E+02  0.39267095668E+02  0.00000000000E+00 0.  1.
         22    1    1    2    0    0 -0.70275303787E+01  0.71202368236E+01  0.90062793620E+00  0.10044654615E+02  0.00000000000E+00 0. -1.
<mgrwt>
<rscale>  0 0.48882607E+02</rscale>
<asrwt>0</asrwt>
<pdfrwt beam="1">  1        2 0.59310316E-02 0.82949110E+02</pdfrwt>
<pdfrwt beam="2">  1       -2 0.87035140E-02 0.82949110E+02</pdfrwt>
<totfact> 0.86411241E+04</totfact>
</mgrwt>
</event>
<event>
 6    1  0.1727544E-002  0.9084128E+02  0.7546771E-02  0.1432440E+00
         -1   -1    0    0    0  501 -0.00000000000E+00  0.00000000000E+00  0.20845806542E+02  0.20845806542E+02  0.00000000000E+00 0.  1.
          1   -1    0    0  501    0  0.00000000000E+00 -0.00000000000E+00 -0.12493946111E+03  0.12493946111E+03  0.00000000000E+00 0. -1.
         23    2    1    2    0    0  0.52514139866E+01 -0.86433712446E+01 -0.86193747586E+02  0.12522579574E+03  0.90276533941E+02 0.  0.
         11    1    3    3    0    0 -0.55715495519E+01 -0.46460765709E+02 -0.66288083433E+02  0.81140340891E+02  0.00000000000E+00 0. -1.
        -11    1    3    3    0    0  0.10822963538E+02  0.37817394465E+02 -0.19905664153E+02  0.44085454849E+02  0.00000000000E+00 0.  1.
         22    1    1    2    0    0 -0.52514139866E+01  0.86433712446E+01 -0.17899906983E+02  0.20559471913E+02  0.00000000000E+00 0.  1.
<mgrwt>
<rscale>  0 0.52473379E+02</rscale>
<asrwt>0</asrwt>
<pdfrwt beam="1">  1        1 0.19221456E-01 0.90841278E+02</pdfrwt>
<pdfrwt beam="2">  1       -1 0.32070472E-02 0.90841278E+02</pdfrwt>
<totfact> 0.78375971E+04</totfact>
</mgrwt>
</event>
<event>
 6    1  0.1727544E-002  0.9252692E+02  0.7546771E-02  0.1383591E+00
         -2   -1    0    0    0  501 -0.00000000000E+00  0.00000000000E+00  0.34457433237E+02  0.34457433237E+02  0.00000000000E+00 0. -1.
          2   -1    0    0  501    0  0.00000000000E+00 -0.00000000000E+00 -0.95438849598E+02  0.95438849598E+02  0.00000000000E+00 0.  1.
         23    2    1    2    0    0 -0.18144201917E+02  0.96765386275E+01 -0.57778109294E+02  0.10908502052E+03  0.90212994214E+02 0.  0.
         13    1    3    3    0    0 -0.15878272995E+02 -0.19288998629E+02 -0.72378220800E+02  0.76568870095E+02  0.00000000000E+00 0.  1.
        -13    1    3    3    0    0 -0.22659289219E+01  0.28965537257E+02  0.14600111506E+02  0.32516150425E+02  0.00000000000E+00 0. -1.
         22    1    1    2    0    0  0.18144201917E+02 -0.96765386275E+01 -0.32033070666E+01  0.20811262316E+02  0.00000000000E+00 0. -1.
<mgrwt>
<rscale>  0 0.63529299E+02</rscale>
<asrwt>0</asrwt>
<pdfrwt beam="1">  1        2 0.14682900E-01 0.92526925E+02</pdfrwt>
<pdfrwt beam="2">  1       -2 0.53011437E-02 0.92526925E+02</pdfrwt>
<totfact> 0.61619224E+04</totfact>
</mgrwt>
</event>
<event>
 6    1  0.1727544E-002  0.1096469E+03  0.7546771E-02  0.1355705E+00
          3   -1    0    0  501    0  0.00000000000E+00  0.00000000000E+00  0.53129857684E+02  0.53129857684E+02  0.00000000000E+00 0. -1.
         -3   -1    0    0    0  501 -0.00000000000E+00 -0.00000000000E+00 -0.80758909383E+02  0.80758909383E+02  0.00000000000E+00 0.  1.
         23    2    1    2    0    0  0.16873417125E+02 -0.99968329832E+01 -0.31098654110E+02  0.11397176388E+03  0.10787857896E+03 0.  0.
         13    1    3    3    0    0  0.11287192246E+02 -0.51055002515E+02  0.12564972997E+02  0.53776319482E+02  0.00000000000E+00 0. -1.
        -13    1    3    3    0    0  0.55862248798E+01  0.41058169532E+02 -0.43663627108E+02  0.60195444395E+02  0.00000000000E+00 0.  1.
         22    1    1    2    0    0 -0.16873417125E+02  0.99968329832E+01  0.34696024111E+01  0.19917003190E+02  0.00000000000E+00 0.  1.
<mgrwt>
<rscale>  0 0.71306685E+02</rscale>
<asrwt>0</asrwt>
<pdfrwt beam="1">  1        3 0.81738242E-02 0.10964687E+03</pdfrwt>
<pdfrwt beam="2">  1       -3 0.12424448E-01 0.10964687E+03</pdfrwt>
<totfact> 0.11367356E+04</totfact>
</mgrwt>
</event>
<event>
 6    1  0.1727544E-002  0.9409813E+02  0.7546771E-02  0.1407280E+00
         -1   -1    0    0    0  501 -0.00000000000E+00  0.00000000000E+00  0.81816099260E+01  0.81816099260E+01  0.00000000000E+00 0.  1.
          1   -1    0    0  501    0  0.00000000000E+00 -0.00000000000E+00 -0.35719559145E+03  0.35719559145E+03  0.00000000000E+00 0. -1.
         23    2    1    2    0    0 -0.52089480138E+01 -0.12346818992E+02 -0.29100196344E+03  0.30583753963E+03  0.93139040378E+02 0.  0.
         13    1    3    3    0    0 -0.27709151110E+02  0.44240930812E+01 -0.26824103369E+03  0.26970469371E+03  0.00000000000E+00 0. -1.
        -13    1    3    3    0    0  0.22500203096E+02 -0.16770912073E+02 -0.22760929751E+02  0.36132845920E+02  0.00000000000E+00 0.  1.
         22    1    1    2    0    0  0.52089480138E+01  0.12346818992E+02 -0.58012018083E+02  0.59539661744E+02  0.00000000000E+00 0. -1.
<mgrwt>
<rscale>  0 0.57805226E+02</rscale>
<asrwt>0</asrwt>
<pdfrwt beam="1">  1        1 0.54953168E-01 0.94098129E+02</pdfrwt>
<pdfrwt beam="2">  1       -1 0.12587092E-02 0.94098129E+02</pdfrwt>
<totfact> 0.82138174E+04</totfact>
</mgrwt>
</event>
<event>
 6    1  0.1727544E-002  0.1004216E+03  0.7546771E-02  0.1309860E+00
          2   -1    0    0  501    0  0.00000000000E+00  0.00000000000E+00  0.74710849812E+02  0.74710849812E+02  0.00000000000E+00 0. -1.
         -2   -1    0    0    0  501 -0.00000000000E+00 -0.00000000000E+00 -0.12225627062E+03  0.12225627062E+03  0.00000000000E+00 0.  1.
         23    2    1    2    0    0 -0.23435312878E+02  0.51967794048E+02 -0.82613965033E+02  0.13003679621E+03  0.82671855193E+02 0.  0.
         11    1    3    3    0    0 -0.21961113306E+02 -0.73764410017E+01  0.54821856904E+01  0.23806653260E+02  0.00000000000E+00 0. -1.
        -11    1    3    3    0    0 -0.14741995717E+01  0.59344235049E+02 -0.88096150723E+02  0.10623014295E+03  0.00000000000E+00 0.  1.
         22    1    1    2    0    0  0.23435312878E+02 -0.51967794048E+02  0.35068544221E+02  0.66930324231E+02  0.00000000000E+00 0. -1.
<mgrwt>
<rscale>  0 0.87167297E+02</rscale>
<asrwt>0</asrwt>
<pdfrwt beam="1">  1        2 0.11493977E-01 0.10042162E+03</pdfrwt>
<pdfrwt beam="2">  1       -2 0.18808657E-01 0.10042162E+03</pdfrwt>
<totfact> 0.11452136E+04</totfact>
</mgrwt>
</event>
<event>
 6    1  0.1727544E-002  0.7168242E+02  0.7546771E-02  0.1477873E+00
          4   -1    0    0  501    0  0.00000000000E+00  0.00000000000E+00  0.78443515434E+01  0.78443515434E+01  0.00000000000E+00 0. -1.
         -4   -1    0    0    0  501 -0.00000000000E+00 -0.00000000000E+00 -0.22079005906E+03  0.22079005906E+03  0.00000000000E+00 0.  1.
         23    2    1    2    0    0  0.10082810049E+02 -0.32328702094E+01 -0.19549470096E+03  0.20822235196E+03  0.70896087644E+02 0.  0.
         13    1    3    3    0    0 -0.64087239816E+01  0.15153364598E+02 -0.17597248837E+03  0.17673995832E+03  0.00000000000E+00 0.  1.
        -13    1    3    3    0    0  0.16491534031E+02 -0.18386234807E+02 -0.19522212587E+02  0.31482393641E+02  0.00000000000E+00 0. -1.
         22    1    1    2    0    0 -0.10082810049E+02  0.32328702094E+01 -0.17451006552E+02  0.20412058641E+02  0.00000000000E+00 0. -1.
<mgrwt>
<rscale>  0 0.44439303E+02</rscale>
<asrwt>0</asrwt>
<pdfrwt beam="1">  1        4 0.12068233E-02 0.71682423E+02</pdfrwt>
<pdfrwt beam="2">  1       -4 0.33967701E-01 0.71682423E+02</pdfrwt>
<totfact> 0.24500397E+04</totfact>
</mgrwt>
</event>
<event>
 6    1  0.1727544E-002  0.7590218E+02  0.7546771E-02  0.1392012E+00
          1   -1    0    0  501    0  0.00000000000E+00  0.00000000000E+00  0.29886790529E+02  0.29886790529E+02  0.00000000000E+00 0. -1.
         -1   -1    0    0    0  501 -0.00000000000E+00 -0.00000000000E+00 -0.11105095181E+03  0.11105095181E+03  0.00000000000E+00 0.  1.
         23    2    1    2    0    0 -0.29740560044E+02 -0.13158039538E+02 -0.77051145954E+02  0.10815738525E+03  0.68582111184E+02 0.  0.
         11    1    3    3    0    0 -0.32266361707E+02 -0.17986304407E+02 -0.66365154643E+01  0.37532233901E+02  0.00000000000E+00 0. -1.
        -11    1    3    3    0    0  0.25258016635E+01  0.48282648692E+01 -0.70414630490E+02  0.70625151346E+02  0.00000000000E+00 0.  1.
         22    1    1    2    0    0  0.29740560044E+02  0.13158039538E+02 -0.41130153314E+01  0.32780357096E+02  0.00000000000E+00 0. -1.
<mgrwt>
<rscale>  0 0.61409090E+02</rscale>
<asrwt>0</asrwt>
<pdfrwt beam="1">  1        1 0.45979678E-02 0.75902180E+02</pdfrwt>
<pdfrwt beam="2">  1       -1 0.17084762E-01 0.75902180E+02</pdfrwt>
<totfact> 0.41044991E+04</totfact>
</mgrwt>
</event>
<event>
 6    1  0.1727544E-002  0.9921995E+02  0.7546771E-02  0.1339788E+00
         -2   -1    0    0    0  501 -0.00000000000E+00  0.00000000000E+00  0.18031850129E+02  0.18031850129E+02  0.00000000000E+00 0.  1.
          2   -1    0    0  501    0  0.00000000000E+00 -0.00000000000E+00 -0.27915936123E+03  0.27915936123E+03  0.00000000000E+00 0. -1.
         23    2    1    2    0    0  0.24896274898E+02  0.24258005530E+02 -0.14296358598E+03  0.17402064452E+03  0.92931816218E+02 0.  0.
         11    1    3    3    0    0  0.15147100228E+02 -0.21572937918E+02 -0.31292282149E+01  0.26544648518E+02  0.00000000000E+00 0.  1.
        -11    1    3    3    0    0  0.97491746702E+01  0.45830943449E+02 -0.13983435777E+03  0.14747599600E+03  0.00000000000E+00 0. -1.
         22    1    1    2    0    0 -0.24896274898E+02 -0.24258005530E+02 -0.11816392512E+03  0.12317056684E+03  0.00000000000E+00 0. -1.
<mgrwt>
<rscale>  0 0.76334344E+02</rscale>
<asrwt>0</asrwt>
<pdfrwt beam="1">  1        2 0.42947591E-01 0.99219947E+02</pdfrwt>
<pdfrwt beam="2">  1       -2 0.27741310E-02 0.99219947E+02</pdfrwt>
<totfact> 0.49765542E+04</totfact>
</mgrwt>
</event>
<event>
 6    1  0.1727544E-002  0.8799986E+02  0.7546771E-02  0.1433284E+00
          2   -1    0    0  501    0  0.00000000000E+00  0.00000000000E+00  0.16677324321E+02  0.16677324321E+02  0.00000000000E+00 0. -1.
         -2   -1    0    0    0  501 -0.00000000000E+00 -0.00000000000E+00 -0.15993395590E+03  0.15993395590E+03  0.00000000000E+00 0.  1.
         23    2    1    2    0    0  0.78537141783E+01 -0.76794603552E+01 -0.13962391815E+03  0.16504185739E+03  0.87311632868E+02 0.  0.
         11    1    3    3    0    0 -0.11002614565E+02 -0.40149668648E+02 -0.10869850094E+03  0.11639766977E+03  0.00000000000E+00 0.  1.
        -11    1    3    3    0    0  0.18856328743E+02  0.32470208293E+02 -0.30925417205E+02  0.48644187624E+02  0.00000000000E+00 0. -1.
         22    1    1    2    0    0 -0.78537141783E+01  0.76794603552E+01 -0.36327134296E+01  0.11569422829E+02  0.00000000000E+00 0. -1.
<mgrwt>
<rscale>  0 0.52306377E+02</rscale>
<asrwt>0</asrwt>
<pdfrwt beam="1">  1        2 0.25657423E-02 0.87999865E+02</pdfrwt>
<pdfrwt beam="2">  1       -2 0.24605223E-01 0.87999865E+02</pdfrwt>
<totfact> 0.48530831E+04</totfact>
</mgrwt>
</event>
<event>
 6    1  0.1727544E-002  0.9098769E+02  0.7546771E-02  0.1415908E+00
         -2   -1    0    0    0  501 -0.00000000000E+00  0.00000000000E+00  0.25445465806E+02  0.25445465806E+02  0.00000000000E+00 0. -1.
          2   -1    0    0  501    0  0.00000000000E+00 -0.00000000000E+00 -0.14030980079E+03  0.14030980079E+03  0.00000000000E+00 0.  1.
         23    2    1    2    0    0 -0.10137488441E+02 -0.80729430704E+01 -0.59081244060E+02  0.10848665115E+03  0.90060085481E+02 0.  0.
         11    1    3    3    0    0  0.32416285816E+02 -0.19980593904E+02 -0.50866977508E+02  0.63541239519E+02  0.00000000000E+00 0.  1.
        -11    1    3    3    0    0 -0.42553774257E+02  0.11907650833E+02 -0.82142665516E+01  0.44945411633E+02  0.00000000000E+00 0. -1.
         22    1    1    2    0    0  0.10137488441E+02  0.80729430704E+01 -0.55783090930E+02  0.57268615448E+02  0.00000000000E+00 0.  1.
<mgrwt>
<rscale>  0 0.55896113E+02</rscale>
<asrwt>0</asrwt>
<pdfrwt beam="1">  1        2 0.21586123E-01 0.90987692E+02</pdfrwt>
<pdfrwt beam="2">  1       -2 0.39146871E-02 0.90987692E+02</pdfrwt>
<totfact> 0.62209762E+04</totfact>
</mgrwt>
</event>
<event>
 6    1  0.1727544E-002  0.9237451E+02  0.7546771E-02  0.1405489E+00
         -2   -1    0    0    0  501 -0.00000000000E+00  0.00000000000E+00  0.94561895690E+03  0.94561895690E+03  0.00000000000E+00 0.  1.
          2   -1    0    0  501    0  0.00000000000E+00 -0.00000000000E+00 -0.41644105488E+01  0.41644105488E+01  0.00000000000E+00 0. -1.
         23    2    1    2    0    0  0.94747965335E+01 -0.11066702987E+02  0.91441373803E+03  0.91906775255E+03  0.91218450883E+02 0.  0.
         11    1    3    3    0    0 -0.26410305454E+02 -0.36211486400E+02  0.59134541686E+03  0.59304146400E+03  0.00000000000E+00 0.  1.
        -11    1    3    3    0    0  0.35885101988E+02  0.25144783413E+02  0.32306832118E+03  0.32602628855E+03  0.00000000000E+00 0. -1.
         22    1    1    2    0    0 -0.94747965335E+01  0.11066702987E+02  0.27040808317E+02  0.30715614902E+02  0.00000000000E+00 0. -1.
<mgrwt>
<rscale>  0 0.58212794E+02</rscale>
<asrwt>0</asrwt>
<pdfrwt beam="1">  1        2 0.64067930E-03 0.92374507E+02</pdfrwt>
<pdfrwt beam="2">  1       -2 0.14547967E+00 0.92374507E+02</pdfrwt>
<totfact> 0.82765594E+03</totfact>
</mgrwt>
</event>
<event>
 6    1  0.1727544E-002  0.3272625E+03  0.7546771E-02  0.1073865E+00
          2   -1    0    0  501    0  0.00000000000E+00  0.00000000000E+00  0.12519215977E+04  0.12519215977E+04  0.00000000000E+00 0. -1.
         -2   -1    0    0    0  501 -0.00000000000E+00 -0.00000000000E+00 -0.83353048497E+02  0.83353048497E+02  0.00000000000E+00 0.  1.
         23    2    1    2    0    0 -0.23215832778E+03  0.21148278205E+03  0.67707157426E+03  0.75201507050E+03  0.92077648353E+02 0.  0.
         13    1    3    3    0    0 -0.18164314545E+03  0.11864671650E+03  0.39284939601E+03  0.44877825657E+03  0.00000000000E+00 0.  1.
        -13    1    3    3    0    0 -0.50515182327E+02  0.92836065553E+02  0.28422217824E+03  0.30323681392E+03  0.00000000000E+00 0. -1.
         22    1    1    2    0    0  0.23215832778E+03 -0.21148278205E+03  0.49149697493E+03  0.58325957568E+03  0.00000000000E+00 0.  1.
<mgrwt>
<rscale>  0 0.32390613E+03</rscale>
<asrwt>0</asrwt>
<pdfrwt beam="1">  1        2 0.19260331E+00 0.32726251E+03</pdfrwt>
<pdfrwt beam="2">  1       -2 0.12823547E-01 0.32726251E+03</pdfrwt>
<totfact> 0.82707389E+02</totfact>
</mgrwt>
</event>
<event>
 6    1  0.1727544E-002  0.8965680E+02  0.7546771E-02  0.1428108E+00
          3   -1    0    0  501    0  0.00000000000E+00  0.00000000000E+00  0.17786482616E+03  0.17786482616E+03  0.00000000000E+00 0. -1.
         -3   -1    0    0    0  501 -0.00000000000E+00 -0.00000000000E+00 -0.14307264915E+02  0.14307264915E+02  0.00000000000E+00 0.  1.
         23    2    1    2    0    0  0.79229334019E+01  0.79636597620E+01  0.14559433655E+03  0.17098553421E+03  0.88950263192E+02 0.  0.
         11    1    3    3    0    0 -0.13699042919E+02  0.17816640092E+02  0.14549870596E+03  0.14722421634E+03  0.00000000000E+00 0. -1.
        -11    1    3    3    0    0  0.21621976321E+02 -0.98529803299E+01  0.95630587751E-01  0.23761317864E+02  0.00000000000E+00 0.  1.
         22    1    1    2    0    0 -0.79229334019E+01 -0.79636597620E+01  0.17963224700E+02  0.21186556873E+02  0.00000000000E+00 0.  1.
<mgrwt>
<rscale>  0 0.53341685E+02</rscale>
<asrwt>0</asrwt>
<pdfrwt beam="1">  1        3 0.27363818E-01 0.89656802E+02</pdfrwt>
<pdfrwt beam="2">  1       -3 0.22011178E-02 0.89656802E+02</pdfrwt>
<totfact> 0.21304671E+04</totfact>
</mgrwt>
</event>
<event>
 6    1  0.1727544E-002  0.9513408E+02  0.7546771E-02  0.1389442E+00
          2   -1    0    0  501    0  0.00000000000E+00  0.00000000000E+00  0.16718529781E+03  0.16718529781E+03  0.00000000000E+00 0. -1.
         -2   -1    0    0    0  501 -0.00000000000E+00 -0.00000000000E+00 -0.19063295620E+02  0.19063295620E+02  0.00000000000E+00 0.  1.
         23    2    1    2    0    0 -0.17108865727E+02  0.18828003788E+01  0.11819868693E+03  0.15172812096E+03  0.93564068279E+02 0.  0.
         11    1    3    3    0    0 -0.23769723932E+02  0.10645592327E+02  0.13173304355E+03  0.13428299660E+03  0.00000000000E+00 0. -1.
        -11    1    3    3    0    0  0.66608582053E+01 -0.87627919478E+01 -0.13534356620E+02  0.17445124358E+02  0.00000000000E+00 0.  1.
         22    1    1    2    0    0  0.17108865727E+02 -0.18828003788E+01  0.29923315252E+02  0.34520472468E+02  0.00000000000E+00 0. -1.
<mgrwt>
<rscale>  0 0.62045586E+02</rscale>
<asrwt>0</asrwt>
<pdfrwt beam="1">  1        2 0.25720814E-01 0.95134080E+02</pdfrwt>
<pdfrwt beam="2">  1       -2 0.29328148E-02 0.95134080E+02</pdfrwt>
<totfact> 0.78776229E+04</totfact>
</mgrwt>
</event>
<event>
 6    1  0.1727544E-002  0.9167374E+02  0.7546771E-02  0.1427115E+00
         -2   -1    0    0    0  501 -0.00000000000E+00  0.00000000000E+00  0.40931803102E+02  0.40931803102E+02  0.00000000000E+00 0.  1.
          2   -1    0    0  501    0  0.00000000000E+00 -0.00000000000E+00 -0.82842843983E+02  0.82842843983E+02  0.00000000000E+00 0. -1.
         23    2    1    2    0    0 -0.82557585048E+01  0.67566285586E+01 -0.12541572412E+02  0.92527643130E+02  0.91050887567E+02 0.  0.
         13    1    3    3    0    0 -0.57264262465E+01 -0.48999795268E+01 -0.51364088506E+02  0.51914076559E+02  0.00000000000E+00 0. -1.
        -13    1    3    3    0    0 -0.25293322584E+01  0.11656608085E+02  0.38822516094E+02  0.40613566571E+02  0.00000000000E+00 0.  1.
         22    1    1    2    0    0  0.82557585048E+01 -0.67566285586E+01 -0.29369468470E+02  0.31247003955E+02  0.00000000000E+00 0. -1.
<mgrwt>
<rscale>  0 0.53543412E+02</rscale>
<asrwt>0</asrwt>
<pdfrwt beam="1">  1        2 0.12745053E-01 0.91673735E+02</pdfrwt>
<pdfrwt beam="2">  1       -2 0.62972005E-02 0.91673735E+02</pdfrwt>
<totfact> 0.56112817E+04</totfact>
</mgrwt>
</event>
<event>
 6    1  0.1727544E-002  0.7598844E+02  0.7546771E-02  0.1392341E+00
         -2   -1    0    0    0  501 -0.00000000000E+00  0.00000000000E+00  0.38171655448E+02  0.38171655448E+02  0.00000000000E+00 0.  1.
          2   -1    0    0  501    0  0.00000000000E+00 -0.00000000000E+00 -0.12082346415E+03  0.12082346415E+03  0.00000000000E+00 0. -1.
         23    2    1    2    0    0  0.32197048933E+02  0.16711466091E+01 -0.64596728675E+01  0.76262512640E+02  0.68809888603E+02 0.  0.
         13    1    3    3    0    0  0.17675671866E+02 -0.10473697731E+02 -0.35840064527E+02  0.41311474743E+02  0.00000000000E+00 0. -1.
        -13    1    3    3    0    0  0.14521377068E+02  0.12144844340E+02  0.29380391660E+02  0.34951037897E+02  0.00000000000E+00 0.  1.
         22    1    1    2    0    0 -0.32197048933E+02 -0.16711466091E+01 -0.76192135834E+02  0.82732606957E+02  0.00000000000E+00 0.  1.
<mgrwt>
<rscale>  0 0.61328272E+02</rscale>
<asrwt>0</asrwt>
<pdfrwt beam="1">  1        2 0.18588225E-01 0.75988443E+02</pdfrwt>
<pdfrwt beam="2">  1       -2 0.58725623E-02 0.75988443E+02</pdfrwt>
<totfact> 0.39327774E+04</totfact>
</mgrwt>
</event>
<event>
 6    1  0.1727544E-002  0.9355487E+02  0.7546771E-02  0.1417438E+00
          2   -1    0    0  501    0  0.00000000000E+00  0.00000000000E+00  0.12344485014E+03  0.12344485014E+03  0.00000000000E+00 0. -1.
         -2   -1    0    0    0  501 -0.00000000000E+00 -0.00000000000E+00 -0.23471978866E+02  0.23471978866E+02  0.00000000000E+00 0.  1.
         23    2    1    2    0    0 -0.25384938020E+01 -0.11362740219E+02  0.77020476396E+02  0.12118031318E+03  0.92827575121E+02 0.  0.
         13    1    3    3    0    0  0.31471980600E+02  0.27554729590E+02  0.32684336919E+02  0.53084974950E+02  0.00000000000E+00 0. -1.
        -13    1    3    3    0    0 -0.34010474402E+02 -0.38917469809E+02  0.44336139478E+02  0.68095338234E+02  0.00000000000E+00 0.  1.
         22    1    1    2    0    0  0.25384938020E+01  0.11362740219E+02  0.22952394878E+02  0.25736515823E+02  0.00000000000E+00 0. -1.
<mgrwt>
<rscale>  0 0.55566697E+02</rscale>
<asrwt>0</asrwt>
<pdfrwt beam="1">  1        2 0.18991515E-01 0.93554874E+02</pdfrwt>
<pdfrwt beam="2">  1       -2 0.36110737E-02 0.93554874E+02</pdfrwt>
<totfact> 0.81107997E+04</totfact>
</mgrwt>
</event>
<event>
 6    1  0.1727544E-002  0.9377952E+02  0.7546771E-02  0.1380048E+00
         -2   -1    0    0    0  501 -0.00000000000E+00  0.00000000000E+00  0.46061405557E+01  0.46061405557E+01  0.00000000000E+00 0.  1.
          2   -1    0    0  501    0  0.00000000000E+00 -0.00000000000E+00 -0.11592404478E+04  0.11592404478E+04  0.00000000000E+00 0. -1.
         23    2    1    2    0    0  0.16780048848E+02  0.12495968356E+02 -0.11158095147E+04  0.11197434844E+04  0.91415963865E+02 0.  0.
         13    1    3    3    0    0  0.32750793247E+02  0.39949988419E+02 -0.41323522176E+03  0.41645163529E+03  0.00000000000E+00 0.  1.
        -13    1    3    3    0    0 -0.15970744398E+02 -0.27454020063E+02 -0.70257429294E+03  0.70329184908E+03  0.00000000000E+00 0. -1.
         22    1    1    2    0    0 -0.16780048848E+02 -0.12495968356E+02 -0.38824792567E+02  0.44103104000E+02  0.00000000000E+00 0.  1.
<mgrwt>
<rscale>  0 0.64451117E+02</rscale>
<asrwt>0</asrwt>
<pdfrwt beam="1">  1        2 0.17834492E+00 0.93779516E+02</pdfrwt>
<pdfrwt beam="2">  1       -2 0.70863608E-03 0.93779516E+02</pdfrwt>
<totfact> 0.66833219E+04</totfact>
</mgrwt>
</event>
<event>
 6    1  0.1727544E-002  0.8976735E+02  0.7546771E-02  0.1419597E+00
          2   -1    0    0  501    0  0.00000000000E+00  0.00000000000E+00  0.17609958042E+02  0.17609958042E+02  0.00000000000E+00 0. -1.
         -2   -1    0    0    0  501 -0.00000000000E+00 -0.00000000000E+00 -0.15235532824E+03  0.15235532824E+03  0.00000000000E+00 0.  1.
         23    2    1    2    0    0  0.10340940177E+02 -0.74554388674E+01 -0.10875793458E+03  0.14101938118E+03  0.88857520335E+02 0.  0.
         13    1    3    3    0    0  0.32981479634E+02  0.18312612246E+02 -0.13990359970E+02  0.40235058571E+02  0.00000000000E+00 0. -1.
        -13    1    3    3    0    0 -0.22640539456E+02 -0.25768051113E+02 -0.94767574613E+02  0.10078432261E+03  0.00000000000E+00 0.  1.
         22    1    1    2    0    0 -0.10340940177E+02  0.74554388674E+01 -0.25987435611E+02  0.28945905100E+02  0.00000000000E+00 0.  1.
<mgrwt>
<rscale>  0 0.55106357E+02</rscale>
<asrwt>0</asrwt>
<pdfrwt beam="1">  1        2 0.27092244E-02 0.89767352E+02</pdfrwt>
<pdfrwt beam="2">  1       -2 0.23439280E-01 0.89767352E+02</pdfrwt>
<totfact> 0.49208835E+04</totfact>
</mgrwt>
</event>
<event>
 6    1  0.1727544E-002  0.9138822E+02  0.7546771E-02  0.1406942E+00
          2   -1    0    0  501    0  0.00000000000E+00  0.00000000000E+00  0.21746333503E+02  0.21746333503E+02  0.00000000000E+00 0. -1.
         -2   -1    0    0    0  501 -0.00000000000E+00 -0.00000000000E+00 -0.16632779482E+03  0.16632779482E+03  0.00000000000E+00 0.  1.
         23    2    1    2    0    0  0.92246241139E+01 -0.11453240125E+02 -0.14707745098E+03  0.17315768224E+03  0.90197205804E+02 0.  0.
         13    1    3    3    0    0  0.40718765777E+02 -0.19377774548E+02 -0.36820568586E+02  0.58217439860E+02  0.00000000000E+00 0. -1.
        -13    1    3    3    0    0 -0.31494141663E+02  0.79245344234E+01 -0.11025688239E+03  0.11494024238E+03  0.00000000000E+00 0.  1.
         22    1    1    2    0    0 -0.92246241139E+01  0.11453240125E+02  0.24959896544E+01  0.14916446083E+02  0.00000000000E+00 0.  1.
<mgrwt>
<rscale>  0 0.57881835E+02</rscale>
<asrwt>0</asrwt>
<pdfrwt beam="1">  1        2 0.33455898E-02 0.91388218E+02</pdfrwt>
<pdfrwt beam="2">  1       -2 0.25588891E-01 0.91388218E+02</pdfrwt>
<totfact> 0.32049090E+04</totfact>
</mgrwt>
</event>
<event>
 6    1  0.1727544E-002  0.9382244E+02  0.7546771E-02  0.1391949E+00
          1   -1    0    0  501    0  0.00000000000E+00  0.00000000000E+00  0.63266591364E+01  0.63266591364E+01  0.00000000000E+00 0. -1.
         -1   -1    0    0    0  501 -0.00000000000E+00 -0.00000000000E+00 -0.57926411815E+03  0.57926411815E+03  0.00000000000E+00 0.  1.
         23    2    1    2    0    0 -0.10706121868E+02  0.13508406389E+02 -0.54299937348E+03  0.55104534266E+03  0.92225549443E+02 0.  0.
         13    1    3    3    0    0 -0.50300615633E+02  0.19127576543E+02 -0.31661364190E+03  0.32115450231E+03  0.00000000000E+00 0.  1.
        -13    1    3    3    0    0  0.39594493765E+02 -0.56191701534E+01 -0.22638573158E+03  0.22989084034E+03  0.00000000000E+00 0. -1.
         22    1    1    2    0    0  0.10706121868E+02 -0.13508406389E+02 -0.29938085529E+02  0.34545434630E+02  0.00000000000E+00 0. -1.
<mgrwt>
<rscale>  0 0.61424626E+02</rscale>
<asrwt>0</asrwt>
<pdfrwt beam="1">  1        1 0.97333162E-03 0.93822439E+02</pdfrwt>
<pdfrwt beam="2">  1       -1 0.89117607E-01 0.93822439E+02</pdfrwt>
<totfact> 0.19510957E+04</totfact>
</mgrwt>
</event>
<event>
 6    1  0.1727544E-002  0.9145324E+02  0.7546771E-02  0.1429326E+00
          2   -1    0    0  501    0  0.00000000000E+00  0.00000000000E+00  0.25088407706E+03  0.25088407706E+03  0.00000000000E+00 0. -1.
         -2   -1    0    0    0  501 -0.00000000000E+00 -0.00000000000E+00 -0.10370574687E+02  0.10370574687E+02  0.00000000000E+00 0.  1.
         23    2    1    2    0    0 -0.60063081936E+01  0.84785124315E+01  0.22025934607E+03  0.23849082608E+03  0.90861068037E+02 0.  0.
         13    1    3    3    0    0 -0.30564358224E+02  0.16405221717E+02  0.20621251842E+03  0.20910981336E+03  0.00000000000E+00 0. -1.
        -13    1    3    3    0    0  0.24558050030E+02 -0.79267092858E+01  0.14046827650E+02  0.29381012719E+02  0.00000000000E+00 0.  1.
         22    1    1    2    0    0  0.60063081936E+01 -0.84785124315E+01  0.20254156302E+02  0.22763825660E+02  0.00000000000E+00 0. -1.
<mgrwt>
<rscale>  0 0.53095490E+02</rscale>
<asrwt>0</asrwt>
<pdfrwt beam="1">  1        2 0.38597546E-01 0.91453237E+02</pdfrwt>
<pdfrwt beam="2">  1       -2 0.15954732E-02 0.91453237E+02</pdfrwt>
<totfact> 0.12208771E+05</totfact>
</mgrwt>
</event>
<event>
 6    1  0.1727544E-002  0.9256705E+02  0.7546771E-02  0.1400480E+00
          2   -1    0    0  501    0  0.00000000000E+00  0.00000000000E+00  0.30842828752E+03  0.30842828752E+03  0.00000000000E+00 0. -1.
         -2   -1    0    0    0  501 -0.00000000000E+00 -0.00000000000E+00 -0.97948464826E+01  0.97948464826E+01  0.00000000000E+00 0.  1.
         23    2    1    2    0    0  0.48593132522E+01  0.14894855978E+02  0.23228545738E+03  0.25005037848E+03  0.91231509955E+02 0.  0.
         13    1    3    3    0    0  0.27559681574E+02 -0.17179925216E+02  0.18825341379E+03  0.19103411654E+03  0.00000000000E+00 0. -1.
        -13    1    3    3    0    0 -0.22700368322E+02  0.32074781194E+02  0.44032043584E+02  0.59016261935E+02  0.00000000000E+00 0.  1.
         22    1    1    2    0    0 -0.48593132522E+01 -0.14894855978E+02  0.66347983659E+02  0.68172755523E+02  0.00000000000E+00 0. -1.
<mgrwt>
<rscale>  0 0.59373415E+02</rscale>
<asrwt>0</asrwt>
<pdfrwt beam="1">  1        2 0.47450498E-01 0.92567046E+02</pdfrwt>
<pdfrwt beam="2">  1       -2 0.15068997E-02 0.92567046E+02</pdfrwt>
<totfact> 0.10690824E+05</totfact>
</mgrwt>
</event>
<event>
 6    1  0.1727544E-002  0.9938057E+02  0.7546771E-02  0.1331255E+00
         -2   -1    0    0    0  501 -0.00000000000E+00  0.00000000000E+00  0.10120866701E+02  0.10120866701E+02  0.00000000000E+00 0. -1.
          2   -1    0    0  501    0  0.00000000000E+00 -0.00000000000E+00 -0.50148198555E+03  0.50148198555E+03  0.00000000000E+00 0.  1.
         23    2    1    2    0    0 -0.36881092043E+02 -0.15854247079E+02 -0.39286633450E+03  0.40524123020E+03  0.90911637164E+02 0.  0.
         11    1    3    3    0    0 -0.19835379707E+00  0.25507718822E+02 -0.26115156014E+03  0.26239439862E+03  0.00000000000E+00 0.  1.
        -11    1    3    3    0    0 -0.36682738246E+02 -0.41361965901E+02 -0.13171477436E+03  0.14284683158E+03  0.00000000000E+00 0. -1.
         22    1    1    2    0    0  0.36881092043E+02  0.15854247079E+02 -0.98494784353E+02  0.10636162205E+03  0.00000000000E+00 0. -1.
<mgrwt>
<rscale>  0 0.79228664E+02</rscale>
<asrwt>0</asrwt>
<pdfrwt beam="1">  1        2 0.77151066E-01 0.99380571E+02</pdfrwt>
<pdfrwt beam="2">  1       -2 0.15570566E-02 0.99380571E+02</pdfrwt>
<totfact> 0.61600816E+04</totfact>
</mgrwt>
</event>
<event>
 6    1  0.1727544E-002  0.9218767E+02  0.7546771E-02  0.1398929E+00
         -2   -1    0    0    0  501 -0.00000000000E+00  0.00000000000E+00  0.53840323412E+01  0.53840323412E+01  0.00000000000E+00 0.  1.
          2   -1    0    0  501    0  0.00000000000E+00 -0.00000000000E+00 -0.54617386008E+03  0.54617386008E+03  0.00000000000E+00 0. -1.
         23    2    1    2    0    0 -0.76518989667E+01 -0.14342733753E+02 -0.46249019120E+03  0.47158853171E+03  0.90743047787E+02 0.  0.
         11    1    3    3    0    0 -0.26830782247E+02  0.15011561378E+01 -0.42914791640E+03  0.42998846321E+03  0.00000000000E+00 0. -1.
        -11    1    3    3    0    0  0.19178883280E+02 -0.15843889890E+02 -0.33342274799E+02  0.41600068504E+02  0.00000000000E+00 0.  1.
         22    1    1    2    0    0  0.76518989667E+01  0.14342733753E+02 -0.78299636548E+02  0.79969360713E+02  0.00000000000E+00 0.  1.
<mgrwt>
<rscale>  0 0.59739241E+02</rscale>
<asrwt>0</asrwt>
<pdfrwt beam="1">  1        2 0.84026752E-01 0.92187669E+02</pdfrwt>
<pdfrwt beam="2">  1       -2 0.82831263E-03 0.92187669E+02</pdfrwt>
<totfact> 0.13617907E+05</totfact>
</mgrwt>
</event>
<event>
 6    1  0.1727544E-002  0.8717460E+02  0.7546771E-02  0.1424880E+00
         -4   -1    0    0    0  501 -0.00000000000E+00  0.00000000000E+00  0.12669274956E+02  0.12669274956E+02  0.00000000000E+00 0.  1.
          4   -1    0    0  501    0  0.00000000000E+00 -0.00000000000E+00 -0.21488855162E+03  0.21488855162E+03  0.00000000000E+00 0. -1.
         23    2    1    2    0    0 -0.13956148744E+01 -0.12760755135E+02 -0.14734009158E+03  0.17119729457E+03  0.86224280041E+02 0.  0.
         13    1    3    3    0    0  0.18363922306E+02 -0.20701178733E+02 -0.14732560952E+03  0.14990199353E+03  0.00000000000E+00 0. -1.
        -13    1    3    3    0    0 -0.19759537181E+02  0.79404235983E+01 -0.14482056332E-01  0.21295301037E+02  0.00000000000E+00 0.  1.
         22    1    1    2    0    0  0.13956148744E+01  0.12760755135E+02 -0.54879185082E+02  0.56360532004E+02  0.00000000000E+00 0. -1.
<mgrwt>
<rscale>  0 0.54001654E+02</rscale>
<asrwt>0</asrwt>
<pdfrwt beam="1">  1        4 0.33059774E-01 0.87174601E+02</pdfrwt>
<pdfrwt beam="2">  1       -4 0.19491194E-02 0.87174601E+02</pdfrwt>
<totfact> 0.13351470E+04</totfact>
</mgrwt>
</event>
<event>
 6    1  0.1727544E-002  0.9396314E+02  0.7546771E-02  0.1390261E+00
          2   -1    0    0  501    0  0.00000000000E+00  0.00000000000E+00  0.22798316673E+03  0.22798316673E+03  0.00000000000E+00 0. -1.
         -2   -1    0    0    0  501 -0.00000000000E+00 -0.00000000000E+00 -0.14428520313E+02  0.14428520313E+02  0.00000000000E+00 0.  1.
         23    2    1    2    0    0  0.17260021301E+02 -0.35941778500E+01  0.15496548983E+03  0.18122741031E+03  0.92294337638E+02 0.  0.
         13    1    3    3    0    0  0.64337130435E+01 -0.22942531367E+02  0.15715238002E+03  0.15894849151E+03  0.00000000000E+00 0. -1.
        -13    1    3    3    0    0  0.10826308257E+02  0.19348353517E+02 -0.21868901829E+01  0.22278918802E+02  0.00000000000E+00 0.  1.
         22    1    1    2    0    0 -0.17260021301E+02  0.35941778500E+01  0.58589156586E+02  0.61184276732E+02  0.00000000000E+00 0. -1.
<mgrwt>
<rscale>  0 0.61841908E+02</rscale>
<asrwt>0</asrwt>
<pdfrwt beam="1">  1        2 0.35074331E-01 0.93963138E+02</pdfrwt>
<pdfrwt beam="2">  1       -2 0.22197725E-02 0.93963138E+02</pdfrwt>
<totfact> 0.84426246E+04</totfact>
</mgrwt>
</event>
<event>
 6    1  0.1727544E-002  0.9534661E+02  0.7546771E-02  0.1375536E+00
          2   -1    0    0  501    0  0.00000000000E+00  0.00000000000E+00  0.23934449884E+03  0.23934449884E+03  0.00000000000E+00 0. -1.
         -2   -1    0    0    0  501 -0.00000000000E+00 -0.00000000000E+00 -0.20735202283E+02  0.20735202283E+02  0.00000000000E+00 0.  1.
         23    2    1    2    0    0  0.10295348851E+02 -0.18797931778E+02  0.94891087621E+02  0.13451875310E+03  0.92906512031E+02 0.  0.
         11    1    3    3    0    0  0.15352290863E+02  0.35123931101E+02  0.23695279730E+02  0.45064949264E+02  0.00000000000E+00 0.  1.
        -11    1    3    3    0    0 -0.50569420121E+01 -0.53921862879E+02  0.71195807891E+02  0.89453803832E+02  0.00000000000E+00 0. -1.
         22    1    1    2    0    0 -0.10295348851E+02  0.18797931778E+02  0.12371820894E+03  0.12556094803E+03  0.00000000000E+00 0. -1.
<mgrwt>
<rscale>  0 0.65651957E+02</rscale>
<asrwt>0</asrwt>
<pdfrwt beam="1">  1        2 0.36822229E-01 0.95346612E+02</pdfrwt>
<pdfrwt beam="2">  1       -2 0.31900313E-02 0.95346612E+02</pdfrwt>
<totfact> 0.47495610E+04</totfact>
</mgrwt>
</event>
<event>
 6    1  0.1727544E-002  0.9406943E+02  0.7546771E-02  0.1406769E+00
         -1   -1    0    0    0  501 -0.00000000000E+00  0.00000000000E+00  0.92410909381E+01  0.92410909381E+01  0.00000000000E+00 0.  1.
          1   -1    0    0  501    0  0.00000000000E+00 -0.00000000000E+00 -0.31443460185E+03  0.31443460185E+03  0.00000000000E+00 0. -1.
         23    2    1    2    0    0 -0.12804668968E+02 -0.43419440390E+01 -0.27323211146E+03  0.28897204628E+03  0.93092667693E+02 0.  0.
         11    1    3    3    0    0  0.31355872168E+02 -0.28629016254E+02 -0.14826474844E+03  0.15422466379E+03  0.00000000000E+00 0.  1.
        -11    1    3    3    0    0 -0.44160541136E+02  0.24287072215E+02 -0.12496736302E+03  0.13474738250E+03  0.00000000000E+00 0. -1.
         22    1    1    2    0    0  0.12804668968E+02  0.43419440390E+01 -0.31961399456E+02  0.34703646502E+02  0.00000000000E+00 0.  1.
<mgrwt>
<rscale>  0 0.57921122E+02</rscale>
<asrwt>0</asrwt>
<pdfrwt beam="1">  1        1 0.48374546E-01 0.94069425E+02</pdfrwt>
<pdfrwt beam="2">  1       -1 0.14217065E-02 0.94069425E+02</pdfrwt>
<totfact> 0.80830487E+04</totfact>
</mgrwt>
</event>
<event>
 6    1  0.1727544E-002  0.1206891E+03  0.7546771E-02  0.1288067E+00
         -2   -1    0    0    0  501 -0.00000000000E+00  0.00000000000E+00  0.24406910578E+04  0.24406910578E+04  0.00000000000E+00 0.  1.
          2   -1    0    0  501    0  0.00000000000E+00 -0.00000000000E+00 -0.99071410443E+01  0.99071410443E+01  0.00000000000E+00 0. -1.
         23    2    1    2    0    0  0.13928788273E+02 -0.47096364772E+02  0.23671064358E+04  0.23701811590E+04  0.11024413473E+03 0.  0.
         11    1    3    3    0    0 -0.21049440518E+02 -0.51595086340E+02  0.21020997029E+04  0.21028381519E+04  0.00000000000E+00 0.  1.
        -11    1    3    3    0    0  0.34978228791E+02  0.44987215684E+01  0.26500673293E+03  0.26734300717E+03  0.00000000000E+00 0. -1.
         22    1    1    2    0    0 -0.13928788273E+02  0.47096364772E+02  0.63677480871E+02  0.80417039784E+02  0.00000000000E+00 0. -1.
<mgrwt>
<rscale>  0 0.96393966E+02</rscale>
<asrwt>0</asrwt>
<pdfrwt beam="1">  1        2 0.15241775E-02 0.12068905E+03</pdfrwt>
<pdfrwt beam="2">  1       -2 0.37549045E+00 0.12068905E+03</pdfrwt>
<totfact> 0.10446249E+02</totfact>
</mgrwt>
</event>
<event>
 6    1  0.1727544E-002  0.9156454E+02  0.7546771E-02  0.1386823E+00
         -2   -1    0    0    0  501 -0.00000000000E+00  0.00000000000E+00  0.40812533123E+02  0.40812533123E+02  0.00000000000E+00 0.  1.
          2   -1    0    0  501    0  0.00000000000E+00 -0.00000000000E+00 -0.86192955387E+02  0.86192955387E+02  0.00000000000E+00 0. -1.
         23    2    1    2    0    0  0.16600446403E+02 -0.11398440903E+02 -0.18493038752E+02  0.93413366398E+02  0.89322814912E+02 0.  0.
         11    1    3    3    0    0  0.35766919023E+01  0.57798892581E+01 -0.52615004540E+02  0.53052224718E+02  0.00000000000E+00 0. -1.
        -11    1    3    3    0    0  0.13023754501E+02 -0.17178330161E+02  0.34121965789E+02  0.40361141680E+02  0.00000000000E+00 0.  1.
         22    1    1    2    0    0 -0.16600446403E+02  0.11398440903E+02 -0.26887383512E+02  0.33592122111E+02  0.00000000000E+00 0.  1.
<mgrwt>
<rscale>  0 0.62703855E+02</rscale>
<asrwt>0</asrwt>
<pdfrwt beam="1">  1        2 0.13260455E-01 0.91564538E+02</pdfrwt>
<pdfrwt beam="2">  1       -2 0.62788513E-02 0.91564538E+02</pdfrwt>
<totfact> 0.53782476E+04</totfact>
</mgrwt>
</event>
<event>
 6    1  0.1727544E-002  0.1025078E+03  0.7546771E-02  0.1319338E+00
          4   -1    0    0  501    0  0.00000000000E+00  0.00000000000E+00  0.38571438674E+02  0.38571438674E+02  0.00000000000E+00 0. -1.
         -4   -1    0    0    0  501 -0.00000000000E+00 -0.00000000000E+00 -0.22707587235E+03  0.22707587235E+03  0.00000000000E+00 0.  1.
         23    2    1    2    0    0  0.43461648591E+02  0.12351658775E+02 -0.19470545887E+03  0.22004104954E+03  0.92012876251E+02 0.  0.
         11    1    3    3    0    0 -0.27694916205E+02  0.13162828872E+02 -0.47501857719E+02  0.56539322018E+02  0.00000000000E+00 0. -1.
        -11    1    3    3    0    0  0.71156564796E+02 -0.81117009769E+00 -0.14720360115E+03  0.16350172752E+03  0.00000000000E+00 0.  1.
         22    1    1    2    0    0 -0.43461648591E+02 -0.12351658775E+02  0.62010251988E+01  0.45606261481E+02  0.00000000000E+00 0. -1.
<mgrwt>
<rscale>  0 0.83523900E+02</rscale>
<asrwt>0</asrwt>
<pdfrwt beam="1">  1        4 0.59340675E-02 0.10250779E+03</pdfrwt>
<pdfrwt beam="2">  1       -4 0.34934750E-01 0.10250779E+03</pdfrwt>
<totfact> 0.22019437E+03</totfact>
</mgrwt>
</event>
<event>
 6    1  0.1727544E-002  0.9868632E+02  0.7546771E-02  0.1341361E+00
          4   -1    0    0  501    0  0.00000000000E+00  0.00000000000E+00  0.48849254935E+02  0.48849254935E+02  0.00000000000E+00 0. -1.
         -4   -1    0    0    0  501 -0.00000000000E+00 -0.00000000000E+00 -0.95735121798E+02  0.95735121798E+02  0.00000000000E+00 0.  1.
         23    2    1    2    0    0  0.29361694504E+02 -0.17881398334E+02 -0.48920172907E+02  0.11014614345E+03  0.92504789547E+02 0.  0.
         13    1    3    3    0    0  0.10220683400E+02 -0.49315391224E+02 -0.53005740298E+02  0.73116883723E+02  0.00000000000E+00 0.  1.
        -13    1    3    3    0    0  0.19141011103E+02  0.31433992890E+02  0.40855673915E+01  0.37029259727E+02  0.00000000000E+00 0. -1.
         22    1    1    2    0    0 -0.29361694504E+02  0.17881398334E+02  0.20343060444E+01  0.34438233282E+02  0.00000000000E+00 0. -1.
<mgrwt>
<rscale>  0 0.75816402E+02</rscale>
<asrwt>0</asrwt>
<pdfrwt beam="1">  1        4 0.75152700E-02 0.98686319E+02</pdfrwt>
<pdfrwt beam="2">  1       -4 0.14728480E-01 0.98686319E+02</pdfrwt>
<totfact> 0.71292974E+03</totfact>
</mgrwt>
</event>
<event>
 6    1  0.1727544E-002  0.9807451E+02  0.7546771E-02  0.1346450E+00
          3   -1    0    0  501    0  0.00000000000E+00  0.00000000000E+00  0.31561397062E+03  0.31561397062E+03  0.00000000000E+00 0. -1.
         -3   -1    0    0    0  501 -0.00000000000E+00 -0.00000000000E+00 -0.13429232045E+02  0.13429232045E+02  0.00000000000E+00 0.  1.
         23    2    1    2    0    0 -0.24183363452E+02 -0.21088558573E+02  0.22388868325E+03  0.24442739652E+03  0.92677113197E+02 0.  0.
         11    1    3    3    0    0 -0.39554866445E+02  0.22494700430E+02  0.67905536457E+02  0.81742038685E+02  0.00000000000E+00 0.  1.
        -11    1    3    3    0    0  0.15371502993E+02 -0.43583259004E+02  0.15598314679E+03  0.16268535783E+03  0.00000000000E+00 0. -1.
         22    1    1    2    0    0  0.24183363452E+02  0.21088558573E+02  0.78296055329E+02  0.84615806151E+02  0.00000000000E+00 0.  1.
<mgrwt>
<rscale>  0 0.74173487E+02</rscale>
<asrwt>0</asrwt>
<pdfrwt beam="1">  1        3 0.48555990E-01 0.98074511E+02</pdfrwt>
<pdfrwt beam="2">  1       -3 0.20660359E-02 0.98074511E+02</pdfrwt>
<totfact> 0.81276344E+03</totfact>
</mgrwt>
</event>
<event>
 6    1  0.1727544E-002  0.9171940E+02  0.7546771E-02  0.1412083E+00
          4   -1    0    0  501    0  0.00000000000E+00  0.00000000000E+00  0.51888679544E+01  0.51888679544E+01  0.00000000000E+00 0. -1.
         -4   -1    0    0    0  501 -0.00000000000E+00 -0.00000000000E+00 -0.71520257330E+03  0.71520257330E+03  0.00000000000E+00 0.  1.
         23    2    1    2    0    0  0.13322693109E+02 -0.16545923444E+01 -0.69131288649E+03  0.69737074506E+03  0.90731566769E+02 0.  0.
         13    1    3    3    0    0  0.32919196015E+01 -0.36513426416E+02 -0.13539516768E+03  0.14027087536E+03  0.00000000000E+00 0. -1.
        -13    1    3    3    0    0  0.10030773507E+02  0.34858834072E+02 -0.55591771882E+03  0.55709986971E+03  0.00000000000E+00 0.  1.
         22    1    1    2    0    0 -0.13322693109E+02  0.16545923444E+01 -0.18700818856E+02  0.23020696197E+02  0.00000000000E+00 0.  1.
<mgrwt>
<rscale>  0 0.56731577E+02</rscale>
<asrwt>0</asrwt>
<pdfrwt beam="1">  1        4 0.79828765E-03 0.91719404E+02</pdfrwt>
<pdfrwt beam="2">  1       -4 0.11003113E+00 0.91719404E+02</pdfrwt>
<totfact> 0.41872484E+03</totfact>
</mgrwt>
</event>
<event>
 6    1  0.1727544E-002  0.8503338E+02  0.7546771E-02  0.1426692E+00
          2   -1    0    0  501    0  0.00000000000E+00  0.00000000000E+00  0.27296471801E+02  0.27296471801E+02  0.00000000000E+00 0. -1.
         -2   -1    0    0    0  501 -0.00000000000E+00 -0.00000000000E+00 -0.89303837411E+02  0.89303837411E+02  0.00000000000E+00 0.  1.
         23    2    1    2    0    0  0.46776300979E+01 -0.12614940417E+02 -0.50517177968E+02  0.98907334417E+02  0.83962245007E+02 0.  0.
         13    1    3    3    0    0  0.30405192565E+02  0.23687539520E+02 -0.12907477299E+02  0.40646995382E+02  0.00000000000E+00 0. -1.
        -13    1    3    3    0    0 -0.25727562467E+02 -0.36302479937E+02 -0.37609700669E+02  0.58260339035E+02  0.00000000000E+00 0.  1.
         22    1    1    2    0    0 -0.46776300979E+01  0.12614940417E+02 -0.11490187642E+02  0.17692974795E+02  0.00000000000E+00 0. -1.
<mgrwt>
<rscale>  0 0.53629899E+02</rscale>
<asrwt>0</asrwt>
<pdfrwt beam="1">  1        2 0.41994572E-02 0.85033379E+02</pdfrwt>
<pdfrwt beam="2">  1       -2 0.13739052E-01 0.85033379E+02</pdfrwt>
<totfact> 0.66202050E+04</totfact>
</mgrwt>
</event>
<event>
 6    1  0.1727544E-002  0.9720891E+02  0.7546771E-02  0.1403567E+00
          4   -1    0    0  501    0  0.00000000000E+00  0.00000000000E+00  0.85127450575E+01  0.85127450575E+01  0.00000000000E+00 0. -1.
         -4   -1    0    0    0  501 -0.00000000000E+00 -0.00000000000E+00 -0.36958160022E+03  0.36958160022E+03  0.00000000000E+00 0.  1.
         23    2    1    2    0    0 -0.61208100779E+01 -0.11338289670E+02 -0.33765317052E+03  0.35136766543E+03  0.96351188966E+02 0.  0.
         11    1    3    3    0    0 -0.12816491649E+02  0.19211775642E+02 -0.30599832870E+03  0.30686859068E+03  0.00000000000E+00 0. -1.
        -11    1    3    3    0    0  0.66956815708E+01 -0.30550065313E+02 -0.31654841830E+02  0.44499074750E+02  0.00000000000E+00 0.  1.
         22    1    1    2    0    0  0.61208100779E+01  0.11338289670E+02 -0.23415684639E+02  0.26726679849E+02  0.00000000000E+00 0. -1.
<mgrwt>
<rscale>  0 0.58654317E+02</rscale>
<asrwt>0</asrwt>
<pdfrwt beam="1">  1        4 0.13096531E-02 0.97208913E+02</pdfrwt>
<pdfrwt beam="2">  1       -4 0.56858706E-01 0.97208913E+02</pdfrwt>
<totfact> 0.86271416E+03</totfact>
</mgrwt>
</event>
<event>
 6    1  0.1727544E-002  0.9148045E+02  0.7546771E-02  0.1427555E+00
         -4   -1    0    0    0  501 -0.00000000000E+00  0.00000000000E+00  0.38638660586E+02  0.38638660586E+02  0.00000000000E+00 0.  1.
          4   -1    0    0  501    0  0.00000000000E+00 -0.00000000000E+00 -0.74606552267E+02  0.74606552267E+02  0.00000000000E+00 0. -1.
         23    2    1    2    0    0  0.61932845748E+01  0.86816659373E+01 -0.19357486154E+02  0.93506072317E+02  0.90856728935E+02 0.  0.
         11    1    3    3    0    0 -0.10175018759E+02 -0.18151889539E+02  0.29083322451E+02  0.35761176510E+02  0.00000000000E+00 0.  1.
        -11    1    3    3    0    0  0.16368303334E+02  0.26833555476E+02 -0.48440808605E+02  0.57744895807E+02  0.00000000000E+00 0. -1.
         22    1    1    2    0    0 -0.61932845748E+01 -0.86816659373E+01 -0.16610405528E+02  0.19739140535E+02  0.00000000000E+00 0. -1.
<mgrwt>
<rscale>  0 0.53453938E+02</rscale>
<asrwt>0</asrwt>
<pdfrwt beam="1">  1        4 0.11477931E-01 0.91480453E+02</pdfrwt>
<pdfrwt beam="2">  1       -4 0.59444094E-02 0.91480453E+02</pdfrwt>
<totfact> 0.15628174E+04</totfact>
</mgrwt>
</event>
<event>
 6    1  0.1727544E-002  0.9504539E+02  0.7546771E-02  0.1366031E+00
         -2   -1    0    0    0  501 -0.00000000000E+00  0.00000000000E+00  0.76039228732E+02  0.76039228732E+02  0.00000000000E+00 0.  1.
          2   -1    0    0  501    0  0.00000000000E+00 -0.00000000000E+00 -0.53526542687E+02  0.53526542687E+02  0.00000000000E+00 0. -1.
         23    2    1    2    0    0 -0.18130685610E+02 -0.17673567923E+02 -0.94485094529E+00  0.95050082153E+02  0.91610854216E+02 0.  0.
         11    1    3    3    0    0 -0.19323444956E+02 -0.17575673807E+02  0.43418727993E+02  0.50670363876E+02  0.00000000000E+00 0.  1.
        -11    1    3    3    0    0  0.11927593467E+01 -0.97894115839E-01 -0.44363578939E+02  0.44379718277E+02  0.00000000000E+00 0. -1.
         22    1    1    2    0    0  0.18130685610E+02  0.17673567923E+02  0.23457536991E+02  0.34515689266E+02  0.00000000000E+00 0. -1.
<mgrwt>
<rscale>  0 0.68282912E+02</rscale>
<asrwt>0</asrwt>
<pdfrwt beam="1">  1        2 0.82348527E-02 0.95045386E+02</pdfrwt>
<pdfrwt beam="2">  1       -2 0.11698343E-01 0.95045386E+02</pdfrwt>
<totfact> 0.36868642E+04</totfact>
</mgrwt>
</event>
<event>
 6    1  0.1727544E-002  0.7835101E+02  0.7546771E-02  0.1434163E+00
         -2   -1    0    0    0  501 -0.00000000000E+00  0.00000000000E+00  0.51097724503E+02  0.51097724503E+02  0.00000000000E+00 0.  1.
          2   -1    0    0  501    0  0.00000000000E+00 -0.00000000000E+00 -0.51843754031E+02  0.51843754031E+02  0.00000000000E+00 0. -1.
         23    2    1    2    0    0  0.14682586267E+02  0.45036701002E+01  0.16267110797E+02  0.80021872787E+02  0.76831112493E+02 0.  0.
         11    1    3    3    0    0  0.44027963838E+02  0.15612146818E+02  0.65298764402E+01  0.47168209785E+02  0.00000000000E+00 0.  1.
        -11    1    3    3    0    0 -0.29345377571E+02 -0.11108476717E+02  0.97372343566E+01  0.32853663002E+02  0.00000000000E+00 0. -1.
         22    1    1    2    0    0 -0.14682586267E+02 -0.45036701002E+01 -0.17013140325E+02  0.22919605746E+02  0.00000000000E+00 0. -1.
<mgrwt>
<rscale>  0 0.52133342E+02</rscale>
<asrwt>0</asrwt>
<pdfrwt beam="1">  1        2 0.79759622E-02 0.78351013E+02</pdfrwt>
<pdfrwt beam="2">  1       -2 0.78611884E-02 0.78351013E+02</pdfrwt>
<totfact> 0.69029241E+04</totfact>
</mgrwt>
</event>
<event>
 6    1  0.1727544E-002  0.9100163E+02  0.7546771E-02  0.1403328E+00
         -2   -1    0    0    0  501 -0.00000000000E+00  0.00000000000E+00  0.37047025142E+02  0.37047025142E+02  0.00000000000E+00 0. -1.
          2   -1    0    0  501    0  0.00000000000E+00 -0.00000000000E+00 -0.97971852610E+02  0.97971852610E+02  0.00000000000E+00 0.  1.
         23    2    1    2    0    0 -0.15389616818E+02 -0.34193541525E+01 -0.22875260288E+02  0.93832692554E+02  0.89625690346E+02 0.  0.
         11    1    3    3    0    0 -0.69783002512E+01  0.41656706297E+02 -0.22758517212E+02  0.47978411391E+02  0.00000000000E+00 0.  1.
        -11    1    3    3    0    0 -0.84113165668E+01 -0.45076060449E+02 -0.11674307653E+00  0.45854281163E+02  0.00000000000E+00 0. -1.
         22    1    1    2    0    0  0.15389616818E+02  0.34193541525E+01 -0.38049567180E+02  0.41186185198E+02  0.00000000000E+00 0. -1.
<mgrwt>
<rscale>  0 0.58709682E+02</rscale>
<asrwt>0</asrwt>
<pdfrwt beam="1">  1        2 0.15072593E-01 0.91001630E+02</pdfrwt>
<pdfrwt beam="2">  1       -2 0.56995424E-02 0.91001630E+02</pdfrwt>
<totfact> 0.53524055E+04</totfact>
</mgrwt>
</event>
<event>
 6    1  0.1727544E-002  0.9450970E+02  0.7546771E-02  0.1365569E+00
         -1   -1    0    0    0  501 -0.00000000000E+00  0.00000000000E+00  0.18665647029E+02  0.18665647029E+02  0.00000000000E+00 0.  1.
          1   -1    0    0  501    0  0.00000000000E+00 -0.00000000000E+00 -0.20220566300E+03  0.20220566300E+03  0.00000000000E+00 0. -1.
         23    2    1    2    0    0  0.24830532288E+02 -0.75455190255E+01 -0.12391116038E+03  0.15583985141E+03  0.90876803583E+02 0.  0.
         13    1    3    3    0    0 -0.22403766953E+02  0.23170762143E+02 -0.73420979540E+02  0.80183871375E+02  0.00000000000E+00 0. -1.
        -13    1    3    3    0    0  0.47234299241E+02 -0.30716281169E+02 -0.50490180835E+02  0.75655980031E+02  0.00000000000E+00 0.  1.
         22    1    1    2    0    0 -0.24830532288E+02  0.75455190255E+01 -0.59628855599E+02  0.65031458627E+02  0.00000000000E+00 0. -1.
<mgrwt>
<rscale>  0 0.68414586E+02</rscale>
<asrwt>0</asrwt>
<pdfrwt beam="1">  1        1 0.31108563E-01 0.94509701E+02</pdfrwt>
<pdfrwt beam="2">  1       -1 0.28716380E-02 0.94509701E+02</pdfrwt>
<totfact> 0.50821963E+04</totfact>
</mgrwt>
</event>
<event>
 6    1  0.1727544E-002  0.9346702E+02  0.7546771E-02  0.1374841E+00
         -2   -1    0    0    0  501 -0.00000000000E+00  0.00000000000E+00  0.13054010593E+04  0.13054010593E+04  0.00000000000E+00 0.  1.
          2   -1    0    0  501    0  0.00000000000E+00 -0.00000000000E+00 -0.82874315238E+01  0.82874315238E+01  0.00000000000E+00 0. -1.
         23    2    1    2    0    0  0.12599442174E+02 -0.19257456931E+02  0.12836054882E+04  0.12870039368E+04  0.90589670199E+02 0.  0.
         13    1    3    3    0    0 -0.30200764802E+01  0.35731767621E+02  0.43524849116E+03  0.43672317220E+03  0.00000000000E+00 0. -1.
        -13    1    3    3    0    0  0.15619518654E+02 -0.54989224552E+02  0.84835699705E+03  0.85028076459E+03  0.00000000000E+00 0.  1.
         22    1    1    2    0    0 -0.12599442174E+02  0.19257456931E+02  0.13508139599E+02  0.26684554072E+02  0.00000000000E+00 0. -1.
<mgrwt>
<rscale>  0 0.65839549E+02</rscale>
<asrwt>0</asrwt>
<pdfrwt beam="1">  1        2 0.12749905E-02 0.93467021E+02</pdfrwt>
<pdfrwt beam="2">  1       -2 0.20083077E+00 0.93467021E+02</pdfrwt>
<totfact> 0.13696878E+03</totfact>
</mgrwt>
</event>
<event>
 6    1  0.1727544E-002  0.1069053E+03  0.7546771E-02  0.1346223E+00
          2   -1    0    0  501    0  0.00000000000E+00  0.00000000000E+00  0.73258640658E+02  0.73258640658E+02  0.00000000000E+00 0. -1.
         -2   -1    0    0    0  501 -0.00000000000E+00 -0.00000000000E+00 -0.60158801368E+02  0.60158801368E+02  0.00000000000E+00 0.  1.
         23    2    1    2    0    0 -0.21901658217E+02  0.11783636597E+02  0.41504878144E+01  0.10698587726E+03  0.10397218215E+03 0.  0.
         11    1    3    3    0    0 -0.17201284768E+02  0.31172297949E+02  0.47443763424E+02  0.59317004686E+02  0.00000000000E+00 0. -1.
        -11    1    3    3    0    0 -0.47003734490E+01 -0.19388661352E+02 -0.43293275609E+02  0.47668872575E+02  0.00000000000E+00 0.  1.
         22    1    1    2    0    0  0.21901658217E+02 -0.11783636597E+02  0.89493514756E+01  0.26431564765E+02  0.00000000000E+00 0.  1.
<mgrwt>
<rscale>  0 0.74245516E+02</rscale>
<asrwt>0</asrwt>
<pdfrwt beam="1">  1        2 0.11270560E-01 0.10690534E+03</pdfrwt>
<pdfrwt beam="2">  1       -2 0.92552002E-02 0.10690534E+03</pdfrwt>
<totfact> 0.36816705E+04</totfact>
</mgrwt>
</event>
<event>
 6    1  0.1727544E-002  0.9132980E+02  0.7546771E-02  0.1362848E+00
          2   -1    0    0  501    0  0.00000000000E+00  0.00000000000E+00  0.54551721690E+02  0.54551721690E+02  0.00000000000E+00 0. -1.
         -2   -1    0    0    0  501 -0.00000000000E+00 -0.00000000000E+00 -0.15759615535E+03  0.15759615535E+03  0.00000000000E+00 0.  1.
         23    2    1    2    0    0  0.19659849769E+01  0.30030287877E+02 -0.13833740734E+03  0.16576601336E+03  0.86229053277E+02 0.  0.
         13    1    3    3    0    0 -0.12673238285E+01 -0.23235761373E+02 -0.74752931241E+01  0.24441495935E+02  0.00000000000E+00 0. -1.
        -13    1    3    3    0    0  0.32333088054E+01  0.53266049249E+02 -0.13086211421E+03  0.14132451742E+03  0.00000000000E+00 0.  1.
         22    1    1    2    0    0 -0.19659849769E+01 -0.30030287877E+02  0.35292973682E+02  0.46381863678E+02  0.00000000000E+00 0. -1.
<mgrwt>
<rscale>  0 0.69196071E+02</rscale>
<asrwt>0</asrwt>
<pdfrwt beam="1">  1        2 0.83925727E-02 0.91329803E+02</pdfrwt>
<pdfrwt beam="2">  1       -2 0.24245562E-01 0.91329803E+02</pdfrwt>
<totfact> 0.10818334E+04</totfact>
</mgrwt>
</event>
<event>
 6    1  0.1727544E-002  0.9218976E+02  0.7546771E-02  0.1383459E+00
          2   -1    0    0  501    0  0.00000000000E+00  0.00000000000E+00  0.17511628261E+03  0.17511628261E+03  0.00000000000E+00 0. -1.
         -2   -1    0    0    0  501 -0.00000000000E+00 -0.00000000000E+00 -0.30291512624E+02  0.30291512624E+02  0.00000000000E+00 0.  1.
         23    2    1    2    0    0  0.11864699770E+02 -0.17125564341E+02  0.43452890959E+02  0.10191714874E+03  0.89804762789E+02 0.  0.
         13    1    3    3    0    0  0.28402526898E+02 -0.14170687163E+02 -0.19169314821E+02  0.37080649126E+02  0.00000000000E+00 0.  1.
        -13    1    3    3    0    0 -0.16537827128E+02 -0.29548771782E+01  0.62622205781E+02  0.64836499613E+02  0.00000000000E+00 0. -1.
         22    1    1    2    0    0 -0.11864699770E+02  0.17125564341E+02  0.10137187903E+03  0.10349064650E+03  0.00000000000E+00 0. -1.
<mgrwt>
<rscale>  0 0.63563124E+02</rscale>
<asrwt>0</asrwt>
<pdfrwt beam="1">  1        2 0.26940966E-01 0.92189758E+02</pdfrwt>
<pdfrwt beam="2">  1       -2 0.46602328E-02 0.92189758E+02</pdfrwt>
<totfact> 0.37815003E+04</totfact>
</mgrwt>
</event>
<event>
 6    1  0.1727544E-002  0.9797019E+02  0.7546771E-02  0.1339507E+00
          4   -1    0    0  501    0  0.00000000000E+00  0.00000000000E+00  0.73860028323E+01  0.73860028323E+01  0.00000000000E+00 0. -1.
         -4   -1    0    0    0  501 -0.00000000000E+00 -0.00000000000E+00 -0.64207193805E+03  0.64207193805E+03  0.00000000000E+00 0.  1.
         23    2    1    2    0    0  0.14471608784E+02 -0.33273247933E+02 -0.52069647421E+03  0.52983296978E+03  0.91003412735E+02 0.  0.
         13    1    3    3    0    0 -0.18133276292E+02 -0.44188906745E+02 -0.14716595057E+03  0.15472327619E+03  0.00000000000E+00 0. -1.
        -13    1    3    3    0    0  0.32604885075E+02  0.10915658812E+02 -0.37353052364E+03  0.37510969359E+03  0.00000000000E+00 0.  1.
         22    1    1    2    0    0 -0.14471608784E+02  0.33273247933E+02 -0.11398946101E+03  0.11962497109E+03  0.00000000000E+00 0. -1.
<mgrwt>
<rscale>  0 0.76427485E+02</rscale>
<asrwt>0</asrwt>
<pdfrwt beam="1">  1        4 0.11363080E-02 0.97970187E+02</pdfrwt>
<pdfrwt beam="2">  1       -4 0.98780310E-01 0.97970187E+02</pdfrwt>
<totfact> 0.32289158E+03</totfact>
</mgrwt>
</event>
<event>
 6    1  0.1727544E-002  0.9219145E+02  0.7546771E-02  0.1410662E+00
          4   -1    0    0  501    0  0.00000000000E+00  0.00000000000E+00  0.12584993745E+03  0.12584993745E+03  0.00000000000E+00 0. -1.
         -4   -1    0    0    0  501 -0.00000000000E+00 -0.00000000000E+00 -0.22714593395E+02  0.22714593395E+02  0.00000000000E+00 0.  1.
         23    2    1    2    0    0 -0.11226618095E+02 -0.75259463927E+01  0.81480752595E+02  0.12303811014E+03  0.91195321588E+02 0.  0.
         11    1    3    3    0    0  0.23914295923E+02 -0.36540948449E+02  0.55360083094E+02  0.70511511565E+02  0.00000000000E+00 0. -1.
        -11    1    3    3    0    0 -0.35140914018E+02  0.29015002056E+02  0.26120669501E+02  0.52526598571E+02  0.00000000000E+00 0.  1.
         22    1    1    2    0    0  0.11226618095E+02  0.75259463927E+01  0.21654591463E+02  0.25526420713E+02  0.00000000000E+00 0.  1.
<mgrwt>
<rscale>  0 0.57046423E+02</rscale>
<asrwt>0</asrwt>
<pdfrwt beam="1">  1        4 0.19361528E-01 0.92191450E+02</pdfrwt>
<pdfrwt beam="2">  1       -4 0.34945529E-02 0.92191450E+02</pdfrwt>
<totfact> 0.14717378E+04</totfact>
</mgrwt>
</event>
<event>
 6    1  0.1727544E-002  0.7617897E+02  0.7546771E-02  0.1402078E+00
          2   -1    0    0  501    0  0.00000000000E+00  0.00000000000E+00  0.95181096857E+02  0.95181096857E+02  0.00000000000E+00 0.  1.
         -2   -1    0    0    0  501 -0.00000000000E+00 -0.00000000000E+00 -0.48830521062E+02  0.48830521062E+02  0.00000000000E+00 0. -1.
         23    2    1    2    0    0 -0.14448630421E+02 -0.23291474938E+02 -0.14250471505E+02  0.77500395861E+02  0.71077279736E+02 0.  0.
         11    1    3    3    0    0  0.10301970332E+02 -0.11483158193E+02 -0.38133094458E+02  0.41135464112E+02  0.00000000000E+00 0. -1.
        -11    1    3    3    0    0 -0.24750600753E+02 -0.11808316745E+02  0.23882622953E+02  0.36364931749E+02  0.00000000000E+00 0.  1.
         22    1    1    2    0    0  0.14448630421E+02  0.23291474938E+02  0.60601047299E+02  0.66511222058E+02  0.00000000000E+00 0.  1.
<mgrwt>
<rscale>  0 0.58999699E+02</rscale>
<asrwt>0</asrwt>
<pdfrwt beam="1">  1        2 0.14643246E-01 0.76178970E+02</pdfrwt>
<pdfrwt beam="2">  1       -2 0.75123879E-02 0.76178970E+02</pdfrwt>
<totfact> 0.35640193E+04</totfact>
</mgrwt>
</event>
<event>
 6    1  0.1727544E-002  0.9932492E+02  0.7546771E-02  0.1347597E+00
         -2   -1    0    0    0  501 -0.00000000000E+00  0.00000000000E+00  0.10575367480E+02  0.10575367480E+02  0.00000000000E+00 0.  1.
          2   -1    0    0  501    0  0.00000000000E+00 -0.00000000000E+00 -0.40676057358E+03  0.40676057358E+03  0.00000000000E+00 0. -1.
         23    2    1    2    0    0  0.83155087159E+00 -0.30277251854E+02 -0.27382320026E+03  0.29128093747E+03  0.94594059415E+02 0.  0.
         13    1    3    3    0    0 -0.38775723761E+02 -0.10454541932E+02 -0.20866609664E+03  0.21249563310E+03  0.00000000000E+00 0. -1.
        -13    1    3    3    0    0  0.39607274633E+02 -0.19822709922E+02 -0.65157103622E+02  0.78785304372E+02  0.00000000000E+00 0.  1.
         22    1    1    2    0    0 -0.83155087159E+00  0.30277251854E+02 -0.12236200584E+03  0.12605500359E+03  0.00000000000E+00 0. -1.
<mgrwt>
<rscale>  0 0.73809746E+02</rscale>
<asrwt>0</asrwt>
<pdfrwt beam="1">  1        2 0.62578548E-01 0.99324919E+02</pdfrwt>
<pdfrwt beam="2">  1       -2 0.16269797E-02 0.99324919E+02</pdfrwt>
<totfact> 0.72364784E+04</totfact>
</mgrwt>
</event>
<event>
 6    1  0.1727544E-002  0.9248535E+02  0.7546771E-02  0.1426996E+00
         -4   -1    0    0    0  501 -0.00000000000E+00  0.00000000000E+00  0.81135609112E+02  0.81135609112E+02  0.00000000000E+00 0.  1.
          4   -1    0    0  501    0  0.00000000000E+00 -0.00000000000E+00 -0.32806635106E+02  0.32806635106E+02  0.00000000000E+00 0. -1.
         23    2    1    2    0    0  0.94221806183E+01  0.44230908678E+01  0.45922488759E+02  0.10325896796E+03  0.91897759871E+02 0.  0.
         13    1    3    3    0    0 -0.35604505811E+02  0.43319666830E+01 -0.39308664405E+01  0.36081830336E+02  0.00000000000E+00 0. -1.
        -13    1    3    3    0    0  0.45026686429E+02  0.91124184847E-01  0.49853355199E+02  0.67177137622E+02  0.00000000000E+00 0.  1.
         22    1    1    2    0    0 -0.94221806183E+01 -0.44230908678E+01  0.24064852471E+01  0.10683276261E+02  0.00000000000E+00 0.  1.
<mgrwt>
<rscale>  0 0.53567813E+02</rscale>
<asrwt>0</asrwt>
<pdfrwt beam="1">  1        4 0.50471747E-02 0.92485347E+02</pdfrwt>
<pdfrwt beam="2">  1       -4 0.12482401E-01 0.92485347E+02</pdfrwt>
<totfact> 0.17678850E+04</totfact>
</mgrwt>
</event>
<event>
 6    1  0.1727544E-002  0.9630624E+02  0.7546771E-02  0.1322214E+00
         -3   -1    0    0    0  501 -0.00000000000E+00  0.00000000000E+00  0.47148282418E+03  0.47148282418E+03  0.00000000000E+00 0.  1.
          3   -1    0    0  501    0  0.00000000000E+00 -0.00000000000E+00 -0.12915300362E+02  0.12915300362E+02  0.00000000000E+00 0. -1.
         23    2    1    2    0    0  0.27762825457E+02  0.43684189467E+02  0.21799751131E+03  0.23832290473E+03  0.81214586720E+02 0.  0.
         11    1    3    3    0    0 -0.13388605221E+02  0.38398442108E+02  0.46025947368E+02  0.61417285329E+02  0.00000000000E+00 0. -1.
        -11    1    3    3    0    0  0.41151430677E+02  0.52857473588E+01  0.17197156394E+03  0.17690561940E+03  0.00000000000E+00 0.  1.
         22    1    1    2    0    0 -0.27762825457E+02 -0.43684189467E+02  0.24057001251E+03  0.24607521981E+03  0.00000000000E+00 0. -1.
<mgrwt>
<rscale>  0 0.82459195E+02</rscale>
<asrwt>0</asrwt>
<pdfrwt beam="1">  1        3 0.19869697E-02 0.96306241E+02</pdfrwt>
<pdfrwt beam="2">  1       -3 0.72535806E-01 0.96306241E+02</pdfrwt>
<totfact> 0.37837275E+03</totfact>
</mgrwt>
</event>
<event>
 6    1  0.1727544E-002  0.9696328E+02  0.7546771E-02  0.1394758E+00
          2   -1    0    0  501    0  0.00000000000E+00  0.00000000000E+00  0.11028470876E+03  0.11028470876E+03  0.00000000000E+00 0. -1.
         -2   -1    0    0    0  501 -0.00000000000E+00 -0.00000000000E+00 -0.42806398570E+02  0.42806398570E+02  0.00000000000E+00 0.  1.
         23    2    1    2    0    0  0.10581898291E+02 -0.10531146521E+02  0.14490176445E+02  0.98040004379E+02  0.95807075035E+02 0.  0.
         13    1    3    3    0    0  0.37351931382E+02 -0.12158608601E+02  0.43446730418E+02  0.58571468524E+02  0.00000000000E+00 0. -1.
        -13    1    3    3    0    0 -0.26770033091E+02  0.16274620797E+01 -0.28956553973E+02  0.39468535854E+02  0.00000000000E+00 0.  1.
         22    1    1    2    0    0 -0.10581898291E+02  0.10531146521E+02  0.52988133744E+02  0.55051102952E+02  0.00000000000E+00 0. -1.
<mgrwt>
<rscale>  0 0.60738596E+02</rscale>
<asrwt>0</asrwt>
<pdfrwt beam="1">  1        2 0.16966878E-01 0.96963278E+02</pdfrwt>
<pdfrwt beam="2">  1       -2 0.65855998E-02 0.96963278E+02</pdfrwt>
<totfact> 0.37909136E+04</totfact>
</mgrwt>
</event>
<event>
 6    1  0.1727544E-002  0.8952675E+02  0.7546771E-02  0.1414485E+00
         -1   -1    0    0    0  501 -0.00000000000E+00  0.00000000000E+00  0.12655761332E+02  0.12655761332E+02  0.00000000000E+00 0.  1.
          1   -1    0    0  501    0  0.00000000000E+00 -0.00000000000E+00 -0.22584917718E+03  0.22584917718E+03  0.00000000000E+00 0. -1.
         23    2    1    2    0    0 -0.13585434434E+02 -0.29739555784E+01 -0.15815013541E+03  0.18173195936E+03  0.88439986895E+02 0.  0.
         11    1    3    3    0    0 -0.40131877535E+02  0.25593711708E+02 -0.63470847320E+02  0.79335705284E+02  0.00000000000E+00 0. -1.
        -11    1    3    3    0    0  0.26546443101E+02 -0.28567667286E+02 -0.94679288089E+02  0.10239625407E+03  0.00000000000E+00 0.  1.
         22    1    1    2    0    0  0.13585434434E+02  0.29739555784E+01 -0.55043280440E+02  0.56772979155E+02  0.00000000000E+00 0. -1.
<mgrwt>
<rscale>  0 0.56204884E+02</rscale>
<asrwt>0</asrwt>
<pdfrwt beam="1">  1        1 0.34746026E-01 0.89526754E+02</pdfrwt>
<pdfrwt beam="2">  1       -1 0.19470403E-02 0.89526754E+02</pdfrwt>
<totfact> 0.76856230E+04</totfact>
</mgrwt>
</event>
<event>
 6    1  0.1727544E-002  0.9214024E+02  0.7546771E-02  0.1385574E+00
          2   -1    0    0  501    0  0.00000000000E+00  0.00000000000E+00  0.10508826986E+02  0.10508826986E+02  0.00000000000E+00 0. -1.
         -2   -1    0    0    0  501 -0.00000000000E+00 -0.00000000000E+00 -0.30991167964E+03  0.30991167964E+03  0.00000000000E+00 0.  1.
         23    2    1    2    0    0  0.20121945350E+02 -0.13154942155E+01 -0.26477583670E+03  0.28034990089E+03  0.89906618346E+02 0.  0.
         11    1    3    3    0    0  0.45147545101E+02 -0.13169191078E+02 -0.74725745830E+02  0.88293066047E+02  0.00000000000E+00 0. -1.
        -11    1    3    3    0    0 -0.25025599751E+02  0.11853696863E+02 -0.19005009087E+03  0.19205683485E+03  0.00000000000E+00 0.  1.
         22    1    1    2    0    0 -0.20121945350E+02  0.13154942155E+01 -0.34627015960E+02  0.40070605735E+02  0.00000000000E+00 0.  1.
<mgrwt>
<rscale>  0 0.63021105E+02</rscale>
<asrwt>0</asrwt>
<pdfrwt beam="1">  1        2 0.16167429E-02 0.92140237E+02</pdfrwt>
<pdfrwt beam="2">  1       -2 0.47678711E-01 0.92140237E+02</pdfrwt>
<totfact> 0.27182579E+04</totfact>
</mgrwt>
</event>
<event>
 6    1  0.1727544E-002  0.9228026E+02  0.7546771E-02  0.1397754E+00
          2   -1    0    0  501    0  0.00000000000E+00  0.00000000000E+00  0.35802410561E+03  0.35802410561E+03  0.00000000000E+00 0. -1.
         -2   -1    0    0    0  501 -0.00000000000E+00 -0.00000000000E+00 -0.83482449064E+01  0.83482449064E+01  0.00000000000E+00 0.  1.
         23    2    1    2    0    0  0.11857105902E+02  0.11492290291E+02  0.30859494515E+03  0.32209701518E+03  0.90790876847E+02 0.  0.
         11    1    3    3    0    0  0.21516209902E+02 -0.35785528540E+02  0.17911164498E+03  0.18391447118E+03  0.00000000000E+00 0. -1.
        -11    1    3    3    0    0 -0.96591039997E+01  0.47277818831E+02  0.12948330017E+03  0.13818254400E+03  0.00000000000E+00 0.  1.
         22    1    1    2    0    0 -0.11857105902E+02 -0.11492290291E+02  0.41080915556E+02  0.44275335339E+02  0.00000000000E+00 0. -1.
<mgrwt>
<rscale>  0 0.60018486E+02</rscale>
<asrwt>0</asrwt>
<pdfrwt beam="1">  1        2 0.55080620E-01 0.92280263E+02</pdfrwt>
<pdfrwt beam="2">  1       -2 0.12843457E-02 0.92280263E+02</pdfrwt>
<totfact> 0.11479654E+05</totfact>
</mgrwt>
</event>
<event>
 6    1  0.1727544E-002  0.9205342E+02  0.7546771E-02  0.1384500E+00
         -4   -1    0    0    0  501 -0.00000000000E+00  0.00000000000E+00  0.75781520991E+02  0.75781520991E+02  0.00000000000E+00 0.  1.
          4   -1    0    0  501    0  0.00000000000E+00 -0.00000000000E+00 -0.45379197077E+02  0.45379197077E+02  0.00000000000E+00 0. -1.
         23    2    1    2    0    0  0.10569042544E+02  0.17654978093E+02  0.37493779349E+02  0.99396259611E+02  0.89724188617E+02 0.  0.
         13    1    3    3    0    0  0.34979463275E+01  0.28591718958E+02 -0.23408460464E+02  0.37117085591E+02  0.00000000000E+00 0. -1.
        -13    1    3    3    0    0  0.70710962169E+01 -0.10936740865E+02  0.60902239812E+02  0.62279174020E+02  0.00000000000E+00 0.  1.
         22    1    1    2    0    0 -0.10569042544E+02 -0.17654978093E+02 -0.70914554351E+01  0.21764458458E+02  0.00000000000E+00 0.  1.
<mgrwt>
<rscale>  0 0.63295698E+02</rscale>
<asrwt>0</asrwt>
<pdfrwt beam="1">  1        4 0.69814149E-02 0.92053424E+02</pdfrwt>
<pdfrwt beam="2">  1       -4 0.11658696E-01 0.92053424E+02</pdfrwt>
<totfact> 0.11754711E+04</totfact>
</mgrwt>
</event>
<event>
 6    1  0.1727544E-002  0.9131681E+02  0.7546771E-02  0.1424894E+00
          1   -1    0    0  501    0  0.00000000000E+00  0.00000000000E+00  0.17151553896E+02  0.17151553896E+02  0.00000000000E+00 0. -1.
         -1   -1    0    0    0  501 -0.00000000000E+00 -0.00000000000E+00 -0.16148507772E+03  0.16148507772E+03  0.00000000000E+00 0.  1.
         23    2    1    2    0    0  0.38246728218E+01  0.10490072646E+02 -0.13887612992E+03  0.16620872372E+03  0.90631620499E+02 0.  0.
         11    1    3    3    0    0  0.36988783593E+02  0.29393921718E+00 -0.12227119815E+03  0.12774389382E+03  0.00000000000E+00 0.  1.
        -11    1    3    3    0    0 -0.33164110771E+02  0.10196133429E+02 -0.16604931767E+02  0.38464829899E+02  0.00000000000E+00 0. -1.
         22    1    1    2    0    0 -0.38246728218E+01 -0.10490072646E+02 -0.54573939042E+01  0.12427907891E+02  0.00000000000E+00 0. -1.
<mgrwt>
<rscale>  0 0.53998686E+02</rscale>
<asrwt>0</asrwt>
<pdfrwt beam="1">  1        1 0.26387006E-02 0.91316813E+02</pdfrwt>
<pdfrwt beam="2">  1       -1 0.24843858E-01 0.91316813E+02</pdfrwt>
<totfact> 0.49505744E+04</totfact>
</mgrwt>
</event>
<event>
 6    1  0.1727544E-002  0.1060509E+03  0.7546771E-02  0.1307307E+00
         -2   -1    0    0    0  501 -0.00000000000E+00  0.00000000000E+00  0.58642740177E+02  0.58642740177E+02  0.00000000000E+00 0.  1.
          2   -1    0    0  501    0  0.00000000000E+00 -0.00000000000E+00 -0.11263297606E+03  0.11263297606E+03  0.00000000000E+00 0. -1.
         23    2    1    2    0    0 -0.39781420514E+02 -0.31437343486E+02 -0.14561981635E+02  0.10704600958E+03  0.93144666379E+02 0.  0.
         13    1    3    3    0    0 -0.39158342704E+02 -0.31585835139E+02  0.32555528722E+02  0.59924145677E+02  0.00000000000E+00 0.  1.
        -13    1    3    3    0    0 -0.62307781008E+00  0.14849165298E+00 -0.47117510357E+02  0.47121863906E+02  0.00000000000E+00 0. -1.
         22    1    1    2    0    0  0.39781420514E+02  0.31437343486E+02 -0.39428254244E+02  0.64229706650E+02  0.00000000000E+00 0. -1.
<mgrwt>
<rscale>  0 0.88185218E+02</rscale>
<asrwt>0</asrwt>
<pdfrwt beam="1">  1        2 0.17328150E-01 0.10605092E+03</pdfrwt>
<pdfrwt beam="2">  1       -2 0.90219601E-02 0.10605092E+03</pdfrwt>
<totfact> 0.23113396E+04</totfact>
</mgrwt>
</event>
<event>
 6    1  0.1727544E-002  0.9854955E+02  0.7546771E-02  0.1336237E+00
          1   -1    0    0  501    0  0.00000000000E+00  0.00000000000E+00  0.24016799555E+02  0.24016799555E+02  0.00000000000E+00 0. -1.
         -1   -1    0    0    0  501 -0.00000000000E+00 -0.00000000000E+00 -0.20416386438E+03  0.20416386438E+03  0.00000000000E+00 0.  1.
         23    2    1    2    0    0 -0.32907205059E+02  0.18462949596E+02 -0.15180855169E+03  0.18099130095E+03  0.91039826451E+02 0.  0.
         11    1    3    3    0    0 -0.35003996195E+01  0.30830468985E+02 -0.58349670200E+01  0.31572416053E+02  0.00000000000E+00 0. -1.
        -11    1    3    3    0    0 -0.29406805439E+02 -0.12367519389E+02 -0.14597358467E+03  0.14941888489E+03  0.00000000000E+00 0.  1.
         22    1    1    2    0    0  0.32907205059E+02 -0.18462949596E+02 -0.28338513138E+02  0.47189362990E+02  0.00000000000E+00 0.  1.
<mgrwt>
<rscale>  0 0.77521251E+02</rscale>
<asrwt>0</asrwt>
<pdfrwt beam="1">  1        1 0.36948920E-02 0.98549554E+02</pdfrwt>
<pdfrwt beam="2">  1       -1 0.31409827E-01 0.98549554E+02</pdfrwt>
<totfact> 0.21417903E+04</totfact>
</mgrwt>
</event>
<event>
 6    1  0.1727544E-002  0.9567334E+02  0.7546771E-02  0.1358578E+00
          2   -1    0    0  501    0  0.00000000000E+00  0.00000000000E+00  0.37091744832E+03  0.37091744832E+03  0.00000000000E+00 0. -1.
         -2   -1    0    0    0  501 -0.00000000000E+00 -0.00000000000E+00 -0.20190293868E+02  0.20190293868E+02  0.00000000000E+00 0.  1.
         23    2    1    2    0    0 -0.24953459596E+02 -0.12973998122E+02  0.35014119456E+03  0.36297692062E+03  0.91446098897E+02 0.  0.
         11    1    3    3    0    0 -0.29633090181E+02  0.31085566965E+02  0.98363453268E+02  0.10733033796E+03  0.00000000000E+00 0.  1.
        -11    1    3    3    0    0  0.46796305855E+01 -0.44059565088E+02  0.25177774129E+03  0.25564658266E+03  0.00000000000E+00 0. -1.
         22    1    1    2    0    0  0.24953459596E+02  0.12973998122E+02  0.58595989379E+00  0.28130821567E+02  0.00000000000E+00 0.  1.
<mgrwt>
<rscale>  0 0.70447447E+02</rscale>
<asrwt>0</asrwt>
<pdfrwt beam="1">  1        2 0.57064218E-01 0.95673344E+02</pdfrwt>
<pdfrwt beam="2">  1       -2 0.31061993E-02 0.95673344E+02</pdfrwt>
<totfact> 0.31197918E+04</totfact>
</mgrwt>
</event>
<event>
 6    1  0.1727544E-002  0.9110531E+02  0.7546771E-02  0.1430691E+00
         -1   -1    0    0    0  501 -0.00000000000E+00  0.00000000000E+00  0.14922460218E+02  0.14922460218E+02  0.00000000000E+00 0.  1.
          1   -1    0    0  501    0  0.00000000000E+00 -0.00000000000E+00 -0.18941866480E+03  0.18941866480E+03  0.00000000000E+00 0. -1.
         23    2    1    2    0    0 -0.25688592245E+01 -0.99690093509E+01 -0.13049225835E+03  0.15914900769E+03  0.90521803850E+02 0.  0.
         11    1    3    3    0    0 -0.34136629466E+02 -0.17475899591E+01 -0.12016586986E+03  0.12493278121E+03  0.00000000000E+00 0. -1.
        -11    1    3    3    0    0  0.31567770241E+02 -0.82214193918E+01 -0.10326388491E+02  0.34216226474E+02  0.00000000000E+00 0.  1.
         22    1    1    2    0    0  0.25688592245E+01  0.99690093509E+01 -0.44003946231E+02  0.45192117333E+02  0.00000000000E+00 0. -1.
<mgrwt>
<rscale>  0 0.52821514E+02</rscale>
<asrwt>0</asrwt>
<pdfrwt beam="1">  1        1 0.29141335E-01 0.91105308E+02</pdfrwt>
<pdfrwt beam="2">  1       -1 0.22957630E-02 0.91105308E+02</pdfrwt>
<totfact> 0.75549915E+04</totfact>
</mgrwt>
</event>
<event>
 6    1  0.1727544E-002  0.1011704E+03  0.7546771E-02  0.1319058E+00
         -1   -1    0    0    0  501 -0.00000000000E+00  0.00000000000E+00  0.32086613309E+03  0.32086613309E+03  0.00000000000E+00 0. -1.
          1   -1    0    0  501    0  0.00000000000E+00 -0.00000000000E+00 -0.18092958693E+02  0.18092958693E+02  0.00000000000E+00 0.  1.
         23    2    1    2    0    0  0.23744142841E+02 -0.40833475765E+02  0.23956297910E+03  0.26004973967E+03  0.89466692584E+02 0.  0.
         13    1    3    3    0    0  0.56931600474E+02 -0.36554992793E+02  0.16414041757E+03  0.17753746453E+03  0.00000000000E+00 0. -1.
        -13    1    3    3    0    0 -0.33187457632E+02 -0.42784829726E+01  0.75422561536E+02  0.82512275143E+02  0.00000000000E+00 0.  1.
         22    1    1    2    0    0 -0.23744142841E+02  0.40833475765E+02  0.63210195297E+02  0.78909352119E+02  0.00000000000E+00 0. -1.
<mgrwt>
<rscale>  0 0.83628886E+02</rscale>
<asrwt>0</asrwt>
<pdfrwt beam="1">  1        1 0.27835323E-02 0.10117038E+03</pdfrwt>
<pdfrwt beam="2">  1       -1 0.49364016E-01 0.10117038E+03</pdfrwt>
<totfact> 0.14446205E+04</totfact>
</mgrwt>
</event>
<event>
 6    1  0.1727544E-002  0.8950010E+02  0.7546771E-02  0.1412559E+00
          4   -1    0    0  501    0  0.00000000000E+00  0.00000000000E+00  0.64549260702E+01  0.64549260702E+01  0.00000000000E+00 0. -1.
         -4   -1    0    0    0  501 -0.00000000000E+00 -0.00000000000E+00 -0.44210188373E+03  0.44210188373E+03  0.00000000000E+00 0.  1.
         23    2    1    2    0    0 -0.51256040197E+01  0.13395042480E+02 -0.40425178403E+03  0.41404078588E+03  0.88343468951E+02 0.  0.
         13    1    3    3    0    0 -0.44644333801E+02  0.17609855121E+02 -0.26112833306E+03  0.26550184531E+03  0.00000000000E+00 0.  1.
        -13    1    3    3    0    0  0.39518729781E+02 -0.42148126409E+01 -0.14312345097E+03  0.14853894057E+03  0.00000000000E+00 0. -1.
         22    1    1    2    0    0  0.51256040197E+01 -0.13395042480E+02 -0.31395173637E+02  0.34516023921E+02  0.00000000000E+00 0. -1.
<mgrwt>
<rscale>  0 0.56626752E+02</rscale>
<asrwt>0</asrwt>
<pdfrwt beam="1">  1        4 0.99306533E-03 0.89500098E+02</pdfrwt>
<pdfrwt beam="2">  1       -4 0.68015689E-01 0.89500098E+02</pdfrwt>
<totfact> 0.87621441E+03</totfact>
</mgrwt>
</event>
<event>
 6    1  0.1727544E-002  0.9025059E+02  0.7546771E-02  0.1419013E+00
          2   -1    0    0  501    0  0.00000000000E+00  0.00000000000E+00  0.16094447659E+02  0.16094447659E+02  0.00000000000E+00 0. -1.
         -2   -1    0    0    0  501 -0.00000000000E+00 -0.00000000000E+00 -0.17137363706E+03  0.17137363706E+03  0.00000000000E+00 0.  1.
         23    2    1    2    0    0  0.57294094456E+01 -0.11286889748E+02 -0.14648457372E+03  0.17205493197E+03  0.89358543319E+02 0.  0.
         13    1    3    3    0    0  0.82756145353E+01  0.19882585062E+02 -0.13797351799E+03  0.13964417156E+03  0.00000000000E+00 0.  1.
        -13    1    3    3    0    0 -0.25462050897E+01 -0.31169474810E+02 -0.85110557243E+01  0.32410760402E+02  0.00000000000E+00 0. -1.
         22    1    1    2    0    0 -0.57294094456E+01  0.11286889748E+02 -0.87946156866E+01  0.15413152755E+02  0.00000000000E+00 0. -1.
<mgrwt>
<rscale>  0 0.55230266E+02</rscale>
<asrwt>0</asrwt>
<pdfrwt beam="1">  1        2 0.24760690E-02 0.90250592E+02</pdfrwt>
<pdfrwt beam="2">  1       -2 0.26365174E-01 0.90250592E+02</pdfrwt>
<totfact> 0.45321471E+04</totfact>
</mgrwt>
</event>
<event>
 6    1  0.1727544E-002  0.9640811E+02  0.7546771E-02  0.1361175E+00
          1   -1    0    0  501    0  0.00000000000E+00  0.00000000000E+00  0.20320219396E+03  0.20320219396E+03  0.00000000000E+00 0. -1.
         -1   -1    0    0    0  501 -0.00000000000E+00 -0.00000000000E+00 -0.21527774309E+02  0.21527774309E+02  0.00000000000E+00 0.  1.
         23    2    1    2    0    0  0.19548667738E+02 -0.17612098664E+02  0.99926591517E+02  0.13885189287E+03  0.92747981280E+02 0.  0.
         11    1    3    3    0    0 -0.79719288689E+01  0.16778783578E+02  0.92298738030E+02  0.94149542061E+02  0.00000000000E+00 0. -1.
        -11    1    3    3    0    0  0.27520596607E+02 -0.34390882242E+02  0.76278534867E+01  0.44702350808E+02  0.00000000000E+00 0.  1.
         22    1    1    2    0    0 -0.19548667738E+02  0.17612098664E+02  0.81747828138E+02  0.85878075403E+02  0.00000000000E+00 0. -1.
<mgrwt>
<rscale>  0 0.69682679E+02</rscale>
<asrwt>0</asrwt>
<pdfrwt beam="1">  1        1 0.31261875E-01 0.96408114E+02</pdfrwt>
<pdfrwt beam="2">  1       -1 0.33119654E-02 0.96408114E+02</pdfrwt>
<totfact> 0.41221064E+04</totfact>
</mgrwt>
</event>
<event>
 6    1  0.1727544E-002  0.9460433E+02  0.7546771E-02  0.1410649E+00
         -4   -1    0    0    0  501 -0.00000000000E+00  0.00000000000E+00  0.65186715216E+02  0.65186715216E+02  0.00000000000E+00 0. -1.
          4   -1    0    0  501    0  0.00000000000E+00 -0.00000000000E+00 -0.65418679965E+02  0.65418679965E+02  0.00000000000E+00 0.  1.
         23    2    1    2    0    0  0.56925414056E+01  0.11140215870E+02  0.28884054538E+02  0.98915459611E+02  0.93773504287E+02 0.  0.
         11    1    3    3    0    0  0.89746199178E+01  0.12123781289E+02 -0.33341899687E+02  0.36595247644E+02  0.00000000000E+00 0.  1.
        -11    1    3    3    0    0 -0.32820785123E+01 -0.98356541888E+00  0.62225954225E+02  0.62320211966E+02  0.00000000000E+00 0. -1.
         22    1    1    2    0    0 -0.56925414056E+01 -0.11140215870E+02 -0.29116019287E+02  0.31689935570E+02  0.00000000000E+00 0. -1.
<mgrwt>
<rscale>  0 0.57049367E+02</rscale>
<asrwt>0</asrwt>
<pdfrwt beam="1">  1        4 0.10064412E-01 0.94604332E+02</pdfrwt>
<pdfrwt beam="2">  1       -4 0.10028725E-01 0.94604332E+02</pdfrwt>
<totfact> 0.83508444E+03</totfact>
</mgrwt>
</event>
<event>
 6    1  0.1727544E-002  0.9213756E+02  0.7546771E-02  0.1406794E+00
         -2   -1    0    0    0  501 -0.00000000000E+00  0.00000000000E+00  0.85359464119E+01  0.85359464119E+01  0.00000000000E+00 0. -1.
          2   -1    0    0  501    0  0.00000000000E+00 -0.00000000000E+00 -0.33276585487E+03  0.33276585487E+03  0.00000000000E+00 0.  1.
         23    2    1    2    0    0 -0.10792945031E+02 -0.95077155203E+01 -0.28455475127E+03  0.29909987698E+03  0.91007942634E+02 0.  0.
         11    1    3    3    0    0  0.73899273527E+01  0.39291691187E+02 -0.12979565794E+03  0.13581369903E+03  0.00000000000E+00 0. -1.
        -11    1    3    3    0    0 -0.18182872383E+02 -0.48799406707E+02 -0.15475909333E+03  0.16328617795E+03  0.00000000000E+00 0.  1.
         22    1    1    2    0    0  0.10792945031E+02  0.95077155203E+01 -0.39675157186E+02  0.42201924299E+02  0.00000000000E+00 0. -1.
<mgrwt>
<rscale>  0 0.57915322E+02</rscale>
<asrwt>0</asrwt>
<pdfrwt beam="1">  1        2 0.51194743E-01 0.92137560E+02</pdfrwt>
<pdfrwt beam="2">  1       -2 0.13132226E-02 0.92137560E+02</pdfrwt>
<totfact> 0.12005160E+05</totfact>
</mgrwt>
</event>
<event>
 6    1  0.1727544E-002  0.9307467E+02  0.7546771E-02  0.1398182E+00
          1   -1    0    0  501    0  0.00000000000E+00  0.00000000000E+00  0.78839080599E+02  0.78839080599E+02  0.00000000000E+00 0. -1.
         -1   -1    0    0    0  501 -0.00000000000E+00 -0.00000000000E+00 -0.24266831758E+03  0.24266831758E+03  0.00000000000E+00 0.  1.
         23    2    1    2    0    0  0.15915960908E+02  0.14760265198E+01 -0.23279590590E+03  0.25071263928E+03  0.91691860192E+02 0.  0.
         11    1    3    3    0    0  0.38688647392E+02 -0.32577054847E+02 -0.10569569576E+03  0.11717361496E+03  0.00000000000E+00 0.  1.
        -11    1    3    3    0    0 -0.22772686484E+02  0.34053081367E+02 -0.12710021014E+03  0.13353902433E+03  0.00000000000E+00 0. -1.
         22    1    1    2    0    0 -0.15915960908E+02 -0.14760265198E+01  0.68966668918E+02  0.70794758899E+02  0.00000000000E+00 0. -1.
<mgrwt>
<rscale>  0 0.59916541E+02</rscale>
<asrwt>0</asrwt>
<pdfrwt beam="1">  1        1 0.12129089E-01 0.93074667E+02</pdfrwt>
<pdfrwt beam="2">  1       -1 0.37333587E-01 0.93074667E+02</pdfrwt>
<totfact> 0.32501420E+03</totfact>
</mgrwt>
</event>
<event>
 6    1  0.1727544E-002  0.9225735E+02  0.7546771E-02  0.1425690E+00
         -2   -1    0    0    0  501 -0.00000000000E+00  0.00000000000E+00  0.23054423324E+03  0.23054423324E+03  0.00000000000E+00 0.  1.
          2   -1    0    0  501    0  0.00000000000E+00 -0.00000000000E+00 -0.22397409153E+02  0.22397409153E+02  0.00000000000E+00 0. -1.
         23    2    1    2    0    0 -0.10308508229E+02 -0.28562345809E+01  0.21903902528E+03  0.23767522615E+03  0.91635119407E+02 0.  0.
         13    1    3    3    0    0  0.30905027979E+02  0.94619209553E+01  0.16728651751E+03  0.17038024429E+03  0.00000000000E+00 0.  1.
        -13    1    3    3    0    0 -0.41213536208E+02 -0.12318155536E+02  0.51752507770E+02  0.67294981856E+02  0.00000000000E+00 0. -1.
         22    1    1    2    0    0  0.10308508229E+02  0.28562345809E+01 -0.10892201201E+02  0.15266416243E+02  0.00000000000E+00 0. -1.
<mgrwt>
<rscale>  0 0.53835047E+02</rscale>
<asrwt>0</asrwt>
<pdfrwt beam="1">  1        2 0.34457554E-02 0.92257349E+02</pdfrwt>
<pdfrwt beam="2">  1       -2 0.35468342E-01 0.92257349E+02</pdfrwt>
<totfact> 0.17234196E+04</totfact>
</mgrwt>
</event>
<event>
 6    1  0.1727544E-002  0.9150230E+02  0.7546771E-02  0.1397417E+00
          1   -1    0    0  501    0  0.00000000000E+00  0.00000000000E+00  0.35739354896E+02  0.35739354896E+02  0.00000000000E+00 0. -1.
         -1   -1    0    0    0  501 -0.00000000000E+00 -0.00000000000E+00 -0.15502576588E+03  0.15502576588E+03  0.00000000000E+00 0.  1.
         23    2    1    2    0    0  0.17008976941E+02  0.81310702927E+00 -0.13792612062E+03  0.16551823553E+03  0.89903865906E+02 0.  0.
         11    1    3    3    0    0  0.93826931455E+01  0.20719649088E+02  0.30418222778E+01  0.22947580957E+02  0.00000000000E+00 0. -1.
        -11    1    3    3    0    0  0.76262837959E+01 -0.19906542059E+02 -0.14096794290E+03  0.14257065457E+03  0.00000000000E+00 0.  1.
         22    1    1    2    0    0 -0.17008976941E+02 -0.81310702927E+00  0.18639709631E+02  0.25246885249E+02  0.00000000000E+00 0. -1.
<mgrwt>
<rscale>  0 0.60099033E+02</rscale>
<asrwt>0</asrwt>
<pdfrwt beam="1">  1        1 0.54983622E-02 0.91502303E+02</pdfrwt>
<pdfrwt beam="2">  1       -1 0.23850118E-01 0.91502303E+02</pdfrwt>
<totfact> 0.19478497E+04</totfact>
</mgrwt>
</event>
<event>
 6    1  0.1727544E-002  0.9426045E+02  0.7546771E-02  0.1407904E+00
          2   -1    0    0  501    0  0.00000000000E+00  0.00000000000E+00  0.91822523617E+02  0.91822523617E+02  0.00000000000E+00 0. -1.
         -2   -1    0    0    0  501 -0.00000000000E+00 -0.00000000000E+00 -0.32918339074E+02  0.32918339074E+02  0.00000000000E+00 0.  1.
         23    2    1    2    0    0 -0.47899161920E+01  0.12302260158E+02  0.41744640190E+02  0.10309048476E+03  0.93331367511E+02 0.  0.
         11    1    3    3    0    0  0.30045675375E+02  0.14693184558E+02  0.56119181010E+02  0.65329891768E+02  0.00000000000E+00 0. -1.
        -11    1    3    3    0    0 -0.34835591567E+02 -0.23909243999E+01 -0.14374540821E+02  0.37760592992E+02  0.00000000000E+00 0.  1.
         22    1    1    2    0    0  0.47899161920E+01 -0.12302260158E+02  0.17159544354E+02  0.21650377931E+02  0.00000000000E+00 0.  1.
<mgrwt>
<rscale>  0 0.57664145E+02</rscale>
<asrwt>0</asrwt>
<pdfrwt beam="1">  1        2 0.14126542E-01 0.94260453E+02</pdfrwt>
<pdfrwt beam="2">  1       -2 0.50643599E-02 0.94260453E+02</pdfrwt>
<totfact> 0.69171532E+04</totfact>
</mgrwt>
</event>
<event>
 6    1  0.1727544E-002  0.9206392E+02  0.7546771E-02  0.1405963E+00
          2   -1    0    0  501    0  0.00000000000E+00  0.00000000000E+00  0.12647394064E+04  0.12647394064E+04  0.00000000000E+00 0. -1.
         -2   -1    0    0    0  501 -0.00000000000E+00 -0.00000000000E+00 -0.24315532818E+01  0.24315532818E+01  0.00000000000E+00 0.  1.
         23    2    1    2    0    0  0.60857941953E+01  0.13279280725E+02  0.11792610777E+04  0.11828492952E+04  0.90897687954E+02 0.  0.
         11    1    3    3    0    0 -0.22132443875E+02 -0.52054187046E+01  0.82671943703E+02  0.85741423661E+02  0.00000000000E+00 0.  1.
        -11    1    3    3    0    0  0.28218238070E+02  0.18484699430E+02  0.10965891340E+04  0.10971078716E+04  0.00000000000E+00 0. -1.
         22    1    1    2    0    0 -0.60857941953E+01 -0.13279280725E+02  0.83046775448E+02  0.84321664475E+02  0.00000000000E+00 0.  1.
<mgrwt>
<rscale>  0 0.58104578E+02</rscale>
<asrwt>0</asrwt>
<pdfrwt beam="1">  1        2 0.19457477E+00 0.92063923E+02</pdfrwt>
<pdfrwt beam="2">  1       -2 0.37408613E-03 0.92063923E+02</pdfrwt>
<totfact> 0.14322780E+05</totfact>
</mgrwt>
</event>
<event>
 6    1  0.1727544E-002  0.8961677E+02  0.7546771E-02  0.1412081E+00
         -3   -1    0    0    0  501 -0.00000000000E+00  0.00000000000E+00  0.13057514745E+03  0.13057514745E+03  0.00000000000E+00 0.  1.
          3   -1    0    0  501    0  0.00000000000E+00 -0.00000000000E+00 -0.20957328512E+02  0.20957328512E+02  0.00000000000E+00 0. -1.
         23    2    1    2    0    0 -0.12654392274E+02 -0.68569514532E+01  0.99680621728E+02  0.13404249839E+03  0.88453454423E+02 0.  0.
         11    1    3    3    0    0  0.32020565346E+02  0.19740240810E+02  0.40992081408E+02  0.55635819851E+02  0.00000000000E+00 0. -1.
        -11    1    3    3    0    0 -0.44674957620E+02 -0.26597192263E+02  0.58688540320E+02  0.78406678539E+02  0.00000000000E+00 0.  1.
         22    1    1    2    0    0  0.12654392274E+02  0.68569514532E+01  0.99371972086E+01  0.17489977571E+02  0.00000000000E+00 0. -1.
<mgrwt>
<rscale>  0 0.56731981E+02</rscale>
<asrwt>0</asrwt>
<pdfrwt beam="1">  1        3 0.32242045E-02 0.89616768E+02</pdfrwt>
<pdfrwt beam="2">  1       -3 0.20088484E-01 0.89616768E+02</pdfrwt>
<totfact> 0.20611859E+04</totfact>
</mgrwt>
</event>
<event>
 6    1  0.1727544E-002  0.9478826E+02  0.7546771E-02  0.1383839E+00
          2   -1    0    0  501    0  0.00000000000E+00  0.00000000000E+00  0.62428614552E+02  0.62428614552E+02  0.00000000000E+00 0. -1.
         -2   -1    0    0    0  501 -0.00000000000E+00 -0.00000000000E+00 -0.57948146874E+02  0.57948146874E+02  0.00000000000E+00 0.  1.
         23    2    1    2    0    0  0.14458756498E+01 -0.18994600085E+02 -0.11537440679E+02  0.95487832624E+02  0.92854338903E+02 0.  0.
         11    1    3    3    0    0  0.36759135669E+02 -0.38462554652E+02  0.11471829400E+01  0.53215770165E+02  0.00000000000E+00 0.  1.
        -11    1    3    3    0    0 -0.35313260019E+02  0.19467954568E+02 -0.12684623619E+02  0.42272062459E+02  0.00000000000E+00 0. -1.
         22    1    1    2    0    0 -0.14458756498E+01  0.18994600085E+02  0.16017908357E+02  0.24888928802E+02  0.00000000000E+00 0.  1.
<mgrwt>
<rscale>  0 0.63465410E+02</rscale>
<asrwt>0</asrwt>
<pdfrwt beam="1">  1        2 0.96044022E-02 0.94788257E+02</pdfrwt>
<pdfrwt beam="2">  1       -2 0.89150995E-02 0.94788257E+02</pdfrwt>
<totfact> 0.46611893E+04</totfact>
</mgrwt>
</event>
<event>
 6    1  0.1727544E-002  0.1356592E+03  0.7546771E-02  0.1233220E+00
          2   -1    0    0  501    0  0.00000000000E+00  0.00000000000E+00  0.41792080676E+03  0.41792080676E+03  0.00000000000E+00 0. -1.
         -2   -1    0    0    0  501 -0.00000000000E+00 -0.00000000000E+00 -0.47116882150E+02  0.47116882150E+02  0.00000000000E+00 0.  1.
         23    2    1    2    0    0  0.12735799008E+02 -0.10076800485E+03  0.81118603389E+02  0.15806215779E+03  0.89927896285E+02 0.  0.
         13    1    3    3    0    0 -0.34968414234E+02 -0.36989793678E+02  0.11287000233E+02  0.52138576933E+02  0.00000000000E+00 0.  1.
        -13    1    3    3    0    0  0.47704213241E+02 -0.63778211173E+02  0.69831603156E+02  0.10592358085E+03  0.00000000000E+00 0. -1.
         22    1    1    2    0    0 -0.12735799008E+02  0.10076800485E+03  0.28968532122E+03  0.30697553113E+03  0.00000000000E+00 0. -1.
<mgrwt>
<rscale>  0 0.12619086E+03</rscale>
<asrwt>0</asrwt>
<pdfrwt beam="1">  1        2 0.64295506E-01 0.13565920E+03</pdfrwt>
<pdfrwt beam="2">  1       -2 0.72487514E-02 0.13565920E+03</pdfrwt>
<totfact> 0.80051181E+03</totfact>
</mgrwt>
</event>
<event>
 6    1  0.1727544E-002  0.9126929E+02  0.7546771E-02  0.1406747E+00
          2   -1    0    0  501    0  0.00000000000E+00  0.00000000000E+00  0.12958618500E+02  0.12958618500E+02  0.00000000000E+00 0. -1.
         -2   -1    0    0    0  501 -0.00000000000E+00 -0.00000000000E+00 -0.25358958699E+03  0.25358958699E+03  0.00000000000E+00 0.  1.
         23    2    1    2    0    0  0.41385656774E+01  0.14218738660E+02 -0.23223272546E+03  0.24952378947E+03  0.90059882739E+02 0.  0.
         13    1    3    3    0    0 -0.40384657490E+01  0.50473557155E+02 -0.16629765690E+03  0.17383555410E+03  0.00000000000E+00 0.  1.
        -13    1    3    3    0    0  0.81770314263E+01 -0.36254818495E+02 -0.65935068557E+02  0.75688235365E+02  0.00000000000E+00 0. -1.
         22    1    1    2    0    0 -0.41385656774E+01 -0.14218738660E+02 -0.83982430244E+01  0.17024416021E+02  0.00000000000E+00 0.  1.
<mgrwt>
<rscale>  0 0.57925979E+02</rscale>
<asrwt>0</asrwt>
<pdfrwt beam="1">  1        2 0.19936336E-02 0.91269287E+02</pdfrwt>
<pdfrwt beam="2">  1       -2 0.39013783E-01 0.91269287E+02</pdfrwt>
<totfact> 0.29958579E+04</totfact>
</mgrwt>
</event>
<event>
 6    1  0.1727544E-002  0.9365548E+02  0.7546771E-02  0.1393948E+00
          2   -1    0    0  501    0  0.00000000000E+00  0.00000000000E+00  0.26088932740E+03  0.26088932740E+03  0.00000000000E+00 0. -1.
         -2   -1    0    0    0  501 -0.00000000000E+00 -0.00000000000E+00 -0.11940811073E+02  0.11940811073E+02  0.00000000000E+00 0.  1.
         23    2    1    2    0    0  0.34497141800E+01  0.16425050585E+02  0.22368120740E+03  0.24249666332E+03  0.92139385505E+02 0.  0.
         11    1    3    3    0    0 -0.35430412921E+02  0.15299970749E+01  0.17445865302E+03  0.17802661785E+03  0.00000000000E+00 0. -1.
        -11    1    3    3    0    0  0.38880127101E+02  0.14895053510E+02  0.49222554382E+02  0.64470045466E+02  0.00000000000E+00 0.  1.
         22    1    1    2    0    0 -0.34497141800E+01 -0.16425050585E+02  0.25267308931E+02  0.30333475159E+02  0.00000000000E+00 0. -1.
<mgrwt>
<rscale>  0 0.60935439E+02</rscale>
<asrwt>0</asrwt>
<pdfrwt beam="1">  1        2 0.40136815E-01 0.93655481E+02</pdfrwt>
<pdfrwt beam="2">  1       -2 0.18370481E-02 0.93655481E+02</pdfrwt>
<totfact> 0.96103645E+04</totfact>
</mgrwt>
</event>
<event>
 6    1  0.1727544E-002  0.9568722E+02  0.7546771E-02  0.1399327E+00
          2   -1    0    0  501    0  0.00000000000E+00  0.00000000000E+00  0.25833371694E+02  0.25833371694E+02  0.00000000000E+00 0. -1.
         -2   -1    0    0    0  501 -0.00000000000E+00 -0.00000000000E+00 -0.11930344669E+03  0.11930344669E+03  0.00000000000E+00 0.  1.
         23    2    1    2    0    0 -0.99105978006E+01  0.10509808614E+02 -0.86935483723E+02  0.12928194819E+03  0.94590526855E+02 0.  0.
         11    1    3    3    0    0 -0.28086627681E+02 -0.23174628297E+02 -0.83206428382E+02  0.90825281586E+02  0.00000000000E+00 0. -1.
        -11    1    3    3    0    0  0.18176029880E+02  0.33684436911E+02 -0.37290553410E+01  0.38456666599E+02  0.00000000000E+00 0.  1.
         22    1    1    2    0    0  0.99105978006E+01 -0.10509808614E+02 -0.65345912708E+01  0.15854870196E+02  0.00000000000E+00 0. -1.
<mgrwt>
<rscale>  0 0.59645065E+02</rscale>
<asrwt>0</asrwt>
<pdfrwt beam="1">  1        2 0.39743648E-02 0.95687219E+02</pdfrwt>
<pdfrwt beam="2">  1       -2 0.18354377E-01 0.95687219E+02</pdfrwt>
<totfact> 0.45179408E+04</totfact>
</mgrwt>
</event>
<event>
 6    1  0.1727544E-002  0.1013735E+03  0.7546771E-02  0.1327083E+00
          2   -1    0    0  501    0  0.00000000000E+00  0.00000000000E+00  0.21649467433E+03  0.21649467433E+03  0.00000000000E+00 0. -1.
         -2   -1    0    0    0  501 -0.00000000000E+00 -0.00000000000E+00 -0.23492363092E+02  0.23492363092E+02  0.00000000000E+00 0.  1.
         23    2    1    2    0    0  0.25748476633E+02 -0.31529339028E+02  0.12784994496E+03  0.16316312123E+03  0.92841329337E+02 0.  0.
         13    1    3    3    0    0 -0.10101781961E+02 -0.41308695306E+02  0.16226123847E+02  0.45516386079E+02  0.00000000000E+00 0.  1.
        -13    1    3    3    0    0  0.35850258593E+02  0.97793562777E+01  0.11162382112E+03  0.11764673515E+03  0.00000000000E+00 0. -1.
         22    1    1    2    0    0 -0.25748476633E+02  0.31529339028E+02  0.65152366277E+02  0.76823916197E+02  0.00000000000E+00 0.  1.
<mgrwt>
<rscale>  0 0.80697767E+02</rscale>
<asrwt>0</asrwt>
<pdfrwt beam="1">  1        2 0.33306872E-01 0.10137355E+03</pdfrwt>
<pdfrwt beam="2">  1       -2 0.36142099E-02 0.10137355E+03</pdfrwt>
<totfact> 0.44345691E+04</totfact>
</mgrwt>
</event>
<event>
 6    1  0.1727544E-002  0.8537167E+02  0.7546771E-02  0.1412512E+00
          2   -1    0    0  501    0  0.00000000000E+00  0.00000000000E+00  0.17519401182E+03  0.17519401182E+03  0.00000000000E+00 0. -1.
         -2   -1    0    0    0  501 -0.00000000000E+00 -0.00000000000E+00 -0.14976705080E+02  0.14976705080E+02  0.00000000000E+00 0.  1.
         23    2    1    2    0    0  0.13350400629E+02 -0.97594018985E+01  0.12644523159E+03  0.15256709763E+03  0.83754662942E+02 0.  0.
         13    1    3    3    0    0 -0.17108868114E+01  0.35507570590E+01 -0.12020459746E+02  0.12650156595E+02  0.00000000000E+00 0.  1.
        -13    1    3    3    0    0  0.15061287440E+02 -0.13310158958E+02  0.13846569134E+03  0.13991694104E+03  0.00000000000E+00 0. -1.
         22    1    1    2    0    0 -0.13350400629E+02  0.97594018985E+01  0.33772075143E+02  0.37603619265E+02  0.00000000000E+00 0. -1.
<mgrwt>
<rscale>  0 0.56637082E+02</rscale>
<asrwt>0</asrwt>
<pdfrwt beam="1">  1        2 0.26952923E-01 0.85371674E+02</pdfrwt>
<pdfrwt beam="2">  1       -2 0.23041086E-02 0.85371674E+02</pdfrwt>
<totfact> 0.10443623E+05</totfact>
</mgrwt>
</event>
<event>
 6    1  0.1727544E-002  0.9399269E+02  0.7546771E-02  0.1413884E+00
          3   -1    0    0  501    0  0.00000000000E+00  0.00000000000E+00  0.16114451870E+03  0.16114451870E+03  0.00000000000E+00 0. -1.
         -3   -1    0    0    0  501 -0.00000000000E+00 -0.00000000000E+00 -0.17473267018E+02  0.17473267018E+02  0.00000000000E+00 0.  1.
         23    2    1    2    0    0 -0.12129177816E+02  0.15650205564E+00  0.12676034789E+03  0.15780624771E+03  0.93206676644E+02 0.  0.
         11    1    3    3    0    0 -0.12858657677E+02 -0.11310959278E+02  0.13955923964E+03  0.14060606049E+03  0.00000000000E+00 0. -1.
        -11    1    3    3    0    0  0.72947986108E+00  0.11467461334E+02 -0.12798891751E+02  0.17200187219E+02  0.00000000000E+00 0.  1.
         22    1    1    2    0    0  0.12129177816E+02 -0.15650205564E+00  0.16910903795E+02  0.20811538015E+02  0.00000000000E+00 0. -1.
<mgrwt>
<rscale>  0 0.56336186E+02</rscale>
<asrwt>0</asrwt>
<pdfrwt beam="1">  1        3 0.24791463E-01 0.93992691E+02</pdfrwt>
<pdfrwt beam="2">  1       -3 0.26881950E-02 0.93992691E+02</pdfrwt>
<totfact> 0.19006483E+04</totfact>
</mgrwt>
</event>
<event>
 6    1  0.1727544E-002  0.9968563E+02  0.7546771E-02  0.1322034E+00
          1   -1    0    0  501    0  0.00000000000E+00  0.00000000000E+00  0.47003568973E+03  0.47003568973E+03  0.00000000000E+00 0. -1.
         -1   -1    0    0    0  501 -0.00000000000E+00 -0.00000000000E+00 -0.12672418896E+02  0.12672418896E+02  0.00000000000E+00 0.  1.
         23    2    1    2    0    0  0.25500318887E+01 -0.46752551120E+02  0.37440596373E+03  0.38744941611E+03  0.88005230896E+02 0.  0.
         13    1    3    3    0    0  0.35350519203E+02 -0.37442954954E+01  0.23917966758E+03  0.24180693195E+03  0.00000000000E+00 0.  1.
        -13    1    3    3    0    0 -0.32800487314E+02 -0.43008255625E+02  0.13522629616E+03  0.14564248416E+03  0.00000000000E+00 0. -1.
         22    1    1    2    0    0 -0.25500318887E+01  0.46752551120E+02  0.82957307103E+02  0.95258692520E+02  0.00000000000E+00 0.  1.
<mgrwt>
<rscale>  0 0.82525279E+02</rscale>
<asrwt>0</asrwt>
<pdfrwt beam="1">  1        1 0.72313170E-01 0.99685628E+02</pdfrwt>
<pdfrwt beam="2">  1       -1 0.19496033E-02 0.99685628E+02</pdfrwt>
<totfact> 0.31494052E+04</totfact>
</mgrwt>
</event>
<event>
 6    1  0.1727544E-002  0.9359298E+02  0.7546771E-02  0.1368433E+00
         -2   -1    0    0    0  501 -0.00000000000E+00  0.00000000000E+00  0.90710040882E+02  0.90710040882E+02  0.00000000000E+00 0.  1.
          2   -1    0    0  501    0  0.00000000000E+00 -0.00000000000E+00 -0.41539994766E+02  0.41539994766E+02  0.00000000000E+00 0. -1.
         23    2    1    2    0    0 -0.15671214963E+02  0.20089319885E+02  0.51214932107E+02  0.10668933709E+03  0.90058190227E+02 0.  0.
         11    1    3    3    0    0 -0.22027358908E+02 -0.20308848597E+02 -0.11270911486E+02  0.32010737535E+02  0.00000000000E+00 0. -1.
        -11    1    3    3    0    0  0.63561439453E+01  0.40398168482E+02  0.62485843593E+02  0.74678599559E+02  0.00000000000E+00 0.  1.
         22    1    1    2    0    0  0.15671214963E+02 -0.20089319885E+02 -0.20448859908E+01  0.25560698554E+02  0.00000000000E+00 0.  1.
<mgrwt>
<rscale>  0 0.67604727E+02</rscale>
<asrwt>0</asrwt>
<pdfrwt beam="1">  1        2 0.63907685E-02 0.93592977E+02</pdfrwt>
<pdfrwt beam="2">  1       -2 0.13955391E-01 0.93592977E+02</pdfrwt>
<totfact> 0.38169916E+04</totfact>
</mgrwt>
</event>
<event>
 6    1  0.1727544E-002  0.1262331E+03  0.7546771E-02  0.1250913E+00
          2   -1    0    0  501    0  0.00000000000E+00  0.00000000000E+00  0.14892391486E+03  0.14892391486E+03  0.00000000000E+00 0. -1.
         -2   -1    0    0    0  501 -0.00000000000E+00 -0.00000000000E+00 -0.77131730256E+02  0.77131730256E+02  0.00000000000E+00 0.  1.
         23    2    1    2    0    0  0.55351263809E+02 -0.68562413962E+02  0.41717515163E+02  0.13294789702E+03  0.90389298247E+02 0.  0.
         11    1    3    3    0    0  0.17036332984E+02 -0.25583917825E+02  0.64166627149E+02  0.71148643926E+02  0.00000000000E+00 0. -1.
        -11    1    3    3    0    0  0.38314930825E+02 -0.42978496137E+02 -0.22449111985E+02  0.61799253096E+02  0.00000000000E+00 0.  1.
         22    1    1    2    0    0 -0.55351263809E+02  0.68562413962E+02  0.30074669443E+02  0.93107748097E+02  0.00000000000E+00 0.  1.
<mgrwt>
<rscale>  0 0.11538373E+03</rscale>
<asrwt>0</asrwt>
<pdfrwt beam="1">  1        2 0.22911372E-01 0.12623309E+03</pdfrwt>
<pdfrwt beam="2">  1       -2 0.11866420E-01 0.12623309E+03</pdfrwt>
<totfact> 0.11162930E+04</totfact>
</mgrwt>
</event>
<event>
 6    1  0.1727544E-002  0.9556653E+02  0.7546771E-02  0.1356987E+00
         -1   -1    0    0    0  501 -0.00000000000E+00  0.00000000000E+00  0.22242937639E+02  0.22242937639E+02  0.00000000000E+00 0.  1.
          1   -1    0    0  501    0  0.00000000000E+00 -0.00000000000E+00 -0.17914073761E+03  0.17914073761E+03  0.00000000000E+00 0. -1.
         23    2    1    2    0    0  0.12228723502E+02 -0.26280490091E+02 -0.13323663739E+03  0.16396634701E+03  0.91064568140E+02 0.  0.
         11    1    3    3    0    0  0.18422130749E+02 -0.18652900142E+02  0.38765508760E+01  0.26501570363E+02  0.00000000000E+00 0.  1.
        -11    1    3    3    0    0 -0.61934072471E+01 -0.76275899492E+01 -0.13711318827E+03  0.13746477665E+03  0.00000000000E+00 0. -1.
         22    1    1    2    0    0 -0.12228723502E+02  0.26280490091E+02 -0.23661162579E+02  0.37417328238E+02  0.00000000000E+00 0.  1.
<mgrwt>
<rscale>  0 0.70921444E+02</rscale>
<asrwt>0</asrwt>
<pdfrwt beam="1">  1        1 0.27560114E-01 0.95566529E+02</pdfrwt>
<pdfrwt beam="2">  1       -1 0.34219904E-02 0.95566529E+02</pdfrwt>
<totfact> 0.45865675E+04</totfact>
</mgrwt>
</event>
<event>
 6    1  0.1727544E-002  0.1160517E+03  0.7546771E-02  0.1272527E+00
          4   -1    0    0  501    0  0.00000000000E+00  0.00000000000E+00  0.87106592977E+02  0.87106592977E+02  0.00000000000E+00 0. -1.
         -4   -1    0    0    0  501 -0.00000000000E+00 -0.00000000000E+00 -0.15493182735E+03  0.15493182735E+03  0.00000000000E+00 0.  1.
         23    2    1    2    0    0 -0.99739595477E+01  0.73564909618E+02  0.29393371147E+02  0.11971616947E+03  0.89200421347E+02 0.  0.
         11    1    3    3    0    0 -0.19073009835E+02 -0.10310080754E+02 -0.13017524169E+02  0.25288997703E+02  0.00000000000E+00 0. -1.
        -11    1    3    3    0    0  0.90990502873E+01  0.83874990372E+02  0.42410895316E+02  0.94427171765E+02  0.00000000000E+00 0.  1.
         22    1    1    2    0    0  0.99739595477E+01 -0.73564909618E+02 -0.97218605519E+02  0.12232225086E+03  0.00000000000E+00 0. -1.
<mgrwt>
<rscale>  0 0.10378751E+03</rscale>
<asrwt>0</asrwt>
<pdfrwt beam="1">  1        4 0.13401014E-01 0.11605167E+03</pdfrwt>
<pdfrwt beam="2">  1       -4 0.23835666E-01 0.11605167E+03</pdfrwt>
<totfact> 0.11963314E+03</totfact>
</mgrwt>
</event>
<event>
 6    1  0.1727544E-002  0.9457409E+02  0.7546771E-02  0.1366506E+00
          2   -1    0    0  501    0  0.00000000000E+00  0.00000000000E+00  0.24523503732E+02  0.24523503732E+02  0.00000000000E+00 0. -1.
         -2   -1    0    0    0  501 -0.00000000000E+00 -0.00000000000E+00 -0.14776115165E+03  0.14776115165E+03  0.00000000000E+00 0.  1.
         23    2    1    2    0    0 -0.24310265605E+02  0.76904859975E+01 -0.10202939309E+03  0.13911957342E+03  0.91072092680E+02 0.  0.
         11    1    3    3    0    0 -0.16127832379E+02 -0.28675946894E+02 -0.95844921919E+02  0.10133442636E+03  0.00000000000E+00 0.  1.
        -11    1    3    3    0    0 -0.81824332256E+01  0.36366432892E+02 -0.61844711713E+01  0.37785147061E+02  0.00000000000E+00 0. -1.
         22    1    1    2    0    0  0.24310265605E+02 -0.76904859975E+01 -0.21208254824E+02  0.33165081959E+02  0.00000000000E+00 0.  1.
<mgrwt>
<rscale>  0 0.68148197E+02</rscale>
<asrwt>0</asrwt>
<pdfrwt beam="1">  1        2 0.37728467E-02 0.94574091E+02</pdfrwt>
<pdfrwt beam="2">  1       -2 0.22732485E-01 0.94574091E+02</pdfrwt>
<totfact> 0.33692996E+04</totfact>
</mgrwt>
</event>
<event>
 6    1  0.1727544E-002  0.9332489E+02  0.7546771E-02  0.1388369E+00
          2   -1    0    0  501    0  0.00000000000E+00  0.00000000000E+00  0.20986796627E+03  0.20986796627E+03  0.00000000000E+00 0. -1.
         -2   -1    0    0    0  501 -0.00000000000E+00 -0.00000000000E+00 -0.14922581948E+02  0.14922581948E+02  0.00000000000E+00 0.  1.
         23    2    1    2    0    0  0.89060346137E+01  0.16272625875E+02  0.16008360660E+03  0.18530055769E+03  0.91462668754E+02 0.  0.
         11    1    3    3    0    0  0.45371845270E+01  0.22905146039E+01  0.16838595639E+03  0.16846264515E+03  0.00000000000E+00 0. -1.
        -11    1    3    3    0    0  0.43688500867E+01  0.13982111271E+02 -0.83023497972E+01  0.16837912544E+02  0.00000000000E+00 0.  1.
         22    1    1    2    0    0 -0.89060346137E+01 -0.16272625875E+02  0.34861777727E+02  0.39489990526E+02  0.00000000000E+00 0. -1.
<mgrwt>
<rscale>  0 0.62314082E+02</rscale>
<asrwt>0</asrwt>
<pdfrwt beam="1">  1        2 0.32287377E-01 0.93324893E+02</pdfrwt>
<pdfrwt beam="2">  1       -2 0.22957820E-02 0.93324893E+02</pdfrwt>
<totfact> 0.87721453E+04</totfact>
</mgrwt>
</event>
<event>
 6    1  0.1727544E-002  0.8970765E+02  0.7546771E-02  0.1397466E+00
          2   -1    0    0  501    0  0.00000000000E+00  0.00000000000E+00  0.51039419874E+02  0.51039419874E+02  0.00000000000E+00 0. -1.
         -2   -1    0    0    0  501 -0.00000000000E+00 -0.00000000000E+00 -0.76372780084E+02  0.76372780084E+02  0.00000000000E+00 0.  1.
         23    2    1    2    0    0 -0.15610771122E+02 -0.90745081527E+01 -0.45296006647E+02  0.10049473117E+03  0.87871610326E+02 0.  0.
         11    1    3    3    0    0  0.75496267441E+01 -0.18311768967E+02  0.21478178189E+02  0.29216945169E+02  0.00000000000E+00 0. -1.
        -11    1    3    3    0    0 -0.23160397866E+02  0.92372608142E+01 -0.66774184835E+02  0.71277786000E+02  0.00000000000E+00 0.  1.
         22    1    1    2    0    0  0.15610771122E+02  0.90745081527E+01  0.19962646437E+02  0.26917468789E+02  0.00000000000E+00 0. -1.
<mgrwt>
<rscale>  0 0.60087129E+02</rscale>
<asrwt>0</asrwt>
<pdfrwt beam="1">  1        2 0.78522185E-02 0.89707652E+02</pdfrwt>
<pdfrwt beam="2">  1       -2 0.11749658E-01 0.89707652E+02</pdfrwt>
<totfact> 0.38545076E+04</totfact>
</mgrwt>
</event>
<event>
 6    1  0.1727544E-002  0.8891591E+02  0.7546771E-02  0.1417236E+00
          2   -1    0    0  501    0  0.00000000000E+00  0.00000000000E+00  0.71658517591E+02  0.71658517591E+02  0.00000000000E+00 0. -1.
         -2   -1    0    0    0  501 -0.00000000000E+00 -0.00000000000E+00 -0.38693184823E+02  0.38693184823E+02  0.00000000000E+00 0.  1.
         23    2    1    2    0    0 -0.13198228026E+02 -0.32989433906E+01  0.19134432383E+02  0.90951443240E+02  0.87869006335E+02 0.  0.
         13    1    3    3    0    0  0.25290377176E+02  0.24836803199E+01 -0.22511973258E+02  0.33949385644E+02  0.00000000000E+00 0.  1.
        -13    1    3    3    0    0 -0.38488605202E+02 -0.57826237105E+01  0.41646405641E+02  0.57002057596E+02  0.00000000000E+00 0. -1.
         22    1    1    2    0    0  0.13198228026E+02  0.32989433906E+01  0.13830900385E+02  0.19400259173E+02  0.00000000000E+00 0. -1.
<mgrwt>
<rscale>  0 0.55610069E+02</rscale>
<asrwt>0</asrwt>
<pdfrwt beam="1">  1        2 0.11024387E-01 0.88915907E+02</pdfrwt>
<pdfrwt beam="2">  1       -2 0.59527977E-02 0.88915907E+02</pdfrwt>
<totfact> 0.72224643E+04</totfact>
</mgrwt>
</event>
<event>
 6    1  0.1727544E-002  0.9210934E+02  0.7546771E-02  0.1418698E+00
          2   -1    0    0  501    0  0.00000000000E+00  0.00000000000E+00  0.32887332497E+03  0.32887332497E+03  0.00000000000E+00 0. -1.
         -2   -1    0    0    0  501 -0.00000000000E+00 -0.00000000000E+00 -0.13142428051E+02  0.13142428051E+02  0.00000000000E+00 0.  1.
         23    2    1    2    0    0 -0.36605070525E+01  0.11391017191E+02  0.31688040210E+03  0.32999593827E+03  0.91328940978E+02 0.  0.
         11    1    3    3    0    0  0.40530396474E+02  0.37473830738E+01  0.21290671192E+03  0.21676259801E+03  0.00000000000E+00 0. -1.
        -11    1    3    3    0    0 -0.44190903527E+02  0.76436341170E+01  0.10397369018E+03  0.11323334026E+03  0.00000000000E+00 0.  1.
         22    1    1    2    0    0  0.36605070525E+01 -0.11391017191E+02 -0.11495051721E+01  0.12019814752E+02  0.00000000000E+00 0.  1.
<mgrwt>
<rscale>  0 0.55297233E+02</rscale>
<asrwt>0</asrwt>
<pdfrwt beam="1">  1        2 0.50595890E-01 0.92109337E+02</pdfrwt>
<pdfrwt beam="2">  1       -2 0.20219123E-02 0.92109337E+02</pdfrwt>
<totfact> 0.65570399E+04</totfact>
</mgrwt>
</event>
<event>
 6    1  0.1727544E-002  0.8915638E+02  0.7546771E-02  0.1433218E+00
         -2   -1    0    0    0  501 -0.00000000000E+00  0.00000000000E+00  0.18787520973E+03  0.18787520973E+03  0.00000000000E+00 0.  1.
          2   -1    0    0  501    0  0.00000000000E+00 -0.00000000000E+00 -0.13643989318E+02  0.13643989318E+02  0.00000000000E+00 0. -1.
         23    2    1    2    0    0 -0.67684411263E+01 -0.81224949765E+01  0.16470606965E+03  0.18728841492E+03  0.88527251521E+02 0.  0.
         11    1    3    3    0    0 -0.15708063367E+02 -0.15805321666E+02  0.12299362269E+00  0.22283773809E+02  0.00000000000E+00 0. -1.
        -11    1    3    3    0    0  0.89396222409E+01  0.76828266896E+01  0.16458307603E+03  0.16500464111E+03  0.00000000000E+00 0.  1.
         22    1    1    2    0    0  0.67684411263E+01  0.81224949765E+01  0.95251507524E+01  0.14230784124E+02  0.00000000000E+00 0.  1.
<mgrwt>
<rscale>  0 0.52319443E+02</rscale>
<asrwt>0</asrwt>
<pdfrwt beam="1">  1        2 0.20990754E-02 0.89156385E+02</pdfrwt>
<pdfrwt beam="2">  1       -2 0.28903877E-01 0.89156385E+02</pdfrwt>
<totfact> 0.48040312E+04</totfact>
</mgrwt>
</event>
<event>
 6    1  0.1727544E-002  0.9207302E+02  0.7546771E-02  0.1412642E+00
         -2   -1    0    0    0  501 -0.00000000000E+00  0.00000000000E+00  0.43607490351E+02  0.43607490351E+02  0.00000000000E+00 0.  1.
          2   -1    0    0  501    0  0.00000000000E+00 -0.00000000000E+00 -0.63787177528E+02  0.63787177528E+02  0.00000000000E+00 0. -1.
         23    2    1    2    0    0 -0.39564711160E+01  0.12547137394E+02 -0.15156506396E+02  0.93312172872E+02  0.91128248087E+02 0.  0.
         11    1    3    3    0    0 -0.11717501034E+01  0.22126878860E+02 -0.51266176830E+02  0.55849732794E+02  0.00000000000E+00 0. -1.
        -11    1    3    3    0    0 -0.27847210127E+01 -0.95797414669E+01  0.36109670434E+02  0.37462440077E+02  0.00000000000E+00 0.  1.
         22    1    1    2    0    0  0.39564711160E+01 -0.12547137394E+02 -0.50231807819E+01  0.14082495007E+02  0.00000000000E+00 0.  1.
<mgrwt>
<rscale>  0 0.56608484E+02</rscale>
<asrwt>0</asrwt>
<pdfrwt beam="1">  1        2 0.98134119E-02 0.92073025E+02</pdfrwt>
<pdfrwt beam="2">  1       -2 0.67088447E-02 0.92073025E+02</pdfrwt>
<totfact> 0.69789330E+04</totfact>
</mgrwt>
</event>
<event>
 6    1  0.1727544E-002  0.9520175E+02  0.7546771E-02  0.1353169E+00
         -2   -1    0    0    0  501 -0.00000000000E+00  0.00000000000E+00  0.20485958113E+02  0.20485958113E+02  0.00000000000E+00 0. -1.
          2   -1    0    0  501    0  0.00000000000E+00 -0.00000000000E+00 -0.19568031412E+03  0.19568031412E+03  0.00000000000E+00 0.  1.
         23    2    1    2    0    0 -0.22993511172E+02  0.21205967996E+02 -0.13626722322E+03  0.16622914875E+03  0.89916512029E+02 0.  0.
         13    1    3    3    0    0 -0.28591302415E+02 -0.21386514464E+02 -0.17165636999E+02  0.39616974497E+02  0.00000000000E+00 0. -1.
        -13    1    3    3    0    0  0.55977912432E+01  0.42592482459E+02 -0.11910158622E+03  0.12661217425E+03  0.00000000000E+00 0.  1.
         22    1    1    2    0    0  0.22993511172E+02 -0.21205967996E+02 -0.38927132785E+02  0.49937123480E+02  0.00000000000E+00 0. -1.
<mgrwt>
<rscale>  0 0.72077210E+02</rscale>
<asrwt>0</asrwt>
<pdfrwt beam="1">  1        2 0.30104665E-01 0.95201753E+02</pdfrwt>
<pdfrwt beam="2">  1       -2 0.31516858E-02 0.95201753E+02</pdfrwt>
<totfact> 0.59865762E+04</totfact>
</mgrwt>
</event>
<event>
 6    1  0.1727544E-002  0.9097442E+02  0.7546771E-02  0.1398007E+00
          2   -1    0    0  501    0  0.00000000000E+00  0.00000000000E+00  0.27073774251E+03  0.27073774251E+03  0.00000000000E+00 0. -1.
         -2   -1    0    0    0  501 -0.00000000000E+00 -0.00000000000E+00 -0.11061932019E+02  0.11061932019E+02  0.00000000000E+00 0.  1.
         23    2    1    2    0    0 -0.17085548004E+02  0.16470990805E+01  0.20028620353E+03  0.21997933563E+03  0.89340449381E+02 0.  0.
         11    1    3    3    0    0  0.17879165869E+02  0.11487522563E+02  0.17362752774E+03  0.17492325785E+03  0.00000000000E+00 0. -1.
        -11    1    3    3    0    0 -0.34964713874E+02 -0.98404234822E+01  0.26658675787E+02  0.45056077784E+02  0.00000000000E+00 0.  1.
         22    1    1    2    0    0  0.17085548004E+02 -0.16470990805E+01  0.59389606966E+02  0.61820338898E+02  0.00000000000E+00 0.  1.
<mgrwt>
<rscale>  0 0.59958241E+02</rscale>
<asrwt>0</asrwt>
<pdfrwt beam="1">  1        2 0.41651956E-01 0.90974418E+02</pdfrwt>
<pdfrwt beam="2">  1       -2 0.17018359E-02 0.90974418E+02</pdfrwt>
<totfact> 0.10269992E+05</totfact>
</mgrwt>
</event>
<event>
 6    1  0.1727544E-002  0.1118942E+03  0.7546771E-02  0.1281641E+00
          1   -1    0    0  501    0  0.00000000000E+00  0.00000000000E+00  0.47185627582E+03  0.47185627582E+03  0.00000000000E+00 0.  1.
         -1   -1    0    0    0  501 -0.00000000000E+00 -0.00000000000E+00 -0.20451153362E+02  0.20451153362E+02  0.00000000000E+00 0. -1.
         23    2    1    2    0    0  0.18130237674E+02  0.67175146021E+02  0.36271191753E+03  0.37957903719E+03  0.87630500355E+02 0.  0.
         13    1    3    3    0    0  0.11538437808E+02  0.30392868338E+02  0.28347123017E+02  0.43132602242E+02  0.00000000000E+00 0. -1.
        -13    1    3    3    0    0  0.65917998658E+01  0.36782277683E+02  0.33436479452E+03  0.33644643495E+03  0.00000000000E+00 0.  1.
         22    1    1    2    0    0 -0.18130237674E+02 -0.67175146021E+02  0.88693204921E+02  0.11272839199E+03  0.00000000000E+00 0. -1.
<mgrwt>
<rscale>  0 0.99363036E+02</rscale>
<asrwt>0</asrwt>
<pdfrwt beam="1">  1        1 0.72593265E-01 0.11189419E+03</pdfrwt>
<pdfrwt beam="2">  1       -1 0.31463317E-02 0.11189419E+03</pdfrwt>
<totfact> 0.15916719E+04</totfact>
</mgrwt>
</event>
<event>
 6    1  0.1727544E-002  0.1854407E+03  0.7546771E-02  0.1168719E+00
          2   -1    0    0  501    0  0.00000000000E+00  0.00000000000E+00  0.87053392244E+02  0.87053392244E+02  0.00000000000E+00 0. -1.
         -2   -1    0    0    0  501 -0.00000000000E+00 -0.00000000000E+00 -0.34506818404E+03  0.34506818404E+03  0.00000000000E+00 0.  1.
         23    2    1    2    0    0 -0.15593878330E+03 -0.40819811341E+02 -0.13703835590E+03  0.23058135902E+03  0.91679283399E+02 0.  0.
         11    1    3    3    0    0 -0.43464926072E+02  0.24338711514E+02 -0.65244052073E+02  0.82087508230E+02  0.00000000000E+00 0. -1.
        -11    1    3    3    0    0 -0.11247385722E+03 -0.65158522855E+02 -0.71794303831E+02  0.14849385079E+03  0.00000000000E+00 0.  1.
         22    1    1    2    0    0  0.15593878330E+03  0.40819811341E+02 -0.12097643589E+03  0.20154021726E+03  0.00000000000E+00 0. -1.
<mgrwt>
<rscale>  0 0.17905658E+03</rscale>
<asrwt>0</asrwt>
<pdfrwt beam="1">  1        2 0.13392829E-01 0.18544070E+03</pdfrwt>
<pdfrwt beam="2">  1       -2 0.53087413E-01 0.18544070E+03</pdfrwt>
<totfact> 0.14980130E+03</totfact>
</mgrwt>
</event>
<event>
 6    1  0.1727544E-002  0.9214946E+02  0.7546771E-02  0.1415652E+00
          2   -1    0    0  501    0  0.00000000000E+00  0.00000000000E+00  0.36648141576E+02  0.36648141576E+02  0.00000000000E+00 0. -1.
         -2   -1    0    0    0  501 -0.00000000000E+00 -0.00000000000E+00 -0.74824997029E+02  0.74824997029E+02  0.00000000000E+00 0.  1.
         23    2    1    2    0    0  0.52443411174E+01  0.11373854339E+02 -0.32389616793E+02  0.97676044433E+02  0.91294330074E+02 0.  0.
         13    1    3    3    0    0  0.44686555522E+01  0.49984888760E+02 -0.52149326964E+01  0.50454469672E+02  0.00000000000E+00 0. -1.
        -13    1    3    3    0    0  0.77568556519E+00 -0.38611034421E+02 -0.27174684097E+02  0.47221574761E+02  0.00000000000E+00 0.  1.
         22    1    1    2    0    0 -0.52443411174E+01 -0.11373854339E+02 -0.57872386603E+01  0.13797094172E+02  0.00000000000E+00 0. -1.
<mgrwt>
<rscale>  0 0.55951440E+02</rscale>
<asrwt>0</asrwt>
<pdfrwt beam="1">  1        2 0.56381757E-02 0.92149457E+02</pdfrwt>
<pdfrwt beam="2">  1       -2 0.11511538E-01 0.92149457E+02</pdfrwt>
<totfact> 0.60673650E+04</totfact>
</mgrwt>
</event>
<event>
 6    1  0.1727544E-002  0.9298922E+02  0.7546771E-02  0.1405089E+00
         -1   -1    0    0    0  501 -0.00000000000E+00  0.00000000000E+00  0.52225126594E+02  0.52225126594E+02  0.00000000000E+00 0.  1.
          1   -1    0    0  501    0  0.00000000000E+00 -0.00000000000E+00 -0.56673664662E+02  0.56673664662E+02  0.00000000000E+00 0. -1.
         23    2    1    2    0    0 -0.12876919944E+02 -0.63814764897E+01  0.23090497956E+01  0.93017881233E+02  0.91871955507E+02 0.  0.
         13    1    3    3    0    0 -0.12555607427E+02  0.34444900776E+02 -0.24572662736E+02  0.44135135904E+02  0.00000000000E+00 0. -1.
        -13    1    3    3    0    0 -0.32131251711E+00 -0.40826377265E+02  0.26881712532E+02  0.48882745330E+02  0.00000000000E+00 0.  1.
         22    1    1    2    0    0  0.12876919944E+02  0.63814764897E+01 -0.67575878633E+01  0.15880910023E+02  0.00000000000E+00 0. -1.
<mgrwt>
<rscale>  0 0.58304157E+02</rscale>
<asrwt>0</asrwt>
<pdfrwt beam="1">  1        1 0.87190254E-02 0.92989217E+02</pdfrwt>
<pdfrwt beam="2">  1       -1 0.80346348E-02 0.92989217E+02</pdfrwt>
<totfact> 0.56757125E+04</totfact>
</mgrwt>
</event>
<event>
 6    1  0.1727544E-002  0.1061749E+03  0.7546771E-02  0.1301192E+00
          2   -1    0    0  501    0  0.00000000000E+00  0.00000000000E+00  0.55582944910E+03  0.55582944910E+03  0.00000000000E+00 0. -1.
         -2   -1    0    0    0  501 -0.00000000000E+00 -0.00000000000E+00 -0.12130189123E+02  0.12130189123E+02  0.00000000000E+00 0.  1.
         23    2    1    2    0    0  0.53302124499E+02 -0.18780035870E+02  0.31637090273E+03  0.33371193123E+03  0.89884919350E+02 0.  0.
         11    1    3    3    0    0  0.11637153987E+02 -0.86805303778E+01  0.27063553504E+03  0.27102466269E+03  0.00000000000E+00 0. -1.
        -11    1    3    3    0    0  0.41664970512E+02 -0.10099505493E+02  0.45735367692E+02  0.62687268539E+02  0.00000000000E+00 0.  1.
         22    1    1    2    0    0 -0.53302124499E+02  0.18780035870E+02  0.22732835725E+03  0.23424770700E+03  0.00000000000E+00 0. -1.
<mgrwt>
<rscale>  0 0.90689060E+02</rscale>
<asrwt>0</asrwt>
<pdfrwt beam="1">  1        2 0.85512203E-01 0.10617488E+03</pdfrwt>
<pdfrwt beam="2">  1       -2 0.18661834E-02 0.10617488E+03</pdfrwt>
<totfact> 0.42772104E+04</totfact>
</mgrwt>
</event>
<event>
 6    1  0.1727544E-002  0.8273561E+02  0.7546771E-02  0.1433696E+00
         -4   -1    0    0    0  501 -0.00000000000E+00  0.00000000000E+00  0.15741039540E+03  0.15741039540E+03  0.00000000000E+00 0.  1.
          4   -1    0    0  501    0  0.00000000000E+00 -0.00000000000E+00 -0.18874457332E+02  0.18874457332E+02  0.00000000000E+00 0. -1.
         23    2    1    2    0    0 -0.90840598437E+01 -0.94877919673E+01  0.14045341337E+03  0.16301025099E+03  0.81686242790E+02 0.  0.
         13    1    3    3    0    0  0.30349257572E+01 -0.13868031975E+01  0.14699474701E+03  0.14703261422E+03  0.00000000000E+00 0.  1.
        -13    1    3    3    0    0 -0.12118985601E+02 -0.81009887699E+01 -0.65413336346E+01  0.15977636770E+02  0.00000000000E+00 0. -1.
         22    1    1    2    0    0  0.90840598437E+01  0.94877919673E+01 -0.19174753095E+01  0.13274601735E+02  0.00000000000E+00 0. -1.
<mgrwt>
<rscale>  0 0.52225192E+02</rscale>
<asrwt>0</asrwt>
<pdfrwt beam="1">  1        4 0.29037628E-02 0.82735607E+02</pdfrwt>
<pdfrwt beam="2">  1       -4 0.24216983E-01 0.82735607E+02</pdfrwt>
<totfact> 0.12691690E+04</totfact>
</mgrwt>
</event>
<event>
 6    1  0.1727544E-002  0.9319460E+02  0.7546771E-02  0.1353238E+00
          2   -1    0    0  501    0  0.00000000000E+00  0.00000000000E+00  0.27324090212E+03  0.27324090212E+03  0.00000000000E+00 0. -1.
         -2   -1    0    0    0  501 -0.00000000000E+00 -0.00000000000E+00 -0.16213884614E+02  0.16213884614E+02  0.00000000000E+00 0.  1.
         23    2    1    2    0    0 -0.38390102004E+01 -0.33083066257E+02  0.14319781919E+03  0.17085329576E+03  0.87040254932E+02 0.  0.
         11    1    3    3    0    0  0.24321886143E+02 -0.49055084563E+02  0.58243179523E+02  0.79938873072E+02  0.00000000000E+00 0.  1.
        -11    1    3    3    0    0 -0.28160896343E+02  0.15972018306E+02  0.84954639665E+02  0.90914422685E+02  0.00000000000E+00 0. -1.
         22    1    1    2    0    0  0.38390102004E+01  0.33083066257E+02  0.11382919832E+03  0.11860149098E+03  0.00000000000E+00 0. -1.
<mgrwt>
<rscale>  0 0.72056079E+02</rscale>
<asrwt>0</asrwt>
<pdfrwt beam="1">  1        2 0.42037058E-01 0.93194599E+02</pdfrwt>
<pdfrwt beam="2">  1       -2 0.24944440E-02 0.93194599E+02</pdfrwt>
<totfact> 0.58891919E+04</totfact>
</mgrwt>
</event>
<event>
 6    1  0.1727544E-002  0.9629117E+02  0.7546771E-02  0.1397868E+00
          4   -1    0    0  501    0  0.00000000000E+00  0.00000000000E+00  0.29451542569E+01  0.29451542569E+01  0.00000000000E+00 0. -1.
         -4   -1    0    0    0  501 -0.00000000000E+00 -0.00000000000E+00 -0.11323544592E+04  0.11323544592E+04  0.00000000000E+00 0.  1.
         23    2    1    2    0    0 -0.14234906301E+02 -0.27999086670E+01 -0.10614716075E+04  0.10658301758E+04  0.95192005403E+02 0.  0.
         13    1    3    3    0    0 -0.19457974104E+02 -0.26258727506E+02 -0.98773976556E+03  0.98828031347E+03  0.00000000000E+00 0.  1.
        -13    1    3    3    0    0  0.52230678034E+01  0.23458818839E+02 -0.73731841977E+02  0.77549862282E+02  0.00000000000E+00 0. -1.
         22    1    1    2    0    0  0.14234906301E+02  0.27999086670E+01 -0.67937697370E+02  0.69469437667E+02  0.00000000000E+00 0. -1.
<mgrwt>
<rscale>  0 0.59991422E+02</rscale>
<asrwt>0</asrwt>
<pdfrwt beam="1">  1        4 0.45310019E-03 0.96291173E+02</pdfrwt>
<pdfrwt beam="2">  1       -4 0.17420856E+00 0.96291173E+02</pdfrwt>
<totfact> 0.31395877E+03</totfact>
</mgrwt>
</event>
<event>
 6    1  0.1727544E-002  0.9354151E+02  0.7546771E-02  0.1415230E+00
          1   -1    0    0  501    0  0.00000000000E+00  0.00000000000E+00  0.30916108929E+02  0.30916108929E+02  0.00000000000E+00 0. -1.
         -1   -1    0    0    0  501 -0.00000000000E+00 -0.00000000000E+00 -0.90689705850E+02  0.90689705850E+02  0.00000000000E+00 0.  1.
         23    2    1    2    0    0 -0.10435007140E+02  0.60308721094E+01 -0.49860698982E+02  0.10600048434E+03  0.92761805642E+02 0.  0.
         11    1    3    3    0    0 -0.45122792208E+02  0.24927645794E+02 -0.40102349646E+02  0.65311961757E+02  0.00000000000E+00 0.  1.
        -11    1    3    3    0    0  0.34687785067E+02 -0.18896773685E+02 -0.97583493366E+01  0.40688522587E+02  0.00000000000E+00 0. -1.
         22    1    1    2    0    0  0.10435007140E+02 -0.60308721094E+01 -0.99128979388E+01  0.15605330434E+02  0.00000000000E+00 0.  1.
<mgrwt>
<rscale>  0 0.56043057E+02</rscale>
<asrwt>0</asrwt>
<pdfrwt beam="1">  1        1 0.47563245E-02 0.93541506E+02</pdfrwt>
<pdfrwt beam="2">  1       -1 0.13952262E-01 0.93541506E+02</pdfrwt>
<totfact> 0.55346916E+04</totfact>
</mgrwt>
</event>
<event>
 6    1  0.1727544E-002  0.9895593E+02  0.7546771E-02  0.1340685E+00
         -2   -1    0    0    0  501 -0.00000000000E+00  0.00000000000E+00  0.31149474083E+02  0.31149474083E+02  0.00000000000E+00 0.  1.
          2   -1    0    0  501    0  0.00000000000E+00 -0.00000000000E+00 -0.21581597645E+03  0.21581597645E+03  0.00000000000E+00 0. -1.
         23    2    1    2    0    0  0.28530853860E+02 -0.19395096360E+02 -0.55891117290E+02  0.11364898798E+03  0.92747485642E+02 0.  0.
         11    1    3    3    0    0  0.10214389240E+02 -0.53924598396E+02 -0.49762868589E+02  0.74084675540E+02  0.00000000000E+00 0. -1.
        -11    1    3    3    0    0  0.18316464620E+02  0.34529502036E+02 -0.61282487010E+01  0.39564312443E+02  0.00000000000E+00 0.  1.
         22    1    1    2    0    0 -0.28530853860E+02  0.19395096360E+02 -0.12877538508E+03  0.13331646255E+03  0.00000000000E+00 0.  1.
<mgrwt>
<rscale>  0 0.76038390E+02</rscale>
<asrwt>0</asrwt>
<pdfrwt beam="1">  1        2 0.33202457E-01 0.98955927E+02</pdfrwt>
<pdfrwt beam="2">  1       -2 0.47922269E-02 0.98955927E+02</pdfrwt>
<totfact> 0.29247341E+04</totfact>
</mgrwt>
</event>
<event>
 6    1  0.1727544E-002  0.9003125E+02  0.7546771E-02  0.1392560E+00
         -2   -1    0    0    0  501 -0.00000000000E+00  0.00000000000E+00  0.42578089779E+02  0.42578089779E+02  0.00000000000E+00 0.  1.
          2   -1    0    0  501    0  0.00000000000E+00 -0.00000000000E+00 -0.82665275519E+02  0.82665275519E+02  0.00000000000E+00 0. -1.
         23    2    1    2    0    0  0.18733185644E+02 -0.47123134092E+01 -0.11530006231E+02  0.90766552169E+02  0.87934565484E+02 0.  0.
         11    1    3    3    0    0 -0.55720119370E+01 -0.40581187036E+02 -0.21564758763E+02  0.46291671808E+02  0.00000000000E+00 0. -1.
        -11    1    3    3    0    0  0.24305197581E+02  0.35868873627E+02  0.10034752532E+02  0.44474880361E+02  0.00000000000E+00 0.  1.
         22    1    1    2    0    0 -0.18733185644E+02  0.47123134092E+01 -0.28557179508E+02  0.34476813129E+02  0.00000000000E+00 0. -1.
<mgrwt>
<rscale>  0 0.61274343E+02</rscale>
<asrwt>0</asrwt>
<pdfrwt beam="1">  1        2 0.12717735E-01 0.90031250E+02</pdfrwt>
<pdfrwt beam="2">  1       -2 0.65504754E-02 0.90031250E+02</pdfrwt>
<totfact> 0.52875333E+04</totfact>
</mgrwt>
</event>
<event>
 6    1  0.1727544E-002  0.9567714E+02  0.7546771E-02  0.1343700E+00
         -2   -1    0    0    0  501 -0.00000000000E+00  0.00000000000E+00  0.89932902463E+01  0.89932902463E+01  0.00000000000E+00 0.  1.
          2   -1    0    0  501    0  0.00000000000E+00 -0.00000000000E+00 -0.48707169177E+03  0.48707169177E+03  0.00000000000E+00 0. -1.
         23    2    1    2    0    0 -0.37019388675E+01 -0.36043107410E+02 -0.32757597197E+03  0.34126255554E+03  0.88551140335E+02 0.  0.
         13    1    3    3    0    0 -0.22760875118E+02 -0.43900580261E+02 -0.89143824831E+02  0.10194086467E+03  0.00000000000E+00 0.  1.
        -13    1    3    3    0    0  0.19058936250E+02  0.78574728514E+01 -0.23843214714E+03  0.23932169087E+03  0.00000000000E+00 0. -1.
         22    1    1    2    0    0  0.37019388675E+01  0.36043107410E+02 -0.15050242956E+03  0.15480242648E+03  0.00000000000E+00 0. -1.
<mgrwt>
<rscale>  0 0.75055299E+02</rscale>
<asrwt>0</asrwt>
<pdfrwt beam="1">  1        2 0.74934116E-01 0.95677136E+02</pdfrwt>
<pdfrwt beam="2">  1       -2 0.13835829E-02 0.95677136E+02</pdfrwt>
<totfact> 0.74891115E+04</totfact>
</mgrwt>
</event>
<event>
 6    1  0.1727544E-002  0.9362616E+02  0.7546771E-02  0.1407168E+00
         -1   -1    0    0    0  501 -0.00000000000E+00  0.00000000000E+00  0.12458326338E+03  0.12458326338E+03  0.00000000000E+00 0.  1.
          1   -1    0    0  501    0  0.00000000000E+00 -0.00000000000E+00 -0.71381810325E+02  0.71381810325E+02  0.00000000000E+00 0. -1.
         23    2    1    2    0    0  0.11140829503E+02 -0.78493032975E+01  0.10600472052E+03  0.14143146299E+03  0.92628982003E+02 0.  0.
         13    1    3    3    0    0  0.63802491792E+01  0.40319642679E+02  0.27555520635E+02  0.49251272906E+02  0.00000000000E+00 0. -1.
        -13    1    3    3    0    0  0.47605803237E+01 -0.48168945977E+02  0.78449199882E+02  0.92180190082E+02  0.00000000000E+00 0.  1.
         22    1    1    2    0    0 -0.11140829503E+02  0.78493032975E+01 -0.52803267457E+02  0.54533610722E+02  0.00000000000E+00 0.  1.
<mgrwt>
<rscale>  0 0.57830649E+02</rscale>
<asrwt>0</asrwt>
<pdfrwt beam="1">  1        1 0.10981817E-01 0.93626161E+02</pdfrwt>
<pdfrwt beam="2">  1       -1 0.19166656E-01 0.93626161E+02</pdfrwt>
<totfact> 0.11063743E+04</totfact>
</mgrwt>
</event>
<event>
 6    1  0.1727544E-002  0.9278269E+02  0.7546771E-02  0.1407960E+00
         -3   -1    0    0    0  501 -0.00000000000E+00  0.00000000000E+00  0.33924896840E+02  0.33924896840E+02  0.00000000000E+00 0.  1.
          3   -1    0    0  501    0  0.00000000000E+00 -0.00000000000E+00 -0.86347008602E+02  0.86347008602E+02  0.00000000000E+00 0. -1.
         23    2    1    2    0    0 -0.13130614236E+02 -0.43443192999E+01 -0.37921405384E+02  0.10023302758E+03  0.91746066357E+02 0.  0.
         13    1    3    3    0    0  0.20391475168E+01 -0.44584501780E+02 -0.35732177701E+02  0.57172759639E+02  0.00000000000E+00 0. -1.
        -13    1    3    3    0    0 -0.15169761753E+02  0.40240182480E+02 -0.21892276838E+01  0.43060267945E+02  0.00000000000E+00 0.  1.
         22    1    1    2    0    0  0.13130614236E+02  0.43443192999E+01 -0.14500706378E+02  0.20038877859E+02  0.00000000000E+00 0.  1.
<mgrwt>
<rscale>  0 0.57651504E+02</rscale>
<asrwt>0</asrwt>
<pdfrwt beam="1">  1        3 0.13284155E-01 0.92782686E+02</pdfrwt>
<pdfrwt beam="2">  1       -3 0.52192150E-02 0.92782686E+02</pdfrwt>
<totfact> 0.19959434E+04</totfact>
</mgrwt>
</event>
<event>
 6    1  0.1727544E-002  0.9666610E+02  0.7546771E-02  0.1362358E+00
         -2   -1    0    0    0  501 -0.00000000000E+00  0.00000000000E+00  0.64719870178E+01  0.64719870178E+01  0.00000000000E+00 0.  1.
          2   -1    0    0  501    0  0.00000000000E+00 -0.00000000000E+00 -0.58279450094E+03  0.58279450094E+03  0.00000000000E+00 0. -1.
         23    2    1    2    0    0  0.82073108401E+01 -0.24238064084E+02 -0.47734157661E+03  0.48703112395E+03  0.93217440630E+02 0.  0.
         13    1    3    3    0    0  0.39919650206E+02 -0.28070853069E+02 -0.14160256155E+03  0.14977595502E+03  0.00000000000E+00 0.  1.
        -13    1    3    3    0    0 -0.31712339366E+02  0.38327889849E+01 -0.33573901506E+03  0.33725516893E+03  0.00000000000E+00 0. -1.
         22    1    1    2    0    0 -0.82073108401E+01  0.24238064084E+02 -0.98980937311E+02  0.10223536400E+03  0.00000000000E+00 0.  1.
<mgrwt>
<rscale>  0 0.69338247E+02</rscale>
<asrwt>0</asrwt>
<pdfrwt beam="1">  1        2 0.89660711E-01 0.96666100E+02</pdfrwt>
<pdfrwt beam="2">  1       -2 0.99569010E-03 0.96666100E+02</pdfrwt>
<totfact> 0.98364486E+04</totfact>
</mgrwt>
</event>
<event>
 6    1  0.1727544E-002  0.1101067E+03  0.7546771E-02  0.1342012E+00
          2   -1    0    0  501    0  0.00000000000E+00  0.00000000000E+00  0.60042024994E+03  0.60042024994E+03  0.00000000000E+00 0. -1.
         -2   -1    0    0    0  501 -0.00000000000E+00 -0.00000000000E+00 -0.77958644613E+01  0.77958644613E+01  0.00000000000E+00 0.  1.
         23    2    1    2    0    0 -0.11953169442E+02 -0.21358111214E+02  0.52154024144E+03  0.53303631188E+03  0.10735194065E+03 0.  0.
         11    1    3    3    0    0  0.21230478929E+02 -0.48588633246E+02  0.15143116970E+03  0.16044621427E+03  0.00000000000E+00 0.  1.
        -11    1    3    3    0    0 -0.33183648371E+02  0.27230522033E+02  0.37010907174E+03  0.37259009761E+03  0.00000000000E+00 0. -1.
         22    1    1    2    0    0  0.11953169442E+02  0.21358111214E+02  0.71084144030E+02  0.75179802519E+02  0.00000000000E+00 0. -1.
<mgrwt>
<rscale>  0 0.75603683E+02</rscale>
<asrwt>0</asrwt>
<pdfrwt beam="1">  1        2 0.92372309E-01 0.11010670E+03</pdfrwt>
<pdfrwt beam="2">  1       -2 0.11993642E-02 0.11010670E+03</pdfrwt>
<totfact> 0.74270159E+04</totfact>
</mgrwt>
</event>
<event>
 6    1  0.1727544E-002  0.9448442E+02  0.7546771E-02  0.1367461E+00
          2   -1    0    0  501    0  0.00000000000E+00  0.00000000000E+00  0.15736713688E+03  0.15736713688E+03  0.00000000000E+00 0. -1.
         -2   -1    0    0    0  501 -0.00000000000E+00 -0.00000000000E+00 -0.22745382839E+02  0.22745382839E+02  0.00000000000E+00 0.  1.
         23    2    1    2    0    0  0.22190617397E+02 -0.11873275077E+02  0.10570656127E+03  0.14177863738E+03  0.91070888666E+02 0.  0.
         13    1    3    3    0    0 -0.29891233507E+01  0.32797805142E+02  0.12174411085E+02  0.35111923413E+02  0.00000000000E+00 0. -1.
        -13    1    3    3    0    0  0.25179740747E+02 -0.44671080219E+02  0.93532150180E+02  0.10666671397E+03  0.00000000000E+00 0.  1.
         22    1    1    2    0    0 -0.22190617397E+02  0.11873275077E+02  0.28915192773E+02  0.38333882332E+02  0.00000000000E+00 0. -1.
<mgrwt>
<rscale>  0 0.67878110E+02</rscale>
<asrwt>0</asrwt>
<pdfrwt beam="1">  1        2 0.24210328E-01 0.94484416E+02</pdfrwt>
<pdfrwt beam="2">  1       -2 0.34992898E-02 0.94484416E+02</pdfrwt>
<totfact> 0.64973255E+04</totfact>
</mgrwt>
</event>
<event>
 6    1  0.1727544E-002  0.9306556E+02  0.7546771E-02  0.1390682E+00
          2   -1    0    0  501    0  0.00000000000E+00  0.00000000000E+00  0.27599082320E+03  0.27599082320E+03  0.00000000000E+00 0. -1.
         -2   -1    0    0    0  501 -0.00000000000E+00 -0.00000000000E+00 -0.11548861215E+02  0.11548861215E+02  0.00000000000E+00 0.  1.
         23    2    1    2    0    0 -0.17860476810E+02  0.24151448678E+01  0.19943768166E+03  0.22008313531E+03  0.91303713096E+02 0.  0.
         11    1    3    3    0    0 -0.37934689115E+02 -0.22642358169E+02  0.17282077349E+03  0.17837807256E+03  0.00000000000E+00 0. -1.
        -11    1    3    3    0    0  0.20074212305E+02  0.25057503037E+02  0.26616908169E+02  0.41705062745E+02  0.00000000000E+00 0.  1.
         22    1    1    2    0    0  0.17860476810E+02 -0.24151448678E+01  0.65004280323E+02  0.67456549103E+02  0.00000000000E+00 0.  1.
<mgrwt>
<rscale>  0 0.61737448E+02</rscale>
<asrwt>0</asrwt>
<pdfrwt beam="1">  1        2 0.42460122E-01 0.93065555E+02</pdfrwt>
<pdfrwt beam="2">  1       -2 0.17767481E-02 0.93065555E+02</pdfrwt>
<totfact> 0.94953542E+04</totfact>
</mgrwt>
</event>
<event>
 6    1  0.1727544E-002  0.9564571E+02  0.7546771E-02  0.1383270E+00
         -4   -1    0    0    0  501 -0.00000000000E+00  0.00000000000E+00  0.23933202402E+03  0.23933202402E+03  0.00000000000E+00 0.  1.
          4   -1    0    0  501    0  0.00000000000E+00 -0.00000000000E+00 -0.13661786276E+02  0.13661786276E+02  0.00000000000E+00 0. -1.
         23    2    1    2    0    0  0.13596828390E+01 -0.18664109952E+02  0.18802057105E+03  0.21094984355E+03  0.93797140772E+02 0.  0.
         11    1    3    3    0    0  0.17180103457E+02 -0.31310073099E+02  0.18730948270E+03  0.19068381929E+03  0.00000000000E+00 0. -1.
        -11    1    3    3    0    0 -0.15820420618E+02  0.12645963147E+02  0.71108835395E+00  0.20266024255E+02  0.00000000000E+00 0.  1.
         22    1    1    2    0    0 -0.13596828390E+01  0.18664109952E+02  0.37649666693E+02  0.42043966747E+02  0.00000000000E+00 0.  1.
<mgrwt>
<rscale>  0 0.63611887E+02</rscale>
<asrwt>0</asrwt>
<pdfrwt beam="1">  1        4 0.21018134E-02 0.95645707E+02</pdfrwt>
<pdfrwt beam="2">  1       -4 0.36820308E-01 0.95645707E+02</pdfrwt>
<totfact> 0.99578114E+03</totfact>
</mgrwt>
</event>
<event>
 6    1  0.1727544E-002  0.9335062E+02  0.7546771E-02  0.1410493E+00
          1   -1    0    0  501    0  0.00000000000E+00  0.00000000000E+00  0.22463035620E+02  0.22463035620E+02  0.00000000000E+00 0. -1.
         -1   -1    0    0    0  501 -0.00000000000E+00 -0.00000000000E+00 -0.13659020390E+03  0.13659020390E+03  0.00000000000E+00 0.  1.
         23    2    1    2    0    0 -0.67197670881E+01  0.11190257704E+02 -0.11204235364E+03  0.14583493443E+03  0.92433554271E+02 0.  0.
         13    1    3    3    0    0  0.23528338961E+02  0.32173683265E+02 -0.99094931077E+02  0.10681073913E+03  0.00000000000E+00 0.  1.
        -13    1    3    3    0    0 -0.30248106049E+02 -0.20983425562E+02 -0.12947422563E+02  0.39024195301E+02  0.00000000000E+00 0. -1.
         22    1    1    2    0    0  0.67197670881E+01 -0.11190257704E+02 -0.20848146380E+01  0.13218305083E+02  0.00000000000E+00 0.  1.
<mgrwt>
<rscale>  0 0.57083992E+02</rscale>
<asrwt>0</asrwt>
<pdfrwt beam="1">  1        1 0.34558516E-02 0.93350624E+02</pdfrwt>
<pdfrwt beam="2">  1       -1 0.21013878E-01 0.93350624E+02</pdfrwt>
<totfact> 0.44942266E+04</totfact>
</mgrwt>
</event>
<event>
 6    1  0.1727544E-002  0.9545107E+02  0.7546771E-02  0.1411220E+00
          1   -1    0    0  501    0  0.00000000000E+00  0.00000000000E+00  0.49189103940E+02  0.49189103940E+02  0.00000000000E+00 0. -1.
         -1   -1    0    0    0  501 -0.00000000000E+00 -0.00000000000E+00 -0.61815340040E+02  0.61815340040E+02  0.00000000000E+00 0.  1.
         23    2    1    2    0    0  0.58609652368E+01 -0.10554200337E+02 -0.19043851677E+02  0.97332288043E+02  0.94684549694E+02 0.  0.
         11    1    3    3    0    0  0.10205139518E+02 -0.44538942273E+02  0.15913427557E+02  0.48384909093E+02  0.00000000000E+00 0. -1.
        -11    1    3    3    0    0 -0.43441742810E+01  0.33984741935E+02 -0.34957279234E+02  0.48947378950E+02  0.00000000000E+00 0.  1.
         22    1    1    2    0    0 -0.58609652368E+01  0.10554200337E+02  0.64176155766E+01  0.13672155937E+02  0.00000000000E+00 0. -1.
<mgrwt>
<rscale>  0 0.56922465E+02</rscale>
<asrwt>0</asrwt>
<pdfrwt beam="1">  1        1 0.75675545E-02 0.95451066E+02</pdfrwt>
<pdfrwt beam="2">  1       -1 0.95100523E-02 0.95451066E+02</pdfrwt>
<totfact> 0.53369201E+04</totfact>
</mgrwt>
</event>
<event>
 6    1  0.1727544E-002  0.1029361E+03  0.7546771E-02  0.1356222E+00
          2   -1    0    0  501    0  0.00000000000E+00  0.00000000000E+00  0.88404624644E+02  0.88404624644E+02  0.00000000000E+00 0. -1.
         -2   -1    0    0    0  501 -0.00000000000E+00 -0.00000000000E+00 -0.50697763417E+02  0.50697763417E+02  0.00000000000E+00 0.  1.
         23    2    1    2    0    0 -0.22105849206E+02 -0.79670379596E+01  0.10987891724E+02  0.10352085360E+03  0.10021821742E+03 0.  0.
         11    1    3    3    0    0 -0.18693639893E+02 -0.52417135738E+02  0.17787659417E+02  0.58424388049E+02  0.00000000000E+00 0. -1.
        -11    1    3    3    0    0 -0.34122093129E+01  0.44450097778E+02 -0.67997676929E+01  0.45096465555E+02  0.00000000000E+00 0.  1.
         22    1    1    2    0    0  0.22105849206E+02  0.79670379596E+01  0.26718969504E+02  0.35581534457E+02  0.00000000000E+00 0. -1.
<mgrwt>
<rscale>  0 0.71151170E+02</rscale>
<asrwt>0</asrwt>
<pdfrwt beam="1">  1        2 0.13600711E-01 0.10293606E+03</pdfrwt>
<pdfrwt beam="2">  1       -2 0.77996559E-02 0.10293606E+03</pdfrwt>
<totfact> 0.38149283E+04</totfact>
</mgrwt>
</event>
<event>
 6    1  0.1727544E-002  0.9756899E+02  0.7546771E-02  0.1343371E+00
          2   -1    0    0  501    0  0.00000000000E+00  0.00000000000E+00  0.10901148119E+03  0.10901148119E+03  0.00000000000E+00 0. -1.
         -2   -1    0    0    0  501 -0.00000000000E+00 -0.00000000000E+00 -0.45965383018E+02  0.45965383018E+02  0.00000000000E+00 0.  1.
         23    2    1    2    0    0 -0.12346212968E+02 -0.32065268006E+02  0.19485120352E+02  0.99495613541E+02  0.91318655333E+02 0.  0.
         13    1    3    3    0    0 -0.24707981080E+02  0.40073843900E+01  0.46469053154E+02  0.52781780566E+02  0.00000000000E+00 0. -1.
        -13    1    3    3    0    0  0.12361768112E+02 -0.36072652396E+02 -0.26983932802E+02  0.46713832975E+02  0.00000000000E+00 0.  1.
         22    1    1    2    0    0  0.12346212968E+02  0.32065268006E+02  0.43560977819E+02  0.55481250666E+02  0.00000000000E+00 0.  1.
<mgrwt>
<rscale>  0 0.75161800E+02</rscale>
<asrwt>0</asrwt>
<pdfrwt beam="1">  1        2 0.16770997E-01 0.97568987E+02</pdfrwt>
<pdfrwt beam="2">  1       -2 0.70715975E-02 0.97568987E+02</pdfrwt>
<totfact> 0.34514185E+04</totfact>
</mgrwt>
</event>
<event>
 6    1  0.1727544E-002  0.9326805E+02  0.7546771E-02  0.1393232E+00
          2   -1    0    0  501    0  0.00000000000E+00  0.00000000000E+00  0.45224404702E+02  0.45224404702E+02  0.00000000000E+00 0. -1.
         -2   -1    0    0    0  501 -0.00000000000E+00 -0.00000000000E+00 -0.82454268390E+02  0.82454268390E+02  0.00000000000E+00 0.  1.
         23    2    1    2    0    0  0.87202454109E+01  0.14812605490E+02 -0.50409051500E+02  0.10601887271E+03  0.91670458356E+02 0.  0.
         11    1    3    3    0    0  0.93502146174E+01 -0.42449241572E+01  0.25637863262E+02  0.27617855223E+02  0.00000000000E+00 0. -1.
        -11    1    3    3    0    0 -0.62996920649E+00  0.19057529647E+02 -0.76046914762E+02  0.78401017482E+02  0.00000000000E+00 0.  1.
         22    1    1    2    0    0 -0.87202454109E+01 -0.14812605490E+02  0.13179187811E+02  0.21659800387E+02  0.00000000000E+00 0. -1.
<mgrwt>
<rscale>  0 0.61109856E+02</rscale>
<asrwt>0</asrwt>
<pdfrwt beam="1">  1        2 0.69576008E-02 0.93268049E+02</pdfrwt>
<pdfrwt beam="2">  1       -2 0.12685272E-01 0.93268049E+02</pdfrwt>
<totfact> 0.39919986E+04</totfact>
</mgrwt>
</event>
<event>
 6    1  0.1727544E-002  0.9324803E+02  0.7546771E-02  0.1400539E+00
          2   -1    0    0  501    0  0.00000000000E+00  0.00000000000E+00  0.76255854603E+03  0.76255854603E+03  0.00000000000E+00 0. -1.
         -2   -1    0    0    0  501 -0.00000000000E+00 -0.00000000000E+00 -0.40099103174E+01  0.40099103174E+01  0.00000000000E+00 0.  1.
         23    2    1    2    0    0 -0.11694403789E+02  0.98850221403E+01  0.69354787317E+03  0.69978843033E+03  0.91982183675E+02 0.  0.
         11    1    3    3    0    0 -0.10969173823E+02  0.15583269782E+02  0.69377793413E+03  0.69403961196E+03  0.00000000000E+00 0. -1.
        -11    1    3    3    0    0 -0.72522996628E+00 -0.56982476417E+01 -0.23006096935E+00  0.57488183777E+01  0.00000000000E+00 0.  1.
         22    1    1    2    0    0  0.11694403789E+02 -0.98850221403E+01  0.65000762545E+02  0.66780026011E+02  0.00000000000E+00 0.  1.
<mgrwt>
<rscale>  0 0.59359644E+02</rscale>
<asrwt>0</asrwt>
<pdfrwt beam="1">  1        2 0.11731658E+00 0.93248029E+02</pdfrwt>
<pdfrwt beam="2">  1       -2 0.61690989E-03 0.93248029E+02</pdfrwt>
<totfact> 0.14105357E+05</totfact>
</mgrwt>
</event>
<event>
 6    1  0.1727544E-002  0.1220436E+03  0.7546771E-02  0.1300013E+00
         -4   -1    0    0    0  501 -0.00000000000E+00  0.00000000000E+00  0.92956775427E+02  0.92956775427E+02  0.00000000000E+00 0.  1.
          4   -1    0    0  501    0  0.00000000000E+00 -0.00000000000E+00 -0.69282134651E+02  0.69282134651E+02  0.00000000000E+00 0. -1.
         23    2    1    2    0    0  0.36518058190E+02  0.10609922422E+02  0.23076011870E+02  0.12420606395E+03  0.11596768934E+03 0.  0.
         11    1    3    3    0    0  0.18475010506E+02  0.53367878111E+02  0.45631320790E+02  0.72606293558E+02  0.00000000000E+00 0.  1.
        -11    1    3    3    0    0  0.18043047683E+02 -0.42757955689E+02 -0.22555308919E+02  0.51599770395E+02  0.00000000000E+00 0. -1.
         22    1    1    2    0    0 -0.36518058190E+02 -0.10609922422E+02  0.59862890551E+00  0.38032846124E+02  0.00000000000E+00 0.  1.
<mgrwt>
<rscale>  0 0.91182722E+02</rscale>
<asrwt>0</asrwt>
<pdfrwt beam="1">  1        4 0.10658790E-01 0.12204362E+03</pdfrwt>
<pdfrwt beam="2">  1       -4 0.14301042E-01 0.12204362E+03</pdfrwt>
<totfact> 0.44401429E+03</totfact>
</mgrwt>
</event>
<event>
 6    1  0.1727544E-002  0.9273904E+02  0.7546771E-02  0.1404186E+00
         -2   -1    0    0    0  501 -0.00000000000E+00  0.00000000000E+00  0.84575295944E+03  0.84575295944E+03  0.00000000000E+00 0.  1.
          2   -1    0    0  501    0  0.00000000000E+00 -0.00000000000E+00 -0.57230081596E+01  0.57230081596E+01  0.00000000000E+00 0. -1.
         23    2    1    2    0    0  0.39464028886E+01 -0.14155639873E+02  0.82589653209E+03  0.83108700554E+03  0.91567313045E+02 0.  0.
         13    1    3    3    0    0  0.26765381312E+02 -0.19905427318E+02  0.11344918092E+03  0.11825112399E+03  0.00000000000E+00 0. -1.
        -13    1    3    3    0    0 -0.22818978423E+02  0.57497874458E+01  0.71244735117E+03  0.71283588155E+03  0.00000000000E+00 0.  1.
         22    1    1    2    0    0 -0.39464028886E+01  0.14155639873E+02  0.14133419189E+02  0.20388962061E+02  0.00000000000E+00 0. -1.
<mgrwt>
<rscale>  0 0.58511692E+02</rscale>
<asrwt>0</asrwt>
<pdfrwt beam="1">  1        2 0.88046346E-03 0.92739037E+02</pdfrwt>
<pdfrwt beam="2">  1       -2 0.13011574E+00 0.92739037E+02</pdfrwt>
<totfact> 0.70477518E+03</totfact>
</mgrwt>
</event>
<event>
 6    1  0.1727544E-002  0.9250337E+02  0.7546771E-02  0.1403312E+00
          2   -1    0    0  501    0  0.00000000000E+00  0.00000000000E+00  0.77531525262E+02  0.77531525262E+02  0.00000000000E+00 0. -1.
         -2   -1    0    0    0  501 -0.00000000000E+00 -0.00000000000E+00 -0.21007560161E+03  0.21007560161E+03  0.00000000000E+00 0.  1.
         23    2    1    2    0    0  0.14703007029E+02  0.30363135428E+01 -0.19901457829E+03  0.21946224266E+03  0.91276919114E+02 0.  0.
         11    1    3    3    0    0 -0.20718568437E+02  0.24067547368E+02 -0.15861783046E+03  0.16176563929E+03  0.00000000000E+00 0.  1.
        -11    1    3    3    0    0  0.35421575466E+02 -0.21031233825E+02 -0.40396747831E+02  0.57696603366E+02  0.00000000000E+00 0. -1.
         22    1    1    2    0    0 -0.14703007029E+02 -0.30363135428E+01  0.66470501947E+02  0.68144884215E+02  0.00000000000E+00 0. -1.
<mgrwt>
<rscale>  0 0.58713346E+02</rscale>
<asrwt>0</asrwt>
<pdfrwt beam="1">  1        2 0.11927927E-01 0.92503371E+02</pdfrwt>
<pdfrwt beam="2">  1       -2 0.32319324E-01 0.92503371E+02</pdfrwt>
<totfact> 0.42613608E+03</totfact>
</mgrwt>
</event>
<event>
 6    1  0.1727544E-002  0.9357272E+02  0.7546771E-02  0.1418564E+00
          2   -1    0    0  501    0  0.00000000000E+00  0.00000000000E+00  0.51966911954E+02  0.51966911954E+02  0.00000000000E+00 0.  1.
         -2   -1    0    0    0  501 -0.00000000000E+00 -0.00000000000E+00 -0.14753358646E+03  0.14753358646E+03  0.00000000000E+00 0. -1.
         23    2    1    2    0    0  0.81185231454E+00 -0.11406872670E+02 -0.13172458287E+03  0.16157728407E+03  0.92871293441E+02 0.  0.
         13    1    3    3    0    0  0.30199415636E+02 -0.41059625112E+02 -0.61450834797E+02  0.79837977281E+02  0.00000000000E+00 0. -1.
        -13    1    3    3    0    0 -0.29387563322E+02  0.29652752442E+02 -0.70273748077E+02  0.81739306788E+02  0.00000000000E+00 0.  1.
         22    1    1    2    0    0 -0.81185231454E+00  0.11406872670E+02  0.36157908371E+02  0.37923214342E+02  0.00000000000E+00 0.  1.
<mgrwt>
<rscale>  0 0.55325821E+02</rscale>
<asrwt>0</asrwt>
<pdfrwt beam="1">  1        2 0.79949097E-02 0.93572715E+02</pdfrwt>
<pdfrwt beam="2">  1       -2 0.22697474E-01 0.93572715E+02</pdfrwt>
<totfact> 0.12895939E+04</totfact>
</mgrwt>
</event>
<event>
 6    1  0.1727544E-002  0.9208944E+02  0.7546771E-02  0.1413262E+00
         -2   -1    0    0    0  501 -0.00000000000E+00  0.00000000000E+00  0.10392904285E+03  0.10392904285E+03  0.00000000000E+00 0.  1.
          2   -1    0    0  501    0  0.00000000000E+00 -0.00000000000E+00 -0.52998550862E+02  0.52998550862E+02  0.00000000000E+00 0. -1.
         23    2    1    2    0    0 -0.41311193778E+01  0.12350327477E+02  0.81957637873E+02  0.12327821752E+03  0.91163960930E+02 0.  0.
         13    1    3    3    0    0 -0.17567163148E+02 -0.17894341266E+02  0.86327838701E+02  0.89896097830E+02  0.00000000000E+00 0.  1.
        -13    1    3    3    0    0  0.13436043770E+02  0.30244668742E+02 -0.43702008276E+01  0.33382119687E+02  0.00000000000E+00 0. -1.
         22    1    1    2    0    0  0.41311193778E+01 -0.12350327477E+02 -0.31027145889E+02  0.33649376192E+02  0.00000000000E+00 0.  1.
<mgrwt>
<rscale>  0 0.56472180E+02</rscale>
<asrwt>0</asrwt>
<pdfrwt beam="1">  1        2 0.81536233E-02 0.92089438E+02</pdfrwt>
<pdfrwt beam="2">  1       -2 0.15989083E-01 0.92089438E+02</pdfrwt>
<totfact> 0.22527780E+04</totfact>
</mgrwt>
</event>
<event>
 6    1  0.1727544E-002  0.9364232E+02  0.7546771E-02  0.1398498E+00
          2   -1    0    0  501    0  0.00000000000E+00  0.00000000000E+00  0.34363159208E+03  0.34363159208E+03  0.00000000000E+00 0. -1.
         -2   -1    0    0    0  501 -0.00000000000E+00 -0.00000000000E+00 -0.93671354687E+01  0.93671354687E+01  0.00000000000E+00 0.  1.
         23    2    1    2    0    0 -0.11558526355E+02  0.10501953274E+02  0.24320837488E+03  0.26061311950E+03  0.92330893477E+02 0.  0.
         11    1    3    3    0    0 -0.33276601292E+02  0.16559131132E+02  0.23285473494E+03  0.23580259668E+03  0.00000000000E+00 0. -1.
        -11    1    3    3    0    0  0.21718074937E+02 -0.60571778583E+01  0.10353639939E+02  0.24810522819E+02  0.00000000000E+00 0.  1.
         22    1    1    2    0    0  0.11558526355E+02 -0.10501953274E+02  0.91056081733E+02  0.92385608049E+02  0.00000000000E+00 0.  1.
<mgrwt>
<rscale>  0 0.59841642E+02</rscale>
<asrwt>0</asrwt>
<pdfrwt beam="1">  1        2 0.52866389E-01 0.93642322E+02</pdfrwt>
<pdfrwt beam="2">  1       -2 0.14410980E-02 0.93642322E+02</pdfrwt>
<totfact> 0.10193212E+05</totfact>
</mgrwt>
</event>
<event>
 6    1  0.1727544E-002  0.9536612E+02  0.7546771E-02  0.1417683E+00
         -1   -1    0    0    0  501 -0.00000000000E+00  0.00000000000E+00  0.47530041002E+03  0.47530041002E+03  0.00000000000E+00 0.  1.
          1   -1    0    0  501    0  0.00000000000E+00 -0.00000000000E+00 -0.60819309149E+01  0.60819309149E+01  0.00000000000E+00 0. -1.
         23    2    1    2    0    0 -0.68400262790E+01  0.85513767734E+01  0.43905220666E+03  0.44929003660E+03  0.94735340881E+02 0.  0.
         11    1    3    3    0    0  0.18217616870E+02 -0.80345885196E+00  0.12989734318E+02  0.22388843387E+02  0.00000000000E+00 0. -1.
        -11    1    3    3    0    0 -0.25057643149E+02  0.93548356254E+01  0.42606247234E+03  0.42690119322E+03  0.00000000000E+00 0.  1.
         22    1    1    2    0    0  0.68400262790E+01 -0.85513767734E+01  0.30166272442E+02  0.32092304331E+02  0.00000000000E+00 0. -1.
<mgrwt>
<rscale>  0 0.55514115E+02</rscale>
<asrwt>0</asrwt>
<pdfrwt beam="1">  1        1 0.93568205E-03 0.95366120E+02</pdfrwt>
<pdfrwt beam="2">  1       -1 0.73123111E-01 0.95366120E+02</pdfrwt>
<totfact> 0.30884588E+04</totfact>
</mgrwt>
</event>
<event>
 6    1  0.1727544E-002  0.9125441E+02  0.7546771E-02  0.1401812E+00
         -2   -1    0    0    0  501 -0.00000000000E+00  0.00000000000E+00  0.20732152193E+03  0.20732152193E+03  0.00000000000E+00 0.  1.
          2   -1    0    0  501    0  0.00000000000E+00 -0.00000000000E+00 -0.14100101324E+02  0.14100101324E+02  0.00000000000E+00 0. -1.
         23    2    1    2    0    0  0.92326642477E+01 -0.13082856125E+02  0.15324477997E+03  0.17835731077E+03  0.89838546862E+02 0.  0.
         13    1    3    3    0    0  0.15481049053E+02 -0.34843187100E+02  0.19717304644E+02  0.42924150190E+02  0.00000000000E+00 0. -1.
        -13    1    3    3    0    0 -0.62483848057E+01  0.21760330975E+02  0.13352747533E+03  0.13543316058E+03  0.00000000000E+00 0.  1.
         22    1    1    2    0    0 -0.92326642477E+01  0.13082856125E+02  0.39976640636E+02  0.43064312488E+02  0.00000000000E+00 0.  1.
<mgrwt>
<rscale>  0 0.59061685E+02</rscale>
<asrwt>0</asrwt>
<pdfrwt beam="1">  1        2 0.21692465E-02 0.91254412E+02</pdfrwt>
<pdfrwt beam="2">  1       -2 0.31895616E-01 0.91254412E+02</pdfrwt>
<totfact> 0.38684774E+04</totfact>
</mgrwt>
</event>
<event>
 6    1  0.1727544E-002  0.9114946E+02  0.7546771E-02  0.1414906E+00
          1   -1    0    0  501    0  0.00000000000E+00  0.00000000000E+00  0.20242881278E+03  0.20242881278E+03  0.00000000000E+00 0. -1.
         -1   -1    0    0    0  501 -0.00000000000E+00 -0.00000000000E+00 -0.13808383777E+02  0.13808383777E+02  0.00000000000E+00 0.  1.
         23    2    1    2    0    0 -0.10620611413E+02 -0.76551251584E+01  0.15071011057E+03  0.17612995816E+03  0.90204359130E+02 0.  0.
         13    1    3    3    0    0 -0.93311839622E+01  0.23368807327E+02  0.14153162804E+03  0.14375108308E+03  0.00000000000E+00 0. -1.
        -13    1    3    3    0    0 -0.12894274504E+01 -0.31023932485E+02  0.91784825245E+01  0.32378875080E+02  0.00000000000E+00 0.  1.
         22    1    1    2    0    0  0.10620611413E+02  0.76551251584E+01  0.37910318433E+02  0.40107238395E+02  0.00000000000E+00 0. -1.
<mgrwt>
<rscale>  0 0.56113378E+02</rscale>
<asrwt>0</asrwt>
<pdfrwt beam="1">  1        1 0.31142892E-01 0.91149464E+02</pdfrwt>
<pdfrwt beam="2">  1       -1 0.21243669E-02 0.91149464E+02</pdfrwt>
<totfact> 0.77808110E+04</totfact>
</mgrwt>
</event>
<event>
 6    1  0.1727544E-002  0.9238135E+02  0.7546771E-02  0.1385935E+00
          2   -1    0    0  501    0  0.00000000000E+00  0.00000000000E+00  0.18961907040E+02  0.18961907040E+02  0.00000000000E+00 0. -1.
         -2   -1    0    0    0  501 -0.00000000000E+00 -0.00000000000E+00 -0.16879053572E+03  0.16879053572E+03  0.00000000000E+00 0.  1.
         23    2    1    2    0    0 -0.19890899265E+02  0.47670288972E-01 -0.13148642595E+03  0.16069534486E+03  0.90214541530E+02 0.  0.
         13    1    3    3    0    0 -0.47405453546E+02 -0.25456203195E+02 -0.65276001009E+02  0.84594631122E+02  0.00000000000E+00 0. -1.
        -13    1    3    3    0    0  0.27514554281E+02  0.25503873484E+02 -0.66210424941E+02  0.76100713734E+02  0.00000000000E+00 0.  1.
         22    1    1    2    0    0  0.19890899265E+02 -0.47670288972E-01 -0.18342202730E+02  0.27057097904E+02  0.00000000000E+00 0.  1.
<mgrwt>
<rscale>  0 0.62929190E+02</rscale>
<asrwt>0</asrwt>
<pdfrwt beam="1">  1        2 0.29172166E-02 0.92381349E+02</pdfrwt>
<pdfrwt beam="2">  1       -2 0.25967774E-01 0.92381349E+02</pdfrwt>
<totfact> 0.37519135E+04</totfact>
</mgrwt>
</event>
<event>
 6    1  0.1727544E-002  0.9316866E+02  0.7546771E-02  0.1401502E+00
          4   -1    0    0  501    0  0.00000000000E+00  0.00000000000E+00  0.38460793686E+02  0.38460793686E+02  0.00000000000E+00 0. -1.
         -4   -1    0    0    0  501 -0.00000000000E+00 -0.00000000000E+00 -0.89909041972E+02  0.89909041972E+02  0.00000000000E+00 0.  1.
         23    2    1    2    0    0  0.69821860283E+01 -0.13410958992E+02 -0.60175593631E+02  0.11091213536E+03  0.91933644327E+02 0.  0.
         11    1    3    3    0    0  0.45864363774E+02 -0.25375092404E+01 -0.52599927237E+02  0.69833596233E+02  0.00000000000E+00 0.  1.
        -11    1    3    3    0    0 -0.38882177746E+02 -0.10873449751E+02 -0.75756663935E+01  0.41078539130E+02  0.00000000000E+00 0. -1.
         22    1    1    2    0    0 -0.69821860283E+01  0.13410958992E+02  0.87273453439E+01  0.17457700294E+02  0.00000000000E+00 0. -1.
<mgrwt>
<rscale>  0 0.59134108E+02</rscale>
<asrwt>0</asrwt>
<pdfrwt beam="1">  1        4 0.59170452E-02 0.93168663E+02</pdfrwt>
<pdfrwt beam="2">  1       -4 0.13832160E-01 0.93168663E+02</pdfrwt>
<totfact> 0.11521022E+04</totfact>
</mgrwt>
</event>
<event>
 6    1  0.1727544E-002  0.9144599E+02  0.7546771E-02  0.1417266E+00
         -2   -1    0    0    0  501 -0.00000000000E+00  0.00000000000E+00  0.91336744456E+02  0.91336744456E+02  0.00000000000E+00 0.  1.
          2   -1    0    0  501    0  0.00000000000E+00 -0.00000000000E+00 -0.29913149584E+02  0.29913149584E+02  0.00000000000E+00 0. -1.
         23    2    1    2    0    0 -0.80809528670E+01 -0.95369948519E+01  0.49541827374E+02  0.10400366347E+03  0.90587600064E+02 0.  0.
         11    1    3    3    0    0 -0.11306057383E+02 -0.35879784437E+00 -0.25729499516E+02  0.28106277142E+02  0.00000000000E+00 0. -1.
        -11    1    3    3    0    0  0.32251045161E+01 -0.91781970075E+01  0.75271326890E+02  0.75897386327E+02  0.00000000000E+00 0.  1.
         22    1    1    2    0    0  0.80809528670E+01  0.95369948519E+01  0.11881767498E+02  0.17246230571E+02  0.00000000000E+00 0. -1.
<mgrwt>
<rscale>  0 0.55603626E+02</rscale>
<asrwt>0</asrwt>
<pdfrwt beam="1">  1        2 0.46020231E-02 0.91445991E+02</pdfrwt>
<pdfrwt beam="2">  1       -2 0.14051807E-01 0.91445991E+02</pdfrwt>
<totfact> 0.57331659E+04</totfact>
</mgrwt>
</event>
<event>
 6    1  0.1727544E-002  0.9477951E+02  0.7546771E-02  0.1403707E+00
         -4   -1    0    0    0  501 -0.00000000000E+00  0.00000000000E+00  0.42153482780E+02  0.42153482780E+02  0.00000000000E+00 0. -1.
          4   -1    0    0  501    0  0.00000000000E+00 -0.00000000000E+00 -0.71189634399E+02  0.71189634399E+02  0.00000000000E+00 0.  1.
         23    2    1    2    0    0 -0.95798030025E+01  0.10031264413E+02 -0.20234241356E+02  0.96915320139E+02  0.93759030835E+02 0.  0.
         13    1    3    3    0    0  0.26928111038E+02  0.37015326937E+02  0.30863360421E+01  0.45877914757E+02  0.00000000000E+00 0. -1.
        -13    1    3    3    0    0 -0.36507914041E+02 -0.26984062523E+02 -0.23320577398E+02  0.51037405381E+02  0.00000000000E+00 0.  1.
         22    1    1    2    0    0  0.95798030025E+01 -0.10031264413E+02 -0.88019102636E+01  0.16427797040E+02  0.00000000000E+00 0. -1.
<mgrwt>
<rscale>  0 0.58622070E+02</rscale>
<asrwt>0</asrwt>
<pdfrwt beam="1">  1        4 0.10952251E-01 0.94779506E+02</pdfrwt>
<pdfrwt beam="2">  1       -4 0.64851513E-02 0.94779506E+02</pdfrwt>
<totfact> 0.14853203E+04</totfact>
</mgrwt>
</event>
<event>
 6    1  0.1727544E-002  0.1052100E+03  0.7546771E-02  0.1398487E+00
         -2   -1    0    0    0  501 -0.00000000000E+00  0.00000000000E+00  0.16634380946E+03  0.16634380946E+03  0.00000000000E+00 0.  1.
          2   -1    0    0  501    0  0.00000000000E+00 -0.00000000000E+00 -0.27690789773E+02  0.27690789773E+02  0.00000000000E+00 0. -1.
         23    2    1    2    0    0  0.30327824993E+01  0.10587382899E+02  0.14660550004E+03  0.18045032929E+03  0.10463201352E+03 0.  0.
         11    1    3    3    0    0 -0.43752751251E+02 -0.15928014902E+02  0.41436165533E+02  0.62329453029E+02  0.00000000000E+00 0. -1.
        -11    1    3    3    0    0  0.46785533751E+02  0.26515397800E+02  0.10516933450E+03  0.11812087626E+03  0.00000000000E+00 0.  1.
         22    1    1    2    0    0 -0.30327824993E+01 -0.10587382899E+02 -0.79524803460E+01  0.13584269947E+02  0.00000000000E+00 0. -1.
<mgrwt>
<rscale>  0 0.59844075E+02</rscale>
<asrwt>0</asrwt>
<pdfrwt beam="1">  1        2 0.42601216E-02 0.10521002E+03</pdfrwt>
<pdfrwt beam="2">  1       -2 0.25591354E-01 0.10521002E+03</pdfrwt>
<totfact> 0.23743240E+04</totfact>
</mgrwt>
</event>
<event>
 6    1  0.1727544E-002  0.1145650E+03  0.7546771E-02  0.1386655E+00
          2   -1    0    0  501    0  0.00000000000E+00  0.00000000000E+00  0.78977166299E+02  0.78977166299E+02  0.00000000000E+00 0. -1.
         -2   -1    0    0    0  501 -0.00000000000E+00 -0.00000000000E+00 -0.19710962670E+03  0.19710962670E+03  0.00000000000E+00 0.  1.
         23    2    1    2    0    0  0.54002459317E+01  0.87809002310E+01 -0.18000006485E+03  0.21336624338E+03  0.11410023489E+03 0.  0.
         11    1    3    3    0    0 -0.14634917666E+02  0.57880645558E+02 -0.76184208383E+02  0.96790410435E+02  0.00000000000E+00 0. -1.
        -11    1    3    3    0    0  0.20035163598E+02 -0.49099745327E+02 -0.10381585647E+03  0.11657583294E+03  0.00000000000E+00 0.  1.
         22    1    1    2    0    0 -0.54002459317E+01 -0.87809002310E+01  0.61867604449E+02  0.62720549625E+02  0.00000000000E+00 0. -1.
<mgrwt>
<rscale>  0 0.62746368E+02</rscale>
<asrwt>0</asrwt>
<pdfrwt beam="1">  1        2 0.12150333E-01 0.11456496E+03</pdfrwt>
<pdfrwt beam="2">  1       -2 0.30324558E-01 0.11456496E+03</pdfrwt>
<totfact> 0.47491488E+03</totfact>
</mgrwt>
</event>
<event>
 6    1  0.1727544E-002  0.1289519E+03  0.7546771E-02  0.1245720E+00
          2   -1    0    0  501    0  0.00000000000E+00  0.00000000000E+00  0.18818967883E+04  0.18818967883E+04  0.00000000000E+00 0. -1.
         -2   -1    0    0    0  501 -0.00000000000E+00 -0.00000000000E+00 -0.92782295002E+01  0.92782295002E+01  0.00000000000E+00 0.  1.
         23    2    1    2    0    0  0.85114359462E+02 -0.34183862967E+02  0.15615553740E+04  0.15668706922E+04  0.90639887946E+02 0.  0.
         11    1    3    3    0    0  0.77302968962E-01 -0.42548011566E+02  0.61277009149E+03  0.61424549187E+03  0.00000000000E+00 0.  1.
        -11    1    3    3    0    0  0.85037056493E+02  0.83641485992E+01  0.94878528252E+03  0.95262520032E+03  0.00000000000E+00 0. -1.
         22    1    1    2    0    0 -0.85114359462E+02  0.34183862967E+02  0.31106318477E+03  0.32430432559E+03  0.00000000000E+00 0.  1.
<mgrwt>
<rscale>  0 0.11842393E+03</rscale>
<asrwt>0</asrwt>
<pdfrwt beam="1">  1        2 0.28952228E+00 0.12895185E+03</pdfrwt>
<pdfrwt beam="2">  1       -2 0.14274214E-02 0.12895185E+03</pdfrwt>
<totfact> 0.10637867E+04</totfact>
</mgrwt>
</event>
<event>
 6    1  0.1727544E-002  0.9247525E+02  0.7546771E-02  0.1409497E+00
          4   -1    0    0  501    0  0.00000000000E+00  0.00000000000E+00  0.13081213133E+02  0.13081213133E+02  0.00000000000E+00 0. -1.
         -4   -1    0    0    0  501 -0.00000000000E+00 -0.00000000000E+00 -0.21797998522E+03  0.21797998522E+03  0.00000000000E+00 0.  1.
         23    2    1    2    0    0  0.13542813675E+02  0.16034109553E+01 -0.18640584672E+03  0.20808366547E+03  0.91464164644E+02 0.  0.
         11    1    3    3    0    0  0.22341836973E+00 -0.27397845233E+02 -0.17001193508E+03  0.17220554553E+03  0.00000000000E+00 0.  1.
        -11    1    3    3    0    0  0.13319395305E+02  0.29001256188E+02 -0.16393911638E+02  0.35878119942E+02  0.00000000000E+00 0. -1.
         22    1    1    2    0    0 -0.13542813675E+02 -0.16034109553E+01 -0.18492925366E+02  0.22977532886E+02  0.00000000000E+00 0. -1.
<mgrwt>
<rscale>  0 0.57306258E+02</rscale>
<asrwt>0</asrwt>
<pdfrwt beam="1">  1        4 0.20124944E-02 0.92475252E+02</pdfrwt>
<pdfrwt beam="2">  1       -4 0.33535382E-01 0.92475252E+02</pdfrwt>
<totfact> 0.12602443E+04</totfact>
</mgrwt>
</event>
<event>
 6    1  0.1727544E-002  0.1098366E+03  0.7546771E-02  0.1292950E+00
         -2   -1    0    0    0  501 -0.00000000000E+00  0.00000000000E+00  0.68707935403E+01  0.68707935403E+01  0.00000000000E+00 0.  1.
          2   -1    0    0  501    0  0.00000000000E+00 -0.00000000000E+00 -0.12359896957E+04  0.12359896957E+04  0.00000000000E+00 0. -1.
         23    2    1    2    0    0 -0.46003729868E+02 -0.37681152332E+02 -0.10050870004E+04  0.10110707022E+04  0.92346488437E+02 0.  0.
         11    1    3    3    0    0 -0.24733952870E+02 -0.49441112159E+02 -0.27098890231E+03  0.27657038376E+03  0.00000000000E+00 0. -1.
        -11    1    3    3    0    0 -0.21269776998E+02  0.11759959828E+02 -0.73409809812E+03  0.73450031841E+03  0.00000000000E+00 0.  1.
         22    1    1    2    0    0  0.46003729868E+02  0.37681152332E+02 -0.22403190172E+03  0.23178978707E+03  0.00000000000E+00 0.  1.
<mgrwt>
<rscale>  0 0.94216660E+02</rscale>
<asrwt>0</asrwt>
<pdfrwt beam="1">  1        2 0.19015227E+00 0.10983663E+03</pdfrwt>
<pdfrwt beam="2">  1       -2 0.10570451E-02 0.10983663E+03</pdfrwt>
<totfact> 0.34989140E+04</totfact>
</mgrwt>
</event>
<event>
 6    1  0.1727544E-002  0.9432384E+02  0.7546771E-02  0.1375426E+00
         -2   -1    0    0    0  501 -0.00000000000E+00  0.00000000000E+00  0.57144285801E+02  0.57144285801E+02  0.00000000000E+00 0.  1.
          2   -1    0    0  501    0  0.00000000000E+00 -0.00000000000E+00 -0.72135951709E+02  0.72135951709E+02  0.00000000000E+00 0. -1.
         23    2    1    2    0    0 -0.21641584089E+02 -0.48456906505E+01  0.11170564726E+02  0.94982989931E+02  0.91679594131E+02 0.  0.
         13    1    3    3    0    0 -0.17358563947E+02 -0.16309826466E+02  0.49400037530E+02  0.54842446058E+02  0.00000000000E+00 0.  1.
        -13    1    3    3    0    0 -0.42830201423E+01  0.11464135815E+02 -0.38229472804E+02  0.40140543873E+02  0.00000000000E+00 0. -1.
         22    1    1    2    0    0  0.21641584089E+02  0.48456906505E+01 -0.26162230634E+02  0.34297247579E+02  0.00000000000E+00 0. -1.
<mgrwt>
<rscale>  0 0.65681636E+02</rscale>
<asrwt>0</asrwt>
<pdfrwt beam="1">  1        2 0.11097839E-01 0.94323840E+02</pdfrwt>
<pdfrwt beam="2">  1       -2 0.87914285E-02 0.94323840E+02</pdfrwt>
<totfact> 0.39963932E+04</totfact>
</mgrwt>
</event>
<event>
 6    1  0.1727544E-002  0.9241077E+02  0.7546771E-02  0.1412189E+00
          3   -1    0    0  501    0  0.00000000000E+00  0.00000000000E+00  0.62043839249E+01  0.62043839249E+01  0.00000000000E+00 0. -1.
         -3   -1    0    0    0  501 -0.00000000000E+00 -0.00000000000E+00 -0.48506909427E+03  0.48506909427E+03  0.00000000000E+00 0.  1.
         23    2    1    2    0    0 -0.68343237283E+01  0.11180988907E+02 -0.45240310501E+03  0.46174486409E+03  0.91476923875E+02 0.  0.
         13    1    3    3    0    0  0.13935985238E+02 -0.37198515792E+02 -0.20111521765E+03  0.20500066350E+03  0.00000000000E+00 0.  1.
        -13    1    3    3    0    0 -0.20770308967E+02  0.48379504699E+02 -0.25128788735E+03  0.25674420060E+03  0.00000000000E+00 0. -1.
         22    1    1    2    0    0  0.68343237283E+01 -0.11180988907E+02 -0.26461605337E+02  0.29528614102E+02  0.00000000000E+00 0.  1.
<mgrwt>
<rscale>  0 0.56708131E+02</rscale>
<asrwt>0</asrwt>
<pdfrwt beam="1">  1        3 0.95452107E-03 0.92410768E+02</pdfrwt>
<pdfrwt beam="2">  1       -3 0.74625978E-01 0.92410768E+02</pdfrwt>
<totfact> 0.10557285E+04</totfact>
</mgrwt>
</event>
<event>
 6    1  0.1727544E-002  0.9320580E+02  0.7546771E-02  0.1424892E+00
         -2   -1    0    0    0  501 -0.00000000000E+00  0.00000000000E+00  0.22476031665E+02  0.22476031665E+02  0.00000000000E+00 0.  1.
          2   -1    0    0  501    0  0.00000000000E+00 -0.00000000000E+00 -0.12296548651E+03  0.12296548651E+03  0.00000000000E+00 0. -1.
         23    2    1    2    0    0  0.74452842675E+01 -0.74050141284E+01 -0.81829302019E+02  0.12402965708E+03  0.92612389422E+02 0.  0.
         11    1    3    3    0    0  0.39782026064E+00  0.31532169373E+02  0.17222318551E+01  0.31581672674E+02  0.00000000000E+00 0. -1.
        -11    1    3    3    0    0  0.70474640069E+01 -0.38937183501E+02 -0.83551533875E+02  0.92447984406E+02  0.00000000000E+00 0.  1.
         22    1    1    2    0    0 -0.74452842675E+01  0.74050141284E+01 -0.18660152829E+02  0.21411861097E+02  0.00000000000E+00 0. -1.
<mgrwt>
<rscale>  0 0.53999240E+02</rscale>
<asrwt>0</asrwt>
<pdfrwt beam="1">  1        2 0.18917767E-01 0.93205800E+02</pdfrwt>
<pdfrwt beam="2">  1       -2 0.34578510E-02 0.93205800E+02</pdfrwt>
<totfact> 0.86754210E+04</totfact>
</mgrwt>
</event>
<event>
 6    1  0.1727544E-002  0.9432569E+02  0.7546771E-02  0.1365070E+00
          2   -1    0    0  501    0  0.00000000000E+00  0.00000000000E+00  0.15512264166E+03  0.15512264166E+03  0.00000000000E+00 0. -1.
         -2   -1    0    0    0  501 -0.00000000000E+00 -0.00000000000E+00 -0.59663347585E+02  0.59663347585E+02  0.00000000000E+00 0.  1.
         23    2    1    2    0    0 -0.18212419126E+02  0.19004187718E+02 -0.19950588794E+02  0.96412460004E+02  0.90578612760E+02 0.  0.
         11    1    3    3    0    0 -0.45088252385E+02 -0.78520457369E+01 -0.32797189451E+02  0.56305068700E+02  0.00000000000E+00 0.  1.
        -11    1    3    3    0    0  0.26875833260E+02  0.26856233455E+02  0.12846600656E+02  0.40107391304E+02  0.00000000000E+00 0. -1.
         22    1    1    2    0    0  0.18212419126E+02 -0.19004187718E+02  0.11540988287E+03  0.11837352924E+03  0.00000000000E+00 0. -1.
<mgrwt>
<rscale>  0 0.68557112E+02</rscale>
<asrwt>0</asrwt>
<pdfrwt beam="1">  1        2 0.23865022E-01 0.94325693E+02</pdfrwt>
<pdfrwt beam="2">  1       -2 0.91789766E-02 0.94325693E+02</pdfrwt>
<totfact> 0.15539035E+04</totfact>
</mgrwt>
</event>
<event>
 6    1  0.1727544E-002  0.9216427E+02  0.7546771E-02  0.1421108E+00
         -2   -1    0    0    0  501 -0.00000000000E+00  0.00000000000E+00  0.16469570144E+02  0.16469570144E+02  0.00000000000E+00 0.  1.
          2   -1    0    0  501    0  0.00000000000E+00 -0.00000000000E+00 -0.18217003214E+03  0.18217003214E+03  0.00000000000E+00 0. -1.
         23    2    1    2    0    0 -0.86814998607E+01 -0.75553625262E+01 -0.11885978428E+03  0.15040578602E+03  0.91442879469E+02 0.  0.
         11    1    3    3    0    0 -0.10475360106E+02  0.24672182463E+02 -0.11478400740E+03  0.11787204126E+03  0.00000000000E+00 0. -1.
        -11    1    3    3    0    0  0.17938602455E+01 -0.32227544989E+02 -0.40757768823E+01  0.32533744755E+02  0.00000000000E+00 0.  1.
         22    1    1    2    0    0  0.86814998607E+01  0.75553625262E+01 -0.46840677712E+02  0.48233816263E+02  0.00000000000E+00 0. -1.
<mgrwt>
<rscale>  0 0.54787215E+02</rscale>
<asrwt>0</asrwt>
<pdfrwt beam="1">  1        2 0.28026159E-01 0.92164267E+02</pdfrwt>
<pdfrwt beam="2">  1       -2 0.25337800E-02 0.92164267E+02</pdfrwt>
<totfact> 0.88344546E+04</totfact>
</mgrwt>
</event>
<event>
 6    1  0.1727544E-002  0.9602550E+02  0.7546771E-02  0.1361218E+00
         -4   -1    0    0    0  501 -0.00000000000E+00  0.00000000000E+00  0.22807331000E+03  0.22807331000E+03  0.00000000000E+00 0.  1.
          4   -1    0    0  501    0  0.00000000000E+00 -0.00000000000E+00 -0.18056362869E+02  0.18056362869E+02  0.00000000000E+00 0. -1.
         23    2    1    2    0    0 -0.22662075134E+02  0.13945344287E+02  0.18981055228E+03  0.21271798824E+03  0.92265131488E+02 0.  0.
         11    1    3    3    0    0  0.13629697605E+02  0.36895893831E+02  0.37042118784E+02  0.54029567853E+02  0.00000000000E+00 0. -1.
        -11    1    3    3    0    0 -0.36291772739E+02 -0.22950549543E+02  0.15276843350E+03  0.15868842039E+03  0.00000000000E+00 0.  1.
         22    1    1    2    0    0  0.22662075134E+02 -0.13945344287E+02  0.20206394850E+02  0.33411684625E+02  0.00000000000E+00 0. -1.
<mgrwt>
<rscale>  0 0.69670244E+02</rscale>
<asrwt>0</asrwt>
<pdfrwt beam="1">  1        4 0.27779021E-02 0.96025501E+02</pdfrwt>
<pdfrwt beam="2">  1       -4 0.35088199E-01 0.96025501E+02</pdfrwt>
<totfact> 0.71170963E+03</totfact>
</mgrwt>
</event>
<event>
 6    1  0.1727544E-002  0.8833885E+02  0.7546771E-02  0.1433174E+00
         -1   -1    0    0    0  501 -0.00000000000E+00  0.00000000000E+00  0.49511270576E+03  0.49511270576E+03  0.00000000000E+00 0.  1.
          1   -1    0    0  501    0  0.00000000000E+00 -0.00000000000E+00 -0.51181042768E+01  0.51181042768E+01  0.00000000000E+00 0. -1.
         23    2    1    2    0    0 -0.35409347604E+01  0.10283810682E+02  0.45789931855E+03  0.46634272706E+03  0.87666744972E+02 0.  0.
         13    1    3    3    0    0  0.36302826715E+02  0.98820720771E+01  0.33591787289E+03  0.33801829522E+03  0.00000000000E+00 0.  1.
        -13    1    3    3    0    0 -0.39843761475E+02  0.40173860534E+00  0.12198144565E+03  0.12832443184E+03  0.00000000000E+00 0. -1.
         22    1    1    2    0    0  0.35409347604E+01 -0.10283810682E+02  0.32095282931E+02  0.33888082973E+02  0.00000000000E+00 0. -1.
<mgrwt>
<rscale>  0 0.52328057E+02</rscale>
<asrwt>0</asrwt>
<pdfrwt beam="1">  1        1 0.78740105E-03 0.88338854E+02</pdfrwt>
<pdfrwt beam="2">  1       -1 0.76171148E-01 0.88338854E+02</pdfrwt>
<totfact> 0.35789336E+04</totfact>
</mgrwt>
</event>
<event>
 6    1  0.1727544E-002  0.9213783E+02  0.7546771E-02  0.1403929E+00
          4   -1    0    0  501    0  0.00000000000E+00  0.00000000000E+00  0.59973941738E+01  0.59973941738E+01  0.00000000000E+00 0.  1.
         -4   -1    0    0    0  501 -0.00000000000E+00 -0.00000000000E+00 -0.50744933947E+03  0.50744933947E+03  0.00000000000E+00 0. -1.
         23    2    1    2    0    0  0.35560454050E+01 -0.14619483993E+02 -0.46448304371E+03  0.47353339683E+03  0.90901073963E+02 0.  0.
         13    1    3    3    0    0  0.33250421985E+02  0.88685007745E+01 -0.37217486629E+03  0.37376245393E+03  0.00000000000E+00 0. -1.
        -13    1    3    3    0    0 -0.29694376580E+02 -0.23487984767E+02 -0.92308177423E+02  0.99770942905E+02  0.00000000000E+00 0.  1.
         22    1    1    2    0    0 -0.35560454050E+01  0.14619483993E+02 -0.36968901583E+02  0.39913336811E+02  0.00000000000E+00 0.  1.
<mgrwt>
<rscale>  0 0.58570913E+02</rscale>
<asrwt>0</asrwt>
<pdfrwt beam="1">  1        4 0.92267579E-03 0.92137832E+02</pdfrwt>
<pdfrwt beam="2">  1       -4 0.78069149E-01 0.92137832E+02</pdfrwt>
<totfact> 0.73282883E+03</totfact>
</mgrwt>
</event>
<event>
 6    1  0.1727544E-002  0.9148304E+02  0.7546771E-02  0.1404086E+00
         -2   -1    0    0    0  501 -0.00000000000E+00  0.00000000000E+00  0.10874608635E+03  0.10874608635E+03  0.00000000000E+00 0.  1.
          2   -1    0    0  501    0  0.00000000000E+00 -0.00000000000E+00 -0.30306403455E+02  0.30306403455E+02  0.00000000000E+00 0. -1.
         23    2    1    2    0    0 -0.93035129526E+01 -0.12188128855E+02  0.82502566114E+02  0.12319018044E+03  0.90188920073E+02 0.  0.
         11    1    3    3    0    0 -0.16022366778E+02  0.23265499505E+02 -0.48643352119E+01  0.28664637822E+02  0.00000000000E+00 0. -1.
        -11    1    3    3    0    0  0.67188538255E+01 -0.35453628360E+02  0.87366901326E+02  0.94525542622E+02  0.00000000000E+00 0.  1.
         22    1    1    2    0    0  0.93035129526E+01  0.12188128855E+02 -0.40628832191E+01  0.15862309362E+02  0.00000000000E+00 0.  1.
<mgrwt>
<rscale>  0 0.58534697E+02</rscale>
<asrwt>0</asrwt>
<pdfrwt beam="1">  1        2 0.46625237E-02 0.91483043E+02</pdfrwt>
<pdfrwt beam="2">  1       -2 0.16730167E-01 0.91483043E+02</pdfrwt>
<totfact> 0.42477240E+04</totfact>
</mgrwt>
</event>
<event>
 6    1  0.1727544E-002  0.9278894E+02  0.7546771E-02  0.1397207E+00
         -2   -1    0    0    0  501 -0.00000000000E+00  0.00000000000E+00  0.17202766693E+03  0.17202766693E+03  0.00000000000E+00 0.  1.
          2   -1    0    0  501    0  0.00000000000E+00 -0.00000000000E+00 -0.19543736283E+02  0.19543736283E+02  0.00000000000E+00 0. -1.
         23    2    1    2    0    0 -0.13662038875E+01  0.16327224051E+02  0.14783177418E+03  0.17453945329E+03  0.91330950624E+02 0.  0.
         11    1    3    3    0    0 -0.42892373104E+01  0.36779363779E+01 -0.12481776632E+02  0.13701077352E+02  0.00000000000E+00 0. -1.
        -11    1    3    3    0    0  0.29230334229E+01  0.12649287673E+02  0.16031355081E+03  0.16083837594E+03  0.00000000000E+00 0.  1.
         22    1    1    2    0    0  0.13662038875E+01 -0.16327224051E+02  0.46521564750E+01  0.17031949922E+02  0.00000000000E+00 0. -1.
<mgrwt>
<rscale>  0 0.60149085E+02</rscale>
<asrwt>0</asrwt>
<pdfrwt beam="1">  1        2 0.30067288E-02 0.92788940E+02</pdfrwt>
<pdfrwt beam="2">  1       -2 0.26465794E-01 0.92788940E+02</pdfrwt>
<totfact> 0.34888476E+04</totfact>
</mgrwt>
</event>
<event>
 6    1  0.1727544E-002  0.9424441E+02  0.7546771E-02  0.1424271E+00
          3   -1    0    0  501    0  0.00000000000E+00  0.00000000000E+00  0.84161623166E+02  0.84161623166E+02  0.00000000000E+00 0. -1.
         -3   -1    0    0    0  501 -0.00000000000E+00 -0.00000000000E+00 -0.36103292541E+02  0.36103292541E+02  0.00000000000E+00 0.  1.
         23    2    1    2    0    0  0.67552209646E+01 -0.77146982888E+01  0.28969752897E+02  0.98596427535E+02  0.93684893978E+02 0.  0.
         13    1    3    3    0    0 -0.38153362755E+02 -0.13507533813E+02 -0.66092597384E+01  0.41009936278E+02  0.00000000000E+00 0.  1.
        -13    1    3    3    0    0  0.44908583720E+02  0.57928355242E+01  0.35579012635E+02  0.57586491256E+02  0.00000000000E+00 0. -1.
         22    1    1    2    0    0 -0.67552209646E+01  0.77146982888E+01  0.19088577729E+02  0.21668488172E+02  0.00000000000E+00 0.  1.
<mgrwt>
<rscale>  0 0.54127460E+02</rscale>
<asrwt>0</asrwt>
<pdfrwt beam="1">  1        3 0.12947942E-01 0.94244411E+02</pdfrwt>
<pdfrwt beam="2">  1       -3 0.55543527E-02 0.94244411E+02</pdfrwt>
<totfact> 0.18964974E+04</totfact>
</mgrwt>
</event>
<event>
 6    1  0.1727544E-002  0.9461776E+02  0.7546771E-02  0.1375083E+00
          2   -1    0    0  501    0  0.00000000000E+00  0.00000000000E+00  0.16722401603E+03  0.16722401603E+03  0.00000000000E+00 0. -1.
         -2   -1    0    0    0  501 -0.00000000000E+00 -0.00000000000E+00 -0.20965575862E+02  0.20965575862E+02  0.00000000000E+00 0.  1.
         23    2    1    2    0    0  0.15152559809E+01  0.22043473204E+02  0.12985889845E+03  0.16067312991E+03  0.92001687248E+02 0.  0.
         13    1    3    3    0    0 -0.39771358607E+01  0.81769273189E-01 -0.14251094327E+02  0.14795877310E+02  0.00000000000E+00 0.  1.
        -13    1    3    3    0    0  0.54923918416E+01  0.21961703931E+02  0.14410999277E+03  0.14587725259E+03  0.00000000000E+00 0. -1.
         22    1    1    2    0    0 -0.15152559809E+01 -0.22043473204E+02  0.16399541722E+02  0.27516461987E+02  0.00000000000E+00 0. -1.
<mgrwt>
<rscale>  0 0.65774177E+02</rscale>
<asrwt>0</asrwt>
<pdfrwt beam="1">  1        2 0.25726771E-01 0.94617763E+02</pdfrwt>
<pdfrwt beam="2">  1       -2 0.32254733E-02 0.94617763E+02</pdfrwt>
<totfact> 0.68510567E+04</totfact>
</mgrwt>
</event>
<event>
 6    1  0.1727544E-002  0.2245536E+03  0.7546771E-02  0.1134314E+00
          2   -1    0    0  501    0  0.00000000000E+00  0.00000000000E+00  0.43369854494E+03  0.43369854494E+03  0.00000000000E+00 0. -1.
         -2   -1    0    0    0  501 -0.00000000000E+00 -0.00000000000E+00 -0.19809707263E+03  0.19809707263E+03  0.00000000000E+00 0.  1.
         23    2    1    2    0    0 -0.15476354511E+03 -0.13401227840E+03  0.33572573706E+03  0.40390109362E+03  0.92267422449E+02 0.  0.
         11    1    3    3    0    0 -0.10044605583E+03 -0.65469473422E+02  0.11355756519E+03  0.16513928271E+03  0.00000000000E+00 0. -1.
        -11    1    3    3    0    0 -0.54317489273E+02 -0.68542804982E+02  0.22216817187E+03  0.23876181091E+03  0.00000000000E+00 0.  1.
         22    1    1    2    0    0  0.15476354511E+03  0.13401227840E+03 -0.10012426475E+03  0.22789452395E+03  0.00000000000E+00 0.  1.
<mgrwt>
<rscale>  0 0.21942247E+03</rscale>
<asrwt>0</asrwt>
<pdfrwt beam="1">  1        2 0.66722853E-01 0.22455361E+03</pdfrwt>
<pdfrwt beam="2">  1       -2 0.30476473E-01 0.22455361E+03</pdfrwt>
<totfact> 0.72745268E+02</totfact>
</mgrwt>
</event>
<event>
 6    1  0.1727544E-002  0.1082882E+03  0.7546771E-02  0.1311240E+00
          1   -1    0    0  501    0  0.00000000000E+00  0.00000000000E+00  0.32623228956E+03  0.32623228956E+03  0.00000000000E+00 0. -1.
         -1   -1    0    0    0  501 -0.00000000000E+00 -0.00000000000E+00 -0.19692304327E+02  0.19692304327E+02  0.00000000000E+00 0.  1.
         23    2    1    2    0    0  0.32088791150E+02  0.30601620646E+02  0.16300053713E+03  0.19569236411E+03  0.98793605871E+02 0.  0.
         11    1    3    3    0    0  0.64729800302E+02  0.20941655008E+02  0.13663474853E+03  0.15263536441E+03  0.00000000000E+00 0. -1.
        -11    1    3    3    0    0 -0.32641009152E+02  0.96599656381E+01  0.26365788601E+02  0.43056999700E+02  0.00000000000E+00 0.  1.
         22    1    1    2    0    0 -0.32088791150E+02 -0.30601620646E+02  0.14353944810E+03  0.15023222978E+03  0.00000000000E+00 0. -1.
<mgrwt>
<rscale>  0 0.86623916E+02</rscale>
<asrwt>0</asrwt>
<pdfrwt beam="1">  1        1 0.50189579E-01 0.10828816E+03</pdfrwt>
<pdfrwt beam="2">  1       -1 0.30295855E-02 0.10828816E+03</pdfrwt>
<totfact> 0.26602108E+04</totfact>
</mgrwt>
</event>
<event>
 6    1  0.1727544E-002  0.1038897E+03  0.7546771E-02  0.1313476E+00
          2   -1    0    0  501    0  0.00000000000E+00  0.00000000000E+00  0.46778374767E+03  0.46778374767E+03  0.00000000000E+00 0.  1.
         -2   -1    0    0    0  501 -0.00000000000E+00 -0.00000000000E+00 -0.12927287077E+02  0.12927287077E+02  0.00000000000E+00 0. -1.
         23    2    1    2    0    0 -0.21514025262E+02  0.43159834732E+02  0.35379903018E+03  0.36873680174E+03  0.92018751239E+02 0.  0.
         13    1    3    3    0    0  0.13916847675E+02 -0.11311670556E+02  0.21200641697E+03  0.21276360915E+03  0.00000000000E+00 0.  1.
        -13    1    3    3    0    0 -0.35430872937E+02  0.54471505288E+02  0.14179261321E+03  0.15597319259E+03  0.00000000000E+00 0. -1.
         22    1    1    2    0    0  0.21514025262E+02 -0.43159834732E+02  0.10105743041E+03  0.11197423301E+03  0.00000000000E+00 0. -1.
<mgrwt>
<rscale>  0 0.85752522E+02</rscale>
<asrwt>0</asrwt>
<pdfrwt beam="1">  1        2 0.71966717E-01 0.10388973E+03</pdfrwt>
<pdfrwt beam="2">  1       -2 0.19888138E-02 0.10388973E+03</pdfrwt>
<totfact> 0.46984217E+04</totfact>
</mgrwt>
</event>
<event>
 6    1  0.1727544E-002  0.9373253E+02  0.7546771E-02  0.1366710E+00
         -1   -1    0    0    0  501 -0.00000000000E+00  0.00000000000E+00  0.46905818340E+03  0.46905818340E+03  0.00000000000E+00 0.  1.
          1   -1    0    0  501    0  0.00000000000E+00 -0.00000000000E+00 -0.79304225079E+01  0.79304225079E+01  0.00000000000E+00 0. -1.
         23    2    1    2    0    0  0.18600246851E+02 -0.18312078272E+02  0.39321895236E+03  0.40423623365E+03  0.90024922679E+02 0.  0.
         13    1    3    3    0    0 -0.11633070520E+02  0.11955561496E+02  0.31194327588E+03  0.31238897412E+03  0.00000000000E+00 0.  1.
        -13    1    3    3    0    0  0.30233317371E+02 -0.30267639768E+02  0.81275676476E+02  0.91847259529E+02  0.00000000000E+00 0. -1.
         22    1    1    2    0    0 -0.18600246851E+02  0.18312078272E+02  0.67908808533E+02  0.72752372263E+02  0.00000000000E+00 0.  1.
<mgrwt>
<rscale>  0 0.68090290E+02</rscale>
<asrwt>0</asrwt>
<pdfrwt beam="1">  1        1 0.12200654E-02 0.93732535E+02</pdfrwt>
<pdfrwt beam="2">  1       -1 0.72162776E-01 0.93732535E+02</pdfrwt>
<totfact> 0.21891584E+04</totfact>
</mgrwt>
</event>
<event>
 6    1  0.1727544E-002  0.9127074E+02  0.7546771E-02  0.1404591E+00
          2   -1    0    0  501    0  0.00000000000E+00  0.00000000000E+00  0.19392214202E+03  0.19392214202E+03  0.00000000000E+00 0. -1.
         -2   -1    0    0    0  501 -0.00000000000E+00 -0.00000000000E+00 -0.15858503404E+02  0.15858503404E+02  0.00000000000E+00 0.  1.
         23    2    1    2    0    0  0.58938869504E+01 -0.14138876676E+02  0.12649520882E+03  0.15598521171E+03  0.89976122836E+02 0.  0.
         11    1    3    3    0    0  0.29678013063E+02  0.20696727131E+02  0.99578288193E+02  0.10594797994E+03  0.00000000000E+00 0. -1.
        -11    1    3    3    0    0 -0.23784126112E+02 -0.34835603807E+02  0.26916920631E+02  0.50037231776E+02  0.00000000000E+00 0.  1.
         22    1    1    2    0    0 -0.58938869504E+01  0.14138876676E+02  0.51568429792E+02  0.53795433712E+02  0.00000000000E+00 0. -1.
<mgrwt>
<rscale>  0 0.58418482E+02</rscale>
<asrwt>0</asrwt>
<pdfrwt beam="1">  1        2 0.29834174E-01 0.91270742E+02</pdfrwt>
<pdfrwt beam="2">  1       -2 0.24397699E-02 0.91270742E+02</pdfrwt>
<totfact> 0.87128715E+04</totfact>
</mgrwt>
</event>
<event>
 6    1  0.1727544E-002  0.9596334E+02  0.7546771E-02  0.1415730E+00
         -2   -1    0    0    0  501 -0.00000000000E+00  0.00000000000E+00  0.44124983261E+03  0.44124983261E+03  0.00000000000E+00 0.  1.
          2   -1    0    0  501    0  0.00000000000E+00 -0.00000000000E+00 -0.84844692207E+01  0.84844692207E+01  0.00000000000E+00 0. -1.
         23    2    1    2    0    0  0.10813503230E+02  0.24002395713E+01  0.42617435705E+03  0.43684498972E+03  0.95321925255E+02 0.  0.
         13    1    3    3    0    0 -0.36980564974E+02  0.19631862694E+02  0.25037295162E+03  0.25384953638E+03  0.00000000000E+00 0.  1.
        -13    1    3    3    0    0  0.47794068205E+02 -0.17231623123E+02  0.17580140543E+03  0.18299545334E+03  0.00000000000E+00 0. -1.
         22    1    1    2    0    0 -0.10813503230E+02 -0.24002395713E+01  0.65910063380E+01  0.12889312109E+02  0.00000000000E+00 0. -1.
<mgrwt>
<rscale>  0 0.55934722E+02</rscale>
<asrwt>0</asrwt>
<pdfrwt beam="1">  1        2 0.13053033E-02 0.95963339E+02</pdfrwt>
<pdfrwt beam="2">  1       -2 0.67884572E-01 0.95963339E+02</pdfrwt>
<totfact> 0.17930524E+04</totfact>
</mgrwt>
</event>
<event>
 6    1  0.1727544E-002  0.8932764E+02  0.7546771E-02  0.1391834E+00
          2   -1    0    0  501    0  0.00000000000E+00  0.00000000000E+00  0.19527161623E+03  0.19527161623E+03  0.00000000000E+00 0. -1.
         -2   -1    0    0    0  501 -0.00000000000E+00 -0.00000000000E+00 -0.16232378820E+02  0.16232378820E+02  0.00000000000E+00 0.  1.
         23    2    1    2    0    0 -0.40552485025E+00  0.20004218605E+02  0.12311023221E+03  0.15210376917E+03  0.87057992784E+02 0.  0.
         13    1    3    3    0    0  0.82480954451E+01  0.43263035117E+02  0.24457312842E+02  0.50377390141E+02  0.00000000000E+00 0.  1.
        -13    1    3    3    0    0 -0.86536202954E+01 -0.23258816511E+02  0.98652919372E+02  0.10172637903E+03  0.00000000000E+00 0. -1.
         22    1    1    2    0    0  0.40552485025E+00 -0.20004218605E+02  0.55929005194E+02  0.59400225878E+02  0.00000000000E+00 0.  1.
<mgrwt>
<rscale>  0 0.61452860E+02</rscale>
<asrwt>0</asrwt>
<pdfrwt beam="1">  1        2 0.30041785E-01 0.89327640E+02</pdfrwt>
<pdfrwt beam="2">  1       -2 0.24972892E-02 0.89327640E+02</pdfrwt>
<totfact> 0.83351967E+04</totfact>
</mgrwt>
</event>
<event>
 6    1  0.1727544E-002  0.9146116E+02  0.7546771E-02  0.1412021E+00
         -2   -1    0    0    0  501 -0.00000000000E+00  0.00000000000E+00  0.11460668458E+02  0.11460668458E+02  0.00000000000E+00 0.  1.
          2   -1    0    0  501    0  0.00000000000E+00 -0.00000000000E+00 -0.24293763174E+03  0.24293763174E+03  0.00000000000E+00 0. -1.
         23    2    1    2    0    0  0.23447228456E+01  0.13347746255E+02 -0.19227034895E+03  0.21291554881E+03  0.90451554903E+02 0.  0.
         13    1    3    3    0    0  0.10086625240E+02  0.29538461063E+01  0.73815824550E+01  0.12843402006E+02  0.00000000000E+00 0.  1.
        -13    1    3    3    0    0 -0.77419023941E+01  0.10393900149E+02 -0.19965193140E+03  0.20007214680E+03  0.00000000000E+00 0. -1.
         22    1    1    2    0    0 -0.23447228456E+01 -0.13347746255E+02 -0.39206614334E+02  0.41482751389E+02  0.00000000000E+00 0. -1.
<mgrwt>
<rscale>  0 0.56745231E+02</rscale>
<asrwt>0</asrwt>
<pdfrwt beam="1">  1        2 0.37375021E-01 0.91461160E+02</pdfrwt>
<pdfrwt beam="2">  1       -2 0.17631797E-02 0.91461160E+02</pdfrwt>
<totfact> 0.10947219E+05</totfact>
</mgrwt>
</event>
<event>
 6    1  0.1727544E-002  0.9297969E+02  0.7546771E-02  0.1417892E+00
          2   -1    0    0  501    0  0.00000000000E+00  0.00000000000E+00  0.28597818092E+01  0.28597818092E+01  0.00000000000E+00 0. -1.
         -2   -1    0    0    0  501 -0.00000000000E+00 -0.00000000000E+00 -0.17477248724E+04  0.17477248724E+04  0.00000000000E+00 0.  1.
         23    2    1    2    0    0 -0.98867989995E+01  0.63997334217E+01 -0.17249037296E+04  0.17274079134E+04  0.92230783932E+02 0.  0.
         11    1    3    3    0    0 -0.38449380674E+02 -0.26014541953E+01 -0.15028310686E+04  0.15033250956E+04  0.00000000000E+00 0.  1.
        -11    1    3    3    0    0  0.28562581675E+02  0.90011876170E+01 -0.22207266100E+03  0.22408281776E+03  0.00000000000E+00 0. -1.
         22    1    1    2    0    0  0.98867989995E+01 -0.63997334217E+01 -0.19961361049E+02  0.23176740868E+02  0.00000000000E+00 0. -1.
<mgrwt>
<rscale>  0 0.55469307E+02</rscale>
<asrwt>0</asrwt>
<pdfrwt beam="1">  1        2 0.43996612E-03 0.92979691E+02</pdfrwt>
<pdfrwt beam="2">  1       -2 0.26888094E+00 0.92979691E+02</pdfrwt>
<totfact> 0.23748899E+03</totfact>
</mgrwt>
</event>
<event>
 6    1  0.1727544E-002  0.9283533E+02  0.7546771E-02  0.1422384E+00
          2   -1    0    0  501    0  0.00000000000E+00  0.00000000000E+00  0.42636969548E+02  0.42636969548E+02  0.00000000000E+00 0. -1.
         -2   -1    0    0    0  501 -0.00000000000E+00 -0.00000000000E+00 -0.65466787791E+02  0.65466787791E+02  0.00000000000E+00 0.  1.
         23    2    1    2    0    0  0.60430544307E+01  0.92424312704E+01 -0.26369253439E+02  0.96507695760E+02  0.92176226714E+02 0.  0.
         11    1    3    3    0    0  0.13339605206E+02  0.30851529860E+02 -0.52176914643E+02  0.62066032445E+02  0.00000000000E+00 0.  1.
        -11    1    3    3    0    0 -0.72965507753E+01 -0.21609098590E+02  0.25807661204E+02  0.34441663315E+02  0.00000000000E+00 0. -1.
         22    1    1    2    0    0 -0.60430544307E+01 -0.92424312704E+01  0.35394351964E+01  0.11596061579E+02  0.00000000000E+00 0. -1.
<mgrwt>
<rscale>  0 0.54519729E+02</rscale>
<asrwt>0</asrwt>
<pdfrwt beam="1">  1        2 0.65595338E-02 0.92835326E+02</pdfrwt>
<pdfrwt beam="2">  1       -2 0.10071813E-01 0.92835326E+02</pdfrwt>
<totfact> 0.61768193E+04</totfact>
</mgrwt>
</event>
<event>
 6    1  0.1727544E-002  0.9836248E+02  0.7546771E-02  0.1346376E+00
          2   -1    0    0  501    0  0.00000000000E+00  0.00000000000E+00  0.69113043475E+02  0.69113043475E+02  0.00000000000E+00 0. -1.
         -2   -1    0    0    0  501 -0.00000000000E+00 -0.00000000000E+00 -0.10274505440E+03  0.10274505440E+03  0.00000000000E+00 0.  1.
         23    2    1    2    0    0  0.28521133249E+02 -0.14167313878E+02 -0.72071552762E+02  0.12194050378E+03  0.93064547059E+02 0.  0.
         11    1    3    3    0    0  0.42913618453E+02  0.27301078454E+02 -0.22179082925E+02  0.55487289111E+02  0.00000000000E+00 0. -1.
        -11    1    3    3    0    0 -0.14392485204E+02 -0.41468392332E+02 -0.49892469837E+02  0.66453214665E+02  0.00000000000E+00 0.  1.
         22    1    1    2    0    0 -0.28521133249E+02  0.14167313878E+02  0.38439541835E+02  0.49917594101E+02  0.00000000000E+00 0. -1.
<mgrwt>
<rscale>  0 0.74196913E+02</rscale>
<asrwt>0</asrwt>
<pdfrwt beam="1">  1        2 0.10632776E-01 0.98362481E+02</pdfrwt>
<pdfrwt beam="2">  1       -2 0.15806931E-01 0.98362481E+02</pdfrwt>
<totfact> 0.16713149E+04</totfact>
</mgrwt>
</event>
<event>
 6    1  0.1727544E-002  0.9332636E+02  0.7546771E-02  0.1379793E+00
          2   -1    0    0  501    0  0.00000000000E+00  0.00000000000E+00  0.35088544405E+02  0.35088544405E+02  0.00000000000E+00 0. -1.
         -2   -1    0    0    0  501 -0.00000000000E+00 -0.00000000000E+00 -0.10997584277E+03  0.10997584277E+03  0.00000000000E+00 0.  1.
         23    2    1    2    0    0  0.14617315443E+02 -0.15515463551E+02 -0.80248667458E+02  0.12308394590E+03  0.90859306566E+02 0.  0.
         11    1    3    3    0    0  0.35375510756E+02 -0.33787954959E+02 -0.13369902375E+02  0.50712986020E+02  0.00000000000E+00 0. -1.
        -11    1    3    3    0    0 -0.20758195313E+02  0.18272491408E+02 -0.66878765083E+02  0.72370959880E+02  0.00000000000E+00 0.  1.
         22    1    1    2    0    0 -0.14617315443E+02  0.15515463551E+02  0.53613690952E+01  0.21980441272E+02  0.00000000000E+00 0. -1.
<mgrwt>
<rscale>  0 0.64518237E+02</rscale>
<asrwt>0</asrwt>
<pdfrwt beam="1">  1        2 0.53982377E-02 0.93326358E+02</pdfrwt>
<pdfrwt beam="2">  1       -2 0.16919360E-01 0.93326358E+02</pdfrwt>
<totfact> 0.34612840E+04</totfact>
</mgrwt>
</event>
<event>
 6    1  0.1727544E-002  0.9184520E+02  0.7546771E-02  0.1390219E+00
          2   -1    0    0  501    0  0.00000000000E+00  0.00000000000E+00  0.13975794965E+03  0.13975794965E+03  0.00000000000E+00 0. -1.
         -2   -1    0    0    0  501 -0.00000000000E+00 -0.00000000000E+00 -0.50870241633E+02  0.50870241633E+02  0.00000000000E+00 0.  1.
         23    2    1    2    0    0 -0.16555493018E+02 -0.90982743352E+01 -0.77404224019E+01  0.92170796776E+02  0.89881470250E+02 0.  0.
         13    1    3    3    0    0  0.30353614244E+00  0.36062389813E+02  0.14767467476E+02  0.38970067858E+02  0.00000000000E+00 0.  1.
        -13    1    3    3    0    0 -0.16859029161E+02 -0.45160664149E+02 -0.22507889878E+02  0.53200728917E+02  0.00000000000E+00 0. -1.
         22    1    1    2    0    0  0.16555493018E+02  0.90982743352E+01  0.96628130414E+02  0.98457394502E+02  0.00000000000E+00 0. -1.
<mgrwt>
<rscale>  0 0.61852185E+02</rscale>
<asrwt>0</asrwt>
<pdfrwt beam="1">  1        2 0.21501223E-01 0.91845205E+02</pdfrwt>
<pdfrwt beam="2">  1       -2 0.78261911E-02 0.91845205E+02</pdfrwt>
<totfact> 0.22205528E+04</totfact>
</mgrwt>
</event>
<event>
 6    1  0.1727544E-002  0.9146989E+02  0.7546771E-02  0.1379164E+00
         -1   -1    0    0    0  501 -0.00000000000E+00  0.00000000000E+00  0.88984035517E+02  0.88984035517E+02  0.00000000000E+00 0.  1.
          1   -1    0    0  501    0  0.00000000000E+00 -0.00000000000E+00 -0.36735127001E+02  0.36735127001E+02  0.00000000000E+00 0. -1.
         23    2    1    2    0    0 -0.91823087564E+01 -0.20950558791E+02  0.41420003610E+02  0.10041094470E+03  0.88563538820E+02 0.  0.
         11    1    3    3    0    0 -0.28735946460E+02  0.26421052365E+02  0.25964238313E+02  0.46882494582E+02  0.00000000000E+00 0.  1.
        -11    1    3    3    0    0  0.19553637703E+02 -0.47371611156E+02  0.15455765297E+02  0.53528450117E+02  0.00000000000E+00 0. -1.
         22    1    1    2    0    0  0.91823087564E+01  0.20950558791E+02  0.10828904906E+02  0.25308217820E+02  0.00000000000E+00 0. -1.
<mgrwt>
<rscale>  0 0.64683918E+02</rscale>
<asrwt>0</asrwt>
<pdfrwt beam="1">  1        1 0.56515580E-02 0.91469892E+02</pdfrwt>
<pdfrwt beam="2">  1       -1 0.13689852E-01 0.91469892E+02</pdfrwt>
<totfact> 0.45015352E+04</totfact>
</mgrwt>
</event>
<event>
 6    1  0.1727544E-002  0.2235027E+03  0.7546771E-02  0.1134703E+00
          2   -1    0    0  501    0  0.00000000000E+00  0.00000000000E+00  0.21947811650E+03  0.21947811650E+03  0.00000000000E+00 0. -1.
         -2   -1    0    0    0  501 -0.00000000000E+00 -0.00000000000E+00 -0.26875470402E+03  0.26875470402E+03  0.00000000000E+00 0.  1.
         23    2    1    2    0    0 -0.13749106981E+03  0.15295125750E+03  0.88821602440E+02  0.24050516457E+03  0.87496146628E+02 0.  0.
         13    1    3    3    0    0 -0.10058183586E+03  0.15304357639E+03  0.57084540684E+02  0.19182723155E+03  0.00000000000E+00 0. -1.
        -13    1    3    3    0    0 -0.36909233953E+02 -0.92318891527E-01  0.31737061756E+02  0.48677933016E+02  0.00000000000E+00 0.  1.
         22    1    1    2    0    0  0.13749106981E+03 -0.15295125750E+03 -0.13809818996E+03  0.24772765594E+03  0.00000000000E+00 0.  1.
<mgrwt>
<rscale>  0 0.21890310E+03</rscale>
<asrwt>0</asrwt>
<pdfrwt beam="1">  1        2 0.33765864E-01 0.22350270E+03</pdfrwt>
<pdfrwt beam="2">  1       -2 0.41346878E-01 0.22350270E+03</pdfrwt>
<totfact> 0.85905982E+02</totfact>
</mgrwt>
</event>
<event>
 6    1  0.1727544E-002  0.9852484E+02  0.7546771E-02  0.1334915E+00
         -2   -1    0    0    0  501 -0.00000000000E+00  0.00000000000E+00  0.64548762344E+01  0.64548762344E+01  0.00000000000E+00 0.  1.
          2   -1    0    0  501    0  0.00000000000E+00 -0.00000000000E+00 -0.76234627760E+03  0.76234627760E+03  0.00000000000E+00 0. -1.
         23    2    1    2    0    0  0.36911339032E+02 -0.11433668027E+02 -0.60869592967E+03  0.61661809761E+03  0.90630942795E+02 0.  0.
         13    1    3    3    0    0  0.33208976283E+02 -0.15840067176E+02 -0.81835238108E+02  0.89725971882E+02  0.00000000000E+00 0.  1.
        -13    1    3    3    0    0  0.37023627489E+01  0.44063991489E+01 -0.52686069156E+03  0.52689212573E+03  0.00000000000E+00 0. -1.
         22    1    1    2    0    0 -0.36911339032E+02  0.11433668027E+02 -0.14719547170E+03  0.15218305623E+03  0.00000000000E+00 0. -1.
<mgrwt>
<rscale>  0 0.77969214E+02</rscale>
<asrwt>0</asrwt>
<pdfrwt beam="1">  1        2 0.11728406E+00 0.98524837E+02</pdfrwt>
<pdfrwt beam="2">  1       -2 0.99305772E-03 0.98524837E+02</pdfrwt>
<totfact> 0.72574202E+04</totfact>
</mgrwt>
</event>
<event>
 6    1  0.1727544E-002  0.1039021E+03  0.7546771E-02  0.1354474E+00
         -2   -1    0    0    0  501 -0.00000000000E+00  0.00000000000E+00  0.13226084012E+03  0.13226084012E+03  0.00000000000E+00 0.  1.
          2   -1    0    0  501    0  0.00000000000E+00 -0.00000000000E+00 -0.38206309148E+02  0.38206309148E+02  0.00000000000E+00 0. -1.
         23    2    1    2    0    0 -0.23373824240E+02  0.27446872137E+01  0.10202616216E+03  0.14561929480E+03  0.10120164172E+03 0.  0.
         11    1    3    3    0    0 -0.13891102980E+02  0.26486836244E+00  0.12230726833E+03  0.12309386980E+03  0.00000000000E+00 0.  1.
        -11    1    3    3    0    0 -0.94827212607E+01  0.24798188512E+01 -0.20281106168E+02  0.22525425000E+02  0.00000000000E+00 0. -1.
         22    1    1    2    0    0  0.23373824240E+02 -0.27446872137E+01 -0.79716311911E+01  0.24847854462E+02  0.00000000000E+00 0. -1.
<mgrwt>
<rscale>  0 0.71679348E+02</rscale>
<asrwt>0</asrwt>
<pdfrwt beam="1">  1        2 0.58778938E-02 0.10390208E+03</pdfrwt>
<pdfrwt beam="2">  1       -2 0.20347821E-01 0.10390208E+03</pdfrwt>
<totfact> 0.23144201E+04</totfact>
</mgrwt>
</event>
<event>
 6    1  0.1727544E-002  0.1037913E+03  0.7546771E-02  0.1337006E+00
         -2   -1    0    0    0  501 -0.00000000000E+00  0.00000000000E+00  0.74639044590E+02  0.74639044590E+02  0.00000000000E+00 0.  1.
          2   -1    0    0  501    0  0.00000000000E+00 -0.00000000000E+00 -0.65393707738E+02  0.65393707738E+02  0.00000000000E+00 0. -1.
         23    2    1    2    0    0 -0.40333651868E+01  0.31613838760E+02  0.21308474575E+02  0.10595604287E+03  0.98777168901E+02 0.  0.
         11    1    3    3    0    0 -0.44875327963E+02 -0.82735142000E+01  0.19442234910E+01  0.45673034736E+02  0.00000000000E+00 0.  1.
        -11    1    3    3    0    0  0.40841962777E+02  0.39887352960E+02  0.19364251084E+02  0.60283008133E+02  0.00000000000E+00 0. -1.
         22    1    1    2    0    0  0.40333651868E+01 -0.31613838760E+02 -0.12063137722E+02  0.34076709459E+02  0.00000000000E+00 0.  1.
<mgrwt>
<rscale>  0 0.77262101E+02</rscale>
<asrwt>0</asrwt>
<pdfrwt beam="1">  1        2 0.10060570E-01 0.10379129E+03</pdfrwt>
<pdfrwt beam="2">  1       -2 0.11482930E-01 0.10379129E+03</pdfrwt>
<totfact> 0.30023787E+04</totfact>
</mgrwt>
</event>
<event>
 6    1  0.1727544E-002  0.9162186E+02  0.7546771E-02  0.1421558E+00
          2   -1    0    0  501    0  0.00000000000E+00  0.00000000000E+00  0.54091246844E+01  0.54091246844E+01  0.00000000000E+00 0. -1.
         -2   -1    0    0    0  501 -0.00000000000E+00 -0.00000000000E+00 -0.18037593386E+04  0.18037593386E+04  0.00000000000E+00 0.  1.
         23    2    1    2    0    0 -0.11561884982E+02 -0.12912718617E+01 -0.17946113548E+04  0.17969486583E+04  0.90880257505E+02 0.  0.
         11    1    3    3    0    0 -0.47372220746E+02  0.13449743565E+01 -0.62833431366E+03  0.63011899350E+03  0.00000000000E+00 0. -1.
        -11    1    3    3    0    0  0.35810335764E+02 -0.26362462182E+01 -0.11662770411E+04  0.11668296648E+04  0.00000000000E+00 0.  1.
         22    1    1    2    0    0  0.11561884982E+02  0.12912718617E+01 -0.37388591663E+01  0.12219805040E+02  0.00000000000E+00 0. -1.
<mgrwt>
<rscale>  0 0.54692710E+02</rscale>
<asrwt>0</asrwt>
<pdfrwt beam="1">  1        2 0.83217367E-03 0.91621863E+02</pdfrwt>
<pdfrwt beam="2">  1       -2 0.27750122E+00 0.91621863E+02</pdfrwt>
<totfact> 0.88242677E+02</totfact>
</mgrwt>
</event>
<event>
 6    1  0.1727544E-002  0.9073122E+02  0.7546771E-02  0.1424429E+00
         -2   -1    0    0    0  501 -0.00000000000E+00  0.00000000000E+00  0.34094964296E+02  0.34094964296E+02  0.00000000000E+00 0.  1.
          2   -1    0    0  501    0  0.00000000000E+00 -0.00000000000E+00 -0.91145620103E+02  0.91145620103E+02  0.00000000000E+00 0. -1.
         23    2    1    2    0    0 -0.10875838614E+02 -0.36258424636E+01 -0.29510867024E+02  0.95409886028E+02  0.90004024800E+02 0.  0.
         11    1    3    3    0    0 -0.14600040090E+02 -0.37819117361E+02 -0.42415743175E+02  0.58673180225E+02  0.00000000000E+00 0. -1.
        -11    1    3    3    0    0  0.37242014766E+01  0.34193274897E+02  0.12904876151E+02  0.36736705803E+02  0.00000000000E+00 0.  1.
         22    1    1    2    0    0  0.10875838614E+02  0.36258424636E+01 -0.27539788783E+02  0.29830698371E+02  0.00000000000E+00 0.  1.
<mgrwt>
<rscale>  0 0.54094690E+02</rscale>
<asrwt>0</asrwt>
<pdfrwt beam="1">  1        2 0.14022403E-01 0.90731224E+02</pdfrwt>
<pdfrwt beam="2">  1       -2 0.52453793E-02 0.90731224E+02</pdfrwt>
<totfact> 0.65855388E+04</totfact>
</mgrwt>
</event>
<event>
 6    1  0.1727544E-002  0.8944373E+02  0.7546771E-02  0.1429771E+00
         -3   -1    0    0    0  501 -0.00000000000E+00  0.00000000000E+00  0.10943955826E+02  0.10943955826E+02  0.00000000000E+00 0.  1.
          3   -1    0    0  501    0  0.00000000000E+00 -0.00000000000E+00 -0.23861056085E+03  0.23861056085E+03  0.00000000000E+00 0. -1.
         23    2    1    2    0    0  0.97990203949E+01  0.50677922198E+01 -0.18504271645E+03  0.20552612588E+03  0.88760791964E+02 0.  0.
         13    1    3    3    0    0  0.11587206552E+02 -0.31025838050E+02 -0.15509586314E+03  0.15859253686E+03  0.00000000000E+00 0. -1.
        -13    1    3    3    0    0 -0.17881861574E+01  0.36093630270E+02 -0.29946853304E+02  0.46933589023E+02  0.00000000000E+00 0.  1.
         22    1    1    2    0    0 -0.97990203949E+01 -0.50677922198E+01 -0.42623888576E+02  0.44028390795E+02  0.00000000000E+00 0. -1.
<mgrwt>
<rscale>  0 0.53006026E+02</rscale>
<asrwt>0</asrwt>
<pdfrwt beam="1">  1        3 0.36709317E-01 0.89443734E+02</pdfrwt>
<pdfrwt beam="2">  1       -3 0.16836855E-02 0.89443734E+02</pdfrwt>
<totfact> 0.18541516E+04</totfact>
</mgrwt>
</event>
<event>
 6    1  0.1727544E-002  0.9466039E+02  0.7546771E-02  0.1398767E+00
          2   -1    0    0  501    0  0.00000000000E+00  0.00000000000E+00  0.20895293523E+03  0.20895293523E+03  0.00000000000E+00 0. -1.
         -2   -1    0    0    0  501 -0.00000000000E+00 -0.00000000000E+00 -0.18498566870E+02  0.18498566870E+02  0.00000000000E+00 0.  1.
         23    2    1    2    0    0  0.14546773774E+02  0.38744654206E+01  0.10790707613E+03  0.14354276856E+03  0.93455707251E+02 0.  0.
         11    1    3    3    0    0 -0.10179197901E+02  0.45260857141E+02  0.50385191821E+02  0.68489625593E+02  0.00000000000E+00 0.  1.
        -11    1    3    3    0    0  0.24725971675E+02 -0.41386391720E+02  0.57521884309E+02  0.75053142968E+02  0.00000000000E+00 0. -1.
         22    1    1    2    0    0 -0.14546773774E+02 -0.38744654206E+01  0.82547292233E+02  0.83908733542E+02  0.00000000000E+00 0. -1.
<mgrwt>
<rscale>  0 0.59777606E+02</rscale>
<asrwt>0</asrwt>
<pdfrwt beam="1">  1        2 0.32146604E-01 0.94660389E+02</pdfrwt>
<pdfrwt beam="2">  1       -2 0.28459335E-02 0.94660389E+02</pdfrwt>
<totfact> 0.64703841E+04</totfact>
</mgrwt>
</event>
<event>
 6    1  0.1727544E-002  0.9579487E+02  0.7546771E-02  0.1372618E+00
          2   -1    0    0  501    0  0.00000000000E+00  0.00000000000E+00  0.14745984161E+03  0.14745984161E+03  0.00000000000E+00 0. -1.
         -2   -1    0    0    0  501 -0.00000000000E+00 -0.00000000000E+00 -0.23907479971E+02  0.23907479971E+02  0.00000000000E+00 0.  1.
         23    2    1    2    0    0 -0.15690031244E+02 -0.15666658379E+02  0.92117736449E+02  0.13289971279E+03  0.93193535325E+02 0.  0.
         13    1    3    3    0    0 -0.43993171475E+02  0.45511720165E+01  0.87194931347E+02  0.97770488164E+02  0.00000000000E+00 0. -1.
        -13    1    3    3    0    0  0.28303140231E+02 -0.20217830395E+02  0.49228051017E+01  0.35129224627E+02  0.00000000000E+00 0.  1.
         22    1    1    2    0    0  0.15690031244E+02  0.15666658379E+02  0.31434625188E+02  0.38467608788E+02  0.00000000000E+00 0. -1.
<mgrwt>
<rscale>  0 0.66444725E+02</rscale>
<asrwt>0</asrwt>
<pdfrwt beam="1">  1        2 0.22686129E-01 0.95794866E+02</pdfrwt>
<pdfrwt beam="2">  1       -2 0.36780739E-02 0.95794866E+02</pdfrwt>
<totfact> 0.64993971E+04</totfact>
</mgrwt>
</event>
<event>
 6    1  0.1727544E-002  0.9390446E+02  0.7546771E-02  0.1416150E+00
          2   -1    0    0  501    0  0.00000000000E+00  0.00000000000E+00  0.24744873382E+03  0.24744873382E+03  0.00000000000E+00 0. -1.
         -2   -1    0    0    0  501 -0.00000000000E+00 -0.00000000000E+00 -0.11350004061E+02  0.11350004061E+02  0.00000000000E+00 0.  1.
         23    2    1    2    0    0  0.51976378333E+01  0.10532081140E+02  0.20269701259E+03  0.22339231358E+03  0.93167090115E+02 0.  0.
         13    1    3    3    0    0  0.12182874381E+02 -0.40252831377E+02  0.10386544173E+03  0.11205687328E+03  0.00000000000E+00 0. -1.
        -13    1    3    3    0    0 -0.69852365481E+01  0.50784912517E+02  0.98831570856E+02  0.11133544030E+03  0.00000000000E+00 0.  1.
         22    1    1    2    0    0 -0.51976378333E+01 -0.10532081140E+02  0.33401717170E+02  0.35406424305E+02  0.00000000000E+00 0. -1.
<mgrwt>
<rscale>  0 0.55843933E+02</rscale>
<asrwt>0</asrwt>
<pdfrwt beam="1">  1        2 0.38069032E-01 0.93904456E+02</pdfrwt>
<pdfrwt beam="2">  1       -2 0.17461547E-02 0.93904456E+02</pdfrwt>
<totfact> 0.10930928E+05</totfact>
</mgrwt>
</event>
<event>
 6    1  0.1727544E-002  0.9240884E+02  0.7546771E-02  0.1387488E+00
          3   -1    0    0  501    0  0.00000000000E+00  0.00000000000E+00  0.91159478906E+01  0.91159478906E+01  0.00000000000E+00 0. -1.
         -3   -1    0    0    0  501 -0.00000000000E+00 -0.00000000000E+00 -0.34641911192E+03  0.34641911192E+03  0.00000000000E+00 0.  1.
         23    2    1    2    0    0 -0.15813162623E+02  0.11205395252E+02 -0.26368931203E+03  0.27941268333E+03  0.90353623789E+02 0.  0.
         11    1    3    3    0    0 -0.12707973929E+02  0.31050318809E+01  0.22995545117E+01  0.13282385904E+02  0.00000000000E+00 0. -1.
        -11    1    3    3    0    0 -0.31051886935E+01  0.81003633707E+01 -0.26598886654E+03  0.26613029742E+03  0.00000000000E+00 0.  1.
         22    1    1    2    0    0  0.15813162623E+02 -0.11205395252E+02 -0.73613851997E+02  0.76122376478E+02  0.00000000000E+00 0.  1.
<mgrwt>
<rscale>  0 0.62535742E+02</rscale>
<asrwt>0</asrwt>
<pdfrwt beam="1">  1        3 0.14024536E-02 0.92408843E+02</pdfrwt>
<pdfrwt beam="2">  1       -3 0.53295244E-01 0.92408843E+02</pdfrwt>
<totfact> 0.11923128E+04</totfact>
</mgrwt>
</event>
<event>
 6    1  0.1727544E-002  0.9237761E+02  0.7546771E-02  0.1406835E+00
         -2   -1    0    0    0  501 -0.00000000000E+00  0.00000000000E+00  0.20065808732E+03  0.20065808732E+03  0.00000000000E+00 0.  1.
          2   -1    0    0  501    0  0.00000000000E+00 -0.00000000000E+00 -0.15060966568E+02  0.15060966568E+02  0.00000000000E+00 0. -1.
         23    2    1    2    0    0 -0.12757765407E+01  0.14205371711E+02  0.17522313148E+03  0.19808273215E+03  0.91269944546E+02 0.  0.
         11    1    3    3    0    0  0.71421064404E-02  0.13101004503E+02  0.18635900280E+03  0.18681893451E+03  0.00000000000E+00 0.  1.
        -11    1    3    3    0    0 -0.12829186471E+01  0.11043672077E+01 -0.11135871314E+02  0.11263797633E+02  0.00000000000E+00 0. -1.
         22    1    1    2    0    0  0.12757765407E+01 -0.14205371711E+02  0.10373989273E+02  0.17636321744E+02  0.00000000000E+00 0. -1.
<mgrwt>
<rscale>  0 0.57906098E+02</rscale>
<asrwt>0</asrwt>
<pdfrwt beam="1">  1        2 0.23170719E-02 0.92377611E+02</pdfrwt>
<pdfrwt beam="2">  1       -2 0.30870473E-01 0.92377611E+02</pdfrwt>
<totfact> 0.37610362E+04</totfact>
</mgrwt>
</event>
<event>
 6    1  0.1727544E-002  0.9782408E+02  0.7546771E-02  0.1327399E+00
         -2   -1    0    0    0  501 -0.00000000000E+00  0.00000000000E+00  0.13994378028E+03  0.13994378028E+03  0.00000000000E+00 0.  1.
          2   -1    0    0  501    0  0.00000000000E+00 -0.00000000000E+00 -0.36862719642E+02  0.36862719642E+02  0.00000000000E+00 0. -1.
         23    2    1    2    0    0  0.19915675236E+02 -0.40407076746E+02  0.61840699040E+02  0.11573168190E+03  0.86834233845E+02 0.  0.
         13    1    3    3    0    0 -0.33752851585E+01  0.22895589071E+02 -0.15138790557E+01  0.23192506950E+02  0.00000000000E+00 0. -1.
        -13    1    3    3    0    0  0.23290960395E+02 -0.63302665818E+02  0.63354578095E+02  0.92539174955E+02  0.00000000000E+00 0.  1.
         22    1    1    2    0    0 -0.19915675236E+02  0.40407076746E+02  0.41240361601E+02  0.61074818021E+02  0.00000000000E+00 0.  1.
<mgrwt>
<rscale>  0 0.80585029E+02</rscale>
<asrwt>0</asrwt>
<pdfrwt beam="1">  1        2 0.56711877E-02 0.97824078E+02</pdfrwt>
<pdfrwt beam="2">  1       -2 0.21529812E-01 0.97824078E+02</pdfrwt>
<totfact> 0.21865680E+04</totfact>
</mgrwt>
</event>
<event>
 6    1  0.1727544E-002  0.9338090E+02  0.7546771E-02  0.1427179E+00
          1   -1    0    0  501    0  0.00000000000E+00  0.00000000000E+00  0.60837617805E+02  0.60837617805E+02  0.00000000000E+00 0. -1.
         -1   -1    0    0    0  501 -0.00000000000E+00 -0.00000000000E+00 -0.71982142321E+02  0.71982142321E+02  0.00000000000E+00 0.  1.
         23    2    1    2    0    0 -0.10072951114E+02 -0.47095393479E+00 -0.40496510333E+02  0.10178389034E+03  0.92834836363E+02 0.  0.
         11    1    3    3    0    0  0.74276956314E+01  0.28136681908E+02  0.18099279901E+02  0.34269920691E+02  0.00000000000E+00 0. -1.
        -11    1    3    3    0    0 -0.17500646746E+02 -0.28607635843E+02 -0.58595790234E+02  0.67513969652E+02  0.00000000000E+00 0.  1.
         22    1    1    2    0    0  0.10072951114E+02  0.47095393479E+00  0.29351985818E+02  0.31035869783E+02  0.00000000000E+00 0. -1.
<mgrwt>
<rscale>  0 0.53530497E+02</rscale>
<asrwt>0</asrwt>
<pdfrwt beam="1">  1        1 0.93596335E-02 0.93380903E+02</pdfrwt>
<pdfrwt beam="2">  1       -1 0.11074176E-01 0.93380903E+02</pdfrwt>
<totfact> 0.31900444E+04</totfact>
</mgrwt>
</event>
<event>
 6    1  0.1727544E-002  0.9364666E+02  0.7546771E-02  0.1361760E+00
          2   -1    0    0  501    0  0.00000000000E+00  0.00000000000E+00  0.37771907519E+03  0.37771907519E+03  0.00000000000E+00 0. -1.
         -2   -1    0    0    0  501 -0.00000000000E+00 -0.00000000000E+00 -0.10339066984E+02  0.10339066984E+02  0.00000000000E+00 0.  1.
         23    2    1    2    0    0  0.28311049809E+02 -0.25882625576E+01  0.24181052901E+03  0.25931068104E+03  0.89227141129E+02 0.  0.
         13    1    3    3    0    0 -0.15085064012E+02 -0.26284733199E+02  0.33334419760E+02  0.45051413922E+02  0.00000000000E+00 0.  1.
        -13    1    3    3    0    0  0.43396113821E+02  0.23696470642E+02  0.20847610925E+03  0.21425926711E+03  0.00000000000E+00 0. -1.
         22    1    1    2    0    0 -0.28311049809E+02  0.25882625576E+01  0.12556947919E+03  0.12874746113E+03  0.00000000000E+00 0.  1.
<mgrwt>
<rscale>  0 0.69512045E+02</rscale>
<asrwt>0</asrwt>
<pdfrwt beam="1">  1        2 0.58110616E-01 0.93646662E+02</pdfrwt>
<pdfrwt beam="2">  1       -2 0.15906260E-02 0.93646662E+02</pdfrwt>
<totfact> 0.80164435E+04</totfact>
</mgrwt>
</event>
<event>
 6    1  0.1727544E-002  0.9068895E+02  0.7546771E-02  0.1419808E+00
         -1   -1    0    0    0  501 -0.00000000000E+00  0.00000000000E+00  0.16503826028E+02  0.16503826028E+02  0.00000000000E+00 0.  1.
          1   -1    0    0  501    0  0.00000000000E+00 -0.00000000000E+00 -0.16107967083E+03  0.16107967083E+03  0.00000000000E+00 0. -1.
         23    2    1    2    0    0 -0.12012480853E+02  0.27505834879E+01 -0.12452932192E+03  0.15405206075E+03  0.89847760111E+02 0.  0.
         11    1    3    3    0    0  0.13902094044E+02  0.41136423138E+02 -0.71427425860E+02  0.83590374400E+02  0.00000000000E+00 0.  1.
        -11    1    3    3    0    0 -0.25914574897E+02 -0.38385839650E+02 -0.53101896061E+02  0.70461686349E+02  0.00000000000E+00 0. -1.
         22    1    1    2    0    0  0.12012480853E+02 -0.27505834879E+01 -0.20046522879E+02  0.23531436108E+02  0.00000000000E+00 0. -1.
<mgrwt>
<rscale>  0 0.55061512E+02</rscale>
<asrwt>0</asrwt>
<pdfrwt beam="1">  1        1 0.24781486E-01 0.90688949E+02</pdfrwt>
<pdfrwt beam="2">  1       -1 0.25390504E-02 0.90688949E+02</pdfrwt>
<totfact> 0.79829772E+04</totfact>
</mgrwt>
</event>
<event>
 6    1  0.1727544E-002  0.9401990E+02  0.7546771E-02  0.1420695E+00
         -3   -1    0    0    0  501 -0.00000000000E+00  0.00000000000E+00  0.63283556879E+02  0.63283556879E+02  0.00000000000E+00 0.  1.
          3   -1    0    0  501    0  0.00000000000E+00 -0.00000000000E+00 -0.44997054058E+02  0.44997054058E+02  0.00000000000E+00 0. -1.
         23    2    1    2    0    0 -0.59983709287E+00  0.10893250046E+02  0.99392016331E+01  0.94543794049E+02  0.93384787643E+02 0.  0.
         11    1    3    3    0    0 -0.22526943993E+02 -0.35874410653E+02  0.39337355982E+01  0.42543046684E+02  0.00000000000E+00 0. -1.
        -11    1    3    3    0    0  0.21927106901E+02  0.46767660699E+02  0.60054660350E+01  0.52000747366E+02  0.00000000000E+00 0.  1.
         22    1    1    2    0    0  0.59983709287E+00 -0.10893250046E+02  0.83473011871E+01  0.13736816888E+02  0.00000000000E+00 0.  1.
<mgrwt>
<rscale>  0 0.54874245E+02</rscale>
<asrwt>0</asrwt>
<pdfrwt beam="1">  1        3 0.69226237E-02 0.94019898E+02</pdfrwt>
<pdfrwt beam="2">  1       -3 0.97359319E-02 0.94019898E+02</pdfrwt>
<totfact> 0.21411082E+04</totfact>
</mgrwt>
</event>
<event>
 6    1  0.1727544E-002  0.9142194E+02  0.7546771E-02  0.1403150E+00
          3   -1    0    0  501    0  0.00000000000E+00  0.00000000000E+00  0.10839552054E+03  0.10839552054E+03  0.00000000000E+00 0. -1.
         -3   -1    0    0    0  501 -0.00000000000E+00 -0.00000000000E+00 -0.33219674988E+02  0.33219674988E+02  0.00000000000E+00 0.  1.
         23    2    1    2    0    0 -0.14989735587E+02 -0.42924392349E+01  0.33920893865E+02  0.97512040921E+02  0.90082483738E+02 0.  0.
         11    1    3    3    0    0  0.32650986956E+01 -0.12450355844E+02 -0.28872771333E+02  0.31611851489E+02  0.00000000000E+00 0.  1.
        -11    1    3    3    0    0 -0.18254834282E+02  0.81579166087E+01  0.62793665198E+02  0.65900189431E+02  0.00000000000E+00 0. -1.
         22    1    1    2    0    0  0.14989735587E+02  0.42924392349E+01  0.41254951691E+02  0.44103154610E+02  0.00000000000E+00 0. -1.
<mgrwt>
<rscale>  0 0.58750936E+02</rscale>
<asrwt>0</asrwt>
<pdfrwt beam="1">  1        3 0.16676234E-01 0.91421940E+02</pdfrwt>
<pdfrwt beam="2">  1       -3 0.51107193E-02 0.91421940E+02</pdfrwt>
<totfact> 0.13983186E+04</totfact>
</mgrwt>
</event>
<event>
 6    1  0.1727544E-002  0.1236479E+03  0.7546771E-02  0.1255135E+00
         -2   -1    0    0    0  501 -0.00000000000E+00  0.00000000000E+00  0.17626332135E+03  0.17626332135E+03  0.00000000000E+00 0. -1.
          2   -1    0    0  501    0  0.00000000000E+00 -0.00000000000E+00 -0.62527779475E+02  0.62527779475E+02  0.00000000000E+00 0.  1.
         23    2    1    2    0    0 -0.45024678678E+02  0.73520576640E+02  0.63279323335E+02  0.13889952526E+03  0.88635819371E+02 0.  0.
         13    1    3    3    0    0 -0.63911926540E+02  0.81086044565E+02  0.51291313232E+02  0.11528434321E+03  0.00000000000E+00 0. -1.
        -13    1    3    3    0    0  0.18887247862E+02 -0.75654679249E+01  0.11988010103E+02  0.23615182044E+02  0.00000000000E+00 0.  1.
         22    1    1    2    0    0  0.45024678678E+02 -0.73520576640E+02  0.50456218538E+02  0.99891575564E+02  0.00000000000E+00 0.  1.
<mgrwt>
<rscale>  0 0.11298790E+03</rscale>
<asrwt>0</asrwt>
<pdfrwt beam="1">  1        2 0.96196584E-02 0.12364791E+03</pdfrwt>
<pdfrwt beam="2">  1       -2 0.27117434E-01 0.12364791E+03</pdfrwt>
<totfact> 0.77349488E+03</totfact>
</mgrwt>
</event>
<event>
 6    1  0.1727544E-002  0.9699072E+02  0.7546771E-02  0.1393333E+00
         -2   -1    0    0    0  501 -0.00000000000E+00  0.00000000000E+00  0.57386054207E+02  0.57386054207E+02  0.00000000000E+00 0.  1.
          2   -1    0    0  501    0  0.00000000000E+00 -0.00000000000E+00 -0.57453344123E+02  0.57453344123E+02  0.00000000000E+00 0. -1.
         23    2    1    2    0    0 -0.40815118199E+01  0.14704105472E+02 -0.85731510276E+01  0.97368876594E+02  0.95782721584E+02 0.  0.
         11    1    3    3    0    0 -0.11774177366E+02  0.54639440291E+02 -0.44673871748E+00  0.55895431508E+02  0.00000000000E+00 0.  1.
        -11    1    3    3    0    0  0.76926655460E+01 -0.39935334819E+02 -0.81264123102E+01  0.41473445086E+02  0.00000000000E+00 0. -1.
         22    1    1    2    0    0  0.40815118199E+01 -0.14704105472E+02  0.85058611114E+01  0.17470521736E+02  0.00000000000E+00 0. -1.
<mgrwt>
<rscale>  0 0.61085298E+02</rscale>
<asrwt>0</asrwt>
<pdfrwt beam="1">  1        2 0.88389760E-02 0.96990717E+02</pdfrwt>
<pdfrwt beam="2">  1       -2 0.88286237E-02 0.96990717E+02</pdfrwt>
<totfact> 0.52547231E+04</totfact>
</mgrwt>
</event>
<event>
 6    1  0.1727544E-002  0.1008400E+03  0.7546771E-02  0.1373183E+00
         -2   -1    0    0    0  501 -0.00000000000E+00  0.00000000000E+00  0.34872964054E+02  0.34872964054E+02  0.00000000000E+00 0.  1.
          2   -1    0    0  501    0  0.00000000000E+00 -0.00000000000E+00 -0.18639791202E+03  0.18639791202E+03  0.00000000000E+00 0. -1.
         23    2    1    2    0    0  0.24965708770E+00 -0.18830325304E+02 -0.40514518883E+02  0.10867443366E+03  0.99065951825E+02 0.  0.
         13    1    3    3    0    0 -0.19572363223E+02  0.15241997440E+02  0.23060814952E+02  0.33870297819E+02  0.00000000000E+00 0.  1.
        -13    1    3    3    0    0  0.19822020311E+02 -0.34072322744E+02 -0.63575333835E+02  0.74804135839E+02  0.00000000000E+00 0. -1.
         22    1    1    2    0    0 -0.24965708770E+00  0.18830325304E+02 -0.11101042908E+03  0.11259644242E+03  0.00000000000E+00 0. -1.
<mgrwt>
<rscale>  0 0.66290094E+02</rscale>
<asrwt>0</asrwt>
<pdfrwt beam="1">  1        2 0.28676602E-01 0.10084000E+03</pdfrwt>
<pdfrwt beam="2">  1       -2 0.53650713E-02 0.10084000E+03</pdfrwt>
<totfact> 0.28976337E+04</totfact>
</mgrwt>
</event>
<event>
 6    1  0.1727544E-002  0.9108417E+02  0.7546771E-02  0.1407587E+00
         -1   -1    0    0    0  501 -0.00000000000E+00  0.00000000000E+00  0.14840462359E+03  0.14840462359E+03  0.00000000000E+00 0.  1.
          1   -1    0    0  501    0  0.00000000000E+00 -0.00000000000E+00 -0.22520652599E+02  0.22520652599E+02  0.00000000000E+00 0. -1.
         23    2    1    2    0    0 -0.45107308968E+01 -0.13995518113E+02  0.12687838583E+03  0.15618722742E+03  0.89889398697E+02 0.  0.
         13    1    3    3    0    0 -0.12404459403E+02 -0.14971406406E+02 -0.80365381650E+01  0.21038050493E+02  0.00000000000E+00 0. -1.
        -13    1    3    3    0    0  0.78937285062E+01  0.97588829294E+00  0.13491492400E+03  0.13514917693E+03  0.00000000000E+00 0.  1.
         22    1    1    2    0    0  0.45107308968E+01  0.13995518113E+02 -0.99441484431E+00  0.14738048763E+02  0.00000000000E+00 0.  1.
<mgrwt>
<rscale>  0 0.57735702E+02</rscale>
<asrwt>0</asrwt>
<pdfrwt beam="1">  1        1 0.34647159E-02 0.91084166E+02</pdfrwt>
<pdfrwt beam="2">  1       -1 0.22831480E-01 0.91084166E+02</pdfrwt>
<totfact> 0.39074905E+04</totfact>
</mgrwt>
</event>
<event>
 6    1  0.1727544E-002  0.9392190E+02  0.7546771E-02  0.1382686E+00
          3   -1    0    0  501    0  0.00000000000E+00  0.00000000000E+00  0.17982561585E+03  0.17982561585E+03  0.00000000000E+00 0. -1.
         -3   -1    0    0    0  501 -0.00000000000E+00 -0.00000000000E+00 -0.21553249344E+02  0.21553249344E+02  0.00000000000E+00 0.  1.
         23    2    1    2    0    0 -0.19763706050E+02  0.27298585099E+01  0.89373050434E+02  0.12964901116E+03  0.91778362083E+02 0.  0.
         13    1    3    3    0    0  0.20692495649E+02 -0.25746272232E+02  0.68313512431E+02  0.75880075716E+02  0.00000000000E+00 0. -1.
        -13    1    3    3    0    0 -0.40456201699E+02  0.28476130742E+02  0.21059538003E+02  0.53768935444E+02  0.00000000000E+00 0.  1.
         22    1    1    2    0    0  0.19763706050E+02 -0.27298585099E+01  0.68899316069E+02  0.71729854030E+02  0.00000000000E+00 0. -1.
<mgrwt>
<rscale>  0 0.63762922E+02</rscale>
<asrwt>0</asrwt>
<pdfrwt beam="1">  1        3 0.27665478E-01 0.93921903E+02</pdfrwt>
<pdfrwt beam="2">  1       -3 0.33158846E-02 0.93921903E+02</pdfrwt>
<totfact> 0.11307041E+04</totfact>
</mgrwt>
</event>
<event>
 6    1  0.1727544E-002  0.8910794E+02  0.7546771E-02  0.1404394E+00
          4   -1    0    0  501    0  0.00000000000E+00  0.00000000000E+00  0.35402920051E+02  0.35402920051E+02  0.00000000000E+00 0. -1.
         -4   -1    0    0    0  501 -0.00000000000E+00 -0.00000000000E+00 -0.11991501681E+03  0.11991501681E+03  0.00000000000E+00 0.  1.
         23    2    1    2    0    0 -0.98237063524E+01  0.13271656973E+02 -0.99110309903E+02  0.13327820200E+03  0.87564738992E+02 0.  0.
         11    1    3    3    0    0  0.95293378993E+00  0.38650102019E+02 -0.99069670960E+01  0.39910981771E+02  0.00000000000E+00 0. -1.
        -11    1    3    3    0    0 -0.10776640142E+02 -0.25378445046E+02 -0.89203342807E+02  0.93367220231E+02  0.00000000000E+00 0.  1.
         22    1    1    2    0    0  0.98237063524E+01 -0.13271656973E+02  0.14598213148E+02  0.22039734854E+02  0.00000000000E+00 0. -1.
<mgrwt>
<rscale>  0 0.58463718E+02</rscale>
<asrwt>0</asrwt>
<pdfrwt beam="1">  1        4 0.54466031E-02 0.89107944E+02</pdfrwt>
<pdfrwt beam="2">  1       -4 0.18448464E-01 0.89107944E+02</pdfrwt>
<totfact> 0.78640563E+03</totfact>
</mgrwt>
</event>
<event>
 6    1  0.1727544E-002  0.8923168E+02  0.7546771E-02  0.1419873E+00
          4   -1    0    0  501    0  0.00000000000E+00  0.00000000000E+00  0.66705792574E+01  0.66705792574E+01  0.00000000000E+00 0. -1.
         -4   -1    0    0    0  501 -0.00000000000E+00 -0.00000000000E+00 -0.93751846536E+03  0.93751846536E+03  0.00000000000E+00 0.  1.
         23    2    1    2    0    0 -0.76484815755E+01 -0.10418121858E+02 -0.92614811852E+03  0.93043679576E+03  0.88290752211E+02 0.  0.
         13    1    3    3    0    0 -0.46848931852E+02 -0.11696584534E+02 -0.41869199801E+03  0.42146722495E+03  0.00000000000E+00 0. -1.
        -13    1    3    3    0    0  0.39200450277E+02  0.12784626766E+01 -0.50745612051E+03  0.50896957081E+03  0.00000000000E+00 0.  1.
         22    1    1    2    0    0  0.76484815755E+01  0.10418121858E+02 -0.46997675854E+01  0.13752248864E+02  0.00000000000E+00 0. -1.
<mgrwt>
<rscale>  0 0.55047899E+02</rscale>
<asrwt>0</asrwt>
<pdfrwt beam="1">  1        4 0.10262437E-02 0.89231684E+02</pdfrwt>
<pdfrwt beam="2">  1       -4 0.14423351E+00 0.89231684E+02</pdfrwt>
<totfact> 0.14920480E+03</totfact>
</mgrwt>
</event>
<event>
 6    1  0.1727544E-002  0.9340323E+02  0.7546771E-02  0.1393542E+00
         -2   -1    0    0    0  501 -0.00000000000E+00  0.00000000000E+00  0.52859355696E+03  0.52859355696E+03  0.00000000000E+00 0.  1.
          2   -1    0    0  501    0  0.00000000000E+00 -0.00000000000E+00 -0.63914475575E+01  0.63914475575E+01  0.00000000000E+00 0. -1.
         23    2    1    2    0    0  0.10527130622E+02 -0.13386369319E+02  0.48704646408E+03  0.49592178959E+03  0.91837616758E+02 0.  0.
         11    1    3    3    0    0 -0.13756702001E+02  0.28581270421E+02  0.80978751091E+02  0.86969500384E+02  0.00000000000E+00 0. -1.
        -11    1    3    3    0    0  0.24283832624E+02 -0.41967639739E+02  0.40606771299E+03  0.40895228920E+03  0.00000000000E+00 0.  1.
         22    1    1    2    0    0 -0.10527130622E+02  0.13386369319E+02  0.35155645325E+02  0.39063214933E+02  0.00000000000E+00 0. -1.
<mgrwt>
<rscale>  0 0.61034311E+02</rscale>
<asrwt>0</asrwt>
<pdfrwt beam="1">  1        2 0.98330004E-03 0.93403229E+02</pdfrwt>
<pdfrwt beam="2">  1       -2 0.81322051E-01 0.93403229E+02</pdfrwt>
<totfact> 0.17888205E+04</totfact>
</mgrwt>
</event>
<event>
 6    1  0.1727544E-002  0.9128188E+02  0.7546771E-02  0.1426222E+00
         -2   -1    0    0    0  501 -0.00000000000E+00  0.00000000000E+00  0.85043412235E+02  0.85043412235E+02  0.00000000000E+00 0.  1.
          2   -1    0    0  501    0  0.00000000000E+00 -0.00000000000E+00 -0.31194248509E+02  0.31194248509E+02  0.00000000000E+00 0. -1.
         23    2    1    2    0    0 -0.97071394603E+01  0.50758866131E+01  0.52219374431E+02  0.10516294203E+03  0.90622227568E+02 0.  0.
         11    1    3    3    0    0 -0.39116690229E+02 -0.15080276475E+02  0.55279201846E+02  0.69378097046E+02  0.00000000000E+00 0.  1.
        -11    1    3    3    0    0  0.29409550768E+02  0.20156163088E+02 -0.30598274153E+01  0.35784844986E+02  0.00000000000E+00 0. -1.
         22    1    1    2    0    0  0.97071394603E+01 -0.50758866131E+01  0.16297892948E+01  0.11074718712E+02  0.00000000000E+00 0. -1.
<mgrwt>
<rscale>  0 0.53725813E+02</rscale>
<asrwt>0</asrwt>
<pdfrwt beam="1">  1        2 0.47991152E-02 0.91281878E+02</pdfrwt>
<pdfrwt beam="2">  1       -2 0.13083602E-01 0.91281878E+02</pdfrwt>
<totfact> 0.60858177E+04</totfact>
</mgrwt>
</event>
<event>
 6    1  0.1727544E-002  0.9855561E+02  0.7546771E-02  0.1388254E+00
         -2   -1    0    0    0  501 -0.00000000000E+00  0.00000000000E+00  0.14036660191E+02  0.14036660191E+02  0.00000000000E+00 0.  1.
          2   -1    0    0  501    0  0.00000000000E+00 -0.00000000000E+00 -0.24702763124E+03  0.24702763124E+03  0.00000000000E+00 0. -1.
         23    2    1    2    0    0 -0.14094929521E+02 -0.70952281553E+01 -0.17372782593E+03  0.19973624181E+03  0.97284117354E+02 0.  0.
         11    1    3    3    0    0 -0.41076982131E+02  0.28893648658E+02 -0.65529872178E+02  0.82561041305E+02  0.00000000000E+00 0.  1.
        -11    1    3    3    0    0  0.26982052610E+02 -0.35988876813E+02 -0.10819795375E+03  0.11717520050E+03  0.00000000000E+00 0. -1.
         22    1    1    2    0    0  0.14094929521E+02  0.70952281553E+01 -0.59263145125E+02  0.61328049626E+02  0.00000000000E+00 0. -1.
<mgrwt>
<rscale>  0 0.62343039E+02</rscale>
<asrwt>0</asrwt>
<pdfrwt beam="1">  1        2 0.38004251E-01 0.98555613E+02</pdfrwt>
<pdfrwt beam="2">  1       -2 0.21594862E-02 0.98555613E+02</pdfrwt>
<totfact> 0.81259469E+04</totfact>
</mgrwt>
</event>
<event>
 6    1  0.1727544E-002  0.9725918E+02  0.7546771E-02  0.1324523E+00
          2   -1    0    0  501    0  0.00000000000E+00  0.00000000000E+00  0.47342622782E+02  0.47342622782E+02  0.00000000000E+00 0. -1.
         -2   -1    0    0    0  501 -0.00000000000E+00 -0.00000000000E+00 -0.11477651051E+03  0.11477651051E+03  0.00000000000E+00 0.  1.
         23    2    1    2    0    0  0.22726323085E+02  0.42542941609E+02 -0.32430354144E+02  0.10252353777E+03  0.84456854582E+02 0.  0.
         11    1    3    3    0    0 -0.87496649637E+00  0.44538274656E+02  0.17024665905E+02  0.47689230702E+02  0.00000000000E+00 0. -1.
        -11    1    3    3    0    0  0.23601289582E+02 -0.19953330471E+01 -0.49455020050E+02  0.54834307071E+02  0.00000000000E+00 0.  1.
         22    1    1    2    0    0 -0.22726323085E+02 -0.42542941609E+02 -0.35003533580E+02  0.59595595516E+02  0.00000000000E+00 0.  1.
<mgrwt>
<rscale>  0 0.81617485E+02</rscale>
<asrwt>0</asrwt>
<pdfrwt beam="1">  1        2 0.72834805E-02 0.97259179E+02</pdfrwt>
<pdfrwt beam="2">  1       -2 0.17657925E-01 0.97259179E+02</pdfrwt>
<totfact> 0.22173119E+04</totfact>
</mgrwt>
</event>
<event>
 6    1  0.1727544E-002  0.9706729E+02  0.7546771E-02  0.1357946E+00
          2   -1    0    0  501    0  0.00000000000E+00  0.00000000000E+00  0.36599685121E+03  0.36599685121E+03  0.00000000000E+00 0. -1.
         -2   -1    0    0    0  501 -0.00000000000E+00 -0.00000000000E+00 -0.11332807502E+02  0.11332807502E+02  0.00000000000E+00 0.  1.
         23    2    1    2    0    0 -0.24531057368E+02  0.11793373332E+02  0.22849403000E+03  0.24825708692E+03  0.93172973712E+02 0.  0.
         13    1    3    3    0    0 -0.49425930105E+02 -0.22802085282E+02  0.12608665523E+03  0.13733427208E+03  0.00000000000E+00 0. -1.
        -13    1    3    3    0    0  0.24894872737E+02  0.34595458614E+02  0.10240737477E+03  0.11092281485E+03  0.00000000000E+00 0.  1.
         22    1    1    2    0    0  0.24531057368E+02 -0.11793373332E+02  0.12617001370E+03  0.12907257179E+03  0.00000000000E+00 0. -1.
<mgrwt>
<rscale>  0 0.70635244E+02</rscale>
<asrwt>0</asrwt>
<pdfrwt beam="1">  1        2 0.56307199E-01 0.97067293E+02</pdfrwt>
<pdfrwt beam="2">  1       -2 0.17435091E-02 0.97067293E+02</pdfrwt>
<totfact> 0.73020831E+04</totfact>
</mgrwt>
</event>
<event>
 6    1  0.1727544E-002  0.9271937E+02  0.7546771E-02  0.1379604E+00
          2   -1    0    0  501    0  0.00000000000E+00  0.00000000000E+00  0.47255039297E+02  0.47255039297E+02  0.00000000000E+00 0. -1.
         -2   -1    0    0    0  501 -0.00000000000E+00 -0.00000000000E+00 -0.71160060251E+02  0.71160060251E+02  0.00000000000E+00 0.  1.
         23    2    1    2    0    0  0.20863190701E+02 -0.63392618108E+01 -0.26561333681E+02  0.96448876299E+02  0.90118934337E+02 0.  0.
         11    1    3    3    0    0  0.29757615361E+02 -0.43190704945E+02 -0.46324011964E+01  0.52653696987E+02  0.00000000000E+00 0. -1.
        -11    1    3    3    0    0 -0.88944246600E+01  0.36851443134E+02 -0.21928932484E+02  0.43795179312E+02  0.00000000000E+00 0.  1.
         22    1    1    2    0    0 -0.20863190701E+02  0.63392618108E+01  0.26563127270E+01  0.21966223249E+02  0.00000000000E+00 0.  1.
<mgrwt>
<rscale>  0 0.64567947E+02</rscale>
<asrwt>0</asrwt>
<pdfrwt beam="1">  1        2 0.72700060E-02 0.92719368E+02</pdfrwt>
<pdfrwt beam="2">  1       -2 0.10947702E-01 0.92719368E+02</pdfrwt>
<totfact> 0.47635187E+04</totfact>
</mgrwt>
</event>
<event>
 6    1  0.1727544E-002  0.9261746E+02  0.7546771E-02  0.1406338E+00
         -2   -1    0    0    0  501 -0.00000000000E+00  0.00000000000E+00  0.26852355303E+02  0.26852355303E+02  0.00000000000E+00 0.  1.
          2   -1    0    0  501    0  0.00000000000E+00 -0.00000000000E+00 -0.13109655316E+03  0.13109655316E+03  0.00000000000E+00 0. -1.
         23    2    1    2    0    0  0.60608673614E+01 -0.12910912386E+02 -0.57354982119E+02  0.10893845729E+03  0.91512664319E+02 0.  0.
         11    1    3    3    0    0 -0.19386582711E+01 -0.21848184666E+02 -0.80195020048E+02  0.83140500417E+02  0.00000000000E+00 0. -1.
        -11    1    3    3    0    0  0.79995256325E+01  0.89372722800E+01  0.22840037929E+02  0.25797956872E+02  0.00000000000E+00 0.  1.
         22    1    1    2    0    0 -0.60608673614E+01  0.12910912386E+02 -0.46889215741E+02  0.49010451178E+02  0.00000000000E+00 0. -1.
<mgrwt>
<rscale>  0 0.58019020E+02</rscale>
<asrwt>0</asrwt>
<pdfrwt beam="1">  1        2 0.20168701E-01 0.92617458E+02</pdfrwt>
<pdfrwt beam="2">  1       -2 0.41311315E-02 0.92617458E+02</pdfrwt>
<totfact> 0.62135399E+04</totfact>
</mgrwt>
</event>
<event>
 6    1  0.1727544E-002  0.9334478E+02  0.7546771E-02  0.1357450E+00
          2   -1    0    0  501    0  0.00000000000E+00  0.00000000000E+00  0.38686869271E+02  0.38686869271E+02  0.00000000000E+00 0.  1.
         -2   -1    0    0    0  501 -0.00000000000E+00 -0.00000000000E+00 -0.10128167883E+03  0.10128167883E+03  0.00000000000E+00 0. -1.
         23    2    1    2    0    0  0.16898839081E+02  0.25826529855E+02 -0.54381364016E+02  0.10803046591E+03  0.88094655942E+02 0.  0.
         13    1    3    3    0    0 -0.22263131979E+02  0.33546627815E+02 -0.54937024801E+02  0.68110938748E+02  0.00000000000E+00 0.  1.
        -13    1    3    3    0    0  0.39161971060E+02 -0.77200979597E+01  0.55566078497E+00  0.39919527160E+02  0.00000000000E+00 0. -1.
         22    1    1    2    0    0 -0.16898839081E+02 -0.25826529855E+02 -0.82134455465E+01  0.31938082196E+02  0.00000000000E+00 0. -1.
<mgrwt>
<rscale>  0 0.70783209E+02</rscale>
<asrwt>0</asrwt>
<pdfrwt beam="1">  1        2 0.59518262E-02 0.93344785E+02</pdfrwt>
<pdfrwt beam="2">  1       -2 0.15581796E-01 0.93344785E+02</pdfrwt>
<totfact> 0.34950780E+04</totfact>
</mgrwt>
</event>
<event>
 6    1  0.1727544E-002  0.9591203E+02  0.7546771E-02  0.1392005E+00
          4   -1    0    0  501    0  0.00000000000E+00  0.00000000000E+00  0.55959618545E+02  0.55959618545E+02  0.00000000000E+00 0. -1.
         -4   -1    0    0    0  501 -0.00000000000E+00 -0.00000000000E+00 -0.82866981539E+02  0.82866981539E+02  0.00000000000E+00 0.  1.
         23    2    1    2    0    0  0.18220501187E+01 -0.16016409135E+02 -0.51924806624E+02  0.10906559012E+03  0.94547724337E+02 0.  0.
         13    1    3    3    0    0  0.47864361545E+02 -0.35272289434E+01 -0.29661908516E+02  0.56420450787E+02  0.00000000000E+00 0.  1.
        -13    1    3    3    0    0 -0.46042311427E+02 -0.12489180192E+02 -0.22262898108E+02  0.52645139334E+02  0.00000000000E+00 0. -1.
         22    1    1    2    0    0 -0.18220501187E+01  0.16016409135E+02  0.25017443630E+02  0.29761009963E+02  0.00000000000E+00 0. -1.
<mgrwt>
<rscale>  0 0.61410715E+02</rscale>
<asrwt>0</asrwt>
<pdfrwt beam="1">  1        4 0.86091721E-02 0.95912030E+02</pdfrwt>
<pdfrwt beam="2">  1       -4 0.12748766E-01 0.95912030E+02</pdfrwt>
<totfact> 0.72475277E+03</totfact>
</mgrwt>
</event>
<event>
 6    1  0.1727544E-002  0.8563257E+02  0.7546771E-02  0.1436991E+00
         -2   -1    0    0    0  501 -0.00000000000E+00  0.00000000000E+00  0.17110748020E+03  0.17110748020E+03  0.00000000000E+00 0.  1.
          2   -1    0    0  501    0  0.00000000000E+00 -0.00000000000E+00 -0.16228575683E+02  0.16228575683E+02  0.00000000000E+00 0. -1.
         23    2    1    2    0    0 -0.83218665848E+01 -0.76058256204E+01  0.15377204561E+03  0.17600789701E+03  0.84887194271E+02 0.  0.
         11    1    3    3    0    0  0.59876977921E+00 -0.45435386099E+02  0.98077741216E+02  0.10809244265E+03  0.00000000000E+00 0.  1.
        -11    1    3    3    0    0 -0.89206363640E+01  0.37829560479E+02  0.55694304396E+02  0.67915454363E+02  0.00000000000E+00 0. -1.
         22    1    1    2    0    0  0.83218665848E+01  0.76058256204E+01  0.11068589039E+01  0.11328158873E+02  0.00000000000E+00 0. -1.
<mgrwt>
<rscale>  0 0.51582017E+02</rscale>
<asrwt>0</asrwt>
<pdfrwt beam="1">  1        2 0.24967041E-02 0.85632574E+02</pdfrwt>
<pdfrwt beam="2">  1       -2 0.26324227E-01 0.85632574E+02</pdfrwt>
<totfact> 0.44587198E+04</totfact>
</mgrwt>
</event>
<event>
 6    1  0.1727544E-002  0.8529249E+02  0.7546771E-02  0.1388228E+00
         -2   -1    0    0    0  501 -0.00000000000E+00  0.00000000000E+00  0.92490840876E+02  0.92490840876E+02  0.00000000000E+00 0.  1.
          2   -1    0    0  501    0  0.00000000000E+00 -0.00000000000E+00 -0.45425487818E+02  0.45425487818E+02  0.00000000000E+00 0. -1.
         23    2    1    2    0    0  0.12310707455E+02 -0.21015526580E+02  0.65359277312E+02  0.10745531197E+03  0.81741073297E+02 0.  0.
         13    1    3    3    0    0  0.39360598308E+01  0.24232450568E+02  0.55081781597E+02  0.60305114969E+02  0.00000000000E+00 0. -1.
        -13    1    3    3    0    0  0.83746476240E+01 -0.45247977147E+02  0.10277495715E+02  0.47150196998E+02  0.00000000000E+00 0.  1.
         22    1    1    2    0    0 -0.12310707455E+02  0.21015526580E+02 -0.18293924254E+02  0.30461016727E+02  0.00000000000E+00 0. -1.
<mgrwt>
<rscale>  0 0.62349615E+02</rscale>
<asrwt>0</asrwt>
<pdfrwt beam="1">  1        2 0.69885366E-02 0.85292491E+02</pdfrwt>
<pdfrwt beam="2">  1       -2 0.14229360E-01 0.85292491E+02</pdfrwt>
<totfact> 0.32644744E+04</totfact>
</mgrwt>
</event>
<event>
 6    1  0.1727544E-002  0.9516393E+02  0.7546771E-02  0.1400280E+00
         -2   -1    0    0    0  501 -0.00000000000E+00  0.00000000000E+00  0.89114986146E+02  0.89114986146E+02  0.00000000000E+00 0.  1.
          2   -1    0    0  501    0  0.00000000000E+00 -0.00000000000E+00 -0.97724001078E+02  0.97724001078E+02  0.00000000000E+00 0. -1.
         23    2    1    2    0    0  0.14263597225E+02 -0.24066532152E+01  0.62775180116E+02  0.11400393050E+03  0.94058124291E+02 0.  0.
         13    1    3    3    0    0  0.13501300184E+02 -0.38545277178E+02 -0.82474111592E+00  0.40849769856E+02  0.00000000000E+00 0. -1.
        -13    1    3    3    0    0  0.76229704069E+00  0.36138623963E+02  0.63599921232E+02  0.73154160643E+02  0.00000000000E+00 0.  1.
         22    1    1    2    0    0 -0.14263597225E+02  0.24066532152E+01 -0.71384195047E+02  0.72835056724E+02  0.00000000000E+00 0. -1.
<mgrwt>
<rscale>  0 0.59420379E+02</rscale>
<asrwt>0</asrwt>
<pdfrwt beam="1">  1        2 0.15034462E-01 0.95163927E+02</pdfrwt>
<pdfrwt beam="2">  1       -2 0.13709998E-01 0.95163927E+02</pdfrwt>
<totfact> 0.13919927E+04</totfact>
</mgrwt>
</event>
<event>
 6    1  0.1727544E-002  0.9557697E+02  0.7546771E-02  0.1374516E+00
          2   -1    0    0  501    0  0.00000000000E+00  0.00000000000E+00  0.57396416272E+02  0.57396416272E+02  0.00000000000E+00 0. -1.
         -2   -1    0    0    0  501 -0.00000000000E+00 -0.00000000000E+00 -0.63732824163E+02  0.63732824163E+02  0.00000000000E+00 0.  1.
         23    2    1    2    0    0 -0.21323523183E+02 -0.36728097289E+01 -0.16885612591E+02  0.97057101103E+02  0.93095514337E+02 0.  0.
         11    1    3    3    0    0 -0.10801312846E+01 -0.22272627512E+02  0.33158655459E+02  0.39959142280E+02  0.00000000000E+00 0. -1.
        -11    1    3    3    0    0 -0.20243391899E+02  0.18599817783E+02 -0.50044268050E+02  0.57097958823E+02  0.00000000000E+00 0.  1.
         22    1    1    2    0    0  0.21323523183E+02  0.36728097289E+01  0.10549204699E+02  0.24072139332E+02  0.00000000000E+00 0. -1.
<mgrwt>
<rscale>  0 0.65927529E+02</rscale>
<asrwt>0</asrwt>
<pdfrwt beam="1">  1        2 0.88302179E-02 0.95576969E+02</pdfrwt>
<pdfrwt beam="2">  1       -2 0.98050499E-02 0.95576969E+02</pdfrwt>
<totfact> 0.44634221E+04</totfact>
</mgrwt>
</event>
<event>
 6    1  0.1727544E-002  0.9211359E+02  0.7546771E-02  0.1377051E+00
         -1   -1    0    0    0  501 -0.00000000000E+00  0.00000000000E+00  0.12969209462E+02  0.12969209462E+02  0.00000000000E+00 0.  1.
          1   -1    0    0  501    0  0.00000000000E+00 -0.00000000000E+00 -0.25626687431E+03  0.25626687431E+03  0.00000000000E+00 0. -1.
         23    2    1    2    0    0 -0.76282901127E+00  0.23173406195E+02 -0.19383270195E+03  0.21460668493E+03  0.89147766156E+02 0.  0.
         13    1    3    3    0    0  0.98041489884E+01  0.21801120054E+02 -0.37156407691E+01  0.24191241377E+02  0.00000000000E+00 0.  1.
        -13    1    3    3    0    0 -0.10566978000E+02  0.13722861410E+01 -0.19011706118E+03  0.19041544356E+03  0.00000000000E+00 0. -1.
         22    1    1    2    0    0  0.76282901127E+00 -0.23173406195E+02 -0.49464962900E+02  0.54629398839E+02  0.00000000000E+00 0.  1.
<mgrwt>
<rscale>  0 0.65245270E+02</rscale>
<asrwt>0</asrwt>
<pdfrwt beam="1">  1        1 0.39425675E-01 0.92113587E+02</pdfrwt>
<pdfrwt beam="2">  1       -1 0.19952629E-02 0.92113587E+02</pdfrwt>
<totfact> 0.63869182E+04</totfact>
</mgrwt>
</event>
<event>
 6    1  0.1727544E-002  0.7170887E+02  0.7546771E-02  0.1477809E+00
         -4   -1    0    0    0  501 -0.00000000000E+00  0.00000000000E+00  0.16566823957E+03  0.16566823957E+03  0.00000000000E+00 0.  1.
          4   -1    0    0  501    0  0.00000000000E+00 -0.00000000000E+00 -0.12322011360E+02  0.12322011360E+02  0.00000000000E+00 0. -1.
         23    2    1    2    0    0  0.74503515992E+01  0.75206820098E+01  0.15097820971E+03  0.16714239822E+03  0.70923149099E+02 0.  0.
         13    1    3    3    0    0  0.14971741448E+02  0.65063095571E+01  0.35513084415E+00  0.16328233951E+02  0.00000000000E+00 0. -1.
        -13    1    3    3    0    0 -0.75213898486E+01  0.10143724527E+01  0.15062307887E+03  0.15081416427E+03  0.00000000000E+00 0.  1.
         22    1    1    2    0    0 -0.74503515992E+01 -0.75206820098E+01  0.23680184994E+01  0.10847852712E+02  0.00000000000E+00 0. -1.
<mgrwt>
<rscale>  0 0.44449311E+02</rscale>
<asrwt>0</asrwt>
<pdfrwt beam="1">  1        4 0.18956942E-02 0.71708866E+02</pdfrwt>
<pdfrwt beam="2">  1       -4 0.25487420E-01 0.71708866E+02</pdfrwt>
<totfact> 0.21185293E+04</totfact>
</mgrwt>
</event>
<event>
 6    1  0.1727544E-002  0.8858082E+02  0.7546771E-02  0.1408754E+00
          2   -1    0    0  501    0  0.00000000000E+00  0.00000000000E+00  0.19427584603E+03  0.19427584603E+03  0.00000000000E+00 0. -1.
         -2   -1    0    0    0  501 -0.00000000000E+00 -0.00000000000E+00 -0.14339934056E+02  0.14339934056E+02  0.00000000000E+00 0.  1.
         23    2    1    2    0    0 -0.97246770522E+01 -0.12322516177E+02  0.16306508151E+03  0.18557150380E+03  0.87178830390E+02 0.  0.
         11    1    3    3    0    0 -0.17136219648E+02  0.15956865587E+02  0.38925312286E+01  0.23736541082E+02  0.00000000000E+00 0.  1.
        -11    1    3    3    0    0  0.74115425960E+01 -0.28279381764E+02  0.15917255028E+03  0.16183496272E+03  0.00000000000E+00 0. -1.
         22    1    1    2    0    0  0.97246770522E+01  0.12322516177E+02  0.16870830463E+02  0.23044276278E+02  0.00000000000E+00 0.  1.
<mgrwt>
<rscale>  0 0.57472872E+02</rscale>
<asrwt>0</asrwt>
<pdfrwt beam="1">  1        2 0.29888590E-01 0.88580823E+02</pdfrwt>
<pdfrwt beam="2">  1       -2 0.22061438E-02 0.88580823E+02</pdfrwt>
<totfact> 0.10008111E+05</totfact>
</mgrwt>
</event>
<event>
 6    1  0.1727544E-002  0.9939340E+02  0.7546771E-02  0.1335413E+00
          2   -1    0    0  501    0  0.00000000000E+00  0.00000000000E+00  0.66517435316E+02  0.66517435316E+02  0.00000000000E+00 0. -1.
         -2   -1    0    0    0  501 -0.00000000000E+00 -0.00000000000E+00 -0.11193110562E+03  0.11193110562E+03  0.00000000000E+00 0.  1.
         23    2    1    2    0    0  0.63211793953E+01  0.36772754260E+02 -0.79986820033E+02  0.12758111082E+03  0.92124131985E+02 0.  0.
         11    1    3    3    0    0 -0.23802493560E+02  0.53022967936E+02 -0.71823602904E+02  0.92393851324E+02  0.00000000000E+00 0.  1.
        -11    1    3    3    0    0  0.30123672956E+02 -0.16250213676E+02 -0.81632171289E+01  0.35187259495E+02  0.00000000000E+00 0. -1.
         22    1    1    2    0    0 -0.63211793953E+01 -0.36772754260E+02  0.34573149727E+02  0.50867430118E+02  0.00000000000E+00 0. -1.
<mgrwt>
<rscale>  0 0.77800178E+02</rscale>
<asrwt>0</asrwt>
<pdfrwt beam="1">  1        2 0.10233452E-01 0.99393402E+02</pdfrwt>
<pdfrwt beam="2">  1       -2 0.17220170E-01 0.99393402E+02</pdfrwt>
<totfact> 0.15229843E+04</totfact>
</mgrwt>
</event>
<event>
 6    1  0.1727544E-002  0.8485275E+02  0.7546771E-02  0.1435095E+00
         -1   -1    0    0    0  501 -0.00000000000E+00  0.00000000000E+00  0.21502572162E+03  0.21502572162E+03  0.00000000000E+00 0.  1.
          1   -1    0    0  501    0  0.00000000000E+00 -0.00000000000E+00 -0.19395546170E+02  0.19395546170E+02  0.00000000000E+00 0. -1.
         23    2    1    2    0    0  0.68330231079E+01 -0.97701650538E+01  0.20326413897E+03  0.22026415901E+03  0.84010970834E+02 0.  0.
         11    1    3    3    0    0  0.56666645507E+01  0.37300180802E+02  0.93782281761E+02  0.10108674961E+03  0.00000000000E+00 0.  1.
        -11    1    3    3    0    0  0.11663585572E+01 -0.47070345856E+02  0.10948185721E+03  0.11917740939E+03  0.00000000000E+00 0. -1.
         22    1    1    2    0    0 -0.68330231079E+01  0.97701650538E+01 -0.76339635250E+01  0.14157108782E+02  0.00000000000E+00 0. -1.
<mgrwt>
<rscale>  0 0.51950700E+02</rscale>
<asrwt>0</asrwt>
<pdfrwt beam="1">  1        1 0.29839303E-02 0.84852752E+02</pdfrwt>
<pdfrwt beam="2">  1       -1 0.33080879E-01 0.84852752E+02</pdfrwt>
<totfact> 0.25803920E+04</totfact>
</mgrwt>
</event>
<event>
 6    1  0.1727544E-002  0.8317422E+02  0.7546771E-02  0.1424914E+00
         -2   -1    0    0    0  501 -0.00000000000E+00  0.00000000000E+00  0.66656458987E+02  0.66656458987E+02  0.00000000000E+00 0. -1.
          2   -1    0    0  501    0  0.00000000000E+00 -0.00000000000E+00 -0.63017624666E+02  0.63017624666E+02  0.00000000000E+00 0.  1.
         23    2    1    2    0    0 -0.14165569686E+02 -0.41883829953E+01  0.38619111040E+02  0.91702703957E+02  0.81851965516E+02 0.  0.
         11    1    3    3    0    0  0.25463362133E+02  0.93305243030E+01 -0.87356316106E+01  0.28491275060E+02  0.00000000000E+00 0.  1.
        -11    1    3    3    0    0 -0.39628931819E+02 -0.13518907298E+02  0.47354742651E+02  0.63211428897E+02  0.00000000000E+00 0. -1.
         22    1    1    2    0    0  0.14165569686E+02  0.41883829953E+01 -0.34980276719E+02  0.37971379695E+02  0.00000000000E+00 0.  1.
<mgrwt>
<rscale>  0 0.53994541E+02</rscale>
<asrwt>0</asrwt>
<pdfrwt beam="1">  1        2 0.96950192E-02 0.83174216E+02</pdfrwt>
<pdfrwt beam="2">  1       -2 0.10254840E-01 0.83174216E+02</pdfrwt>
<totfact> 0.36446807E+04</totfact>
</mgrwt>
</event>
<event>
 6    1  0.1727544E-002  0.9122978E+02  0.7546771E-02  0.1423556E+00
          1   -1    0    0  501    0  0.00000000000E+00  0.00000000000E+00  0.22846369460E+02  0.22846369460E+02  0.00000000000E+00 0. -1.
         -1   -1    0    0    0  501 -0.00000000000E+00 -0.00000000000E+00 -0.12240462455E+03  0.12240462455E+03  0.00000000000E+00 0.  1.
         23    2    1    2    0    0 -0.61172482397E+01 -0.96541988970E+01 -0.97699942447E+02  0.13367180543E+03  0.90511040931E+02 0.  0.
         13    1    3    3    0    0  0.11153951760E+02 -0.90005827203E+01  0.14358907458E+02  0.20287911488E+02  0.00000000000E+00 0. -1.
        -13    1    3    3    0    0 -0.17271200000E+02 -0.65361617671E+00 -0.11205884990E+03  0.11338389394E+03  0.00000000000E+00 0.  1.
         22    1    1    2    0    0  0.61172482397E+01  0.96541988970E+01 -0.18583126464E+01  0.11579188584E+02  0.00000000000E+00 0. -1.
<mgrwt>
<rscale>  0 0.54275704E+02</rscale>
<asrwt>0</asrwt>
<pdfrwt beam="1">  1        1 0.35148261E-02 0.91229780E+02</pdfrwt>
<pdfrwt beam="2">  1       -1 0.18831481E-01 0.91229780E+02</pdfrwt>
<totfact> 0.52101462E+04</totfact>
</mgrwt>
</event>
<event>
 6    1  0.1727544E-002  0.9264557E+02  0.7546771E-02  0.1407335E+00
         -1   -1    0    0    0  501 -0.00000000000E+00  0.00000000000E+00  0.92212201426E+02  0.92212201426E+02  0.00000000000E+00 0.  1.
          1   -1    0    0  501    0  0.00000000000E+00 -0.00000000000E+00 -0.61933226469E+02  0.61933226469E+02  0.00000000000E+00 0. -1.
         23    2    1    2    0    0 -0.12036221947E+02  0.72066052670E+01  0.67330015265E+02  0.11452743468E+03  0.91577270877E+02 0.  0.
         13    1    3    3    0    0  0.26828879402E+02  0.32413582526E+02  0.15074488683E+02  0.44695294061E+02  0.00000000000E+00 0. -1.
        -13    1    3    3    0    0 -0.38865101349E+02 -0.25206977259E+02  0.52255526583E+02  0.69832140622E+02  0.00000000000E+00 0.  1.
         22    1    1    2    0    0  0.12036221947E+02 -0.72066052670E+01 -0.37051040309E+02  0.39617993212E+02  0.00000000000E+00 0. -1.
<mgrwt>
<rscale>  0 0.57792734E+02</rscale>
<asrwt>0</asrwt>
<pdfrwt beam="1">  1        1 0.95281887E-02 0.92645574E+02</pdfrwt>
<pdfrwt beam="2">  1       -1 0.14186493E-01 0.92645574E+02</pdfrwt>
<totfact> 0.21301754E+04</totfact>
</mgrwt>
</event>
<event>
 6    1  0.1727544E-002  0.9452056E+02  0.7546771E-02  0.1356153E+00
         -2   -1    0    0    0  501 -0.00000000000E+00  0.00000000000E+00  0.13157351769E+02  0.13157351769E+02  0.00000000000E+00 0.  1.
          2   -1    0    0  501    0  0.00000000000E+00 -0.00000000000E+00 -0.33425284822E+03  0.33425284822E+03  0.00000000000E+00 0. -1.
         23    2    1    2    0    0 -0.29713703384E+02 -0.63494561913E+01 -0.18251689238E+03  0.20553966299E+03  0.89503727825E+02 0.  0.
         13    1    3    3    0    0  0.15662823125E+02  0.27793008467E+02 -0.34430940224E+02  0.46938949632E+02  0.00000000000E+00 0. -1.
        -13    1    3    3    0    0 -0.45376526509E+02 -0.34142464658E+02 -0.14808595216E+03  0.15860071336E+03  0.00000000000E+00 0.  1.
         22    1    1    2    0    0  0.29713703384E+02  0.63494561913E+01 -0.13857860407E+03  0.14187053700E+03  0.00000000000E+00 0. -1.
<mgrwt>
<rscale>  0 0.71171786E+02</rscale>
<asrwt>0</asrwt>
<pdfrwt beam="1">  1        2 0.51423510E-01 0.94520564E+02</pdfrwt>
<pdfrwt beam="2">  1       -2 0.20242082E-02 0.94520564E+02</pdfrwt>
<totfact> 0.64585277E+04</totfact>
</mgrwt>
</event>
<event>
 6    1  0.1727544E-002  0.9562239E+02  0.7546771E-02  0.1354799E+00
          1   -1    0    0  501    0  0.00000000000E+00  0.00000000000E+00  0.71752096813E+03  0.71752096813E+03  0.00000000000E+00 0. -1.
         -1   -1    0    0    0  501 -0.00000000000E+00 -0.00000000000E+00 -0.55078252502E+01  0.55078252502E+01  0.00000000000E+00 0.  1.
         23    2    1    2    0    0  0.22257169011E+02  0.20154451447E+02  0.55267787183E+03  0.56088900157E+03  0.90785784096E+02 0.  0.
         13    1    3    3    0    0  0.35771665797E+02 -0.97848447603E+01  0.47636952557E+03  0.47781092511E+03  0.00000000000E+00 0. -1.
        -13    1    3    3    0    0 -0.13514496786E+02  0.29939296207E+02  0.76308346254E+02  0.83078076463E+02  0.00000000000E+00 0.  1.
         22    1    1    2    0    0 -0.22257169011E+02 -0.20154451447E+02  0.15933527105E+03  0.16213979181E+03  0.00000000000E+00 0. -1.
<mgrwt>
<rscale>  0 0.71580619E+02</rscale>
<asrwt>0</asrwt>
<pdfrwt beam="1">  1        1 0.11038777E+00 0.95622393E+02</pdfrwt>
<pdfrwt beam="2">  1       -1 0.84735830E-03 0.95622393E+02</pdfrwt>
<totfact> 0.58054471E+04</totfact>
</mgrwt>
</event>
<event>
 6    1  0.1727544E-002  0.9422286E+02  0.7546771E-02  0.1385360E+00
          1   -1    0    0  501    0  0.00000000000E+00  0.00000000000E+00  0.24063536742E+03  0.24063536742E+03  0.00000000000E+00 0. -1.
         -1   -1    0    0    0  501 -0.00000000000E+00 -0.00000000000E+00 -0.15830865312E+02  0.15830865312E+02  0.00000000000E+00 0.  1.
         23    2    1    2    0    0 -0.18919494443E+02 -0.33684225829E+00  0.13462193497E+03  0.16431984839E+03  0.92303231069E+02 0.  0.
         11    1    3    3    0    0 -0.23672027184E+02 -0.19259058948E+01 -0.52784569329E+01  0.24329736787E+02  0.00000000000E+00 0.  1.
        -11    1    3    3    0    0  0.47525327409E+01  0.15890636365E+01  0.13990039191E+03  0.13999011160E+03  0.00000000000E+00 0. -1.
         22    1    1    2    0    0  0.18919494443E+02  0.33684225829E+00  0.90182567134E+02  0.92146384344E+02  0.00000000000E+00 0. -1.
<mgrwt>
<rscale>  0 0.63075659E+02</rscale>
<asrwt>0</asrwt>
<pdfrwt beam="1">  1        1 0.37020823E-01 0.94222859E+02</pdfrwt>
<pdfrwt beam="2">  1       -1 0.24355179E-02 0.94222859E+02</pdfrwt>
<totfact> 0.52014659E+04</totfact>
</mgrwt>
</event>
<event>
 6    1  0.1727544E-002  0.1146772E+03  0.7546771E-02  0.1279363E+00
         -1   -1    0    0    0  501 -0.00000000000E+00  0.00000000000E+00  0.28992069118E+03  0.28992069118E+03  0.00000000000E+00 0.  1.
          1   -1    0    0  501    0  0.00000000000E+00 -0.00000000000E+00 -0.58821652161E+02  0.58821652161E+02  0.00000000000E+00 0. -1.
         23    2    1    2    0    0  0.38446095108E+02 -0.55477164010E+02  0.72137821230E+01  0.11490388155E+03  0.92709467628E+02 0.  0.
         13    1    3    3    0    0  0.42159298988E+02 -0.79668061093E+02  0.40549595398E+01  0.90226654301E+02  0.00000000000E+00 0. -1.
        -13    1    3    3    0    0 -0.37132038798E+01  0.24190897083E+02  0.31588225832E+01  0.24677227252E+02  0.00000000000E+00 0.  1.
         22    1    1    2    0    0 -0.38446095108E+02  0.55477164010E+02  0.22388525690E+03  0.23383846179E+03  0.00000000000E+00 0.  1.
<mgrwt>
<rscale>  0 0.10044507E+03</rscale>
<asrwt>0</asrwt>
<pdfrwt beam="1">  1        1 0.90494851E-02 0.11467721E+03</pdfrwt>
<pdfrwt beam="2">  1       -1 0.44603182E-01 0.11467721E+03</pdfrwt>
<totfact> 0.35435209E+03</totfact>
</mgrwt>
</event>
<event>
 6    1  0.1727544E-002  0.9269157E+02  0.7546771E-02  0.1388650E+00
         -2   -1    0    0    0  501 -0.00000000000E+00  0.00000000000E+00  0.42767569272E+01  0.42767569272E+01  0.00000000000E+00 0.  1.
          2   -1    0    0  501    0  0.00000000000E+00 -0.00000000000E+00 -0.76803004189E+03  0.76803004189E+03  0.00000000000E+00 0. -1.
         23    2    1    2    0    0  0.11671082657E+02 -0.14799556458E+02 -0.68932786009E+03  0.69553190117E+03  0.90755086924E+02 0.  0.
         11    1    3    3    0    0  0.31892248913E+02 -0.40691903256E+02 -0.54811133180E+03  0.55054425670E+03  0.00000000000E+00 0. -1.
        -11    1    3    3    0    0 -0.20221166255E+02  0.25892346798E+02 -0.14121652829E+03  0.14498764447E+03  0.00000000000E+00 0.  1.
         22    1    1    2    0    0 -0.11671082657E+02  0.14799556458E+02 -0.74425424873E+02  0.76774897651E+02  0.00000000000E+00 0. -1.
<mgrwt>
<rscale>  0 0.62243723E+02</rscale>
<asrwt>0</asrwt>
<pdfrwt beam="1">  1        2 0.11815852E+00 0.92691568E+02</pdfrwt>
<pdfrwt beam="2">  1       -2 0.65796229E-03 0.92691568E+02</pdfrwt>
<totfact> 0.12762089E+05</totfact>
</mgrwt>
</event>
<event>
 6    1  0.1767077E-002  0.9490254E+02  0.7546771E-02  0.1413930E+00
         -4   -1    0    0    0  501 -0.00000000000E+00  0.00000000000E+00  0.14986072418E+02  0.14986072418E+02  0.00000000000E+00 0. -1.
          4   -1    0    0  501    0  0.00000000000E+00 -0.00000000000E+00 -0.20722604299E+03  0.20722604299E+03  0.00000000000E+00 0.  1.
         23    2    1    2    0    0 -0.90937867244E+01 -0.74820115712E+01 -0.14330574772E+03  0.17188085653E+03  0.94169071661E+02 0.  0.
         13    1    3    3    0    0 -0.61122320671E+01 -0.34650009807E+01 -0.15707445144E+03  0.15723151373E+03  0.00000000000E+00 0.  1.
        -13    1    3    3    0    0 -0.29815546573E+01 -0.40170105905E+01  0.13768703724E+02  0.14649342801E+02  0.00000000000E+00 0. -1.
         22    1    1    2    0    0  0.90937867244E+01  0.74820115712E+01 -0.48934222859E+02  0.50331258885E+02  0.00000000000E+00 0. -1.
<mgrwt>
<rscale>  0 0.56326024E+02</rscale>
<asrwt>0</asrwt>
<pdfrwt beam="1">  1        4 0.31880928E-01 0.94902537E+02</pdfrwt>
<pdfrwt beam="2">  1       -4 0.23055497E-02 0.94902537E+02</pdfrwt>
<totfact> 0.11349292E+04</totfact>
</mgrwt>
</event>
<event>
 6    1  0.4618551E-002  0.1263596E+03  0.7546771E-02  0.1369936E+00
          2   -1    0    0  501    0  0.00000000000E+00  0.00000000000E+00  0.69458490989E+03  0.69458490989E+03  0.00000000000E+00 0. -1.
         -2   -1    0    0    0  501 -0.00000000000E+00 -0.00000000000E+00 -0.67098039677E+01  0.67098039677E+01  0.00000000000E+00 0.  1.
         23    2    1    2    0    0  0.84371621119E+01 -0.55495977311E+01  0.63042614015E+03  0.64296489809E+03  0.12595538198E+03 0.  0.
         11    1    3    3    0    0  0.56154698406E+02  0.32386616661E+02  0.29419330611E+03  0.30125063394E+03  0.00000000000E+00 0. -1.
        -11    1    3    3    0    0 -0.47717536294E+02 -0.37936214392E+02  0.33623283404E+03  0.34171426414E+03  0.00000000000E+00 0.  1.
         22    1    1    2    0    0 -0.84371621119E+01  0.55495977311E+01  0.57448965770E+02  0.58329815767E+02  0.00000000000E+00 0.  1.
<mgrwt>
<rscale>  0 0.67185025E+02</rscale>
<asrwt>0</asrwt>
<pdfrwt beam="1">  1        2 0.10685916E+00 0.12635957E+03</pdfrwt>
<pdfrwt beam="2">  1       -2 0.10322781E-02 0.12635957E+03</pdfrwt>
<totfact> 0.79097242E+04</totfact>
</mgrwt>
</event>
<event>
 6    1  0.1727544E-002  0.9168315E+02  0.7546771E-02  0.1428007E+00
          2   -1    0    0  501    0  0.00000000000E+00  0.00000000000E+00  0.58888352792E+02  0.58888352792E+02  0.00000000000E+00 0. -1.
         -2   -1    0    0    0  501 -0.00000000000E+00 -0.00000000000E+00 -0.44503014548E+02  0.44503014548E+02  0.00000000000E+00 0.  1.
         23    2    1    2    0    0 -0.87304400866E+01  0.58715666755E+01  0.11009344818E+02  0.92341787668E+02  0.91077462619E+02 0.  0.
         13    1    3    3    0    0  0.28045755282E+02 -0.22267583324E+02  0.25338857449E+02  0.43868751444E+02  0.00000000000E+00 0. -1.
        -13    1    3    3    0    0 -0.36776195369E+02  0.28139150000E+02 -0.14329512632E+02  0.48473036224E+02  0.00000000000E+00 0.  1.
         22    1    1    2    0    0  0.87304400866E+01 -0.58715666755E+01  0.33759934258E+01  0.11049579673E+02  0.00000000000E+00 0. -1.
<mgrwt>
<rscale>  0 0.53362182E+02</rscale>
<asrwt>0</asrwt>
<pdfrwt beam="1">  1        2 0.90597466E-02 0.91683150E+02</pdfrwt>
<pdfrwt beam="2">  1       -2 0.68466176E-02 0.91683150E+02</pdfrwt>
<totfact> 0.74559734E+04</totfact>
</mgrwt>
</event>
<event>
 6    1  0.1727544E-002  0.9308504E+02  0.7546771E-02  0.1402637E+00
         -2   -1    0    0    0  501 -0.00000000000E+00  0.00000000000E+00  0.65387445117E+02  0.65387445117E+02  0.00000000000E+00 0.  1.
          2   -1    0    0  501    0  0.00000000000E+00 -0.00000000000E+00 -0.46955624738E+02  0.46955624738E+02  0.00000000000E+00 0. -1.
         23    2    1    2    0    0 -0.50028972410E+01  0.14025528043E+02  0.24512310229E+02  0.96258394710E+02  0.91886238261E+02 0.  0.
         11    1    3    3    0    0 -0.25355331027E+02 -0.31189913383E+02 -0.15811843618E+01  0.40226902097E+02  0.00000000000E+00 0. -1.
        -11    1    3    3    0    0  0.20352433786E+02  0.45215441427E+02  0.26093494591E+02  0.56031492613E+02  0.00000000000E+00 0.  1.
         22    1    1    2    0    0  0.50028972410E+01 -0.14025528043E+02 -0.60804898496E+01  0.16084675145E+02  0.00000000000E+00 0. -1.
<mgrwt>
<rscale>  0 0.58869658E+02</rscale>
<asrwt>0</asrwt>
<pdfrwt beam="1">  1        2 0.72239423E-02 0.93085043E+02</pdfrwt>
<pdfrwt beam="2">  1       -2 0.10059607E-01 0.93085043E+02</pdfrwt>
<totfact> 0.54831751E+04</totfact>
</mgrwt>
</event>
<event>
 6    1  0.1727544E-002  0.8925742E+02  0.7546771E-02  0.1417784E+00
         -2   -1    0    0    0  501 -0.00000000000E+00  0.00000000000E+00  0.13834732194E+02  0.13834732194E+02  0.00000000000E+00 0.  1.
          2   -1    0    0  501    0  0.00000000000E+00 -0.00000000000E+00 -0.19019928663E+03  0.19019928663E+03  0.00000000000E+00 0. -1.
         23    2    1    2    0    0  0.17072280033E+01 -0.13225687245E+02 -0.15368303660E+03  0.17772271551E+03  0.88255619876E+02 0.  0.
         11    1    3    3    0    0  0.35707878072E+02 -0.89032123070E+01 -0.13230495347E+03  0.13732778472E+03  0.00000000000E+00 0. -1.
        -11    1    3    3    0    0 -0.34000650069E+02 -0.43224749383E+01 -0.21378083130E+02  0.40394930784E+02  0.00000000000E+00 0.  1.
         22    1    1    2    0    0 -0.17072280033E+01  0.13225687245E+02 -0.22681517836E+02  0.26311303311E+02  0.00000000000E+00 0. -1.
<mgrwt>
<rscale>  0 0.55492583E+02</rscale>
<asrwt>0</asrwt>
<pdfrwt beam="1">  1        2 0.29261426E-01 0.89257425E+02</pdfrwt>
<pdfrwt beam="2">  1       -2 0.21284206E-02 0.89257425E+02</pdfrwt>
<totfact> 0.10792726E+05</totfact>
</mgrwt>
</event>
<event>
 6    1  0.1727544E-002  0.9920714E+02  0.7546771E-02  0.1334738E+00
         -2   -1    0    0    0  501 -0.00000000000E+00  0.00000000000E+00  0.36191757388E+02  0.36191757388E+02  0.00000000000E+00 0.  1.
          2   -1    0    0  501    0  0.00000000000E+00 -0.00000000000E+00 -0.13854775632E+03  0.13854775632E+03  0.00000000000E+00 0. -1.
         23    2    1    2    0    0  0.23463675853E+02  0.29849091993E+02 -0.92203413594E+02  0.13543827497E+03  0.91654484184E+02 0.  0.
         11    1    3    3    0    0 -0.30030130033E+02  0.16240536576E+02 -0.85154452268E+01  0.35186311906E+02  0.00000000000E+00 0.  1.
        -11    1    3    3    0    0  0.53493805886E+02  0.13608555417E+02 -0.83687968368E+02  0.10025196306E+03  0.00000000000E+00 0. -1.
         22    1    1    2    0    0 -0.23463675853E+02 -0.29849091993E+02 -0.10152585339E+02  0.39301238739E+02  0.00000000000E+00 0.  1.
<mgrwt>
<rscale>  0 0.78029621E+02</rscale>
<asrwt>0</asrwt>
<pdfrwt beam="1">  1        2 0.21315039E-01 0.99207141E+02</pdfrwt>
<pdfrwt beam="2">  1       -2 0.55679627E-02 0.99207141E+02</pdfrwt>
<totfact> 0.37847454E+04</totfact>
</mgrwt>
</event>
<event>
 6    1  0.1727544E-002  0.9227807E+02  0.7546771E-02  0.1404179E+00
          3   -1    0    0  501    0  0.00000000000E+00  0.00000000000E+00  0.31827322957E+02  0.31827322957E+02  0.00000000000E+00 0. -1.
         -3   -1    0    0    0  501 -0.00000000000E+00 -0.00000000000E+00 -0.11671464712E+03  0.11671464712E+03  0.00000000000E+00 0.  1.
         23    2    1    2    0    0 -0.14894669955E+02  0.84123986547E+00 -0.93457162070E+02  0.13133729050E+03  0.91064174380E+02 0.  0.
         11    1    3    3    0    0 -0.16496127135E+02 -0.35555655303E+02 -0.85485758907E+02  0.94043297531E+02  0.00000000000E+00 0. -1.
        -11    1    3    3    0    0  0.16014571801E+01  0.36396895169E+02 -0.79714031629E+01  0.37293992967E+02  0.00000000000E+00 0.  1.
         22    1    1    2    0    0  0.14894669955E+02 -0.84123986547E+00  0.85698379094E+01  0.17204679578E+02  0.00000000000E+00 0.  1.
<mgrwt>
<rscale>  0 0.58513288E+02</rscale>
<asrwt>0</asrwt>
<pdfrwt beam="1">  1        3 0.48965111E-02 0.92278073E+02</pdfrwt>
<pdfrwt beam="2">  1       -3 0.17956100E-01 0.92278073E+02</pdfrwt>
<totfact> 0.13200063E+04</totfact>
</mgrwt>
</event>
<event>
 6    1  0.1727544E-002  0.1804849E+03  0.7546771E-02  0.1173737E+00
          2   -1    0    0  501    0  0.00000000000E+00  0.00000000000E+00  0.54811868605E+03  0.54811868605E+03  0.00000000000E+00 0.  1.
         -2   -1    0    0    0  501 -0.00000000000E+00 -0.00000000000E+00 -0.52020139256E+02  0.52020139256E+02  0.00000000000E+00 0. -1.
         23    2    1    2    0    0  0.25082266344E+02  0.15388656916E+03  0.23964044075E+03  0.30000392829E+03  0.90909954871E+02 0.  0.
         11    1    3    3    0    0  0.22068401607E+02  0.10973766350E+03  0.22838931522E+03  0.25434435014E+03  0.00000000000E+00 0.  1.
        -11    1    3    3    0    0  0.30138647370E+01  0.44148905656E+02  0.11251125528E+02  0.45659578151E+02  0.00000000000E+00 0. -1.
         22    1    1    2    0    0 -0.25082266344E+02 -0.15388656916E+03  0.25645810605E+03  0.30013489702E+03  0.00000000000E+00 0.  1.
<mgrwt>
<rscale>  0 0.17400202E+03</rscale>
<asrwt>0</asrwt>
<pdfrwt beam="1">  1        2 0.84325947E-01 0.18048495E+03</pdfrwt>
<pdfrwt beam="2">  1       -2 0.80030987E-02 0.18048495E+03</pdfrwt>
<totfact> 0.51820321E+03</totfact>
</mgrwt>
</event>
<event>
 6    1  0.1727544E-002  0.9276001E+02  0.7546771E-02  0.1413310E+00
         -2   -1    0    0    0  501 -0.00000000000E+00  0.00000000000E+00  0.72837365886E+02  0.72837365886E+02  0.00000000000E+00 0.  1.
          2   -1    0    0  501    0  0.00000000000E+00 -0.00000000000E+00 -0.39903167718E+02  0.39903167718E+02  0.00000000000E+00 0. -1.
         23    2    1    2    0    0 -0.74720483118E+01  0.10310168849E+02  0.36235753545E+02  0.99586395259E+02  0.91881930748E+02 0.  0.
         13    1    3    3    0    0 -0.29231159650E+02  0.18309965611E+02 -0.19215821281E+02  0.39483709586E+02  0.00000000000E+00 0. -1.
        -13    1    3    3    0    0  0.21759111338E+02 -0.79997967618E+01  0.55451574826E+02  0.60102685673E+02  0.00000000000E+00 0.  1.
         22    1    1    2    0    0  0.74720483118E+01 -0.10310168849E+02 -0.33015553781E+01  0.13154138345E+02  0.00000000000E+00 0.  1.
<mgrwt>
<rscale>  0 0.56461693E+02</rscale>
<asrwt>0</asrwt>
<pdfrwt beam="1">  1        2 0.61389489E-02 0.92760014E+02</pdfrwt>
<pdfrwt beam="2">  1       -2 0.11205749E-01 0.92760014E+02</pdfrwt>
<totfact> 0.56846636E+04</totfact>
</mgrwt>
</event>
<event>
 6    1  0.1727544E-002  0.9395128E+02  0.7546771E-02  0.1414340E+00
         -2   -1    0    0    0  501 -0.00000000000E+00  0.00000000000E+00  0.50233951840E+02  0.50233951840E+02  0.00000000000E+00 0.  1.
          2   -1    0    0  501    0  0.00000000000E+00 -0.00000000000E+00 -0.56465668725E+02  0.56465668725E+02  0.00000000000E+00 0. -1.
         23    2    1    2    0    0  0.13865797078E+01  0.11980635205E+02 -0.88201011051E+01  0.94364388258E+02  0.93173952179E+02 0.  0.
         13    1    3    3    0    0 -0.24492151951E+02  0.40609226471E+02 -0.23684969808E+02  0.53008985810E+02  0.00000000000E+00 0. -1.
        -13    1    3    3    0    0  0.25878731659E+02 -0.28628591266E+02  0.14864868703E+02  0.41355402449E+02  0.00000000000E+00 0.  1.
         22    1    1    2    0    0 -0.13865797078E+01 -0.11980635205E+02  0.25883842203E+01  0.12335232307E+02  0.00000000000E+00 0.  1.
<mgrwt>
<rscale>  0 0.56236634E+02</rscale>
<asrwt>0</asrwt>
<pdfrwt beam="1">  1        2 0.86870259E-02 0.93951283E+02</pdfrwt>
<pdfrwt beam="2">  1       -2 0.77283003E-02 0.93951283E+02</pdfrwt>
<totfact> 0.65544488E+04</totfact>
</mgrwt>
</event>
<event>
 6    1  0.1727544E-002  0.8322143E+02  0.7546771E-02  0.1395454E+00
          2   -1    0    0  501    0  0.00000000000E+00  0.00000000000E+00  0.24235069576E+03  0.24235069576E+03  0.00000000000E+00 0. -1.
         -2   -1    0    0    0  501 -0.00000000000E+00 -0.00000000000E+00 -0.11717834147E+02  0.11717834147E+02  0.00000000000E+00 0.  1.
         23    2    1    2    0    0  0.22886845450E+02  0.46407461917E+01  0.18120275524E+03  0.19939971214E+03  0.79877797139E+02 0.  0.
         11    1    3    3    0    0 -0.13848394295E+01  0.89212026525E+01 -0.58321048202E+01  0.10747980445E+02  0.00000000000E+00 0.  1.
        -11    1    3    3    0    0  0.24271684880E+02 -0.42804564607E+01  0.18703486006E+03  0.18865173170E+03  0.00000000000E+00 0. -1.
         22    1    1    2    0    0 -0.22886845450E+02 -0.46407461917E+01  0.49430106374E+02  0.54668817767E+02  0.00000000000E+00 0.  1.
<mgrwt>
<rscale>  0 0.60570370E+02</rscale>
<asrwt>0</asrwt>
<pdfrwt beam="1">  1        2 0.37284719E-01 0.83221432E+02</pdfrwt>
<pdfrwt beam="2">  1       -2 0.18027439E-02 0.83221432E+02</pdfrwt>
<totfact> 0.10476261E+05</totfact>
</mgrwt>
</event>
<event>
 6    1  0.1727544E-002  0.8985162E+02  0.7546771E-02  0.1430342E+00
         -4   -1    0    0    0  501 -0.00000000000E+00  0.00000000000E+00  0.47633948512E+02  0.47633948512E+02  0.00000000000E+00 0. -1.
          4   -1    0    0  501    0  0.00000000000E+00 -0.00000000000E+00 -0.66505536553E+02  0.66505536553E+02  0.00000000000E+00 0.  1.
         23    2    1    2    0    0 -0.10083800753E+02  0.38354734345E+01  0.28385734905E+01  0.89896444665E+02  0.89201565960E+02 0.  0.
         13    1    3    3    0    0 -0.27302225513E+02 -0.33664306122E+02  0.16576799158E+02  0.46405681709E+02  0.00000000000E+00 0. -1.
        -13    1    3    3    0    0  0.17218424759E+02  0.37499779556E+02 -0.13738225668E+02  0.43490762955E+02  0.00000000000E+00 0.  1.
         22    1    1    2    0    0  0.10083800753E+02 -0.38354734345E+01 -0.21710161532E+02  0.24243040400E+02  0.00000000000E+00 0. -1.
<mgrwt>
<rscale>  0 0.52891478E+02</rscale>
<asrwt>0</asrwt>
<pdfrwt beam="1">  1        4 0.10231621E-01 0.89851618E+02</pdfrwt>
<pdfrwt beam="2">  1       -4 0.73282998E-02 0.89851618E+02</pdfrwt>
<totfact> 0.13429610E+04</totfact>
</mgrwt>
</event>
<event>
 6    1  0.1727544E-002  0.9546826E+02  0.7546771E-02  0.1355549E+00
         -2   -1    0    0    0  501 -0.00000000000E+00  0.00000000000E+00  0.49478211613E+03  0.49478211613E+03  0.00000000000E+00 0.  1.
          2   -1    0    0  501    0  0.00000000000E+00 -0.00000000000E+00 -0.79468079469E+01  0.79468079469E+01  0.00000000000E+00 0. -1.
         23    2    1    2    0    0  0.28780636190E+02 -0.76939221019E+01  0.36024386255E+03  0.37267925832E+03  0.90700979146E+02 0.  0.
         13    1    3    3    0    0  0.49644050243E+02 -0.21557713292E+02  0.32479150342E+03  0.32927008279E+03  0.00000000000E+00 0.  1.
        -13    1    3    3    0    0 -0.20863414053E+02  0.13863791190E+02  0.35452359137E+02  0.43409175533E+02  0.00000000000E+00 0. -1.
         22    1    1    2    0    0 -0.28780636190E+02  0.76939221019E+01  0.12659144563E+03  0.13004966576E+03  0.00000000000E+00 0. -1.
<mgrwt>
<rscale>  0 0.71353720E+02</rscale>
<asrwt>0</asrwt>
<pdfrwt beam="1">  1        2 0.12225862E-02 0.95468262E+02</pdfrwt>
<pdfrwt beam="2">  1       -2 0.76120301E-01 0.95468262E+02</pdfrwt>
<totfact> 0.15365858E+04</totfact>
</mgrwt>
</event>
<event>
 6    1  0.1727544E-002  0.9590501E+02  0.7546771E-02  0.1387757E+00
         -2   -1    0    0    0  501 -0.00000000000E+00  0.00000000000E+00  0.52136017839E+03  0.52136017839E+03  0.00000000000E+00 0.  1.
          2   -1    0    0  501    0  0.00000000000E+00 -0.00000000000E+00 -0.61829912278E+01  0.61829912278E+01  0.00000000000E+00 0. -1.
         23    2    1    2    0    0  0.68026416397E+01 -0.15865752269E+02  0.45103994878E+03  0.46112341822E+03  0.94338610376E+02 0.  0.
         11    1    3    3    0    0  0.34102573051E+02 -0.30863934559E+02  0.38893205560E+03  0.39164232639E+03  0.00000000000E+00 0.  1.
        -11    1    3    3    0    0 -0.27299931412E+02  0.14998182290E+02  0.62107893184E+02  0.69481091837E+02  0.00000000000E+00 0. -1.
         22    1    1    2    0    0 -0.68026416397E+01  0.15865752269E+02  0.64137238376E+02  0.66419751391E+02  0.00000000000E+00 0. -1.
<mgrwt>
<rscale>  0 0.62468008E+02</rscale>
<asrwt>0</asrwt>
<pdfrwt beam="1">  1        2 0.95122983E-03 0.95905013E+02</pdfrwt>
<pdfrwt beam="2">  1       -2 0.80209223E-01 0.95905013E+02</pdfrwt>
<totfact> 0.19362006E+04</totfact>
</mgrwt>
</event>
<event>
 6    1  0.1727544E-002  0.9008543E+02  0.7546771E-02  0.1415933E+00
         -2   -1    0    0    0  501 -0.00000000000E+00  0.00000000000E+00  0.83133846576E+01  0.83133846576E+01  0.00000000000E+00 0.  1.
          2   -1    0    0  501    0  0.00000000000E+00 -0.00000000000E+00 -0.32375581865E+03  0.32375581865E+03  0.00000000000E+00 0. -1.
         23    2    1    2    0    0  0.11868690895E+02  0.61061829318E+01 -0.26513959899E+03  0.28002569744E+03  0.89091149849E+02 0.  0.
         11    1    3    3    0    0 -0.14197895568E+02 -0.26708792782E+02 -0.35705393970E+02  0.46795459277E+02  0.00000000000E+00 0.  1.
        -11    1    3    3    0    0  0.26066586463E+02  0.32814975714E+02 -0.22943420502E+03  0.23323023816E+03  0.00000000000E+00 0. -1.
         22    1    1    2    0    0 -0.11868690895E+02 -0.61061829318E+01 -0.50302835008E+02  0.52043505872E+02  0.00000000000E+00 0.  1.
<mgrwt>
<rscale>  0 0.55890698E+02</rscale>
<asrwt>0</asrwt>
<pdfrwt beam="1">  1        2 0.49808595E-01 0.90085428E+02</pdfrwt>
<pdfrwt beam="2">  1       -2 0.12789821E-02 0.90085428E+02</pdfrwt>
<totfact> 0.12783057E+05</totfact>
</mgrwt>
</event>
<event>
 6    1  0.1727544E-002  0.7774808E+02  0.7546771E-02  0.1452706E+00
          2   -1    0    0  501    0  0.00000000000E+00  0.00000000000E+00  0.73368735480E+01  0.73368735480E+01  0.00000000000E+00 0. -1.
         -2   -1    0    0    0  501 -0.00000000000E+00 -0.00000000000E+00 -0.33126436141E+03  0.33126436141E+03  0.00000000000E+00 0.  1.
         23    2    1    2    0    0 -0.10541023315E+02  0.55856085450E+01 -0.31269567415E+03  0.32221630790E+03  0.76827418617E+02 0.  0.
         11    1    3    3    0    0 -0.19335692357E+02  0.17420148923E+02 -0.32515300142E+02  0.41648233225E+02  0.00000000000E+00 0. -1.
        -11    1    3    3    0    0  0.87946690417E+01 -0.11834540378E+02 -0.28018037401E+03  0.28056807468E+03  0.00000000000E+00 0.  1.
         22    1    1    2    0    0  0.10541023315E+02 -0.55856085450E+01 -0.11231813713E+02  0.16384927056E+02  0.00000000000E+00 0. -1.
<mgrwt>
<rscale>  0 0.48660048E+02</rscale>
<asrwt>0</asrwt>
<pdfrwt beam="1">  1        2 0.11287499E-02 0.77748083E+02</pdfrwt>
<pdfrwt beam="2">  1       -2 0.50963742E-01 0.77748083E+02</pdfrwt>
<totfact> 0.37897892E+04</totfact>
</mgrwt>
</event>
<event>
 6    1  0.1727544E-002  0.9149424E+02  0.7546771E-02  0.1398865E+00
         -2   -1    0    0    0  501 -0.00000000000E+00  0.00000000000E+00  0.70625819831E+01  0.70625819831E+01  0.00000000000E+00 0.  1.
          2   -1    0    0  501    0  0.00000000000E+00 -0.00000000000E+00 -0.41444401513E+03  0.41444401513E+03  0.00000000000E+00 0. -1.
         23    2    1    2    0    0 -0.87485932473E+00  0.16622633206E+02 -0.33925404274E+03  0.35137515882E+03  0.89967324102E+02 0.  0.
         13    1    3    3    0    0  0.19480796020E+02  0.44268014697E+02 -0.26742634105E+03  0.27176461585E+03  0.00000000000E+00 0. -1.
        -13    1    3    3    0    0 -0.20355655344E+02 -0.27645381491E+02 -0.71827701687E+02  0.79610542970E+02  0.00000000000E+00 0.  1.
         22    1    1    2    0    0  0.87485932473E+00 -0.16622633206E+02 -0.68127390413E+02  0.70131438300E+02  0.00000000000E+00 0.  1.
<mgrwt>
<rscale>  0 0.59754477E+02</rscale>
<asrwt>0</asrwt>
<pdfrwt beam="1">  1        2 0.63760601E-01 0.91494244E+02</pdfrwt>
<pdfrwt beam="2">  1       -2 0.10865514E-02 0.91494244E+02</pdfrwt>
<totfact> 0.12465099E+05</totfact>
</mgrwt>
</event>
<event>
 6    1  0.1727544E-002  0.9444550E+02  0.7546771E-02  0.1375461E+00
          4   -1    0    0  501    0  0.00000000000E+00  0.00000000000E+00  0.17182422317E+03  0.17182422317E+03  0.00000000000E+00 0.  1.
         -4   -1    0    0    0  501 -0.00000000000E+00 -0.00000000000E+00 -0.31806258870E+02  0.31806258870E+02  0.00000000000E+00 0. -1.
         23    2    1    2    0    0 -0.10066343915E+02 -0.19650713119E+02  0.42363983130E+02  0.10351164343E+03  0.91828489335E+02 0.  0.
         13    1    3    3    0    0 -0.20632023282E+02  0.26708320050E+02  0.44577734147E+02  0.55912334295E+02  0.00000000000E+00 0.  1.
        -13    1    3    3    0    0  0.10565679367E+02 -0.46359033168E+02 -0.22137510174E+01  0.47599309137E+02  0.00000000000E+00 0. -1.
         22    1    1    2    0    0  0.10066343915E+02  0.19650713119E+02  0.97653981166E+02  0.10011883860E+03  0.00000000000E+00 0.  1.
<mgrwt>
<rscale>  0 0.65672080E+02</rscale>
<asrwt>0</asrwt>
<pdfrwt beam="1">  1        4 0.26434495E-01 0.94445504E+02</pdfrwt>
<pdfrwt beam="2">  1       -4 0.48932707E-02 0.94445504E+02</pdfrwt>
<totfact> 0.49585382E+03</totfact>
</mgrwt>
</event>
<event>
 6    1  0.1727544E-002  0.8965732E+02  0.7546771E-02  0.1394026E+00
          2   -1    0    0  501    0  0.00000000000E+00  0.00000000000E+00  0.31358733597E+02  0.31358733597E+02  0.00000000000E+00 0. -1.
         -2   -1    0    0    0  501 -0.00000000000E+00 -0.00000000000E+00 -0.94605508115E+02  0.94605508115E+02  0.00000000000E+00 0.  1.
         23    2    1    2    0    0 -0.15361726851E+01 -0.19044611815E+02 -0.54761333727E+02  0.10505826718E+03  0.87597823977E+02 0.  0.
         13    1    3    3    0    0  0.10149629921E+02 -0.52356063736E+02 -0.25065837148E+02  0.58927655557E+02  0.00000000000E+00 0.  1.
        -13    1    3    3    0    0 -0.11685802606E+02  0.33311451921E+02 -0.29695496579E+02  0.46130611623E+02  0.00000000000E+00 0. -1.
         22    1    1    2    0    0  0.15361726851E+01  0.19044611815E+02 -0.84854407918E+01  0.20905974532E+02  0.00000000000E+00 0. -1.
<mgrwt>
<rscale>  0 0.60916427E+02</rscale>
<asrwt>0</asrwt>
<pdfrwt beam="1">  1        2 0.48244205E-02 0.89657324E+02</pdfrwt>
<pdfrwt beam="2">  1       -2 0.14554694E-01 0.89657324E+02</pdfrwt>
<totfact> 0.50817099E+04</totfact>
</mgrwt>
</event>
<event>
 6    1  0.1727544E-002  0.9184772E+02  0.7546771E-02  0.1392504E+00
          2   -1    0    0  501    0  0.00000000000E+00  0.00000000000E+00  0.46857498157E+03  0.46857498157E+03  0.00000000000E+00 0.  1.
         -2   -1    0    0    0  501 -0.00000000000E+00 -0.00000000000E+00 -0.65554721875E+01  0.65554721875E+01  0.00000000000E+00 0. -1.
         23    2    1    2    0    0  0.11120423720E+02  0.14419750494E+02  0.36223485139E+03  0.37369786039E+03  0.90024498139E+02 0.  0.
         13    1    3    3    0    0  0.24162813863E+02  0.26293496096E+02  0.35094312836E+03  0.35275525347E+03  0.00000000000E+00 0.  1.
        -13    1    3    3    0    0 -0.13042390144E+02 -0.11873745602E+02  0.11291723037E+02  0.20942606915E+02  0.00000000000E+00 0. -1.
         22    1    1    2    0    0 -0.11120423720E+02 -0.14419750494E+02  0.99784657994E+02  0.10143259338E+03  0.00000000000E+00 0.  1.
<mgrwt>
<rscale>  0 0.61288212E+02</rscale>
<asrwt>0</asrwt>
<pdfrwt beam="1">  1        2 0.72088432E-01 0.91847718E+02</pdfrwt>
<pdfrwt beam="2">  1       -2 0.10085346E-02 0.91847718E+02</pdfrwt>
<totfact> 0.12165114E+05</totfact>
</mgrwt>
</event>
<event>
 6    1  0.1727544E-002  0.9251397E+02  0.7546771E-02  0.1429227E+00
          2   -1    0    0  501    0  0.00000000000E+00  0.00000000000E+00  0.33677409770E+03  0.33677409770E+03  0.00000000000E+00 0. -1.
         -2   -1    0    0    0  501 -0.00000000000E+00 -0.00000000000E+00 -0.81135575433E+01  0.81135575433E+01  0.00000000000E+00 0.  1.
         23    2    1    2    0    0  0.58268640880E+01 -0.81910722432E+01  0.27096579104E+03  0.28632375779E+03  0.91966234836E+02 0.  0.
         13    1    3    3    0    0  0.42540029634E+02 -0.60684686141E+01  0.21571650214E+03  0.21995474473E+03  0.00000000000E+00 0. -1.
        -13    1    3    3    0    0 -0.36713165546E+02 -0.21226036291E+01  0.55249288898E+02  0.66369013058E+02  0.00000000000E+00 0.  1.
         22    1    1    2    0    0 -0.58268640880E+01  0.81910722432E+01  0.57694749113E+02  0.58563897452E+02  0.00000000000E+00 0. -1.
<mgrwt>
<rscale>  0 0.53115391E+02</rscale>
<asrwt>0</asrwt>
<pdfrwt beam="1">  1        2 0.51811389E-01 0.92513968E+02</pdfrwt>
<pdfrwt beam="2">  1       -2 0.12482399E-02 0.92513968E+02</pdfrwt>
<totfact> 0.12751101E+05</totfact>
</mgrwt>
</event>
<event>
 6    1  0.1727544E-002  0.9201208E+02  0.7546771E-02  0.1408993E+00
         -2   -1    0    0    0  501 -0.00000000000E+00  0.00000000000E+00  0.59556629849E+01  0.59556629849E+01  0.00000000000E+00 0.  1.
          2   -1    0    0  501    0  0.00000000000E+00 -0.00000000000E+00 -0.47371778958E+03  0.47371778958E+03  0.00000000000E+00 0. -1.
         23    2    1    2    0    0  0.10190065329E+02  0.95325078107E+01 -0.41681160514E+03  0.42684673799E+03  0.90947882955E+02 0.  0.
         13    1    3    3    0    0  0.71229366633E+01  0.46732001677E+01  0.13674977959E+01  0.86281560451E+01  0.00000000000E+00 0.  1.
        -13    1    3    3    0    0  0.30671286653E+01  0.48593076430E+01 -0.41817910294E+03  0.41821858194E+03  0.00000000000E+00 0. -1.
         22    1    1    2    0    0 -0.10190065329E+02 -0.95325078107E+01 -0.50950521453E+02  0.52826714576E+02  0.00000000000E+00 0. -1.
<mgrwt>
<rscale>  0 0.57419063E+02</rscale>
<asrwt>0</asrwt>
<pdfrwt beam="1">  1        2 0.72879662E-01 0.92012084E+02</pdfrwt>
<pdfrwt beam="2">  1       -2 0.91625582E-03 0.92012084E+02</pdfrwt>
<totfact> 0.13775864E+05</totfact>
</mgrwt>
</event>
<event>
 6    1  0.1727544E-002  0.1160208E+03  0.7546771E-02  0.1280396E+00
          2   -1    0    0  501    0  0.00000000000E+00  0.00000000000E+00  0.47549262688E+03  0.47549262688E+03  0.00000000000E+00 0. -1.
         -2   -1    0    0    0  501 -0.00000000000E+00 -0.00000000000E+00 -0.29101947561E+02  0.29101947561E+02  0.00000000000E+00 0.  1.
         23    2    1    2    0    0  0.31826129506E+02  0.55421344612E+02  0.41951715125E+03  0.43526482275E+03  0.96831801463E+02 0.  0.
         11    1    3    3    0    0  0.37229028486E+02  0.43277818120E+02  0.41800799112E+03  0.42188819697E+03  0.00000000000E+00 0. -1.
        -11    1    3    3    0    0 -0.54028989796E+01  0.12143526492E+02  0.15091601321E+01  0.13376625783E+02  0.00000000000E+00 0.  1.
         22    1    1    2    0    0 -0.31826129506E+02 -0.55421344612E+02  0.26873528065E+02  0.69329751684E+02  0.00000000000E+00 0.  1.
<mgrwt>
<rscale>  0 0.99952415E+02</rscale>
<asrwt>0</asrwt>
<pdfrwt beam="1">  1        2 0.73152706E-01 0.11602080E+03</pdfrwt>
<pdfrwt beam="2">  1       -2 0.44772230E-02 0.11602080E+03</pdfrwt>
<totfact> 0.14248629E+04</totfact>
</mgrwt>
</event>
<event>
 6    1  0.1727544E-002  0.9600867E+02  0.7546771E-02  0.1406204E+00
         -1   -1    0    0    0  501 -0.00000000000E+00  0.00000000000E+00  0.10139104207E+02  0.10139104207E+02  0.00000000000E+00 0.  1.
          1   -1    0    0  501    0  0.00000000000E+00 -0.00000000000E+00 -0.31181773342E+03  0.31181773342E+03  0.00000000000E+00 0. -1.
         23    2    1    2    0    0  0.12829468466E+02 -0.19938575859E+00 -0.23156976709E+03  0.25068350767E+03  0.95147406528E+02 0.  0.
         13    1    3    3    0    0 -0.33374374359E+02 -0.12399255299E+02 -0.16463434593E+03  0.16844007319E+03  0.00000000000E+00 0. -1.
        -13    1    3    3    0    0  0.46203842824E+02  0.12199869540E+02 -0.66935421157E+02  0.82243434474E+02  0.00000000000E+00 0.  1.
         22    1    1    2    0    0 -0.12829468466E+02  0.19938575859E+00 -0.70108862123E+02  0.71273329962E+02  0.00000000000E+00 0. -1.
<mgrwt>
<rscale>  0 0.58049449E+02</rscale>
<asrwt>0</asrwt>
<pdfrwt beam="1">  1        1 0.47971964E-01 0.96008666E+02</pdfrwt>
<pdfrwt beam="2">  1       -1 0.15598620E-02 0.96008666E+02</pdfrwt>
<totfact> 0.71786882E+04</totfact>
</mgrwt>
</event>
<event>
 6    1  0.1727544E-002  0.8742824E+02  0.7546771E-02  0.1400870E+00
         -2   -1    0    0    0  501 -0.00000000000E+00  0.00000000000E+00  0.88519962093E+02  0.88519962093E+02  0.00000000000E+00 0.  1.
          2   -1    0    0  501    0  0.00000000000E+00 -0.00000000000E+00 -0.51331395508E+02  0.51331395508E+02  0.00000000000E+00 0. -1.
         23    2    1    2    0    0 -0.52038234904E+01 -0.17733745383E+02  0.63245289050E+02  0.10790580564E+03  0.85452506109E+02 0.  0.
         11    1    3    3    0    0 -0.30546507019E+02  0.44175608926E+01 -0.55113624599E+01  0.31352496734E+02  0.00000000000E+00 0. -1.
        -11    1    3    3    0    0  0.25342683528E+02 -0.22151306276E+02  0.68756651510E+02  0.76553308909E+02  0.00000000000E+00 0.  1.
         22    1    1    2    0    0  0.52038234904E+01  0.17733745383E+02 -0.26056722465E+02  0.31945551957E+02  0.00000000000E+00 0. -1.
<mgrwt>
<rscale>  0 0.59282026E+02</rscale>
<asrwt>0</asrwt>
<pdfrwt beam="1">  1        2 0.78971378E-02 0.87428235E+02</pdfrwt>
<pdfrwt beam="2">  1       -2 0.13618456E-01 0.87428235E+02</pdfrwt>
<totfact> 0.30172296E+04</totfact>
</mgrwt>
</event>
<event>
 6    1  0.1727544E-002  0.9184690E+02  0.7546771E-02  0.1428242E+00
         -4   -1    0    0    0  501 -0.00000000000E+00  0.00000000000E+00  0.86883650406E+02  0.86883650406E+02  0.00000000000E+00 0.  1.
          4   -1    0    0  501    0  0.00000000000E+00 -0.00000000000E+00 -0.31463005321E+02  0.31463005321E+02  0.00000000000E+00 0. -1.
         23    2    1    2    0    0  0.43537159920E+01 -0.94752920038E+01  0.41078991698E+02  0.10061479109E+03  0.91253036259E+02 0.  0.
         11    1    3    3    0    0  0.12400137310E+02 -0.83247781361E+01  0.69483307244E+02  0.71070354733E+02  0.00000000000E+00 0.  1.
        -11    1    3    3    0    0 -0.80464213182E+01 -0.11505138678E+01 -0.28404315546E+02  0.29544436360E+02  0.00000000000E+00 0. -1.
         22    1    1    2    0    0 -0.43537159920E+01  0.94752920038E+01  0.14341653387E+02  0.17731864633E+02  0.00000000000E+00 0.  1.
<mgrwt>
<rscale>  0 0.53314463E+02</rscale>
<asrwt>0</asrwt>
<pdfrwt beam="1">  1        4 0.48404624E-02 0.91846898E+02</pdfrwt>
<pdfrwt beam="2">  1       -4 0.13366715E-01 0.91846898E+02</pdfrwt>
<totfact> 0.16777234E+04</totfact>
</mgrwt>
</event>
<event>
 6    1  0.1727544E-002  0.9292952E+02  0.7546771E-02  0.1385822E+00
          2   -1    0    0  501    0  0.00000000000E+00  0.00000000000E+00  0.16105899604E+03  0.16105899604E+03  0.00000000000E+00 0. -1.
         -2   -1    0    0    0  501 -0.00000000000E+00 -0.00000000000E+00 -0.22311519941E+02  0.22311519941E+02  0.00000000000E+00 0.  1.
         23    2    1    2    0    0  0.11269199252E+02 -0.16008047637E+02  0.13426336052E+03  0.16328669828E+03  0.90844060980E+02 0.  0.
         13    1    3    3    0    0  0.29306345083E+02  0.27625399506E+02  0.89859944271E+02  0.98472504510E+02  0.00000000000E+00 0. -1.
        -13    1    3    3    0    0 -0.18037145831E+02 -0.43633447143E+02  0.44403416248E+02  0.64814193768E+02  0.00000000000E+00 0.  1.
         22    1    1    2    0    0 -0.11269199252E+02  0.16008047637E+02  0.44841155769E+01  0.20083817701E+02  0.00000000000E+00 0.  1.
<mgrwt>
<rscale>  0 0.62957995E+02</rscale>
<asrwt>0</asrwt>
<pdfrwt beam="1">  1        2 0.24778306E-01 0.92929521E+02</pdfrwt>
<pdfrwt beam="2">  1       -2 0.34325416E-02 0.92929521E+02</pdfrwt>
<totfact> 0.65007415E+04</totfact>
</mgrwt>
</event>
<event>
 6    1  0.1727544E-002  0.1043836E+03  0.7546771E-02  0.1312429E+00
         -2   -1    0    0    0  501 -0.00000000000E+00  0.00000000000E+00  0.28970296062E+02  0.28970296062E+02  0.00000000000E+00 0.  1.
          2   -1    0    0  501    0  0.00000000000E+00 -0.00000000000E+00 -0.25131494450E+03  0.25131494450E+03  0.00000000000E+00 0. -1.
         23    2    1    2    0    0  0.46950744261E+02 -0.11964425465E+02 -0.84900694381E+02  0.13455137226E+03  0.92457687661E+02 0.  0.
         13    1    3    3    0    0  0.32621204178E+02  0.16569290637E+02  0.70090401626E+01  0.37253335398E+02  0.00000000000E+00 0.  1.
        -13    1    3    3    0    0  0.14329540082E+02 -0.28533716101E+02 -0.91909734543E+02  0.97298036863E+02  0.00000000000E+00 0. -1.
         22    1    1    2    0    0 -0.46950744261E+02  0.11964425465E+02 -0.13744395406E+03  0.14573386830E+03  0.00000000000E+00 0.  1.
<mgrwt>
<rscale>  0 0.86158967E+02</rscale>
<asrwt>0</asrwt>
<pdfrwt beam="1">  1        2 0.38663838E-01 0.10438364E+03</pdfrwt>
<pdfrwt beam="2">  1       -2 0.44569686E-02 0.10438364E+03</pdfrwt>
<totfact> 0.27885578E+04</totfact>
</mgrwt>
</event>
<event>
 6    1  0.1727544E-002  0.9297784E+02  0.7546771E-02  0.1377003E+00
          2   -1    0    0  501    0  0.00000000000E+00  0.00000000000E+00  0.39902063715E+03  0.39902063715E+03  0.00000000000E+00 0. -1.
         -2   -1    0    0    0  501 -0.00000000000E+00 -0.00000000000E+00 -0.91799610260E+01  0.91799610260E+01  0.00000000000E+00 0.  1.
         23    2    1    2    0    0 -0.18563627888E+02  0.12825677307E+02  0.25366155729E+03  0.27016488292E+03  0.90198514620E+02 0.  0.
         11    1    3    3    0    0 -0.30006954678E+02 -0.11116357241E-01  0.25097134268E+03  0.25275884218E+03  0.00000000000E+00 0. -1.
        -11    1    3    3    0    0  0.11443326790E+02  0.12836793665E+02  0.26902146037E+01  0.17406040740E+02  0.00000000000E+00 0.  1.
         22    1    1    2    0    0  0.18563627888E+02 -0.12825677307E+02  0.13617911883E+03  0.13803571525E+03  0.00000000000E+00 0. -1.
<mgrwt>
<rscale>  0 0.65258282E+02</rscale>
<asrwt>0</asrwt>
<pdfrwt beam="1">  1        2 0.61387777E-01 0.92977838E+02</pdfrwt>
<pdfrwt beam="2">  1       -2 0.14123020E-02 0.92977838E+02</pdfrwt>
<totfact> 0.89579557E+04</totfact>
</mgrwt>
</event>
<event>
 6    1  0.1727544E-002  0.1011806E+03  0.7546771E-02  0.1325761E+00
          2   -1    0    0  501    0  0.00000000000E+00  0.00000000000E+00  0.57219188737E+02  0.57219188737E+02  0.00000000000E+00 0. -1.
         -2   -1    0    0    0  501 -0.00000000000E+00 -0.00000000000E+00 -0.10183408998E+03  0.10183408998E+03  0.00000000000E+00 0.  1.
         23    2    1    2    0    0 -0.41350514115E+02  0.68219000659E+01 -0.55974535030E+02  0.11563157196E+03  0.92092934174E+02 0.  0.
         13    1    3    3    0    0 -0.11575697315E+02  0.17219411478E+02  0.22770408519E+02  0.30805785237E+02  0.00000000000E+00 0. -1.
        -13    1    3    3    0    0 -0.29774816800E+02 -0.10397511412E+02 -0.78744943549E+02  0.84825786726E+02  0.00000000000E+00 0.  1.
         22    1    1    2    0    0  0.41350514115E+02 -0.68219000659E+01  0.11359633784E+02  0.43421706758E+02  0.00000000000E+00 0. -1.
<mgrwt>
<rscale>  0 0.81171008E+02</rscale>
<asrwt>0</asrwt>
<pdfrwt beam="1">  1        2 0.88029522E-02 0.10118059E+03</pdfrwt>
<pdfrwt beam="2">  1       -2 0.15666783E-01 0.10118059E+03</pdfrwt>
<totfact> 0.21416956E+04</totfact>
</mgrwt>
</event>
<event>
 6    1  0.1727544E-002  0.1162662E+03  0.7546771E-02  0.1268334E+00
          2   -1    0    0  501    0  0.00000000000E+00  0.00000000000E+00  0.17342652545E+02  0.17342652545E+02  0.00000000000E+00 0.  1.
         -2   -1    0    0    0  501 -0.00000000000E+00 -0.00000000000E+00 -0.57895969171E+03  0.57895969171E+03  0.00000000000E+00 0. -1.
         23    2    1    2    0    0  0.45957876719E+02  0.65554146371E+02 -0.38938717399E+03  0.40637446585E+03  0.84311106528E+02 0.  0.
         11    1    3    3    0    0 -0.44649561991E+01 -0.39762523182E+01 -0.17941948087E+03  0.17951907011E+03  0.00000000000E+00 0. -1.
        -11    1    3    3    0    0  0.50422832918E+02  0.69530398689E+02 -0.20996769312E+03  0.22685539574E+03  0.00000000000E+00 0.  1.
         22    1    1    2    0    0 -0.45957876719E+02 -0.65554146371E+02 -0.17222986518E+03  0.18992787841E+03  0.00000000000E+00 0.  1.
<mgrwt>
<rscale>  0 0.10591146E+03</rscale>
<asrwt>0</asrwt>
<pdfrwt beam="1">  1        2 0.26681007E-02 0.11626623E+03</pdfrwt>
<pdfrwt beam="2">  1       -2 0.89070710E-01 0.11626623E+03</pdfrwt>
<totfact> 0.38577238E+03</totfact>
</mgrwt>
</event>
<event>
 6    1  0.1727544E-002  0.9376420E+02  0.7546771E-02  0.1396005E+00
         -2   -1    0    0    0  501 -0.00000000000E+00  0.00000000000E+00  0.32562163095E+03  0.32562163095E+03  0.00000000000E+00 0.  1.
          2   -1    0    0  501    0  0.00000000000E+00 -0.00000000000E+00 -0.10087377161E+02  0.10087377161E+02  0.00000000000E+00 0. -1.
         23    2    1    2    0    0 -0.14232378964E+02 -0.77066784098E+01  0.29512057035E+03  0.30965767466E+03  0.92356758975E+02 0.  0.
         11    1    3    3    0    0  0.32815540392E+02  0.12465968671E+02  0.64598090632E+02  0.73519884246E+02  0.00000000000E+00 0. -1.
        -11    1    3    3    0    0 -0.47047919356E+02 -0.20172647081E+02  0.23052247972E+03  0.23613779041E+03  0.00000000000E+00 0.  1.
         22    1    1    2    0    0  0.14232378964E+02  0.77066784098E+01  0.20413683435E+02  0.26051333449E+02  0.00000000000E+00 0.  1.
<mgrwt>
<rscale>  0 0.60437404E+02</rscale>
<asrwt>0</asrwt>
<pdfrwt beam="1">  1        2 0.15519044E-02 0.93764196E+02</pdfrwt>
<pdfrwt beam="2">  1       -2 0.50095628E-01 0.93764196E+02</pdfrwt>
<totfact> 0.26153842E+04</totfact>
</mgrwt>
</event>
<event>
 6    1  0.1727544E-002  0.9427633E+02  0.7546771E-02  0.1383007E+00
          2   -1    0    0  501    0  0.00000000000E+00  0.00000000000E+00  0.30398768007E+02  0.30398768007E+02  0.00000000000E+00 0. -1.
         -2   -1    0    0    0  501 -0.00000000000E+00 -0.00000000000E+00 -0.10727693644E+03  0.10727693644E+03  0.00000000000E+00 0.  1.
         23    2    1    2    0    0  0.19604185896E+02 -0.89335247492E+00 -0.67337439520E+02  0.11585489577E+03  0.92211191993E+02 0.  0.
         11    1    3    3    0    0 -0.30537615978E+02 -0.45628218925E+01 -0.56556572057E+02  0.64436101496E+02  0.00000000000E+00 0.  1.
        -11    1    3    3    0    0  0.50141801874E+02  0.36694694176E+01 -0.10780867463E+02  0.51418794270E+02  0.00000000000E+00 0. -1.
         22    1    1    2    0    0 -0.19604185896E+02  0.89335247492E+00 -0.95407289145E+01  0.21820808681E+02  0.00000000000E+00 0. -1.
<mgrwt>
<rscale>  0 0.63679818E+02</rscale>
<asrwt>0</asrwt>
<pdfrwt beam="1">  1        2 0.46767335E-02 0.94276328E+02</pdfrwt>
<pdfrwt beam="2">  1       -2 0.16504144E-01 0.94276328E+02</pdfrwt>
<totfact> 0.43442923E+04</totfact>
</mgrwt>
</event>
<event>
 6    1  0.1727544E-002  0.9335193E+02  0.7546771E-02  0.1422458E+00
          2   -1    0    0  501    0  0.00000000000E+00  0.00000000000E+00  0.97877349782E+01  0.97877349782E+01  0.00000000000E+00 0. -1.
         -2   -1    0    0    0  501 -0.00000000000E+00 -0.00000000000E+00 -0.35426918456E+03  0.35426918456E+03  0.00000000000E+00 0.  1.
         23    2    1    2    0    0  0.28957374433E+01 -0.10454432692E+02 -0.33953499287E+03  0.35213434044E+03  0.92719479497E+02 0.  0.
         11    1    3    3    0    0 -0.41904559665E+02  0.11510312791E+02 -0.15766683605E+03  0.16354605043E+03  0.00000000000E+00 0.  1.
        -11    1    3    3    0    0  0.44800297109E+02 -0.21964745483E+02 -0.18186815681E+03  0.18858829001E+03  0.00000000000E+00 0. -1.
         22    1    1    2    0    0 -0.28957374433E+01  0.10454432692E+02 -0.49464567113E+01  0.11922579094E+02  0.00000000000E+00 0. -1.
<mgrwt>
<rscale>  0 0.54504268E+02</rscale>
<asrwt>0</asrwt>
<pdfrwt beam="1">  1        2 0.15058055E-02 0.93351927E+02</pdfrwt>
<pdfrwt beam="2">  1       -2 0.54502947E-01 0.93351927E+02</pdfrwt>
<totfact> 0.23042345E+04</totfact>
</mgrwt>
</event>
<event>
 6    1  0.1727544E-002  0.9078965E+02  0.7546771E-02  0.1414413E+00
          2   -1    0    0  501    0  0.00000000000E+00  0.00000000000E+00  0.94472188702E+02  0.94472188702E+02  0.00000000000E+00 0. -1.
         -2   -1    0    0    0  501 -0.00000000000E+00 -0.00000000000E+00 -0.28699418025E+02  0.28699418025E+02  0.00000000000E+00 0.  1.
         23    2    1    2    0    0  0.11557025413E+02 -0.66822717700E+01  0.57183769767E+02  0.10729746017E+03  0.89802805307E+02 0.  0.
         13    1    3    3    0    0  0.28059715015E+02  0.24609090563E+02 -0.30464321547E+01  0.37446437667E+02  0.00000000000E+00 0.  1.
        -13    1    3    3    0    0 -0.16502689602E+02 -0.31291362333E+02  0.60230201921E+02  0.69851022499E+02  0.00000000000E+00 0. -1.
         22    1    1    2    0    0 -0.11557025413E+02  0.66822717700E+01  0.85890009107E+01  0.15874146561E+02  0.00000000000E+00 0. -1.
<mgrwt>
<rscale>  0 0.56220680E+02</rscale>
<asrwt>0</asrwt>
<pdfrwt beam="1">  1        2 0.14534183E-01 0.90789655E+02</pdfrwt>
<pdfrwt beam="2">  1       -2 0.44152951E-02 0.90789655E+02</pdfrwt>
<totfact> 0.81558104E+04</totfact>
</mgrwt>
</event>
<event>
 6    1  0.1727544E-002  0.9287697E+02  0.7546771E-02  0.1412108E+00
          2   -1    0    0  501    0  0.00000000000E+00  0.00000000000E+00  0.29925516694E+03  0.29925516694E+03  0.00000000000E+00 0. -1.
         -2   -1    0    0    0  501 -0.00000000000E+00 -0.00000000000E+00 -0.94675014717E+01  0.94675014717E+01  0.00000000000E+00 0.  1.
         23    2    1    2    0    0  0.56790228811E+01 -0.11609819715E+02  0.24176429333E+03  0.25899055116E+03  0.91973326821E+02 0.  0.
         13    1    3    3    0    0  0.19665885234E+02  0.30389609620E+02  0.47355156502E+02  0.59605253646E+02  0.00000000000E+00 0.  1.
        -13    1    3    3    0    0 -0.13986862353E+02 -0.41999429335E+02  0.19440913682E+03  0.19938529751E+03  0.00000000000E+00 0. -1.
         22    1    1    2    0    0 -0.56790228811E+01  0.11609819715E+02  0.48023372144E+02  0.49732117256E+02  0.00000000000E+00 0.  1.
<mgrwt>
<rscale>  0 0.56726154E+02</rscale>
<asrwt>0</asrwt>
<pdfrwt beam="1">  1        2 0.46039249E-01 0.92876973E+02</pdfrwt>
<pdfrwt beam="2">  1       -2 0.14565389E-02 0.92876973E+02</pdfrwt>
<totfact> 0.11587853E+05</totfact>
</mgrwt>
</event>
<event>
 6    1  0.1727544E-002  0.8947288E+02  0.7546771E-02  0.1409498E+00
          1   -1    0    0  501    0  0.00000000000E+00  0.00000000000E+00  0.59333807158E+02  0.59333807158E+02  0.00000000000E+00 0. -1.
         -1   -1    0    0    0  501 -0.00000000000E+00 -0.00000000000E+00 -0.96885266887E+02  0.96885266887E+02  0.00000000000E+00 0.  1.
         23    2    1    2    0    0  0.63664395885E+01 -0.13644429266E+02 -0.74430874448E+02  0.11638450071E+03  0.88196909984E+02 0.  0.
         11    1    3    3    0    0  0.27096085635E+02  0.26337511713E+02 -0.12482330318E+02  0.39795363425E+02  0.00000000000E+00 0. -1.
        -11    1    3    3    0    0 -0.20729646047E+02 -0.39981940979E+02 -0.61948544130E+02  0.76589137282E+02  0.00000000000E+00 0.  1.
         22    1    1    2    0    0 -0.63664395885E+01  0.13644429266E+02  0.36879414719E+02  0.39834573338E+02  0.00000000000E+00 0. -1.
<mgrwt>
<rscale>  0 0.57306053E+02</rscale>
<asrwt>0</asrwt>
<pdfrwt beam="1">  1        1 0.91282781E-02 0.89472884E+02</pdfrwt>
<pdfrwt beam="2">  1       -1 0.14905426E-01 0.89472884E+02</pdfrwt>
<totfact> 0.20792917E+04</totfact>
</mgrwt>
</event>
<event>
 6    1  0.1727544E-002  0.9312109E+02  0.7546771E-02  0.1382047E+00
         -2   -1    0    0    0  501 -0.00000000000E+00  0.00000000000E+00  0.12395209766E+02  0.12395209766E+02  0.00000000000E+00 0.  1.
          2   -1    0    0  501    0  0.00000000000E+00 -0.00000000000E+00 -0.30718456718E+03  0.30718456718E+03  0.00000000000E+00 0. -1.
         23    2    1    2    0    0 -0.13272382812E+02 -0.15864732095E+02 -0.17713304862E+03  0.20011910195E+03  0.90794780599E+02 0.  0.
         11    1    3    3    0    0 -0.38815475510E+02 -0.40615051104E+02 -0.12458004806E+03  0.13666166942E+03  0.00000000000E+00 0.  1.
        -11    1    3    3    0    0  0.25543092697E+02  0.24750319009E+02 -0.52553000561E+02  0.63457432532E+02  0.00000000000E+00 0. -1.
         22    1    1    2    0    0  0.13272382812E+02  0.15864732095E+02 -0.11765630880E+03  0.11946067500E+03  0.00000000000E+00 0. -1.
<mgrwt>
<rscale>  0 0.63928861E+02</rscale>
<asrwt>0</asrwt>
<pdfrwt beam="1">  1        2 0.47259164E-01 0.93121093E+02</pdfrwt>
<pdfrwt beam="2">  1       -2 0.19069554E-02 0.93121093E+02</pdfrwt>
<totfact> 0.76710755E+04</totfact>
</mgrwt>
</event>
<event>
 6    1  0.1727544E-002  0.1030907E+03  0.7546771E-02  0.1315394E+00
          2   -1    0    0  501    0  0.00000000000E+00  0.00000000000E+00  0.24081416258E+03  0.24081416258E+03  0.00000000000E+00 0. -1.
         -2   -1    0    0    0  501 -0.00000000000E+00 -0.00000000000E+00 -0.23722844433E+02  0.23722844433E+02  0.00000000000E+00 0.  1.
         23    2    1    2    0    0 -0.14146815142E+02 -0.45531131855E+02  0.15714522624E+03  0.18794229257E+03  0.91402772700E+02 0.  0.
         13    1    3    3    0    0  0.24275112281E+02  0.11995745973E+02  0.79326785961E+02  0.83820749034E+02  0.00000000000E+00 0. -1.
        -13    1    3    3    0    0 -0.38421927423E+02 -0.57526877828E+02  0.77818440284E+02  0.10412154353E+03  0.00000000000E+00 0.  1.
         22    1    1    2    0    0  0.14146815142E+02  0.45531131855E+02  0.59946091904E+02  0.76594714447E+02  0.00000000000E+00 0. -1.
<mgrwt>
<rscale>  0 0.85014807E+02</rscale>
<asrwt>0</asrwt>
<pdfrwt beam="1">  1        2 0.37048331E-01 0.10309066E+03</pdfrwt>
<pdfrwt beam="2">  1       -2 0.36496685E-02 0.10309066E+03</pdfrwt>
<totfact> 0.39125478E+04</totfact>
</mgrwt>
</event>
<event>
 6    1  0.1727544E-002  0.1103444E+03  0.7546771E-02  0.1285864E+00
          4   -1    0    0  501    0  0.00000000000E+00  0.00000000000E+00  0.11541458911E+03  0.11541458911E+03  0.00000000000E+00 0.  1.
         -4   -1    0    0    0  501 -0.00000000000E+00 -0.00000000000E+00 -0.93382589688E+02  0.93382589688E+02  0.00000000000E+00 0. -1.
         23    2    1    2    0    0  0.43477033361E+02 -0.50953719051E+02  0.66091848398E+02  0.12862359084E+03  0.87689006039E+02 0.  0.
         13    1    3    3    0    0  0.18096193363E+02 -0.58587822356E+02  0.78291741020E+02  0.99446477337E+02  0.00000000000E+00 0.  1.
        -13    1    3    3    0    0  0.25380839997E+02  0.76341033049E+01 -0.12199892622E+02  0.29177113501E+02  0.00000000000E+00 0. -1.
         22    1    1    2    0    0 -0.43477033361E+02  0.50953719051E+02 -0.44059848975E+02  0.80173587962E+02  0.00000000000E+00 0. -1.
<mgrwt>
<rscale>  0 0.97398376E+02</rscale>
<asrwt>0</asrwt>
<pdfrwt beam="1">  1        4 0.17756091E-01 0.11034444E+03</pdfrwt>
<pdfrwt beam="2">  1       -4 0.14366552E-01 0.11034444E+03</pdfrwt>
<totfact> 0.17806361E+03</totfact>
</mgrwt>
</event>
<event>
 6    1  0.1727544E-002  0.9105026E+02  0.7546771E-02  0.1426078E+00
          2   -1    0    0  501    0  0.00000000000E+00  0.00000000000E+00  0.15860175557E+03  0.15860175557E+03  0.00000000000E+00 0. -1.
         -2   -1    0    0    0  501 -0.00000000000E+00 -0.00000000000E+00 -0.17541498763E+02  0.17541498763E+02  0.00000000000E+00 0.  1.
         23    2    1    2    0    0 -0.89258794089E+01 -0.65346124194E+01  0.10787952939E+03  0.14116707452E+03  0.90375757718E+02 0.  0.
         11    1    3    3    0    0 -0.26513827938E+02 -0.37626685696E+02  0.90297392162E+02  0.10135269893E+03  0.00000000000E+00 0. -1.
        -11    1    3    3    0    0  0.17587948529E+02  0.31092073276E+02  0.17582137228E+02  0.39814375589E+02  0.00000000000E+00 0.  1.
         22    1    1    2    0    0  0.89258794089E+01  0.65346124194E+01  0.33180727416E+02  0.34976179817E+02  0.00000000000E+00 0.  1.
<mgrwt>
<rscale>  0 0.53755310E+02</rscale>
<asrwt>0</asrwt>
<pdfrwt beam="1">  1        2 0.24400269E-01 0.91050261E+02</pdfrwt>
<pdfrwt beam="2">  1       -2 0.26986922E-02 0.91050261E+02</pdfrwt>
<totfact> 0.93540492E+04</totfact>
</mgrwt>
</event>
<event>
 6    1  0.1727544E-002  0.9150219E+02  0.7546771E-02  0.1424548E+00
          4   -1    0    0  501    0  0.00000000000E+00  0.00000000000E+00  0.14958611682E+03  0.14958611682E+03  0.00000000000E+00 0. -1.
         -4   -1    0    0    0  501 -0.00000000000E+00 -0.00000000000E+00 -0.18837929372E+02  0.18837929372E+02  0.00000000000E+00 0.  1.
         23    2    1    2    0    0  0.10555538983E+02 -0.36127439085E+01  0.99177790887E+02  0.13494029997E+03  0.90819485959E+02 0.  0.
         13    1    3    3    0    0  0.21978696186E+01 -0.36919029836E+02  0.84581957647E+01  0.37939247100E+02  0.00000000000E+00 0.  1.
        -13    1    3    3    0    0  0.83576693642E+01  0.33306285927E+02  0.90719595122E+02  0.97001052874E+02  0.00000000000E+00 0. -1.
         22    1    1    2    0    0 -0.10555538983E+02  0.36127439085E+01  0.31570396557E+02  0.33483746215E+02  0.00000000000E+00 0.  1.
<mgrwt>
<rscale>  0 0.54070112E+02</rscale>
<asrwt>0</asrwt>
<pdfrwt beam="1">  1        4 0.23013248E-01 0.91502188E+02</pdfrwt>
<pdfrwt beam="2">  1       -4 0.28981431E-02 0.91502188E+02</pdfrwt>
<totfact> 0.14413534E+04</totfact>
</mgrwt>
</event>
<event>
 6    1  0.1727544E-002  0.9231886E+02  0.7546771E-02  0.1384224E+00
          2   -1    0    0  501    0  0.00000000000E+00  0.00000000000E+00  0.14823232888E+02  0.14823232888E+02  0.00000000000E+00 0. -1.
         -2   -1    0    0    0  501 -0.00000000000E+00 -0.00000000000E+00 -0.21493431682E+03  0.21493431682E+03  0.00000000000E+00 0.  1.
         23    2    1    2    0    0  0.19624646345E+02 -0.58956959829E+01 -0.16700264061E+03  0.19082099883E+03  0.90016029944E+02 0.  0.
         13    1    3    3    0    0  0.29534908245E+02  0.10777548357E+02 -0.10538337034E+02  0.33159054586E+02  0.00000000000E+00 0. -1.
        -13    1    3    3    0    0 -0.99102618995E+01 -0.16673244339E+02 -0.15646430358E+03  0.15766194424E+03  0.00000000000E+00 0.  1.
         22    1    1    2    0    0 -0.19624646345E+02  0.58956959829E+01 -0.33108443316E+02  0.38936550876E+02  0.00000000000E+00 0.  1.
<mgrwt>
<rscale>  0 0.63366430E+02</rscale>
<asrwt>0</asrwt>
<pdfrwt beam="1">  1        2 0.22804974E-02 0.92318858E+02</pdfrwt>
<pdfrwt beam="2">  1       -2 0.33066818E-01 0.92318858E+02</pdfrwt>
<totfact> 0.33943673E+04</totfact>
</mgrwt>
</event>
<event>
 6    1  0.1727544E-002  0.9097784E+02  0.7546771E-02  0.1429635E+00
         -2   -1    0    0    0  501 -0.00000000000E+00  0.00000000000E+00  0.15232514170E+03  0.15232514170E+03  0.00000000000E+00 0.  1.
          2   -1    0    0  501    0  0.00000000000E+00 -0.00000000000E+00 -0.50486474222E+02  0.50486474222E+02  0.00000000000E+00 0. -1.
         23    2    1    2    0    0  0.10457699942E+02  0.99436726451E+00  0.13792468031E+03  0.16522767551E+03  0.90369325889E+02 0.  0.
         13    1    3    3    0    0  0.10936292303E+02 -0.37980981096E+02  0.11107320613E+03  0.11789577827E+03  0.00000000000E+00 0.  1.
        -13    1    3    3    0    0 -0.47859236032E+00  0.38975348361E+02  0.26851474179E+02  0.47331897237E+02  0.00000000000E+00 0. -1.
         22    1    1    2    0    0 -0.10457699942E+02 -0.99436726451E+00 -0.36086012835E+02  0.37583940409E+02  0.00000000000E+00 0. -1.
<mgrwt>
<rscale>  0 0.53033387E+02</rscale>
<asrwt>0</asrwt>
<pdfrwt beam="1">  1        2 0.77671500E-02 0.90977840E+02</pdfrwt>
<pdfrwt beam="2">  1       -2 0.23434637E-01 0.90977840E+02</pdfrwt>
<totfact> 0.12619518E+04</totfact>
</mgrwt>
</event>
<event>
 6    1  0.1727544E-002  0.9409065E+02  0.7546771E-02  0.1394705E+00
         -3   -1    0    0    0  501 -0.00000000000E+00  0.00000000000E+00  0.18177963359E+03  0.18177963359E+03  0.00000000000E+00 0.  1.
          3   -1    0    0  501    0  0.00000000000E+00 -0.00000000000E+00 -0.18670616642E+02  0.18670616642E+02  0.00000000000E+00 0. -1.
         23    2    1    2    0    0 -0.97417853756E+01  0.13134094841E+02  0.15691727371E+03  0.18296469865E+03  0.92658746679E+02 0.  0.
         13    1    3    3    0    0 -0.35798813490E+02 -0.11274175259E+02  0.22221098587E+02  0.43616961122E+02  0.00000000000E+00 0. -1.
        -13    1    3    3    0    0  0.26057028114E+02  0.24408270100E+02  0.13469617512E+03  0.13934773753E+03  0.00000000000E+00 0.  1.
         22    1    1    2    0    0  0.97417853756E+01 -0.13134094841E+02  0.61917432381E+01  0.17485551576E+02  0.00000000000E+00 0.  1.
<mgrwt>
<rscale>  0 0.60751417E+02</rscale>
<asrwt>0</asrwt>
<pdfrwt beam="1">  1        3 0.28724027E-02 0.94090649E+02</pdfrwt>
<pdfrwt beam="2">  1       -3 0.27966096E-01 0.94090649E+02</pdfrwt>
<totfact> 0.13825391E+04</totfact>
</mgrwt>
</event>
<event>
 6    1  0.1727544E-002  0.9893150E+02  0.7546771E-02  0.1337505E+00
          2   -1    0    0  501    0  0.00000000000E+00  0.00000000000E+00  0.17396649441E+02  0.17396649441E+02  0.00000000000E+00 0. -1.
         -2   -1    0    0    0  501 -0.00000000000E+00 -0.00000000000E+00 -0.49824264418E+03  0.49824264418E+03  0.00000000000E+00 0.  1.
         23    2    1    2    0    0  0.11693857390E+02  0.34558061376E+02 -0.46577547274E+03  0.47616618201E+03  0.91958882024E+02 0.  0.
         13    1    3    3    0    0 -0.25143247609E+02 -0.19274726344E+02 -0.11049208603E+03  0.11494433023E+03  0.00000000000E+00 0. -1.
        -13    1    3    3    0    0  0.36837104998E+02  0.53832787720E+02 -0.35528338670E+03  0.36122185178E+03  0.00000000000E+00 0.  1.
         22    1    1    2    0    0 -0.11693857390E+02 -0.34558061376E+02 -0.15070522005E+02  0.39473111611E+02  0.00000000000E+00 0.  1.
<mgrwt>
<rscale>  0 0.77094509E+02</rscale>
<asrwt>0</asrwt>
<pdfrwt beam="1">  1        2 0.26764075E-02 0.98931501E+02</pdfrwt>
<pdfrwt beam="2">  1       -2 0.76652718E-01 0.98931501E+02</pdfrwt>
<totfact> 0.52603546E+03</totfact>
</mgrwt>
</event>
<event>
 6    1  0.1727544E-002  0.8682965E+02  0.7546771E-02  0.1357407E+00
          2   -1    0    0  501    0  0.00000000000E+00  0.00000000000E+00  0.63019739431E+02  0.63019739431E+02  0.00000000000E+00 0. -1.
         -2   -1    0    0    0  501 -0.00000000000E+00 -0.00000000000E+00 -0.63458645057E+02  0.63458645057E+02  0.00000000000E+00 0.  1.
         23    2    1    2    0    0  0.21346597513E+02 -0.31888007060E+02 -0.85744725693E+01  0.87251994531E+02  0.77890094043E+02 0.  0.
         13    1    3    3    0    0 -0.40121457681E+00 -0.54737626837E+02 -0.71896175810E+00  0.54743818563E+02  0.00000000000E+00 0. -1.
        -13    1    3    3    0    0  0.21747812090E+02  0.22849619776E+02 -0.78555108112E+01  0.32508175968E+02  0.00000000000E+00 0.  1.
         22    1    1    2    0    0 -0.21346597513E+02  0.31888007060E+02  0.81355669432E+01  0.39226389958E+02  0.00000000000E+00 0. -1.
<mgrwt>
<rscale>  0 0.70796011E+02</rscale>
<asrwt>0</asrwt>
<pdfrwt beam="1">  1        2 0.96953445E-02 0.86829655E+02</pdfrwt>
<pdfrwt beam="2">  1       -2 0.97628685E-02 0.86829655E+02</pdfrwt>
<totfact> 0.39566812E+04</totfact>
</mgrwt>
</event>
<event>
 6    1  0.1727544E-002  0.9109320E+02  0.7546771E-02  0.1431058E+00
          2   -1    0    0  501    0  0.00000000000E+00  0.00000000000E+00  0.17480802465E+03  0.17480802465E+03  0.00000000000E+00 0. -1.
         -2   -1    0    0    0  501 -0.00000000000E+00 -0.00000000000E+00 -0.15045899234E+02  0.15045899234E+02  0.00000000000E+00 0.  1.
         23    2    1    2    0    0  0.89225341743E+01  0.50281399327E+01  0.13305296565E+03  0.16124845198E+03  0.90515621809E+02 0.  0.
         13    1    3    3    0    0 -0.70632027929E+00 -0.24875424447E+02  0.36077641761E+00  0.24888065199E+02  0.00000000000E+00 0.  1.
        -13    1    3    3    0    0  0.96288544536E+01  0.29903564379E+02  0.13269218923E+03  0.13636038679E+03  0.00000000000E+00 0. -1.
         22    1    1    2    0    0 -0.89225341743E+01 -0.50281399327E+01  0.26709159767E+02  0.28605471902E+02  0.00000000000E+00 0.  1.
<mgrwt>
<rscale>  0 0.52748269E+02</rscale>
<asrwt>0</asrwt>
<pdfrwt beam="1">  1        2 0.26893541E-01 0.91093203E+02</pdfrwt>
<pdfrwt beam="2">  1       -2 0.23147538E-02 0.91093203E+02</pdfrwt>
<totfact> 0.10506346E+05</totfact>
</mgrwt>
</event>
<event>
 6    1  0.1727544E-002  0.9465527E+02  0.7546771E-02  0.1354820E+00
          2   -1    0    0  501    0  0.00000000000E+00  0.00000000000E+00  0.24057471333E+02  0.24057471333E+02  0.00000000000E+00 0. -1.
         -2   -1    0    0    0  501 -0.00000000000E+00 -0.00000000000E+00 -0.19201520109E+03  0.19201520109E+03  0.00000000000E+00 0.  1.
         23    2    1    2    0    0 -0.15766493998E+02  0.26627234624E+02 -0.15684307531E+03  0.18319216908E+03  0.89454058505E+02 0.  0.
         11    1    3    3    0    0  0.31923945655E+02 -0.46802718116E+01 -0.88323570365E+02  0.94032421709E+02  0.00000000000E+00 0.  1.
        -11    1    3    3    0    0 -0.47690439653E+02  0.31307506436E+02 -0.68519504944E+02  0.89159747371E+02  0.00000000000E+00 0. -1.
         22    1    1    2    0    0  0.15766493998E+02 -0.26627234624E+02 -0.11114654451E+02  0.32880503346E+02  0.00000000000E+00 0.  1.
<mgrwt>
<rscale>  0 0.71574145E+02</rscale>
<asrwt>0</asrwt>
<pdfrwt beam="1">  1        2 0.37011494E-02 0.94655272E+02</pdfrwt>
<pdfrwt beam="2">  1       -2 0.29540800E-01 0.94655272E+02</pdfrwt>
<totfact> 0.21894040E+04</totfact>
</mgrwt>
</event>
<event>
 6    1  0.1727544E-002  0.8765140E+02  0.7546771E-02  0.1431945E+00
          4   -1    0    0  501    0  0.00000000000E+00  0.00000000000E+00  0.43224583179E+02  0.43224583179E+02  0.00000000000E+00 0. -1.
         -4   -1    0    0    0  501 -0.00000000000E+00 -0.00000000000E+00 -0.64031708728E+02  0.64031708728E+02  0.00000000000E+00 0.  1.
         23    2    1    2    0    0 -0.10656372798E+02  0.38866840505E+01 -0.30013214111E+02  0.92647504800E+02  0.86914340188E+02 0.  0.
         11    1    3    3    0    0 -0.46968291526E+02  0.14224610003E+02 -0.23200959425E+02  0.54283003388E+02  0.00000000000E+00 0.  1.
        -11    1    3    3    0    0  0.36311918728E+02 -0.10337925953E+02 -0.68122546864E+01  0.38364501412E+02  0.00000000000E+00 0. -1.
         22    1    1    2    0    0  0.10656372798E+02 -0.38866840505E+01  0.92060885619E+01  0.14608787107E+02  0.00000000000E+00 0. -1.
<mgrwt>
<rscale>  0 0.52571638E+02</rscale>
<asrwt>0</asrwt>
<pdfrwt beam="1">  1        4 0.66499359E-02 0.87651395E+02</pdfrwt>
<pdfrwt beam="2">  1       -4 0.98510321E-02 0.87651395E+02</pdfrwt>
<totfact> 0.16623948E+04</totfact>
</mgrwt>
</event>
<event>
 6    1  0.1727544E-002  0.9215395E+02  0.7546771E-02  0.1402781E+00
          2   -1    0    0  501    0  0.00000000000E+00  0.00000000000E+00  0.38032025946E+02  0.38032025946E+02  0.00000000000E+00 0. -1.
         -2   -1    0    0    0  501 -0.00000000000E+00 -0.00000000000E+00 -0.10745339687E+03  0.10745339687E+03  0.00000000000E+00 0.  1.
         23    2    1    2    0    0  0.10682011470E+02  0.10971066943E+02 -0.83742447371E+02  0.12451966718E+03  0.90872880130E+02 0.  0.
         11    1    3    3    0    0 -0.80211945684E+01  0.16979520621E+02  0.14880145298E+02  0.23959599473E+02  0.00000000000E+00 0. -1.
        -11    1    3    3    0    0  0.18703206039E+02 -0.60084536773E+01 -0.98622592670E+02  0.10056006770E+03  0.00000000000E+00 0.  1.
         22    1    1    2    0    0 -0.10682011470E+02 -0.10971066943E+02  0.14321076447E+02  0.20965755639E+02  0.00000000000E+00 0. -1.
<mgrwt>
<rscale>  0 0.58836427E+02</rscale>
<asrwt>0</asrwt>
<pdfrwt beam="1">  1        2 0.58510809E-02 0.92153947E+02</pdfrwt>
<pdfrwt beam="2">  1       -2 0.16531292E-01 0.92153947E+02</pdfrwt>
<totfact> 0.32380392E+04</totfact>
</mgrwt>
</event>
<event>
 6    1  0.1727544E-002  0.9237906E+02  0.7546771E-02  0.1418088E+00
         -1   -1    0    0    0  501 -0.00000000000E+00  0.00000000000E+00  0.31020998364E+03  0.31020998364E+03  0.00000000000E+00 0.  1.
          1   -1    0    0  501    0  0.00000000000E+00 -0.00000000000E+00 -0.93285179850E+01  0.93285179850E+01  0.00000000000E+00 0. -1.
         23    2    1    2    0    0  0.26292045806E+01 -0.11680034665E+02  0.28533362589E+03  0.29991526928E+03  0.91599971370E+02 0.  0.
         11    1    3    3    0    0  0.39127790363E+02  0.18829485077E+02  0.11050819383E+03  0.11873329099E+03  0.00000000000E+00 0. -1.
        -11    1    3    3    0    0 -0.36498585782E+02 -0.30509519741E+02  0.17482543206E+03  0.18118197828E+03  0.00000000000E+00 0.  1.
         22    1    1    2    0    0 -0.26292045806E+01  0.11680034665E+02  0.15547839771E+02  0.19623232354E+02  0.00000000000E+00 0.  1.
<mgrwt>
<rscale>  0 0.55427404E+02</rscale>
<asrwt>0</asrwt>
<pdfrwt beam="1">  1        1 0.14351569E-02 0.92379060E+02</pdfrwt>
<pdfrwt beam="2">  1       -1 0.47724605E-01 0.92379060E+02</pdfrwt>
<totfact> 0.37875899E+04</totfact>
</mgrwt>
</event>
<event>
 6    1  0.1727544E-002  0.8908514E+02  0.7546771E-02  0.1411228E+00
          2   -1    0    0  501    0  0.00000000000E+00  0.00000000000E+00  0.21272263917E+02  0.21272263917E+02  0.00000000000E+00 0. -1.
         -2   -1    0    0    0  501 -0.00000000000E+00 -0.00000000000E+00 -0.21293491198E+03  0.21293491198E+03  0.00000000000E+00 0.  1.
         23    2    1    2    0    0  0.11665474432E+02  0.91858284536E+01 -0.19871452936E+03  0.21776966489E+03  0.87839057546E+02 0.  0.
         11    1    3    3    0    0 -0.15446065078E+02  0.39282433854E+02 -0.14154015634E+03  0.14770005549E+03  0.00000000000E+00 0.  1.
        -11    1    3    3    0    0  0.27111539510E+02 -0.30096605400E+02 -0.57174373021E+02  0.70069609400E+02  0.00000000000E+00 0. -1.
         22    1    1    2    0    0 -0.11665474432E+02 -0.91858284536E+01  0.70518812982E+01  0.16437511002E+02  0.00000000000E+00 0. -1.
<mgrwt>
<rscale>  0 0.56920783E+02</rscale>
<asrwt>0</asrwt>
<pdfrwt beam="1">  1        2 0.32726560E-02 0.89085143E+02</pdfrwt>
<pdfrwt beam="2">  1       -2 0.32759217E-01 0.89085143E+02</pdfrwt>
<totfact> 0.21228014E+04</totfact>
</mgrwt>
</event>
<event>
 6    1  0.1727544E-002  0.9715864E+02  0.7546771E-02  0.1370245E+00
         -2   -1    0    0    0  501 -0.00000000000E+00  0.00000000000E+00  0.78361074491E+03  0.78361074491E+03  0.00000000000E+00 0.  1.
          2   -1    0    0  501    0  0.00000000000E+00 -0.00000000000E+00 -0.12741066333E+02  0.12741066333E+02  0.00000000000E+00 0. -1.
         23    2    1    2    0    0 -0.77888884392E+01  0.20683625853E+02  0.76793434857E+03  0.77405617661E+03  0.94611424620E+02 0.  0.
         11    1    3    3    0    0  0.38491244936E+02  0.28174055186E+02  0.29859499000E+03  0.30238108634E+03  0.00000000000E+00 0. -1.
        -11    1    3    3    0    0 -0.46280133375E+02 -0.74904293325E+01  0.46933935857E+03  0.47167509027E+03  0.00000000000E+00 0.  1.
         22    1    1    2    0    0  0.77888884392E+01 -0.20683625853E+02  0.29353300061E+01  0.22295634636E+02  0.00000000000E+00 0. -1.
<mgrwt>
<rscale>  0 0.67099119E+02</rscale>
<asrwt>0</asrwt>
<pdfrwt beam="1">  1        2 0.19601647E-02 0.97158637E+02</pdfrwt>
<pdfrwt beam="2">  1       -2 0.12055546E+00 0.97158637E+02</pdfrwt>
<totfact> 0.28590528E+03</totfact>
</mgrwt>
</event>
<event>
 6    1  0.1727544E-002  0.9513179E+02  0.7546771E-02  0.1368545E+00
         -4   -1    0    0    0  501 -0.00000000000E+00  0.00000000000E+00  0.82881798774E+02  0.82881798774E+02  0.00000000000E+00 0.  1.
          4   -1    0    0  501    0  0.00000000000E+00 -0.00000000000E+00 -0.43276673740E+02  0.43276673740E+02  0.00000000000E+00 0. -1.
         23    2    1    2    0    0  0.24128737425E+02 -0.20685522944E+01  0.27172625765E+02  0.98936387429E+02  0.91997729800E+02 0.  0.
         11    1    3    3    0    0 -0.47146830407E+00  0.80872477714E+01 -0.32554876769E+02  0.33547665498E+02  0.00000000000E+00 0. -1.
        -11    1    3    3    0    0  0.24600205729E+02 -0.10155800066E+02  0.59727502534E+02  0.65388721932E+02  0.00000000000E+00 0.  1.
         22    1    1    2    0    0 -0.24128737425E+02  0.20685522944E+01  0.12432499269E+02  0.27222085085E+02  0.00000000000E+00 0. -1.
<mgrwt>
<rscale>  0 0.67573346E+02</rscale>
<asrwt>0</asrwt>
<pdfrwt beam="1">  1        4 0.66579498E-02 0.95131788E+02</pdfrwt>
<pdfrwt beam="2">  1       -4 0.12751046E-01 0.95131788E+02</pdfrwt>
<totfact> 0.11011373E+04</totfact>
</mgrwt>
</event>
<event>
 6    1  0.1727544E-002  0.9402756E+02  0.7546771E-02  0.1359174E+00
         -1   -1    0    0    0  501 -0.00000000000E+00  0.00000000000E+00  0.79264501549E+02  0.79264501549E+02  0.00000000000E+00 0.  1.
          1   -1    0    0  501    0  0.00000000000E+00 -0.00000000000E+00 -0.48369776662E+02  0.48369776662E+02  0.00000000000E+00 0. -1.
         23    2    1    2    0    0 -0.22874473022E+02  0.18360740501E+02  0.28268982720E+02  0.98185121522E+02  0.89335459905E+02 0.  0.
         13    1    3    3    0    0 -0.12937814674E+01 -0.28492551751E+02 -0.13740170148E+02  0.31658990057E+02  0.00000000000E+00 0. -1.
        -13    1    3    3    0    0 -0.21580691555E+02  0.46853292252E+02  0.42009152869E+02  0.66526131464E+02  0.00000000000E+00 0.  1.
         22    1    1    2    0    0  0.22874473022E+02 -0.18360740501E+02  0.26257421669E+01  0.29449156690E+02  0.00000000000E+00 0.  1.
<mgrwt>
<rscale>  0 0.70271028E+02</rscale>
<asrwt>0</asrwt>
<pdfrwt beam="1">  1        1 0.74415041E-02 0.94027564E+02</pdfrwt>
<pdfrwt beam="2">  1       -1 0.12194539E-01 0.94027564E+02</pdfrwt>
<totfact> 0.37339896E+04</totfact>
</mgrwt>
</event>
<event>
 6    1  0.1727544E-002  0.9167611E+02  0.7546771E-02  0.1415593E+00
          1   -1    0    0  501    0  0.00000000000E+00  0.00000000000E+00  0.21171589419E+03  0.21171589419E+03  0.00000000000E+00 0. -1.
         -1   -1    0    0    0  501 -0.00000000000E+00 -0.00000000000E+00 -0.13182333746E+02  0.13182333746E+02  0.00000000000E+00 0.  1.
         23    2    1    2    0    0  0.11296860645E+02 -0.58711213521E+01  0.16109331569E+03  0.18535254481E+03  0.90787776615E+02 0.  0.
         11    1    3    3    0    0  0.37401954972E+02 -0.33560598094E+02  0.66194934004E+02  0.83108298430E+02  0.00000000000E+00 0.  1.
        -11    1    3    3    0    0 -0.26105094327E+02  0.27689476742E+02  0.94898381682E+02  0.10224424638E+03  0.00000000000E+00 0. -1.
         22    1    1    2    0    0 -0.11296860645E+02  0.58711213521E+01  0.37440244758E+02  0.39545683126E+02  0.00000000000E+00 0. -1.
<mgrwt>
<rscale>  0 0.55964339E+02</rscale>
<asrwt>0</asrwt>
<pdfrwt beam="1">  1        1 0.32571674E-01 0.91676112E+02</pdfrwt>
<pdfrwt beam="2">  1       -1 0.20280515E-02 0.91676112E+02</pdfrwt>
<totfact> 0.78757443E+04</totfact>
</mgrwt>
</event>
<event>
 6    1  0.1727544E-002  0.9517316E+02  0.7546771E-02  0.1372838E+00
          2   -1    0    0  501    0  0.00000000000E+00  0.00000000000E+00  0.17453302239E+02  0.17453302239E+02  0.00000000000E+00 0. -1.
         -2   -1    0    0    0  501 -0.00000000000E+00 -0.00000000000E+00 -0.34011520444E+03  0.34011520444E+03  0.00000000000E+00 0.  1.
         23    2    1    2    0    0  0.19642892278E+02  0.11030579698E+02 -0.32118819606E+03  0.33499222011E+03  0.92468445121E+02 0.  0.
         11    1    3    3    0    0 -0.11513134814E+02 -0.78634471929E+01 -0.24229708308E+01  0.14151214176E+02  0.00000000000E+00 0. -1.
        -11    1    3    3    0    0  0.31156027092E+02  0.18894026891E+02 -0.31876522522E+03  0.32084100593E+03  0.00000000000E+00 0.  1.
         22    1    1    2    0    0 -0.19642892278E+02 -0.11030579698E+02 -0.14737061471E+01  0.22576286571E+02  0.00000000000E+00 0. -1.
<mgrwt>
<rscale>  0 0.66384575E+02</rscale>
<asrwt>0</asrwt>
<pdfrwt beam="1">  1        2 0.26851236E-02 0.95173159E+02</pdfrwt>
<pdfrwt beam="2">  1       -2 0.52325413E-01 0.95173159E+02</pdfrwt>
<totfact> 0.11479549E+04</totfact>
</mgrwt>
</event>
<event>
 6    1  0.1727544E-002  0.9251358E+02  0.7546771E-02  0.1398048E+00
         -4   -1    0    0    0  501 -0.00000000000E+00  0.00000000000E+00  0.57569191135E+02  0.57569191135E+02  0.00000000000E+00 0.  1.
          4   -1    0    0  501    0  0.00000000000E+00 -0.00000000000E+00 -0.60763405796E+02  0.60763405796E+02  0.00000000000E+00 0. -1.
         23    2    1    2    0    0 -0.43078684558E+01  0.15732489009E+02  0.15193158065E+02  0.93752840691E+02  0.91064230874E+02 0.  0.
         13    1    3    3    0    0  0.37355100193E+02 -0.15080781022E+02  0.11025824097E+02  0.41766041992E+02  0.00000000000E+00 0.  1.
        -13    1    3    3    0    0 -0.41662968649E+02  0.30813270030E+02  0.41673339682E+01  0.51986798699E+02  0.00000000000E+00 0. -1.
         22    1    1    2    0    0  0.43078684558E+01 -0.15732489009E+02 -0.18387372725E+02  0.24579756239E+02  0.00000000000E+00 0. -1.
<mgrwt>
<rscale>  0 0.59948511E+02</rscale>
<asrwt>0</asrwt>
<pdfrwt beam="1">  1        4 0.93482163E-02 0.92513583E+02</pdfrwt>
<pdfrwt beam="2">  1       -4 0.88567986E-02 0.92513583E+02</pdfrwt>
<totfact> 0.11537846E+04</totfact>
</mgrwt>
</event>
<event>
 6    1  0.1727544E-002  0.9421233E+02  0.7546771E-02  0.1391226E+00
         -2   -1    0    0    0  501 -0.00000000000E+00  0.00000000000E+00  0.43474479947E+02  0.43474479947E+02  0.00000000000E+00 0. -1.
          2   -1    0    0  501    0  0.00000000000E+00 -0.00000000000E+00 -0.81057880789E+02  0.81057880789E+02  0.00000000000E+00 0.  1.
         23    2    1    2    0    0  0.15796396551E+02 -0.68602729725E+01 -0.46584350139E+02  0.10510025901E+03  0.92624906352E+02 0.  0.
         11    1    3    3    0    0 -0.12939323371E+02  0.34344029059E+02 -0.16324050543E+00  0.36701022721E+02  0.00000000000E+00 0. -1.
        -11    1    3    3    0    0  0.28735719922E+02 -0.41204302031E+02 -0.46421109633E+02  0.68399236289E+02  0.00000000000E+00 0.  1.
         22    1    1    2    0    0 -0.15796396551E+02  0.68602729725E+01  0.90009492969E+01  0.19432101726E+02  0.00000000000E+00 0. -1.
<mgrwt>
<rscale>  0 0.61602774E+02</rscale>
<asrwt>0</asrwt>
<pdfrwt beam="1">  1        2 0.12470443E-01 0.94212328E+02</pdfrwt>
<pdfrwt beam="2">  1       -2 0.66883816E-02 0.94212328E+02</pdfrwt>
<totfact> 0.52770629E+04</totfact>
</mgrwt>
</event>
<event>
 6    1  0.1727544E-002  0.9677291E+02  0.7546771E-02  0.1410267E+00
         -2   -1    0    0    0  501 -0.00000000000E+00  0.00000000000E+00  0.23991075055E+02  0.23991075055E+02  0.00000000000E+00 0.  1.
          2   -1    0    0  501    0  0.00000000000E+00 -0.00000000000E+00 -0.12295891849E+03  0.12295891849E+03  0.00000000000E+00 0. -1.
         23    2    1    2    0    0  0.11440147745E+02  0.27143702819E+01 -0.86259446094E+02  0.12963675730E+03  0.96055983757E+02 0.  0.
         13    1    3    3    0    0  0.35245068352E+02  0.64035201207E+01 -0.96894691365E+02  0.10330441001E+03  0.00000000000E+00 0. -1.
        -13    1    3    3    0    0 -0.23804920607E+02 -0.36891498388E+01  0.10635245270E+02  0.26332347286E+02  0.00000000000E+00 0.  1.
         22    1    1    2    0    0 -0.11440147745E+02 -0.27143702819E+01 -0.12708397344E+02  0.17313236251E+02  0.00000000000E+00 0.  1.
<mgrwt>
<rscale>  0 0.57134240E+02</rscale>
<asrwt>0</asrwt>
<pdfrwt beam="1">  1        2 0.18916756E-01 0.96772914E+02</pdfrwt>
<pdfrwt beam="2">  1       -2 0.36909347E-02 0.96772914E+02</pdfrwt>
<totfact> 0.79287042E+04</totfact>
</mgrwt>
</event>
<event>
 6    1  0.1727544E-002  0.9431688E+02  0.7546771E-02  0.1394185E+00
          2   -1    0    0  501    0  0.00000000000E+00  0.00000000000E+00  0.12384767892E+03  0.12384767892E+03  0.00000000000E+00 0. -1.
         -2   -1    0    0    0  501 -0.00000000000E+00 -0.00000000000E+00 -0.32359873550E+02  0.32359873550E+02  0.00000000000E+00 0.  1.
         23    2    1    2    0    0 -0.33470259337E+01 -0.16024742288E+02  0.40479351863E+02  0.10263650360E+03  0.92885300213E+02 0.  0.
         11    1    3    3    0    0 -0.22418332595E+02 -0.47702350802E+02  0.39114835987E+02  0.65635861408E+02  0.00000000000E+00 0. -1.
        -11    1    3    3    0    0  0.19071306661E+02  0.31677608514E+02  0.13645158756E+01  0.37000642191E+02  0.00000000000E+00 0.  1.
         22    1    1    2    0    0  0.33470259337E+01  0.16024742288E+02  0.51008453507E+02  0.53571048871E+02  0.00000000000E+00 0. -1.
<mgrwt>
<rscale>  0 0.60877652E+02</rscale>
<asrwt>0</asrwt>
<pdfrwt beam="1">  1        2 0.19053489E-01 0.94316880E+02</pdfrwt>
<pdfrwt beam="2">  1       -2 0.49784421E-02 0.94316880E+02</pdfrwt>
<totfact> 0.50371445E+04</totfact>
</mgrwt>
</event>
<event>
 6    1  0.1727544E-002  0.9424257E+02  0.7546771E-02  0.1400519E+00
         -4   -1    0    0    0  501 -0.00000000000E+00  0.00000000000E+00  0.48406499299E+02  0.48406499299E+02  0.00000000000E+00 0.  1.
          4   -1    0    0  501    0  0.00000000000E+00 -0.00000000000E+00 -0.61703678978E+02  0.61703678978E+02  0.00000000000E+00 0. -1.
         23    2    1    2    0    0 -0.26686887635E+00  0.14835190757E+02 -0.13890475887E+02  0.95260730334E+02  0.93067219361E+02 0.  0.
         11    1    3    3    0    0  0.42144593090E+02  0.23278107501E+02  0.43193993989E+01  0.48339365188E+02  0.00000000000E+00 0.  1.
        -11    1    3    3    0    0 -0.42411461966E+02 -0.84429167442E+01 -0.18209875286E+02  0.46921365146E+02  0.00000000000E+00 0. -1.
         22    1    1    2    0    0  0.26686887635E+00 -0.14835190757E+02  0.59329620784E+00  0.14849447942E+02  0.00000000000E+00 0. -1.
<mgrwt>
<rscale>  0 0.59364413E+02</rscale>
<asrwt>0</asrwt>
<pdfrwt beam="1">  1        4 0.94928736E-02 0.94242567E+02</pdfrwt>
<pdfrwt beam="2">  1       -4 0.74471538E-02 0.94242567E+02</pdfrwt>
<totfact> 0.15040791E+04</totfact>
</mgrwt>
</event>
<event>
 6    1  0.1727544E-002  0.9696891E+02  0.7546771E-02  0.1348505E+00
         -2   -1    0    0    0  501 -0.00000000000E+00  0.00000000000E+00  0.84090725258E+02  0.84090725258E+02  0.00000000000E+00 0.  1.
          2   -1    0    0  501    0  0.00000000000E+00 -0.00000000000E+00 -0.10084184842E+03  0.10084184842E+03  0.00000000000E+00 0. -1.
         23    2    1    2    0    0  0.24885002425E+02  0.20194902095E+02  0.51307247698E+02  0.10970598755E+03  0.91519793606E+02 0.  0.
         11    1    3    3    0    0  0.46633342909E+02 -0.13285893684E+02  0.52794041561E+01  0.48775565092E+02  0.00000000000E+00 0.  1.
        -11    1    3    3    0    0 -0.21748340484E+02  0.33480795779E+02  0.46027843542E+02  0.60930422458E+02  0.00000000000E+00 0. -1.
         22    1    1    2    0    0 -0.24885002425E+02 -0.20194902095E+02 -0.68058370858E+02  0.75226586126E+02  0.00000000000E+00 0. -1.
<mgrwt>
<rscale>  0 0.73523445E+02</rscale>
<asrwt>0</asrwt>
<pdfrwt beam="1">  1        2 0.15514131E-01 0.96968913E+02</pdfrwt>
<pdfrwt beam="2">  1       -2 0.12937035E-01 0.96968913E+02</pdfrwt>
<totfact> 0.14757466E+04</totfact>
</mgrwt>
</event>
<event>
 6    1  0.1727544E-002  0.9230499E+02  0.7546771E-02  0.1420806E+00
         -3   -1    0    0    0  501 -0.00000000000E+00  0.00000000000E+00  0.28424281996E+03  0.28424281996E+03  0.00000000000E+00 0.  1.
          3   -1    0    0  501    0  0.00000000000E+00 -0.00000000000E+00 -0.11287590524E+02  0.11287590524E+02  0.00000000000E+00 0. -1.
         23    2    1    2    0    0 -0.11502472253E+02 -0.40322451232E+00  0.26713522866E+03  0.28263305157E+03  0.91584616576E+02 0.  0.
         11    1    3    3    0    0 -0.10988773452E+02 -0.44574153062E+02  0.10519990421E+03  0.11478078284E+03  0.00000000000E+00 0. -1.
        -11    1    3    3    0    0 -0.51369880068E+00  0.44170928550E+02  0.16193532444E+03  0.16785226873E+03  0.00000000000E+00 0.  1.
         22    1    1    2    0    0  0.11502472253E+02  0.40322451232E+00  0.58200007843E+01  0.12897358918E+02  0.00000000000E+00 0. -1.
<mgrwt>
<rscale>  0 0.54850850E+02</rscale>
<asrwt>0</asrwt>
<pdfrwt beam="1">  1        3 0.17365526E-02 0.92304991E+02</pdfrwt>
<pdfrwt beam="2">  1       -3 0.43729659E-01 0.92304991E+02</pdfrwt>
<totfact> 0.12770968E+04</totfact>
</mgrwt>
</event>
<event>
 6    1  0.1727544E-002  0.9172458E+02  0.7546771E-02  0.1419790E+00
         -1   -1    0    0    0  501 -0.00000000000E+00  0.00000000000E+00  0.48733870561E+02  0.48733870561E+02  0.00000000000E+00 0.  1.
          1   -1    0    0  501    0  0.00000000000E+00 -0.00000000000E+00 -0.64032663088E+02  0.64032663088E+02  0.00000000000E+00 0. -1.
         23    2    1    2    0    0  0.46364456288E+01  0.10974730708E+02  0.20184882956E+01  0.91746791564E+02  0.90947557005E+02 0.  0.
         11    1    3    3    0    0  0.36535179638E+02 -0.17746506489E+02 -0.17948713086E+02  0.44406239935E+02  0.00000000000E+00 0. -1.
        -11    1    3    3    0    0 -0.31898734009E+02  0.28721237197E+02  0.19967201382E+02  0.47340551629E+02  0.00000000000E+00 0.  1.
         22    1    1    2    0    0 -0.46364456288E+01 -0.10974730708E+02 -0.17317280823E+02  0.21019742084E+02  0.00000000000E+00 0. -1.
<mgrwt>
<rscale>  0 0.55065290E+02</rscale>
<asrwt>0</asrwt>
<pdfrwt beam="1">  1        1 0.98511789E-02 0.91724585E+02</pdfrwt>
<pdfrwt beam="2">  1       -1 0.74975185E-02 0.91724585E+02</pdfrwt>
<totfact> 0.53483266E+04</totfact>
</mgrwt>
</event>
<event>
 6    1  0.1727544E-002  0.9904351E+02  0.7546771E-02  0.1336397E+00
          1   -1    0    0  501    0  0.00000000000E+00  0.00000000000E+00  0.27508847517E+03  0.27508847517E+03  0.00000000000E+00 0. -1.
         -1   -1    0    0    0  501 -0.00000000000E+00 -0.00000000000E+00 -0.17256405135E+02  0.17256405135E+02  0.00000000000E+00 0.  1.
         23    2    1    2    0    0  0.36629452851E+02  0.56801710214E+01  0.16582346841E+03  0.19315030419E+03  0.91845719398E+02 0.  0.
         13    1    3    3    0    0  0.13502487971E+02 -0.35411995549E+02  0.26988512519E+02  0.46526405601E+02  0.00000000000E+00 0.  1.
        -13    1    3    3    0    0  0.23126964880E+02  0.41092166571E+02  0.13883495589E+03  0.14662389859E+03  0.00000000000E+00 0. -1.
         22    1    1    2    0    0 -0.36629452851E+02 -0.56801710214E+01  0.92008601618E+02  0.99194576116E+02  0.00000000000E+00 0. -1.
<mgrwt>
<rscale>  0 0.77467069E+02</rscale>
<asrwt>0</asrwt>
<pdfrwt beam="1">  1        1 0.42321301E-01 0.99043512E+02</pdfrwt>
<pdfrwt beam="2">  1       -1 0.26548318E-02 0.99043512E+02</pdfrwt>
<totfact> 0.39269792E+04</totfact>
</mgrwt>
</event>
<event>
 6    1  0.1727544E-002  0.9333160E+02  0.7546771E-02  0.1424713E+00
          2   -1    0    0  501    0  0.00000000000E+00  0.00000000000E+00  0.65084850232E+01  0.65084850232E+01  0.00000000000E+00 0. -1.
         -2   -1    0    0    0  501 -0.00000000000E+00 -0.00000000000E+00 -0.41502536780E+03  0.41502536780E+03  0.00000000000E+00 0.  1.
         23    2    1    2    0    0  0.76260064778E+00  0.10459264795E+02 -0.37314953863E+03  0.38464446665E+03  0.92740550836E+02 0.  0.
         13    1    3    3    0    0  0.40409867051E+02 -0.10782893524E+02 -0.25133317318E+03  0.25478930921E+03  0.00000000000E+00 0.  1.
        -13    1    3    3    0    0 -0.39647266404E+02  0.21242158319E+02 -0.12181636544E+03  0.12985515744E+03  0.00000000000E+00 0. -1.
         22    1    1    2    0    0 -0.76260064778E+00 -0.10459264795E+02 -0.35367344147E+02  0.36889386168E+02  0.00000000000E+00 0.  1.
<mgrwt>
<rscale>  0 0.54036181E+02</rscale>
<asrwt>0</asrwt>
<pdfrwt beam="1">  1        2 0.10013055E-02 0.93331600E+02</pdfrwt>
<pdfrwt beam="2">  1       -2 0.63850048E-01 0.93331600E+02</pdfrwt>
<totfact> 0.29158750E+04</totfact>
</mgrwt>
</event>
<event>
 6    1  0.1727544E-002  0.9172989E+02  0.7546771E-02  0.1429390E+00
         -2   -1    0    0    0  501 -0.00000000000E+00  0.00000000000E+00  0.86122545359E+01  0.86122545359E+01  0.00000000000E+00 0.  1.
          2   -1    0    0  501    0  0.00000000000E+00 -0.00000000000E+00 -0.30316084913E+03  0.30316084913E+03  0.00000000000E+00 0. -1.
         23    2    1    2    0    0 -0.21605369270E+01  0.10057366032E+02 -0.26998327213E+03  0.28514091263E+03  0.91151271508E+02 0.  0.
         11    1    3    3    0    0  0.25998518831E+02  0.10799272836E+01 -0.18500592758E+02  0.31927435800E+02  0.00000000000E+00 0.  1.
        -11    1    3    3    0    0 -0.28159055758E+02  0.89774387484E+01 -0.25148267937E+03  0.25321347683E+03  0.00000000000E+00 0. -1.
         22    1    1    2    0    0  0.21605369270E+01 -0.10057366032E+02 -0.24565322471E+02  0.26632191037E+02  0.00000000000E+00 0.  1.
<mgrwt>
<rscale>  0 0.53082745E+02</rscale>
<asrwt>0</asrwt>
<pdfrwt beam="1">  1        2 0.46640126E-01 0.91729891E+02</pdfrwt>
<pdfrwt beam="2">  1       -2 0.13249624E-02 0.91729891E+02</pdfrwt>
<totfact> 0.13057966E+05</totfact>
</mgrwt>
</event>
<event>
 6    1  0.1727544E-002  0.9185801E+02  0.7546771E-02  0.1412103E+00
         -2   -1    0    0    0  501 -0.00000000000E+00  0.00000000000E+00  0.14217833478E+02  0.14217833478E+02  0.00000000000E+00 0. -1.
          2   -1    0    0  501    0  0.00000000000E+00 -0.00000000000E+00 -0.20353838619E+03  0.20353838619E+03  0.00000000000E+00 0.  1.
         23    2    1    2    0    0  0.13238891866E+02  0.17973042578E+01 -0.14665667231E+03  0.17304933819E+03  0.90881215633E+02 0.  0.
         11    1    3    3    0    0 -0.22537127634E+01 -0.40329697757E+02 -0.37879348407E+02  0.55375163911E+02  0.00000000000E+00 0. -1.
        -11    1    3    3    0    0  0.15492604630E+02  0.42127002015E+02 -0.10877732391E+03  0.11767417428E+03  0.00000000000E+00 0.  1.
         22    1    1    2    0    0 -0.13238891866E+02 -0.17973042578E+01 -0.42663880396E+02  0.44706881472E+02  0.00000000000E+00 0. -1.
<mgrwt>
<rscale>  0 0.56727300E+02</rscale>
<asrwt>0</asrwt>
<pdfrwt beam="1">  1        2 0.31313595E-01 0.91858010E+02</pdfrwt>
<pdfrwt beam="2">  1       -2 0.21873592E-02 0.91858010E+02</pdfrwt>
<totfact> 0.96948165E+04</totfact>
</mgrwt>
</event>
<event>
 6    1  0.1727544E-002  0.1573350E+03  0.7546771E-02  0.1205285E+00
          2   -1    0    0  501    0  0.00000000000E+00  0.00000000000E+00  0.35548427510E+02  0.35548427510E+02  0.00000000000E+00 0.  1.
         -2   -1    0    0    0  501 -0.00000000000E+00 -0.00000000000E+00 -0.69963348889E+03  0.69963348889E+03  0.00000000000E+00 0. -1.
         23    2    1    2    0    0  0.11686557607E+03 -0.80880454097E+01 -0.54847562009E+03  0.57059600490E+03  0.10503007008E+03 0.  0.
         11    1    3    3    0    0  0.91480162958E+02  0.19802797044E+02 -0.20862824538E+03  0.22866244938E+03  0.00000000000E+00 0.  1.
        -11    1    3    3    0    0  0.25385413116E+02 -0.27890842454E+02 -0.33984737472E+03  0.34193355553E+03  0.00000000000E+00 0. -1.
         22    1    1    2    0    0 -0.11686557607E+03  0.80880454097E+01 -0.11560944129E+03  0.16458591150E+03  0.00000000000E+00 0.  1.
<mgrwt>
<rscale>  0 0.14615040E+03</rscale>
<asrwt>0</asrwt>
<pdfrwt beam="1">  1        2 0.54689893E-02 0.15733498E+03</pdfrwt>
<pdfrwt beam="2">  1       -2 0.10763591E+00 0.15733498E+03</pdfrwt>
<totfact> 0.98431366E+02</totfact>
</mgrwt>
</event>
<event>
 6    1  0.1727544E-002  0.9020460E+02  0.7546771E-02  0.1415611E+00
         -2   -1    0    0    0  501 -0.00000000000E+00  0.00000000000E+00  0.16727104028E+02  0.16727104028E+02  0.00000000000E+00 0. -1.
          2   -1    0    0  501    0  0.00000000000E+00 -0.00000000000E+00 -0.16460006420E+03  0.16460006420E+03  0.00000000000E+00 0.  1.
         23    2    1    2    0    0 -0.12748165177E+02  0.39995504528E+01 -0.11739138825E+03  0.14804596713E+03  0.89209630821E+02 0.  0.
         13    1    3    3    0    0  0.93314660381E+01 -0.30895019595E+02 -0.11288193664E+02  0.34190668470E+02  0.00000000000E+00 0. -1.
        -13    1    3    3    0    0 -0.22079631215E+02  0.34894570048E+02 -0.10610319458E+03  0.11385529866E+03  0.00000000000E+00 0.  1.
         22    1    1    2    0    0  0.12748165177E+02 -0.39995504528E+01 -0.30481571921E+02  0.33281201090E+02  0.00000000000E+00 0. -1.
<mgrwt>
<rscale>  0 0.55960294E+02</rscale>
<asrwt>0</asrwt>
<pdfrwt beam="1">  1        2 0.25323086E-01 0.90204603E+02</pdfrwt>
<pdfrwt beam="2">  1       -2 0.25734007E-02 0.90204603E+02</pdfrwt>
<totfact> 0.96091996E+04</totfact>
</mgrwt>
</event>
<event>
 6    1  0.1727544E-002  0.9006343E+02  0.7546771E-02  0.1411687E+00
         -2   -1    0    0    0  501 -0.00000000000E+00  0.00000000000E+00  0.71443054336E+01  0.71443054336E+01  0.00000000000E+00 0.  1.
          2   -1    0    0  501    0  0.00000000000E+00 -0.00000000000E+00 -0.38173661739E+03  0.38173661739E+03  0.00000000000E+00 0. -1.
         23    2    1    2    0    0  0.60934228142E+01 -0.12900254763E+02 -0.31677350593E+03  0.32932791531E+03  0.88926235519E+02 0.  0.
         11    1    3    3    0    0 -0.32840570254E+02 -0.66504567269E+00 -0.24131362639E+03  0.24353893245E+03  0.00000000000E+00 0. -1.
        -11    1    3    3    0    0  0.38933993068E+02 -0.12235209090E+02 -0.75459879546E+02  0.85788982852E+02  0.00000000000E+00 0.  1.
         22    1    1    2    0    0 -0.60934228142E+01  0.12900254763E+02 -0.57818806027E+02  0.59553007522E+02  0.00000000000E+00 0.  1.
<mgrwt>
<rscale>  0 0.56819092E+02</rscale>
<asrwt>0</asrwt>
<pdfrwt beam="1">  1        2 0.58728706E-01 0.90063432E+02</pdfrwt>
<pdfrwt beam="2">  1       -2 0.10991240E-02 0.90063432E+02</pdfrwt>
<totfact> 0.13339128E+05</totfact>
</mgrwt>
</event>
<event>
 6    1  0.1727544E-002  0.9501498E+02  0.7546771E-02  0.1358202E+00
          3   -1    0    0  501    0  0.00000000000E+00  0.00000000000E+00  0.19317538295E+02  0.19317538295E+02  0.00000000000E+00 0. -1.
         -3   -1    0    0    0  501 -0.00000000000E+00 -0.00000000000E+00 -0.21928506633E+03  0.21928506633E+03  0.00000000000E+00 0.  1.
         23    2    1    2    0    0  0.25127652212E+02 -0.14268033224E+02 -0.11684542011E+03  0.15060112450E+03  0.90514478526E+02 0.  0.
         11    1    3    3    0    0 -0.14344011694E+01 -0.44287679655E+02 -0.26172032372E+02  0.51462912416E+02  0.00000000000E+00 0. -1.
        -11    1    3    3    0    0  0.26562053382E+02  0.30019646431E+02 -0.90673387734E+02  0.99138212082E+02  0.00000000000E+00 0.  1.
         22    1    1    2    0    0 -0.25127652212E+02  0.14268033224E+02 -0.83122107928E+02  0.88001480125E+02  0.00000000000E+00 0.  1.
<mgrwt>
<rscale>  0 0.70559142E+02</rscale>
<asrwt>0</asrwt>
<pdfrwt beam="1">  1        3 0.29719289E-02 0.95014980E+02</pdfrwt>
<pdfrwt beam="2">  1       -3 0.33736164E-01 0.95014980E+02</pdfrwt>
<totfact> 0.93140223E+03</totfact>
</mgrwt>
</event>
<event>
 6    1  0.1727544E-002  0.9020131E+02  0.7546771E-02  0.1416337E+00
          2   -1    0    0  501    0  0.00000000000E+00  0.00000000000E+00  0.18135576672E+02  0.18135576672E+02  0.00000000000E+00 0. -1.
         -2   -1    0    0    0  501 -0.00000000000E+00 -0.00000000000E+00 -0.15714272065E+03  0.15714272065E+03  0.00000000000E+00 0.  1.
         23    2    1    2    0    0 -0.73694268965E+01  0.10967236951E+02 -0.13314642535E+03  0.16082365233E+03  0.89228290495E+02 0.  0.
         11    1    3    3    0    0 -0.17270523062E+02  0.47291944388E+01  0.77001556324E+01  0.19491758352E+02  0.00000000000E+00 0. -1.
        -11    1    3    3    0    0  0.99010961659E+01  0.62380425125E+01 -0.14084658098E+03  0.14133189397E+03  0.00000000000E+00 0.  1.
         22    1    1    2    0    0  0.73694268965E+01 -0.10967236951E+02 -0.58607186283E+01  0.14454644996E+02  0.00000000000E+00 0. -1.
<mgrwt>
<rscale>  0 0.55803529E+02</rscale>
<asrwt>0</asrwt>
<pdfrwt beam="1">  1        2 0.27900887E-02 0.90201311E+02</pdfrwt>
<pdfrwt beam="2">  1       -2 0.24175804E-01 0.90201311E+02</pdfrwt>
<totfact> 0.44902186E+04</totfact>
</mgrwt>
</event>
<event>
 6    1  0.1727544E-002  0.9160141E+02  0.7546771E-02  0.1425279E+00
          1   -1    0    0  501    0  0.00000000000E+00  0.00000000000E+00  0.10555067485E+04  0.10555067485E+04  0.00000000000E+00 0. -1.
         -1   -1    0    0    0  501 -0.00000000000E+00 -0.00000000000E+00 -0.25882294011E+01  0.25882294011E+01  0.00000000000E+00 0.  1.
         23    2    1    2    0    0 -0.94992512354E+01  0.55407443995E+01  0.98941990573E+03  0.99365113008E+03  0.90938896120E+02 0.  0.
         11    1    3    3    0    0  0.10144124203E+02 -0.22093183002E+02  0.84326242028E+03  0.84361277933E+03  0.00000000000E+00 0. -1.
        -11    1    3    3    0    0 -0.19643375439E+02  0.27633927402E+02  0.14615748545E+03  0.15003835075E+03  0.00000000000E+00 0.  1.
         22    1    1    2    0    0  0.94992512354E+01 -0.55407443995E+01  0.63498613380E+02  0.64443847835E+02  0.00000000000E+00 0.  1.
<mgrwt>
<rscale>  0 0.53919506E+02</rscale>
<asrwt>0</asrwt>
<pdfrwt beam="1">  1        1 0.16238531E+00 0.91601411E+02</pdfrwt>
<pdfrwt beam="2">  1       -1 0.39818998E-03 0.91601411E+02</pdfrwt>
<totfact> 0.91516417E+04</totfact>
</mgrwt>
</event>
<event>
 6    1  0.1727544E-002  0.8732856E+02  0.7546771E-02  0.1432931E+00
         -2   -1    0    0    0  501 -0.00000000000E+00  0.00000000000E+00  0.47391794807E+03  0.47391794807E+03  0.00000000000E+00 0.  1.
          2   -1    0    0  501    0  0.00000000000E+00 -0.00000000000E+00 -0.57818456988E+01  0.57818456988E+01  0.00000000000E+00 0. -1.
         23    2    1    2    0    0 -0.47061148020E+01 -0.10273046783E+02  0.44950864598E+03  0.45791298266E+03  0.86594421708E+02 0.  0.
         13    1    3    3    0    0 -0.33943027543E+02 -0.31744454490E+02  0.17695397784E+03  0.18295504853E+03  0.00000000000E+00 0. -1.
        -13    1    3    3    0    0  0.29236912741E+02  0.21471407706E+02  0.27255466813E+03  0.27495793412E+03  0.00000000000E+00 0.  1.
         22    1    1    2    0    0  0.47061148020E+01  0.10273046783E+02  0.18627456400E+02  0.21786811117E+02  0.00000000000E+00 0. -1.
<mgrwt>
<rscale>  0 0.52376184E+02</rscale>
<asrwt>0</asrwt>
<pdfrwt beam="1">  1        2 0.88951510E-03 0.87328557E+02</pdfrwt>
<pdfrwt beam="2">  1       -2 0.72910423E-01 0.87328557E+02</pdfrwt>
<totfact> 0.25707020E+04</totfact>
</mgrwt>
</event>
<event>
 6    1  0.1727544E-002  0.9379866E+02  0.7546771E-02  0.1385447E+00
          4   -1    0    0  501    0  0.00000000000E+00  0.00000000000E+00  0.24791090141E+02  0.24791090141E+02  0.00000000000E+00 0. -1.
         -4   -1    0    0    0  501 -0.00000000000E+00 -0.00000000000E+00 -0.17298144182E+03  0.17298144182E+03  0.00000000000E+00 0.  1.
         23    2    1    2    0    0  0.19152978550E+02  0.13685483608E+00 -0.15164517282E+03  0.17830997545E+03  0.91822293536E+02 0.  0.
         13    1    3    3    0    0 -0.57939677309E-01  0.14680317755E+02 -0.15344699749E+03  0.15414764392E+03  0.00000000000E+00 0.  1.
        -13    1    3    3    0    0  0.19210918227E+02 -0.14543462919E+02  0.18018246777E+01  0.24162331530E+02  0.00000000000E+00 0. -1.
         22    1    1    2    0    0 -0.19152978550E+02 -0.13685483608E+00  0.34548211419E+01  0.19462556505E+02  0.00000000000E+00 0.  1.
<mgrwt>
<rscale>  0 0.63053520E+02</rscale>
<asrwt>0</asrwt>
<pdfrwt beam="1">  1        4 0.38140137E-02 0.93798662E+02</pdfrwt>
<pdfrwt beam="2">  1       -4 0.26612531E-01 0.93798662E+02</pdfrwt>
<totfact> 0.72503270E+03</totfact>
</mgrwt>
</event>
<event>
 6    1  0.1727544E-002  0.9635825E+02  0.7546771E-02  0.1357470E+00
          2   -1    0    0  501    0  0.00000000000E+00  0.00000000000E+00  0.18457933186E+02  0.18457933186E+02  0.00000000000E+00 0. -1.
         -2   -1    0    0    0  501 -0.00000000000E+00 -0.00000000000E+00 -0.21960064694E+03  0.21960064694E+03  0.00000000000E+00 0.  1.
         23    2    1    2    0    0 -0.26653145922E+02  0.87355025052E+01 -0.17469518461E+03  0.19950769182E+03  0.92185749317E+02 0.  0.
         13    1    3    3    0    0 -0.60604378362E+02  0.31323879184E+01 -0.95368360407E+02  0.11303904944E+03  0.00000000000E+00 0. -1.
        -13    1    3    3    0    0  0.33951232440E+02  0.56031145868E+01 -0.79326824205E+02  0.86468642384E+02  0.00000000000E+00 0.  1.
         22    1    1    2    0    0  0.26653145922E+02 -0.87355025052E+01 -0.26447529146E+02  0.38550888310E+02  0.00000000000E+00 0. -1.
<mgrwt>
<rscale>  0 0.70777098E+02</rscale>
<asrwt>0</asrwt>
<pdfrwt beam="1">  1        2 0.28396818E-02 0.96358246E+02</pdfrwt>
<pdfrwt beam="2">  1       -2 0.33784718E-01 0.96358246E+02</pdfrwt>
<totfact> 0.24480830E+04</totfact>
</mgrwt>
</event>
<event>
 6    1  0.1727544E-002  0.7913415E+02  0.7546771E-02  0.1400781E+00
          2   -1    0    0  501    0  0.00000000000E+00  0.00000000000E+00  0.16458664781E+02  0.16458664781E+02  0.00000000000E+00 0. -1.
         -2   -1    0    0    0  501 -0.00000000000E+00 -0.00000000000E+00 -0.17884342482E+03  0.17884342482E+03  0.00000000000E+00 0.  1.
         23    2    1    2    0    0 -0.80281287103E+00  0.24945064888E+02 -0.14397303246E+03  0.16428769805E+03  0.75095358609E+02 0.  0.
         13    1    3    3    0    0 -0.17683380680E+02  0.19301397238E+02 -0.14413010945E+03  0.14648800066E+03  0.00000000000E+00 0.  1.
        -13    1    3    3    0    0  0.16880567809E+02  0.56436676502E+01  0.15707698781E+00  0.17799697393E+02  0.00000000000E+00 0. -1.
         22    1    1    2    0    0  0.80281287103E+00 -0.24945064888E+02 -0.18411727582E+02  0.31014391552E+02  0.00000000000E+00 0.  1.
<mgrwt>
<rscale>  0 0.59302816E+02</rscale>
<asrwt>0</asrwt>
<pdfrwt beam="1">  1        2 0.25321021E-02 0.79134150E+02</pdfrwt>
<pdfrwt beam="2">  1       -2 0.27514375E-01 0.79134150E+02</pdfrwt>
<totfact> 0.40026740E+04</totfact>
</mgrwt>
</event>
<event>
 6    1  0.1727544E-002  0.9118223E+02  0.7546771E-02  0.1418787E+00
         -2   -1    0    0    0  501 -0.00000000000E+00  0.00000000000E+00  0.32970239006E+03  0.32970239006E+03  0.00000000000E+00 0. -1.
          2   -1    0    0  501    0  0.00000000000E+00 -0.00000000000E+00 -0.83500040365E+01  0.83500040365E+01  0.00000000000E+00 0.  1.
         23    2    1    2    0    0 -0.10886832666E+02 -0.57597733132E+01  0.26136849758E+03  0.27681706943E+03  0.90346556585E+02 0.  0.
         13    1    3    3    0    0 -0.28214366969E+02  0.36088527799E+02  0.13721181590E+03  0.14465654069E+03  0.00000000000E+00 0. -1.
        -13    1    3    3    0    0  0.17327534302E+02 -0.41848301112E+02  0.12415668168E+03  0.13216052874E+03  0.00000000000E+00 0.  1.
         22    1    1    2    0    0  0.10886832666E+02  0.57597733132E+01  0.59983888448E+02  0.61235324670E+02  0.00000000000E+00 0.  1.
<mgrwt>
<rscale>  0 0.55278362E+02</rscale>
<asrwt>0</asrwt>
<pdfrwt beam="1">  1        2 0.12846163E-02 0.91182226E+02</pdfrwt>
<pdfrwt beam="2">  1       -2 0.50723435E-01 0.91182226E+02</pdfrwt>
<totfact> 0.32879424E+04</totfact>
</mgrwt>
</event>
<event>
 6    1  0.1727544E-002  0.9427439E+02  0.7546771E-02  0.1370204E+00
          2   -1    0    0  501    0  0.00000000000E+00  0.00000000000E+00  0.18767733595E+02  0.18767733595E+02  0.00000000000E+00 0.  1.
         -2   -1    0    0    0  501 -0.00000000000E+00 -0.00000000000E+00 -0.18721089575E+03  0.18721089575E+03  0.00000000000E+00 0. -1.
         23    2    1    2    0    0 -0.18211194690E+02 -0.15951206309E+02 -0.13119169345E+03  0.16155160474E+03  0.91112962681E+02 0.  0.
         13    1    3    3    0    0 -0.57314235138E+01  0.37073625956E+02 -0.71476129781E+02  0.80722611984E+02  0.00000000000E+00 0. -1.
        -13    1    3    3    0    0 -0.12479771177E+02 -0.53024832266E+02 -0.59715563673E+02  0.80828992758E+02  0.00000000000E+00 0.  1.
         22    1    1    2    0    0  0.18211194690E+02  0.15951206309E+02 -0.37251468704E+02  0.44427024606E+02  0.00000000000E+00 0. -1.
<mgrwt>
<rscale>  0 0.67110536E+02</rscale>
<asrwt>0</asrwt>
<pdfrwt beam="1">  1        2 0.28873437E-02 0.94274390E+02</pdfrwt>
<pdfrwt beam="2">  1       -2 0.28801675E-01 0.94274390E+02</pdfrwt>
<totfact> 0.31799021E+04</totfact>
</mgrwt>
</event>
<event>
 6    1  0.1727544E-002  0.9420201E+02  0.7546771E-02  0.1425613E+00
         -1   -1    0    0    0  501 -0.00000000000E+00  0.00000000000E+00  0.13500656004E+03  0.13500656004E+03  0.00000000000E+00 0.  1.
          1   -1    0    0  501    0  0.00000000000E+00 -0.00000000000E+00 -0.29653084935E+02  0.29653084935E+02  0.00000000000E+00 0. -1.
         23    2    1    2    0    0 -0.44987039988E+01  0.89977421039E+01  0.11638413337E+03  0.14973070923E+03  0.93663339071E+02 0.  0.
         11    1    3    3    0    0 -0.76463882338E+01  0.48735863943E+02  0.39769177499E+02  0.63365914861E+02  0.00000000000E+00 0. -1.
        -11    1    3    3    0    0  0.31476842350E+01 -0.39738121839E+02  0.76614955871E+02  0.86364794369E+02  0.00000000000E+00 0.  1.
         22    1    1    2    0    0  0.44987039988E+01 -0.89977421039E+01 -0.11030658266E+02  0.14928935743E+02  0.00000000000E+00 0.  1.
<mgrwt>
<rscale>  0 0.53850713E+02</rscale>
<asrwt>0</asrwt>
<pdfrwt beam="1">  1        1 0.45620132E-02 0.94202011E+02</pdfrwt>
<pdfrwt beam="2">  1       -1 0.20770240E-01 0.94202011E+02</pdfrwt>
<totfact> 0.31412750E+04</totfact>
</mgrwt>
</event>
<event>
 6    1  0.1727544E-002  0.1510708E+03  0.7546771E-02  0.1209663E+00
          2   -1    0    0  501    0  0.00000000000E+00  0.00000000000E+00  0.90169729813E+03  0.90169729813E+03  0.00000000000E+00 0. -1.
         -2   -1    0    0    0  501 -0.00000000000E+00 -0.00000000000E+00 -0.21114067081E+02  0.21114067081E+02  0.00000000000E+00 0.  1.
         23    2    1    2    0    0 -0.12439967615E+02 -0.11982701274E+03  0.40660326330E+03  0.43376098375E+03  0.91154328059E+02 0.  0.
         11    1    3    3    0    0  0.15744510737E+02 -0.13111323348E+02  0.18561019364E+03  0.18673762450E+03  0.00000000000E+00 0. -1.
        -11    1    3    3    0    0 -0.28184478351E+02 -0.10671568939E+03  0.22099306966E+03  0.24702335926E+03  0.00000000000E+00 0.  1.
         22    1    1    2    0    0  0.12439967615E+02  0.11982701274E+03  0.47397996775E+03  0.48905038146E+03  0.00000000000E+00 0. -1.
<mgrwt>
<rscale>  0 0.14275981E+03</rscale>
<asrwt>0</asrwt>
<pdfrwt beam="1">  1        2 0.13872263E+00 0.15107077E+03</pdfrwt>
<pdfrwt beam="2">  1       -2 0.32483187E-02 0.15107077E+03</pdfrwt>
<totfact> 0.11016512E+04</totfact>
</mgrwt>
</event>
<event>
 6    1  0.1727544E-002  0.9154741E+02  0.7546771E-02  0.1374316E+00
         -2   -1    0    0    0  501 -0.00000000000E+00  0.00000000000E+00  0.26798437911E+02  0.26798437911E+02  0.00000000000E+00 0.  1.
          2   -1    0    0  501    0  0.00000000000E+00 -0.00000000000E+00 -0.13253130941E+03  0.13253130941E+03  0.00000000000E+00 0. -1.
         23    2    1    2    0    0 -0.91154072626E+01 -0.22960009738E+02 -0.67222959704E+02  0.11357752330E+03  0.88151431016E+02 0.  0.
         11    1    3    3    0    0 -0.41085039160E+02 -0.19842019194E+02 -0.67477863351E+02  0.81455191430E+02  0.00000000000E+00 0. -1.
        -11    1    3    3    0    0  0.31969631897E+02 -0.31179905440E+01  0.25490364737E+00  0.32122331867E+02  0.00000000000E+00 0.  1.
         22    1    1    2    0    0  0.91154072626E+01  0.22960009738E+02 -0.38509911800E+02  0.45752224029E+02  0.00000000000E+00 0.  1.
<mgrwt>
<rscale>  0 0.65981661E+02</rscale>
<asrwt>0</asrwt>
<pdfrwt beam="1">  1        2 0.20389432E-01 0.91547406E+02</pdfrwt>
<pdfrwt beam="2">  1       -2 0.41228366E-02 0.91547406E+02</pdfrwt>
<totfact> 0.61468311E+04</totfact>
</mgrwt>
</event>
<event>
 6    1  0.1727544E-002  0.9210033E+02  0.7546771E-02  0.1427119E+00
         -3   -1    0    0    0  501 -0.00000000000E+00  0.00000000000E+00  0.38770674993E+03  0.38770674993E+03  0.00000000000E+00 0.  1.
          3   -1    0    0  501    0  0.00000000000E+00 -0.00000000000E+00 -0.67907189414E+01  0.67907189414E+01  0.00000000000E+00 0. -1.
         23    2    1    2    0    0  0.10513655013E+02 -0.36829704563E+00  0.34124857244E+03  0.35345870851E+03  0.91497529166E+02 0.  0.
         11    1    3    3    0    0 -0.24217739928E+01 -0.44005418364E+02  0.20903357946E+03  0.21362906913E+03  0.00000000000E+00 0.  1.
        -11    1    3    3    0    0  0.12935429005E+02  0.43637121318E+02  0.13221499298E+03  0.13982963938E+03  0.00000000000E+00 0. -1.
         22    1    1    2    0    0 -0.10513655013E+02  0.36829704563E+00  0.39667458547E+02  0.41038760361E+02  0.00000000000E+00 0.  1.
<mgrwt>
<rscale>  0 0.53542777E+02</rscale>
<asrwt>0</asrwt>
<pdfrwt beam="1">  1        3 0.10447263E-02 0.92100328E+02</pdfrwt>
<pdfrwt beam="2">  1       -3 0.59647175E-01 0.92100328E+02</pdfrwt>
<totfact> 0.14709358E+04</totfact>
</mgrwt>
</event>
<event>
 6    1  0.1727544E-002  0.9270712E+02  0.7546771E-02  0.1379959E+00
         -2   -1    0    0    0  501 -0.00000000000E+00  0.00000000000E+00  0.13056132629E+02  0.13056132629E+02  0.00000000000E+00 0. -1.
          2   -1    0    0  501    0  0.00000000000E+00 -0.00000000000E+00 -0.25057688823E+03  0.25057688823E+03  0.00000000000E+00 0.  1.
         23    2    1    2    0    0 -0.20353647885E+02 -0.74886144369E+01 -0.19279884721E+03  0.21392990809E+03  0.90134675695E+02 0.  0.
         13    1    3    3    0    0  0.16111729527E+02 -0.64474647101E+01 -0.17005995708E+03  0.17094310934E+03  0.00000000000E+00 0.  1.
        -13    1    3    3    0    0 -0.36465377412E+02 -0.10411497268E+01 -0.22738890131E+02  0.42986798752E+02  0.00000000000E+00 0. -1.
         22    1    1    2    0    0  0.20353647885E+02  0.74886144369E+01 -0.44721908386E+02  0.49703112760E+02  0.00000000000E+00 0. -1.
<mgrwt>
<rscale>  0 0.64474428E+02</rscale>
<asrwt>0</asrwt>
<pdfrwt beam="1">  1        2 0.38550287E-01 0.92707120E+02</pdfrwt>
<pdfrwt beam="2">  1       -2 0.20086360E-02 0.92707120E+02</pdfrwt>
<totfact> 0.88067785E+04</totfact>
</mgrwt>
</event>
<event>
 6    1  0.1727544E-002  0.9731844E+02  0.7546771E-02  0.1347727E+00
         -2   -1    0    0    0  501 -0.00000000000E+00  0.00000000000E+00  0.10737590476E+02  0.10737590476E+02  0.00000000000E+00 0. -1.
          2   -1    0    0  501    0  0.00000000000E+00 -0.00000000000E+00 -0.40212130947E+03  0.40212130947E+03  0.00000000000E+00 0.  1.
         23    2    1    2    0    0  0.91039209055E+00 -0.32116697198E+02 -0.32224050031E+03  0.33661523961E+03  0.91861681018E+02 0.  0.
         13    1    3    3    0    0 -0.19657908763E+02 -0.35399270158E+02 -0.53633481214E+02  0.67201875062E+02  0.00000000000E+00 0. -1.
        -13    1    3    3    0    0  0.20568300853E+02  0.32825729599E+01 -0.26860701910E+03  0.26941336454E+03  0.00000000000E+00 0.  1.
         22    1    1    2    0    0 -0.91039209055E+00  0.32116697198E+02 -0.69143218679E+02  0.76243660340E+02  0.00000000000E+00 0. -1.
<mgrwt>
<rscale>  0 0.73768795E+02</rscale>
<asrwt>0</asrwt>
<pdfrwt beam="1">  1        2 0.61864802E-01 0.97318444E+02</pdfrwt>
<pdfrwt beam="2">  1       -2 0.16519374E-02 0.97318444E+02</pdfrwt>
<totfact> 0.71471609E+04</totfact>
</mgrwt>
</event>
<event>
 6    1  0.1727544E-002  0.9420268E+02  0.7546771E-02  0.1364103E+00
         -2   -1    0    0    0  501 -0.00000000000E+00  0.00000000000E+00  0.22062558386E+02  0.22062558386E+02  0.00000000000E+00 0. -1.
          2   -1    0    0  501    0  0.00000000000E+00 -0.00000000000E+00 -0.16827678203E+03  0.16827678203E+03  0.00000000000E+00 0.  1.
         23    2    1    2    0    0 -0.21911338293E+02 -0.15526895100E+02 -0.10414264355E+03  0.14042732714E+03  0.90293702915E+02 0.  0.
         11    1    3    3    0    0  0.20855993558E+02 -0.22008705499E+02 -0.30556796532E+01  0.30474460835E+02  0.00000000000E+00 0. -1.
        -11    1    3    3    0    0 -0.42767331851E+02  0.64818103994E+01 -0.10108696390E+03  0.10995286631E+03  0.00000000000E+00 0.  1.
         22    1    1    2    0    0  0.21911338293E+02  0.15526895100E+02 -0.42071580096E+02  0.49912013273E+02  0.00000000000E+00 0. -1.
<mgrwt>
<rscale>  0 0.68834115E+02</rscale>
<asrwt>0</asrwt>
<pdfrwt beam="1">  1        2 0.25888736E-01 0.94202675E+02</pdfrwt>
<pdfrwt beam="2">  1       -2 0.33942397E-02 0.94202675E+02</pdfrwt>
<totfact> 0.63121090E+04</totfact>
</mgrwt>
</event>
<event>
 6    1  0.1727544E-002  0.9526896E+02  0.7546771E-02  0.1375791E+00
          2   -1    0    0  501    0  0.00000000000E+00  0.00000000000E+00  0.25226745725E+02  0.25226745725E+02  0.00000000000E+00 0. -1.
         -2   -1    0    0    0  501 -0.00000000000E+00 -0.00000000000E+00 -0.13810618750E+03  0.13810618750E+03  0.00000000000E+00 0.  1.
         23    2    1    2    0    0 -0.17589773600E+02 -0.12179845647E+02 -0.10107745043E+03  0.13889861770E+03  0.92835479419E+02 0.  0.
         13    1    3    3    0    0 -0.23175582089E+02  0.32082592640E+02 -0.15720288216E+02  0.42585535305E+02  0.00000000000E+00 0. -1.
        -13    1    3    3    0    0  0.55858084888E+01 -0.44262438286E+02 -0.85357162216E+02  0.96313082399E+02  0.00000000000E+00 0.  1.
         22    1    1    2    0    0  0.17589773600E+02  0.12179845647E+02 -0.11801991339E+02  0.24434315518E+02  0.00000000000E+00 0. -1.
<mgrwt>
<rscale>  0 0.65583105E+02</rscale>
<asrwt>0</asrwt>
<pdfrwt beam="1">  1        2 0.38810379E-02 0.95268961E+02</pdfrwt>
<pdfrwt beam="2">  1       -2 0.21247105E-01 0.95268961E+02</pdfrwt>
<totfact> 0.36452272E+04</totfact>
</mgrwt>
</event>
<event>
 6    1  0.1727544E-002  0.9073893E+02  0.7546771E-02  0.1426868E+00
         -4   -1    0    0    0  501 -0.00000000000E+00  0.00000000000E+00  0.16848729059E+02  0.16848729059E+02  0.00000000000E+00 0.  1.
          4   -1    0    0  501    0  0.00000000000E+00 -0.00000000000E+00 -0.15393169546E+03  0.15393169546E+03  0.00000000000E+00 0. -1.
         23    2    1    2    0    0  0.98318240136E+01  0.50276528749E+01 -0.12413608976E+03  0.15376385402E+03  0.90064487812E+02 0.  0.
         11    1    3    3    0    0 -0.21823599996E+02  0.36150795344E+02 -0.37760145591E+02  0.56647842993E+02  0.00000000000E+00 0.  1.
        -11    1    3    3    0    0  0.31655424009E+02 -0.31123142469E+02 -0.86375944166E+02  0.97116011023E+02  0.00000000000E+00 0. -1.
         22    1    1    2    0    0 -0.98318240136E+01 -0.50276528749E+01 -0.12946876647E+02  0.17016570506E+02  0.00000000000E+00 0.  1.
<mgrwt>
<rscale>  0 0.53593786E+02</rscale>
<asrwt>0</asrwt>
<pdfrwt beam="1">  1        4 0.23681798E-01 0.90738933E+02</pdfrwt>
<pdfrwt beam="2">  1       -4 0.25921123E-02 0.90738933E+02</pdfrwt>
<totfact> 0.16219526E+04</totfact>
</mgrwt>
</event>
<event>
 6    1  0.1727544E-002  0.1038366E+03  0.7546771E-02  0.1314675E+00
          1   -1    0    0  501    0  0.00000000000E+00  0.00000000000E+00  0.13071519404E+03  0.13071519404E+03  0.00000000000E+00 0. -1.
         -1   -1    0    0    0  501 -0.00000000000E+00 -0.00000000000E+00 -0.79109161566E+02  0.79109161566E+02  0.00000000000E+00 0.  1.
         23    2    1    2    0    0  0.31197251725E+01 -0.47163129383E+02 -0.36314819720E+02  0.11000366783E+03  0.92455109893E+02 0.  0.
         11    1    3    3    0    0 -0.16329292258E+02 -0.22542500681E+02  0.27352367478E+02  0.39025147396E+02  0.00000000000E+00 0. -1.
        -11    1    3    3    0    0  0.19449017431E+02 -0.24620628702E+02 -0.63667187198E+02  0.70978520429E+02  0.00000000000E+00 0.  1.
         22    1    1    2    0    0 -0.31197251725E+01  0.47163129383E+02  0.87920852189E+02  0.99820687776E+02  0.00000000000E+00 0. -1.
<mgrwt>
<rscale>  0 0.85290475E+02</rscale>
<asrwt>0</asrwt>
<pdfrwt beam="1">  1        1 0.20110030E-01 0.10383661E+03</pdfrwt>
<pdfrwt beam="2">  1       -1 0.12170640E-01 0.10383661E+03</pdfrwt>
<totfact> 0.10426606E+04</totfact>
</mgrwt>
</event>
<event>
 6    1  0.1727544E-002  0.9783614E+02  0.7546771E-02  0.1344664E+00
         -2   -1    0    0    0  501 -0.00000000000E+00  0.00000000000E+00  0.30132761846E+02  0.30132761846E+02  0.00000000000E+00 0. -1.
          2   -1    0    0  501    0  0.00000000000E+00 -0.00000000000E+00 -0.14578615514E+03  0.14578615514E+03  0.00000000000E+00 0.  1.
         23    2    1    2    0    0  0.22548867523E+02 -0.24543063451E+02 -0.74558555100E+02  0.12300767889E+03  0.91984224398E+02 0.  0.
         13    1    3    3    0    0  0.54248681592E+02 -0.33005800949E+01 -0.23368711594E+02  0.59160036892E+02  0.00000000000E+00 0. -1.
        -13    1    3    3    0    0 -0.31699814069E+02 -0.21242483356E+02 -0.51189843505E+02  0.63847642002E+02  0.00000000000E+00 0.  1.
         22    1    1    2    0    0 -0.22548867523E+02  0.24543063451E+02 -0.41094838189E+02  0.52911238087E+02  0.00000000000E+00 0.  1.
<mgrwt>
<rscale>  0 0.74744567E+02</rscale>
<asrwt>0</asrwt>
<pdfrwt beam="1">  1        2 0.22428640E-01 0.97836143E+02</pdfrwt>
<pdfrwt beam="2">  1       -2 0.46358094E-02 0.97836143E+02</pdfrwt>
<totfact> 0.46917536E+04</totfact>
</mgrwt>
</event>
<event>
 6    1  0.1727544E-002  0.9187962E+02  0.7546771E-02  0.1394608E+00
         -3   -1    0    0    0  501 -0.00000000000E+00  0.00000000000E+00  0.63084777101E+02  0.63084777101E+02  0.00000000000E+00 0.  1.
          3   -1    0    0  501    0  0.00000000000E+00 -0.00000000000E+00 -0.48101100217E+02  0.48101100217E+02  0.00000000000E+00 0. -1.
         23    2    1    2    0    0  0.15396952333E+02  0.85035125730E+01  0.17141446363E+02  0.93464933881E+02  0.90180312789E+02 0.  0.
         13    1    3    3    0    0  0.79249680512E+01  0.43242112328E+02  0.32584113493E+02  0.54721201095E+02  0.00000000000E+00 0.  1.
        -13    1    3    3    0    0  0.74719842816E+01 -0.34738599755E+02 -0.15442667130E+02  0.38743732785E+02  0.00000000000E+00 0. -1.
         22    1    1    2    0    0 -0.15396952333E+02 -0.85035125730E+01 -0.21577694784E+01  0.17720943438E+02  0.00000000000E+00 0. -1.
<mgrwt>
<rscale>  0 0.60775032E+02</rscale>
<asrwt>0</asrwt>
<pdfrwt beam="1">  1        3 0.74001693E-02 0.91879621E+02</pdfrwt>
<pdfrwt beam="2">  1       -3 0.97053503E-02 0.91879621E+02</pdfrwt>
<totfact> 0.19229567E+04</totfact>
</mgrwt>
</event>
<event>
 6    1  0.1727544E-002  0.1006217E+03  0.7546771E-02  0.1320623E+00
         -1   -1    0    0    0  501 -0.00000000000E+00  0.00000000000E+00  0.12278252353E+02  0.12278252353E+02  0.00000000000E+00 0.  1.
          1   -1    0    0  501    0  0.00000000000E+00 -0.00000000000E+00 -0.44273434420E+03  0.44273434420E+03  0.00000000000E+00 0. -1.
         23    2    1    2    0    0  0.30924475236E+02 -0.34977437815E+02 -0.28435130451E+03  0.30162956879E+03  0.89134662526E+02 0.  0.
         11    1    3    3    0    0  0.13586419739E+02  0.17365001226E+01 -0.24400863834E+03  0.24439276139E+03  0.00000000000E+00 0. -1.
        -11    1    3    3    0    0  0.17338055497E+02 -0.36713937937E+02 -0.40342666170E+02  0.57236807397E+02  0.00000000000E+00 0.  1.
         22    1    1    2    0    0 -0.30924475236E+02  0.34977437815E+02 -0.14610478733E+03  0.15338302777E+03  0.00000000000E+00 0.  1.
<mgrwt>
<rscale>  0 0.83046154E+02</rscale>
<asrwt>0</asrwt>
<pdfrwt beam="1">  1        1 0.68112976E-01 0.10062173E+03</pdfrwt>
<pdfrwt beam="2">  1       -1 0.18889619E-02 0.10062173E+03</pdfrwt>
<totfact> 0.35586353E+04</totfact>
</mgrwt>
</event>
<event>
 6    1  0.1727544E-002  0.9486160E+02  0.7546771E-02  0.1378944E+00
         -2   -1    0    0    0  501 -0.00000000000E+00  0.00000000000E+00  0.72222422518E+02  0.72222422518E+02  0.00000000000E+00 0.  1.
          2   -1    0    0  501    0  0.00000000000E+00 -0.00000000000E+00 -0.10008759281E+03  0.10008759281E+03  0.00000000000E+00 0. -1.
         23    2    1    2    0    0  0.30548908071E+00 -0.20579198778E+02  0.38837683714E+02  0.10250408808E+03  0.92601974339E+02 0.  0.
         11    1    3    3    0    0  0.14426392028E+02  0.34667751224E+02  0.19356784493E+02  0.42245223017E+02  0.00000000000E+00 0.  1.
        -11    1    3    3    0    0 -0.14120902947E+02 -0.55246950002E+02  0.19480899221E+02  0.60258865066E+02  0.00000000000E+00 0. -1.
         22    1    1    2    0    0 -0.30548908071E+00  0.20579198778E+02 -0.66702854006E+02  0.69805927245E+02  0.00000000000E+00 0.  1.
<mgrwt>
<rscale>  0 0.64742117E+02</rscale>
<asrwt>0</asrwt>
<pdfrwt beam="1">  1        2 0.15398091E-01 0.94861596E+02</pdfrwt>
<pdfrwt beam="2">  1       -2 0.11111142E-01 0.94861596E+02</pdfrwt>
<totfact> 0.18895565E+04</totfact>
</mgrwt>
</event>
<event>
 6    1  0.1727544E-002  0.9403665E+02  0.7546771E-02  0.1393070E+00
          2   -1    0    0  501    0  0.00000000000E+00  0.00000000000E+00  0.11006846679E+03  0.11006846679E+03  0.00000000000E+00 0. -1.
         -2   -1    0    0    0  501 -0.00000000000E+00 -0.00000000000E+00 -0.28071869059E+02  0.28071869059E+02  0.00000000000E+00 0.  1.
         23    2    1    2    0    0  0.16282368958E+02 -0.41961241259E+01  0.73169659373E+02  0.11914986884E+03  0.92521182413E+02 0.  0.
         11    1    3    3    0    0 -0.17523219347E+00 -0.34440792519E+02 -0.39748849594E+01  0.34669851544E+02  0.00000000000E+00 0.  1.
        -11    1    3    3    0    0  0.16457601151E+02  0.30244668393E+02  0.77144544332E+02  0.84480017294E+02  0.00000000000E+00 0. -1.
         22    1    1    2    0    0 -0.16282368958E+02  0.41961241259E+01  0.88269383622E+01  0.18990467014E+02  0.00000000000E+00 0.  1.
<mgrwt>
<rscale>  0 0.61149515E+02</rscale>
<asrwt>0</asrwt>
<pdfrwt beam="1">  1        2 0.16933610E-01 0.94036653E+02</pdfrwt>
<pdfrwt beam="2">  1       -2 0.43187491E-02 0.94036653E+02</pdfrwt>
<totfact> 0.71041385E+04</totfact>
</mgrwt>
</event>
<event>
 6    1  0.1727544E-002  0.1038457E+03  0.7546771E-02  0.1322125E+00
         -4   -1    0    0    0  501 -0.00000000000E+00  0.00000000000E+00  0.92118064252E+02  0.92118064252E+02  0.00000000000E+00 0.  1.
          4   -1    0    0  501    0  0.00000000000E+00 -0.00000000000E+00 -0.57220464334E+02  0.57220464334E+02  0.00000000000E+00 0. -1.
         23    2    1    2    0    0  0.17974434158E+02  0.37239662270E+02  0.25645790730E+02  0.10696555722E+03  0.95257813956E+02 0.  0.
         13    1    3    3    0    0  0.33802708476E+02  0.47103179445E+02  0.49814072902E+02  0.76438043364E+02  0.00000000000E+00 0. -1.
        -13    1    3    3    0    0 -0.15828274319E+02 -0.98635171752E+01 -0.24168282173E+02  0.30527513855E+02  0.00000000000E+00 0.  1.
         22    1    1    2    0    0 -0.17974434158E+02 -0.37239662270E+02  0.92518091883E+01  0.42372971367E+02  0.00000000000E+00 0.  1.
<mgrwt>
<rscale>  0 0.82491990E+02</rscale>
<asrwt>0</asrwt>
<pdfrwt beam="1">  1        4 0.88031484E-02 0.10384567E+03</pdfrwt>
<pdfrwt beam="2">  1       -4 0.14172010E-01 0.10384567E+03</pdfrwt>
<totfact> 0.59555493E+03</totfact>
</mgrwt>
</event>
<event>
 6    1  0.1727544E-002  0.9319394E+02  0.7546771E-02  0.1407290E+00
         -2   -1    0    0    0  501 -0.00000000000E+00  0.00000000000E+00  0.64733043834E+02  0.64733043834E+02  0.00000000000E+00 0.  1.
          2   -1    0    0  501    0  0.00000000000E+00 -0.00000000000E+00 -0.54370874591E+02  0.54370874591E+02  0.00000000000E+00 0. -1.
         23    2    1    2    0    0 -0.29940027990E+01 -0.13463469571E+02  0.27442280147E+02  0.97150348007E+02  0.92167685837E+02 0.  0.
         11    1    3    3    0    0  0.41466568812E+02  0.91534469311E+01  0.61271465721E+01  0.42904590021E+02  0.00000000000E+00 0. -1.
        -11    1    3    3    0    0 -0.44460571611E+02 -0.22616916502E+02  0.21315133575E+02  0.54245757985E+02  0.00000000000E+00 0.  1.
         22    1    1    2    0    0  0.29940027990E+01  0.13463469571E+02 -0.17080110904E+02  0.21953570419E+02  0.00000000000E+00 0. -1.
<mgrwt>
<rscale>  0 0.57803000E+02</rscale>
<asrwt>0</asrwt>
<pdfrwt beam="1">  1        2 0.83647499E-02 0.93193945E+02</pdfrwt>
<pdfrwt beam="2">  1       -2 0.99589299E-02 0.93193945E+02</pdfrwt>
<totfact> 0.46415678E+04</totfact>
</mgrwt>
</event>
<event>
 6    1  0.1727544E-002  0.9379046E+02  0.7546771E-02  0.1412969E+00
         -4   -1    0    0    0  501 -0.00000000000E+00  0.00000000000E+00  0.90767719435E+01  0.90767719435E+01  0.00000000000E+00 0.  1.
          4   -1    0    0  501    0  0.00000000000E+00 -0.00000000000E+00 -0.31379474475E+03  0.31379474475E+03  0.00000000000E+00 0. -1.
         23    2    1    2    0    0 -0.52815343422E+01 -0.11200679397E+02 -0.25722736354E+03  0.27379292877E+03  0.92969357679E+02 0.  0.
         13    1    3    3    0    0 -0.21613429244E+02 -0.92684595475E+01 -0.92497705868E+01  0.25270594017E+02  0.00000000000E+00 0.  1.
        -13    1    3    3    0    0  0.16331894902E+02 -0.19322198498E+01 -0.24797759295E+03  0.24852233475E+03  0.00000000000E+00 0. -1.
         22    1    1    2    0    0  0.52815343422E+01  0.11200679397E+02 -0.47490609271E+02  0.49078587927E+02  0.00000000000E+00 0.  1.
<mgrwt>
<rscale>  0 0.56536566E+02</rscale>
<asrwt>0</asrwt>
<pdfrwt beam="1">  1        4 0.48276104E-01 0.93790465E+02</pdfrwt>
<pdfrwt beam="2">  1       -4 0.13964268E-02 0.93790465E+02</pdfrwt>
<totfact> 0.10816403E+04</totfact>
</mgrwt>
</event>
<event>
 6    1  0.1727544E-002  0.1012539E+03  0.7546771E-02  0.1319536E+00
          4   -1    0    0  501    0  0.00000000000E+00  0.00000000000E+00  0.28195733857E+02  0.28195733857E+02  0.00000000000E+00 0. -1.
         -4   -1    0    0    0  501 -0.00000000000E+00 -0.00000000000E+00 -0.24225889939E+03  0.24225889939E+03  0.00000000000E+00 0.  1.
         23    2    1    2    0    0 -0.45196830091E+02  0.11819120879E+02 -0.81749318514E+02  0.13013571370E+03  0.89832665746E+02 0.  0.
         11    1    3    3    0    0  0.62597513629E-01 -0.33223592635E+02 -0.11390732448E+02  0.35122070152E+02  0.00000000000E+00 0.  1.
        -11    1    3    3    0    0 -0.45259427605E+02  0.45042713514E+02 -0.70358586066E+02  0.95013643552E+02  0.00000000000E+00 0. -1.
         22    1    1    2    0    0  0.45196830091E+02 -0.11819120879E+02 -0.13231384702E+03  0.14031891955E+03  0.00000000000E+00 0.  1.
<mgrwt>
<rscale>  0 0.83450078E+02</rscale>
<asrwt>0</asrwt>
<pdfrwt beam="1">  1        4 0.43378053E-02 0.10125390E+03</pdfrwt>
<pdfrwt beam="2">  1       -4 0.37270599E-01 0.10125390E+03</pdfrwt>
<totfact> 0.31982062E+03</totfact>
</mgrwt>
</event>
<event>
 6    1  0.1727544E-002  0.8931882E+02  0.7546771E-02  0.1409656E+00
          2   -1    0    0  501    0  0.00000000000E+00  0.00000000000E+00  0.11170198715E+03  0.11170198715E+03  0.00000000000E+00 0.  1.
         -2   -1    0    0    0  501 -0.00000000000E+00 -0.00000000000E+00 -0.24973248956E+02  0.24973248956E+02  0.00000000000E+00 0. -1.
         23    2    1    2    0    0 -0.13763394527E+02 -0.62045125273E+01  0.66124506868E+02  0.11113191304E+03  0.88033656536E+02 0.  0.
         11    1    3    3    0    0  0.15584561999E+01 -0.45817770127E+01  0.85914846806E+02  0.86051045131E+02  0.00000000000E+00 0.  1.
        -11    1    3    3    0    0 -0.15321850727E+02 -0.16227355146E+01 -0.19790339939E+02  0.25080867911E+02  0.00000000000E+00 0. -1.
         22    1    1    2    0    0  0.13763394527E+02  0.62045125273E+01  0.20604231327E+02  0.25543323065E+02  0.00000000000E+00 0. -1.
<mgrwt>
<rscale>  0 0.57270597E+02</rscale>
<asrwt>0</asrwt>
<pdfrwt beam="1">  1        2 0.17184921E-01 0.89318820E+02</pdfrwt>
<pdfrwt beam="2">  1       -2 0.38420384E-02 0.89318820E+02</pdfrwt>
<totfact> 0.82353329E+04</totfact>
</mgrwt>
</event>
<event>
 6    1  0.1727544E-002  0.9037073E+02  0.7546771E-02  0.1424933E+00
          2   -1    0    0  501    0  0.00000000000E+00  0.00000000000E+00  0.68105502167E+02  0.68105502167E+02  0.00000000000E+00 0. -1.
         -2   -1    0    0    0  501 -0.00000000000E+00 -0.00000000000E+00 -0.40739234726E+02  0.40739234726E+02  0.00000000000E+00 0.  1.
         23    2    1    2    0    0  0.33006196165E+01  0.11029784883E+02  0.14410228672E+02  0.91512420690E+02  0.89634358399E+02 0.  0.
         13    1    3    3    0    0 -0.11111902172E+02  0.45947748362E+02 -0.74683211482E+01  0.47858601841E+02  0.00000000000E+00 0. -1.
        -13    1    3    3    0    0  0.14412521788E+02 -0.34917963479E+02  0.21878549821E+02  0.43653818849E+02  0.00000000000E+00 0.  1.
         22    1    1    2    0    0 -0.33006196165E+01 -0.11029784883E+02  0.12956038769E+02  0.17332316204E+02  0.00000000000E+00 0. -1.
<mgrwt>
<rscale>  0 0.53990631E+02</rscale>
<asrwt>0</asrwt>
<pdfrwt beam="1">  1        2 0.10477770E-01 0.90370728E+02</pdfrwt>
<pdfrwt beam="2">  1       -2 0.62675746E-02 0.90370728E+02</pdfrwt>
<totfact> 0.71236846E+04</totfact>
</mgrwt>
</event>
<event>
 6    1  0.1727544E-002  0.9162548E+02  0.7546771E-02  0.1423876E+00
         -2   -1    0    0    0  501 -0.00000000000E+00  0.00000000000E+00  0.32907318638E+03  0.32907318638E+03  0.00000000000E+00 0.  1.
          2   -1    0    0  501    0  0.00000000000E+00 -0.00000000000E+00 -0.94726464980E+01  0.94726464980E+01  0.00000000000E+00 0. -1.
         23    2    1    2    0    0  0.20765108246E+01  0.11032683904E+02  0.31151616791E+03  0.32471148860E+03  0.90935119456E+02 0.  0.
         11    1    3    3    0    0  0.17387183108E+02 -0.21355804450E+02  0.29223485692E+02  0.40154658959E+02  0.00000000000E+00 0. -1.
        -11    1    3    3    0    0 -0.15310672283E+02  0.32388488354E+02  0.28229268222E+03  0.28455682964E+03  0.00000000000E+00 0.  1.
         22    1    1    2    0    0 -0.20765108246E+01 -0.11032683904E+02  0.80843719728E+01  0.13834344275E+02  0.00000000000E+00 0. -1.
<mgrwt>
<rscale>  0 0.54209112E+02</rscale>
<asrwt>0</asrwt>
<pdfrwt beam="1">  1        2 0.14573305E-02 0.91625477E+02</pdfrwt>
<pdfrwt beam="2">  1       -2 0.50626635E-01 0.91625477E+02</pdfrwt>
<totfact> 0.27813513E+04</totfact>
</mgrwt>
</event>
<event>
 6    1  0.1727544E-002  0.9589730E+02  0.7546771E-02  0.1413730E+00
          2   -1    0    0  501    0  0.00000000000E+00  0.00000000000E+00  0.20066443027E+02  0.20066443027E+02  0.00000000000E+00 0. -1.
         -2   -1    0    0    0  501 -0.00000000000E+00 -0.00000000000E+00 -0.14418397793E+03  0.14418397793E+03  0.00000000000E+00 0.  1.
         23    2    1    2    0    0 -0.86072382526E+01 -0.75493301860E+01 -0.11400826641E+03  0.14897710285E+03  0.95211424875E+02 0.  0.
         13    1    3    3    0    0 -0.98053204706E+01 -0.24124876967E+02 -0.12588519001E+03  0.12855051561E+03  0.00000000000E+00 0.  1.
        -13    1    3    3    0    0  0.11980822180E+01  0.16575546781E+02  0.11876923603E+02  0.20426587242E+02  0.00000000000E+00 0. -1.
         22    1    1    2    0    0  0.86072382526E+01  0.75493301860E+01 -0.10109268495E+02  0.15273318110E+02  0.00000000000E+00 0.  1.
<mgrwt>
<rscale>  0 0.56369681E+02</rscale>
<asrwt>0</asrwt>
<pdfrwt beam="1">  1        2 0.30871452E-02 0.95897301E+02</pdfrwt>
<pdfrwt beam="2">  1       -2 0.22182150E-01 0.95897301E+02</pdfrwt>
<totfact> 0.45881797E+04</totfact>
</mgrwt>
</event>
<event>
 6    1  0.1727544E-002  0.9491375E+02  0.7546771E-02  0.1374949E+00
         -3   -1    0    0    0  501 -0.00000000000E+00  0.00000000000E+00  0.24198573601E+03  0.24198573601E+03  0.00000000000E+00 0.  1.
          3   -1    0    0  501    0  0.00000000000E+00 -0.00000000000E+00 -0.14347935230E+02  0.14347935230E+02  0.00000000000E+00 0. -1.
         23    2    1    2    0    0  0.21728550815E+01  0.21829557646E+02  0.19676188120E+03  0.21845790991E+03  0.92343757906E+02 0.  0.
         11    1    3    3    0    0 -0.34298145645E+02 -0.20079697254E+01  0.28477546911E+02  0.44624717536E+02  0.00000000000E+00 0. -1.
        -11    1    3    3    0    0  0.36471000727E+02  0.23837527371E+02  0.16828433428E+03  0.17383319237E+03  0.00000000000E+00 0.  1.
         22    1    1    2    0    0 -0.21728550815E+01 -0.21829557646E+02  0.30875919584E+02  0.37875761331E+02  0.00000000000E+00 0. -1.
<mgrwt>
<rscale>  0 0.65810214E+02</rscale>
<asrwt>0</asrwt>
<pdfrwt beam="1">  1        3 0.22073748E-02 0.94913753E+02</pdfrwt>
<pdfrwt beam="2">  1       -3 0.37228572E-01 0.94913753E+02</pdfrwt>
<totfact> 0.12178005E+04</totfact>
</mgrwt>
</event>
<event>
 6    1  0.1727544E-002  0.9273819E+02  0.7546771E-02  0.1406229E+00
         -3   -1    0    0    0  501 -0.00000000000E+00  0.00000000000E+00  0.54903033094E+02  0.54903033094E+02  0.00000000000E+00 0.  1.
          3   -1    0    0  501    0  0.00000000000E+00 -0.00000000000E+00 -0.66595938710E+02  0.66595938710E+02  0.00000000000E+00 0. -1.
         23    2    1    2    0    0 -0.39890690058E+01 -0.13660898206E+02 -0.30759949789E+02  0.97706431274E+02  0.91639726047E+02 0.  0.
         11    1    3    3    0    0 -0.12694681321E+01  0.74546756233E+01  0.31245608759E+02  0.32147656286E+02  0.00000000000E+00 0.  1.
        -11    1    3    3    0    0 -0.27196008738E+01 -0.21115573829E+02 -0.62005558548E+02  0.65558774988E+02  0.00000000000E+00 0. -1.
         22    1    1    2    0    0  0.39890690058E+01  0.13660898206E+02  0.19067044174E+02  0.23792540529E+02  0.00000000000E+00 0.  1.
<mgrwt>
<rscale>  0 0.58043807E+02</rscale>
<asrwt>0</asrwt>
<pdfrwt beam="1">  1        3 0.10245529E-01 0.92738192E+02</pdfrwt>
<pdfrwt beam="2">  1       -3 0.84466205E-02 0.92738192E+02</pdfrwt>
<totfact> 0.14254062E+04</totfact>
</mgrwt>
</event>
<event>
 6    1  0.1727544E-002  0.9448153E+02  0.7546771E-02  0.1374999E+00
         -1   -1    0    0    0  501 -0.00000000000E+00  0.00000000000E+00  0.74523900308E+03  0.74523900308E+03  0.00000000000E+00 0.  1.
          1   -1    0    0  501    0  0.00000000000E+00 -0.00000000000E+00 -0.51170314557E+01  0.51170314557E+01  0.00000000000E+00 0. -1.
         23    2    1    2    0    0 -0.11081642937E+01 -0.22194060123E+02  0.67423208228E+03  0.68081984360E+03  0.91831118488E+02 0.  0.
         13    1    3    3    0    0 -0.44831160725E+02 -0.84977114372E+01  0.25089065950E+03  0.25500620991E+03  0.00000000000E+00 0. -1.
        -13    1    3    3    0    0  0.43722996431E+02 -0.13696348686E+02  0.42334142279E+03  0.42581363368E+03  0.00000000000E+00 0.  1.
         22    1    1    2    0    0  0.11081642937E+01  0.22194060123E+02  0.65889889338E+02  0.69536190935E+02  0.00000000000E+00 0.  1.
<mgrwt>
<rscale>  0 0.65796764E+02</rscale>
<asrwt>0</asrwt>
<pdfrwt beam="1">  1        1 0.78723620E-03 0.94481525E+02</pdfrwt>
<pdfrwt beam="2">  1       -1 0.11465207E+00 0.94481525E+02</pdfrwt>
<totfact> 0.15102451E+04</totfact>
</mgrwt>
</event>
<event>
 6    1  0.1727544E-002  0.9281932E+02  0.7546771E-02  0.1398484E+00
          1   -1    0    0  501    0  0.00000000000E+00  0.00000000000E+00  0.22625182636E+03  0.22625182636E+03  0.00000000000E+00 0. -1.
         -1   -1    0    0    0  501 -0.00000000000E+00 -0.00000000000E+00 -0.14883161353E+02  0.14883161353E+02  0.00000000000E+00 0.  1.
         23    2    1    2    0    0 -0.11261949944E+02  0.11421002073E+02  0.13991821668E+03  0.16790632276E+03  0.91422946017E+02 0.  0.
         13    1    3    3    0    0  0.79373621197E+01  0.10563459515E+02  0.14687451087E+03  0.14746765862E+03  0.00000000000E+00 0. -1.
        -13    1    3    3    0    0 -0.19199312064E+02  0.85754255772E+00 -0.69562941923E+01  0.20438664141E+02  0.00000000000E+00 0.  1.
         22    1    1    2    0    0  0.11261949944E+02 -0.11421002073E+02  0.71450448330E+02  0.73228664957E+02  0.00000000000E+00 0.  1.
<mgrwt>
<rscale>  0 0.59844962E+02</rscale>
<asrwt>0</asrwt>
<pdfrwt beam="1">  1        1 0.34807971E-01 0.92819318E+02</pdfrwt>
<pdfrwt beam="2">  1       -1 0.22897173E-02 0.92819318E+02</pdfrwt>
<totfact> 0.61150748E+04</totfact>
</mgrwt>
</event>
<event>
 6    1  0.1727544E-002  0.9358474E+02  0.7546771E-02  0.1367589E+00
          4   -1    0    0  501    0  0.00000000000E+00  0.00000000000E+00  0.34551953265E+02  0.34551953265E+02  0.00000000000E+00 0. -1.
         -4   -1    0    0    0  501 -0.00000000000E+00 -0.00000000000E+00 -0.20278888897E+03  0.20278888897E+03  0.00000000000E+00 0.  1.
         23    2    1    2    0    0  0.56275358735E+01 -0.25225020952E+02 -0.18444875456E+03  0.20683192694E+03  0.89945161632E+02 0.  0.
         11    1    3    3    0    0 -0.26000592807E+02 -0.32772668746E+02 -0.37026475448E+02  0.55866255711E+02  0.00000000000E+00 0. -1.
        -11    1    3    3    0    0  0.31628128680E+02  0.75476477938E+01 -0.14742227911E+03  0.15096567123E+03  0.00000000000E+00 0.  1.
         22    1    1    2    0    0 -0.56275358735E+01  0.25225020952E+02  0.16211818853E+02  0.30508915297E+02  0.00000000000E+00 0. -1.
<mgrwt>
<rscale>  0 0.67841971E+02</rscale>
<asrwt>0</asrwt>
<pdfrwt beam="1">  1        4 0.53156851E-02 0.93584737E+02</pdfrwt>
<pdfrwt beam="2">  1       -4 0.31198291E-01 0.93584737E+02</pdfrwt>
<totfact> 0.31821352E+03</totfact>
</mgrwt>
</event>
<event>
 6    1  0.2088150E-002  0.1256521E+03  0.7546771E-02  0.1328911E+00
         -1   -1    0    0    0  501 -0.00000000000E+00  0.00000000000E+00  0.15102399108E+03  0.15102399108E+03  0.00000000000E+00 0.  1.
          1   -1    0    0  501    0  0.00000000000E+00 -0.00000000000E+00 -0.35521670716E+02  0.35521670716E+02  0.00000000000E+00 0. -1.
         23    2    1    2    0    0 -0.73937758332E+01  0.19332232050E+02  0.96274592820E+02  0.15829484546E+03  0.12393570010E+03 0.  0.
         11    1    3    3    0    0  0.15264224610E+02 -0.33446606512E+02 -0.94638300268E+01  0.37963615724E+02  0.00000000000E+00 0.  1.
        -11    1    3    3    0    0 -0.22658000443E+02  0.52778838562E+02  0.10573842285E+03  0.12033122974E+03  0.00000000000E+00 0. -1.
         22    1    1    2    0    0  0.73937758332E+01 -0.19332232050E+02  0.19227727546E+02  0.28250816336E+02  0.00000000000E+00 0.  1.
<mgrwt>
<rscale>  0 0.80049570E+02</rscale>
<asrwt>0</asrwt>
<pdfrwt beam="1">  1        1 0.54648725E-02 0.12565214E+03</pdfrwt>
<pdfrwt beam="2">  1       -1 0.23234460E-01 0.12565214E+03</pdfrwt>
<totfact> 0.21234133E+04</totfact>
</mgrwt>
</event>
<event>
 6    1  0.1727544E-002  0.9397037E+02  0.7546771E-02  0.1377369E+00
         -2   -1    0    0    0  501 -0.00000000000E+00  0.00000000000E+00  0.61635036733E+02  0.61635036733E+02  0.00000000000E+00 0.  1.
          2   -1    0    0  501    0  0.00000000000E+00 -0.00000000000E+00 -0.59152281536E+02  0.59152281536E+02  0.00000000000E+00 0. -1.
         23    2    1    2    0    0 -0.79472939299E+00  0.21710625472E+02  0.15823110465E+02  0.95293241862E+02  0.91424549584E+02 0.  0.
         13    1    3    3    0    0  0.30288263010E+02  0.17666716985E+02 -0.25551268860E+02  0.43386162604E+02  0.00000000000E+00 0. -1.
        -13    1    3    3    0    0 -0.31082992403E+02  0.40439084872E+01  0.41374379324E+02  0.51907079258E+02  0.00000000000E+00 0.  1.
         22    1    1    2    0    0  0.79472939299E+00 -0.21710625472E+02 -0.13340355267E+02  0.25494076407E+02  0.00000000000E+00 0.  1.
<mgrwt>
<rscale>  0 0.65160438E+02</rscale>
<asrwt>0</asrwt>
<pdfrwt beam="1">  1        2 0.91003510E-02 0.93970374E+02</pdfrwt>
<pdfrwt beam="2">  1       -2 0.94823133E-02 0.93970374E+02</pdfrwt>
<totfact> 0.45204283E+04</totfact>
</mgrwt>
</event>
<event>
 6    1  0.1727544E-002  0.9004018E+02  0.7546771E-02  0.1413881E+00
         -2   -1    0    0    0  501 -0.00000000000E+00  0.00000000000E+00  0.13602892288E+02  0.13602892288E+02  0.00000000000E+00 0.  1.
          2   -1    0    0  501    0  0.00000000000E+00 -0.00000000000E+00 -0.19825614515E+03  0.19825614515E+03  0.00000000000E+00 0. -1.
         23    2    1    2    0    0  0.24425778200E+01  0.13581523021E+02 -0.15857240062E+03  0.18235251599E+03  0.88976456985E+02 0.  0.
         13    1    3    3    0    0 -0.32828427313E+02  0.72890800576E+01 -0.19787650562E+02  0.39017783673E+02  0.00000000000E+00 0.  1.
        -13    1    3    3    0    0  0.35271005133E+02  0.62924429633E+01 -0.13878475005E+03  0.14333473232E+03  0.00000000000E+00 0. -1.
         22    1    1    2    0    0 -0.24425778200E+01 -0.13581523021E+02 -0.26080852246E+02  0.29506521446E+02  0.00000000000E+00 0.  1.
<mgrwt>
<rscale>  0 0.56336837E+02</rscale>
<asrwt>0</asrwt>
<pdfrwt beam="1">  1        2 0.30500943E-01 0.90040179E+02</pdfrwt>
<pdfrwt beam="2">  1       -2 0.20927528E-02 0.90040179E+02</pdfrwt>
<totfact> 0.10593018E+05</totfact>
</mgrwt>
</event>
<event>
 6    1  0.1727544E-002  0.9095516E+02  0.7546771E-02  0.1415547E+00
          2   -1    0    0  501    0  0.00000000000E+00  0.00000000000E+00  0.43825593306E+02  0.43825593306E+02  0.00000000000E+00 0. -1.
         -2   -1    0    0    0  501 -0.00000000000E+00 -0.00000000000E+00 -0.69823661202E+02  0.69823661202E+02  0.00000000000E+00 0.  1.
         23    2    1    2    0    0  0.16142118639E+01  0.12945508398E+02 -0.35365496092E+02  0.97588725916E+02  0.90014716821E+02 0.  0.
         11    1    3    3    0    0 -0.42155603548E+02  0.12165438598E+02 -0.46722111524E+01  0.44123943204E+02  0.00000000000E+00 0. -1.
        -11    1    3    3    0    0  0.43769815412E+02  0.78006980020E+00 -0.30693284939E+02  0.53464782712E+02  0.00000000000E+00 0.  1.
         22    1    1    2    0    0 -0.16142118639E+01 -0.12945508398E+02  0.93674281959E+01  0.16060528592E+02  0.00000000000E+00 0. -1.
<mgrwt>
<rscale>  0 0.55974195E+02</rscale>
<asrwt>0</asrwt>
<pdfrwt beam="1">  1        2 0.67423991E-02 0.90955160E+02</pdfrwt>
<pdfrwt beam="2">  1       -2 0.10742102E-01 0.90955160E+02</pdfrwt>
<totfact> 0.53796316E+04</totfact>
</mgrwt>
</event>
<event>
 6    1  0.1727544E-002  0.9278549E+02  0.7546771E-02  0.1403500E+00
          2   -1    0    0  501    0  0.00000000000E+00  0.00000000000E+00  0.40864422857E+01  0.40864422857E+01  0.00000000000E+00 0. -1.
         -2   -1    0    0    0  501 -0.00000000000E+00 -0.00000000000E+00 -0.89805199791E+03  0.89805199791E+03  0.00000000000E+00 0.  1.
         23    2    1    2    0    0  0.14808025747E+02 -0.85492372833E+00 -0.86105530059E+03  0.86604005508E+03  0.91592236669E+02 0.  0.
         11    1    3    3    0    0  0.20353875978E+02 -0.32855196804E+02 -0.17502544013E+03  0.17924187266E+03  0.00000000000E+00 0. -1.
        -11    1    3    3    0    0 -0.55458502306E+01  0.32000273075E+02 -0.68602986046E+03  0.68679818242E+03  0.00000000000E+00 0.  1.
         22    1    1    2    0    0 -0.14808025747E+02  0.85492372833E+00 -0.32910255036E+02  0.36098385112E+02  0.00000000000E+00 0. -1.
<mgrwt>
<rscale>  0 0.58669849E+02</rscale>
<asrwt>0</asrwt>
<pdfrwt beam="1">  1        2 0.62868317E-03 0.92785486E+02</pdfrwt>
<pdfrwt beam="2">  1       -2 0.13816190E+00 0.92785486E+02</pdfrwt>
<totfact> 0.96671104E+03</totfact>
</mgrwt>
</event>
<event>
 6    1  0.1727544E-002  0.9321200E+02  0.7546771E-02  0.1405905E+00
         -2   -1    0    0    0  501 -0.00000000000E+00  0.00000000000E+00  0.35490330655E+02  0.35490330655E+02  0.00000000000E+00 0.  1.
          2   -1    0    0  501    0  0.00000000000E+00 -0.00000000000E+00 -0.81103295742E+02  0.81103295742E+02  0.00000000000E+00 0. -1.
         23    2    1    2    0    0 -0.10142435275E+02  0.97761302808E+01 -0.39372371350E+02  0.10118626690E+03  0.92141387368E+02 0.  0.
         11    1    3    3    0    0 -0.71152075204E+01 -0.40186790583E+02 -0.29006186124E+02  0.50069583071E+02  0.00000000000E+00 0. -1.
        -11    1    3    3    0    0 -0.30272277547E+01  0.49962920864E+02 -0.10366185226E+02  0.51116683825E+02  0.00000000000E+00 0.  1.
         22    1    1    2    0    0  0.10142435275E+02 -0.97761302808E+01 -0.62405937370E+01  0.15407359500E+02  0.00000000000E+00 0.  1.
<mgrwt>
<rscale>  0 0.58117643E+02</rscale>
<asrwt>0</asrwt>
<pdfrwt beam="1">  1        2 0.12477430E-01 0.93212000E+02</pdfrwt>
<pdfrwt beam="2">  1       -2 0.54600509E-02 0.93212000E+02</pdfrwt>
<totfact> 0.71423457E+04</totfact>
</mgrwt>
</event>
<event>
 6    1  0.1727544E-002  0.9102176E+02  0.7546771E-02  0.1426279E+00
          4   -1    0    0  501    0  0.00000000000E+00  0.00000000000E+00  0.22429303645E+02  0.22429303645E+02  0.00000000000E+00 0.  1.
         -4   -1    0    0    0  501 -0.00000000000E+00 -0.00000000000E+00 -0.12635661313E+03  0.12635661313E+03  0.00000000000E+00 0. -1.
         23    2    1    2    0    0 -0.10781514262E+02 -0.23696714057E+01 -0.10337032040E+03  0.13773301538E+03  0.90349897584E+02 0.  0.
         11    1    3    3    0    0  0.15044829949E+02 -0.15193937117E+02 -0.10659477673E+03  0.10871820942E+03  0.00000000000E+00 0. -1.
        -11    1    3    3    0    0 -0.25826344211E+02  0.12824265711E+02  0.32244563279E+01  0.29014805961E+02  0.00000000000E+00 0.  1.
         22    1    1    2    0    0  0.10781514262E+02  0.23696714057E+01 -0.55698908236E+00  0.11052901393E+02  0.00000000000E+00 0. -1.
<mgrwt>
<rscale>  0 0.53714304E+02</rscale>
<asrwt>0</asrwt>
<pdfrwt beam="1">  1        4 0.34506621E-02 0.91021758E+02</pdfrwt>
<pdfrwt beam="2">  1       -4 0.19439479E-01 0.91021758E+02</pdfrwt>
<totfact> 0.14846842E+04</totfact>
</mgrwt>
</event>
<event>
 6    1  0.1727544E-002  0.9666023E+02  0.7546771E-02  0.1399100E+00
         -2   -1    0    0    0  501 -0.00000000000E+00  0.00000000000E+00  0.64200927190E+02  0.64200927190E+02  0.00000000000E+00 0.  1.
          2   -1    0    0  501    0  0.00000000000E+00 -0.00000000000E+00 -0.50938841145E+02  0.50938841145E+02  0.00000000000E+00 0. -1.
         23    2    1    2    0    0  0.79041456810E+01  0.11633083749E+02  0.21245595573E+02  0.98967552011E+02  0.95631568341E+02 0.  0.
         11    1    3    3    0    0  0.27025762630E+02  0.54240141159E+01 -0.31892270050E+02  0.42153631680E+02  0.00000000000E+00 0. -1.
        -11    1    3    3    0    0 -0.19121616949E+02  0.62090696327E+01  0.53137865623E+02  0.56813920331E+02  0.00000000000E+00 0.  1.
         22    1    1    2    0    0 -0.79041456810E+01 -0.11633083749E+02 -0.79835095282E+01  0.16172216324E+02  0.00000000000E+00 0. -1.
<mgrwt>
<rscale>  0 0.59698760E+02</rscale>
<asrwt>0</asrwt>
<pdfrwt beam="1">  1        2 0.78367448E-02 0.96660235E+02</pdfrwt>
<pdfrwt beam="2">  1       -2 0.98770657E-02 0.96660235E+02</pdfrwt>
<totfact> 0.51231062E+04</totfact>
</mgrwt>
</event>
<event>
 6    1  0.1727544E-002  0.9386722E+02  0.7546771E-02  0.1415011E+00
          1   -1    0    0  501    0  0.00000000000E+00  0.00000000000E+00  0.47337120880E+02  0.47337120880E+02  0.00000000000E+00 0. -1.
         -1   -1    0    0    0  501 -0.00000000000E+00 -0.00000000000E+00 -0.67329260890E+02  0.67329260890E+02  0.00000000000E+00 0.  1.
         23    2    1    2    0    0  0.11889834925E+01  0.11908703561E+02 -0.30543377205E+02  0.98711460629E+02  0.93101147502E+02 0.  0.
         13    1    3    3    0    0  0.21970279550E+02  0.11085933223E+02  0.27589753566E+02  0.36970063576E+02  0.00000000000E+00 0. -1.
        -13    1    3    3    0    0 -0.20781296058E+02  0.82277033751E+00 -0.58133130771E+02  0.61741397054E+02  0.00000000000E+00 0.  1.
         22    1    1    2    0    0 -0.11889834925E+01 -0.11908703561E+02  0.10551237195E+02  0.15954921140E+02  0.00000000000E+00 0. -1.
<mgrwt>
<rscale>  0 0.56090595E+02</rscale>
<asrwt>0</asrwt>
<pdfrwt beam="1">  1        1 0.72826340E-02 0.93867218E+02</pdfrwt>
<pdfrwt beam="2">  1       -1 0.10358348E-01 0.93867218E+02</pdfrwt>
<totfact> 0.49248775E+04</totfact>
</mgrwt>
</event>
<event>
 6    1  0.1727544E-002  0.7631135E+02  0.7546771E-02  0.1454159E+00
         -1   -1    0    0    0  501 -0.00000000000E+00  0.00000000000E+00  0.25321109389E+02  0.25321109389E+02  0.00000000000E+00 0.  1.
          1   -1    0    0  501    0  0.00000000000E+00 -0.00000000000E+00 -0.82033403945E+02  0.82033403945E+02  0.00000000000E+00 0. -1.
         23    2    1    2    0    0 -0.70452894802E+01  0.10143269245E+02 -0.38830789712E+02  0.85622734062E+02  0.75305380577E+02 0.  0.
         11    1    3    3    0    0 -0.13220572832E+02  0.32335170996E+02 -0.49216968844E+02  0.60354426942E+02  0.00000000000E+00 0. -1.
        -11    1    3    3    0    0  0.61752833513E+01 -0.22191901751E+02  0.10386179132E+02  0.25268307121E+02  0.00000000000E+00 0.  1.
         22    1    1    2    0    0  0.70452894802E+01 -0.10143269245E+02 -0.17881504844E+02  0.21731779271E+02  0.00000000000E+00 0. -1.
<mgrwt>
<rscale>  0 0.48401456E+02</rscale>
<asrwt>0</asrwt>
<pdfrwt beam="1">  1        1 0.12620524E-01 0.76311351E+02</pdfrwt>
<pdfrwt beam="2">  1       -1 0.38955553E-02 0.76311351E+02</pdfrwt>
<totfact> 0.98312692E+04</totfact>
</mgrwt>
</event>
<event>
 6    1  0.1727544E-002  0.9334874E+02  0.7546771E-02  0.1427041E+00
          1   -1    0    0  501    0  0.00000000000E+00  0.00000000000E+00  0.12121745896E+03  0.12121745896E+03  0.00000000000E+00 0. -1.
         -1   -1    0    0    0  501 -0.00000000000E+00 -0.00000000000E+00 -0.24478940861E+02  0.24478940861E+02  0.00000000000E+00 0.  1.
         23    2    1    2    0    0  0.10112734521E+02  0.23953924824E+00  0.68742490225E+02  0.11592892839E+03  0.92799039312E+02 0.  0.
         13    1    3    3    0    0 -0.11220661096E+02  0.48532037461E+00  0.87077037182E+02  0.87798343809E+02  0.00000000000E+00 0. -1.
        -13    1    3    3    0    0  0.21333395616E+02 -0.24578112637E+00 -0.18334546956E+02  0.28130584583E+02  0.00000000000E+00 0.  1.
         22    1    1    2    0    0 -0.10112734521E+02 -0.23953924824E+00  0.27996027879E+02  0.29767471433E+02  0.00000000000E+00 0. -1.
<mgrwt>
<rscale>  0 0.53558565E+02</rscale>
<asrwt>0</asrwt>
<pdfrwt beam="1">  1        1 0.18648840E-01 0.93348736E+02</pdfrwt>
<pdfrwt beam="2">  1       -1 0.37659910E-02 0.93348736E+02</pdfrwt>
<totfact> 0.64790840E+04</totfact>
</mgrwt>
</event>
<event>
 6    1  0.1727544E-002  0.9149582E+02  0.7546771E-02  0.1422031E+00
         -2   -1    0    0    0  501 -0.00000000000E+00  0.00000000000E+00  0.69752919737E+02  0.69752919737E+02  0.00000000000E+00 0. -1.
          2   -1    0    0  501    0  0.00000000000E+00 -0.00000000000E+00 -0.44232159695E+02  0.44232159695E+02  0.00000000000E+00 0.  1.
         23    2    1    2    0    0  0.99272409584E+01 -0.59959462633E+01  0.36029984485E+02  0.98334351557E+02  0.90757828475E+02 0.  0.
         13    1    3    3    0    0  0.26054470129E+02  0.33284964526E+02 -0.57243909006E+00  0.42273537393E+02  0.00000000000E+00 0. -1.
        -13    1    3    3    0    0 -0.16127229171E+02 -0.39280910789E+02  0.36602423575E+02  0.56060814164E+02  0.00000000000E+00 0.  1.
         22    1    1    2    0    0 -0.99272409584E+01  0.59959462633E+01 -0.10509224442E+02  0.15650727875E+02  0.00000000000E+00 0.  1.
<mgrwt>
<rscale>  0 0.54593611E+02</rscale>
<asrwt>0</asrwt>
<pdfrwt beam="1">  1        2 0.68049476E-02 0.91495819E+02</pdfrwt>
<pdfrwt beam="2">  1       -2 0.10731218E-01 0.91495819E+02</pdfrwt>
<totfact> 0.53303599E+04</totfact>
</mgrwt>
</event>
<event>
 6    1  0.1727544E-002  0.9326446E+02  0.7546771E-02  0.1418946E+00
          2   -1    0    0  501    0  0.00000000000E+00  0.00000000000E+00  0.20580269671E+03  0.20580269671E+03  0.00000000000E+00 0. -1.
         -2   -1    0    0    0  501 -0.00000000000E+00 -0.00000000000E+00 -0.14194497517E+02  0.14194497517E+02  0.00000000000E+00 0.  1.
         23    2    1    2    0    0 -0.11009703522E+02  0.32584255048E+01  0.14826727731E+03  0.17516119956E+03  0.92555007433E+02 0.  0.
         13    1    3    3    0    0  0.37861332176E+02  0.91165679916E+01  0.94802186833E+02  0.10248925268E+03  0.00000000000E+00 0. -1.
        -13    1    3    3    0    0 -0.48871035697E+02 -0.58581424868E+01  0.53465090477E+02  0.72671946880E+02  0.00000000000E+00 0.  1.
         22    1    1    2    0    0  0.11009703522E+02 -0.32584255048E+01  0.43340921887E+02  0.44835994674E+02  0.00000000000E+00 0. -1.
<mgrwt>
<rscale>  0 0.55244533E+02</rscale>
<asrwt>0</asrwt>
<pdfrwt beam="1">  1        2 0.31661951E-01 0.93264464E+02</pdfrwt>
<pdfrwt beam="2">  1       -2 0.21837690E-02 0.93264464E+02</pdfrwt>
<totfact> 0.96256779E+04</totfact>
</mgrwt>
</event>
<event>
 6    1  0.1727544E-002  0.9691599E+02  0.7546771E-02  0.1346002E+00
          2   -1    0    0  501    0  0.00000000000E+00  0.00000000000E+00  0.35572164555E+03  0.35572164555E+03  0.00000000000E+00 0.  1.
         -2   -1    0    0    0  501 -0.00000000000E+00 -0.00000000000E+00 -0.12071793343E+02  0.12071793343E+02  0.00000000000E+00 0. -1.
         23    2    1    2    0    0  0.35727932262E+01  0.33316568973E+02  0.27039648948E+03  0.28724026533E+03  0.90939264823E+02 0.  0.
         11    1    3    3    0    0 -0.58817868558E+01  0.16144738504E+02  0.26674824708E+03  0.26730109487E+03  0.00000000000E+00 0.  1.
        -11    1    3    3    0    0  0.94545800820E+01  0.17171830469E+02  0.36482423985E+01  0.19939170464E+02  0.00000000000E+00 0. -1.
         22    1    1    2    0    0 -0.35727932262E+01 -0.33316568973E+02  0.73253362725E+02  0.80553173557E+02  0.00000000000E+00 0.  1.
<mgrwt>
<rscale>  0 0.74316007E+02</rscale>
<asrwt>0</asrwt>
<pdfrwt beam="1">  1        2 0.54726399E-01 0.96915987E+02</pdfrwt>
<pdfrwt beam="2">  1       -2 0.18571992E-02 0.96915987E+02</pdfrwt>
<totfact> 0.68704414E+04</totfact>
</mgrwt>
</event>
<event>
 6    1  0.1727544E-002  0.9835855E+02  0.7546771E-02  0.1341384E+00
          3   -1    0    0  501    0  0.00000000000E+00  0.00000000000E+00  0.39347412553E+02  0.39347412553E+02  0.00000000000E+00 0. -1.
         -3   -1    0    0    0  501 -0.00000000000E+00 -0.00000000000E+00 -0.31211966234E+03  0.31211966234E+03  0.00000000000E+00 0.  1.
         23    2    1    2    0    0 -0.10994184301E+02  0.32922085313E+02 -0.29451822607E+03  0.31050827517E+03  0.92030797416E+02 0.  0.
         11    1    3    3    0    0  0.18543330349E+02 -0.24216481015E+02 -0.59704352218E+02  0.67044035730E+02  0.00000000000E+00 0. -1.
        -11    1    3    3    0    0 -0.29537514650E+02  0.57138566328E+02 -0.23481387385E+03  0.24346423944E+03  0.00000000000E+00 0.  1.
         22    1    1    2    0    0  0.10994184301E+02 -0.32922085313E+02  0.21745976285E+02  0.40958799719E+02  0.00000000000E+00 0. -1.
<mgrwt>
<rscale>  0 0.75808962E+02</rscale>
<asrwt>0</asrwt>
<pdfrwt beam="1">  1        3 0.60534480E-02 0.98358545E+02</pdfrwt>
<pdfrwt beam="2">  1       -3 0.48018410E-01 0.98358545E+02</pdfrwt>
<totfact> 0.15758942E+03</totfact>
</mgrwt>
</event>
<event>
 6    1  0.1727544E-002  0.9320499E+02  0.7546771E-02  0.1375165E+00
         -2   -1    0    0    0  501 -0.00000000000E+00  0.00000000000E+00  0.35921905436E+02  0.35921905436E+02  0.00000000000E+00 0. -1.
          2   -1    0    0  501    0  0.00000000000E+00 -0.00000000000E+00 -0.96114497547E+02  0.96114497547E+02  0.00000000000E+00 0.  1.
         23    2    1    2    0    0 -0.10166449489E+02 -0.20725073237E+02 -0.40225724067E+02  0.10151491587E+03  0.90301073706E+02 0.  0.
         11    1    3    3    0    0  0.12363683838E+02 -0.44357793374E+02  0.43570679950E+01  0.46254281451E+02  0.00000000000E+00 0. -1.
        -11    1    3    3    0    0 -0.22530133327E+02  0.23632720137E+02 -0.44582792062E+02  0.55260634424E+02  0.00000000000E+00 0.  1.
         22    1    1    2    0    0  0.10166449489E+02  0.20725073237E+02 -0.19966868044E+02  0.30521487109E+02  0.00000000000E+00 0. -1.
<mgrwt>
<rscale>  0 0.65751941E+02</rscale>
<asrwt>0</asrwt>
<pdfrwt beam="1">  1        2 0.14786846E-01 0.93204985E+02</pdfrwt>
<pdfrwt beam="2">  1       -2 0.55264471E-02 0.93204985E+02</pdfrwt>
<totfact> 0.57494285E+04</totfact>
</mgrwt>
</event>
<event>
 6    1  0.1727544E-002  0.8918443E+02  0.7546771E-02  0.1413173E+00
         -2   -1    0    0    0  501 -0.00000000000E+00  0.00000000000E+00  0.13416243247E+02  0.13416243247E+02  0.00000000000E+00 0.  1.
          2   -1    0    0  501    0  0.00000000000E+00 -0.00000000000E+00 -0.21908778173E+03  0.21908778173E+03  0.00000000000E+00 0. -1.
         23    2    1    2    0    0  0.11924808496E+02 -0.79959609312E+01 -0.14562162660E+03  0.17076158928E+03  0.88021166717E+02 0.  0.
         11    1    3    3    0    0  0.35852466510E+02  0.30326459031E+01 -0.13901924510E+03  0.14359995405E+03  0.00000000000E+00 0. -1.
        -11    1    3    3    0    0 -0.23927658014E+02 -0.11028606834E+02 -0.66023815049E+01  0.27161635229E+02  0.00000000000E+00 0.  1.
         22    1    1    2    0    0 -0.11924808496E+02  0.79959609312E+01 -0.60049911882E+02  0.61742435698E+02  0.00000000000E+00 0.  1.
<mgrwt>
<rscale>  0 0.56491892E+02</rscale>
<asrwt>0</asrwt>
<pdfrwt beam="1">  1        2 0.33705812E-01 0.89184428E+02</pdfrwt>
<pdfrwt beam="2">  1       -2 0.20640375E-02 0.89184428E+02</pdfrwt>
<totfact> 0.97022088E+04</totfact>
</mgrwt>
</event>
<event>
 6    1  0.1727544E-002  0.9041846E+02  0.7546771E-02  0.1415942E+00
         -4   -1    0    0    0  501 -0.00000000000E+00  0.00000000000E+00  0.11855870483E+02  0.11855870483E+02  0.00000000000E+00 0. -1.
          4   -1    0    0  501    0  0.00000000000E+00 -0.00000000000E+00 -0.25273395872E+03  0.25273395872E+03  0.00000000000E+00 0.  1.
         23    2    1    2    0    0 -0.10770314168E+01 -0.13154590634E+02 -0.17056806263E+03  0.19305170683E+03  0.89449953997E+02 0.  0.
         11    1    3    3    0    0  0.17724121124E+02  0.84169696906E+01  0.47961140346E+00  0.19627019017E+02  0.00000000000E+00 0. -1.
        -11    1    3    3    0    0 -0.18801152541E+02 -0.21571560324E+02 -0.17104767403E+03  0.17342468781E+03  0.00000000000E+00 0.  1.
         22    1    1    2    0    0  0.10770314168E+01  0.13154590634E+02 -0.70310025612E+02  0.71538122375E+02  0.00000000000E+00 0. -1.
<mgrwt>
<rscale>  0 0.55888809E+02</rscale>
<asrwt>0</asrwt>
<pdfrwt beam="1">  1        4 0.38882141E-01 0.90418458E+02</pdfrwt>
<pdfrwt beam="2">  1       -4 0.18239804E-02 0.90418458E+02</pdfrwt>
<totfact> 0.10943931E+04</totfact>
</mgrwt>
</event>
<event>
 6    1  0.1727544E-002  0.9183373E+02  0.7546771E-02  0.1336642E+00
          4   -1    0    0  501    0  0.00000000000E+00  0.00000000000E+00  0.26219320972E+02  0.26219320972E+02  0.00000000000E+00 0. -1.
         -4   -1    0    0    0  501 -0.00000000000E+00 -0.00000000000E+00 -0.18429061269E+03  0.18429061269E+03  0.00000000000E+00 0.  1.
         23    2    1    2    0    0 -0.22943878735E+02 -0.40218537064E+02 -0.11597861966E+03  0.14793401708E+03  0.79306247525E+02 0.  0.
         11    1    3    3    0    0  0.24082454188E+02  0.28521805037E+01 -0.15030429335E+02  0.28530919006E+02  0.00000000000E+00 0.  1.
        -11    1    3    3    0    0 -0.47026332922E+02 -0.43070717567E+02 -0.10094819033E+03  0.11940309808E+03  0.00000000000E+00 0. -1.
         22    1    1    2    0    0  0.22943878735E+02  0.40218537064E+02 -0.42092672056E+02  0.62575916579E+02  0.00000000000E+00 0.  1.
<mgrwt>
<rscale>  0 0.77384422E+02</rscale>
<asrwt>0</asrwt>
<pdfrwt beam="1">  1        4 0.40337418E-02 0.91833726E+02</pdfrwt>
<pdfrwt beam="2">  1       -4 0.28352401E-01 0.91833726E+02</pdfrwt>
<totfact> 0.58684188E+03</totfact>
</mgrwt>
</event>
<event>
 6    1  0.1727544E-002  0.9672703E+02  0.7546771E-02  0.1321837E+00
         -2   -1    0    0    0  501 -0.00000000000E+00  0.00000000000E+00  0.31345777478E+02  0.31345777478E+02  0.00000000000E+00 0.  1.
          2   -1    0    0  501    0  0.00000000000E+00 -0.00000000000E+00 -0.17760567090E+03  0.17760567090E+03  0.00000000000E+00 0. -1.
         23    2    1    2    0    0 -0.64484496749E+01 -0.51025865330E+02 -0.10705920157E+03  0.14428371549E+03  0.81920061510E+02 0.  0.
         11    1    3    3    0    0  0.12575248307E+02 -0.19757318021E+02  0.70422043108E+01  0.24455697228E+02  0.00000000000E+00 0.  1.
        -11    1    3    3    0    0 -0.19023697982E+02 -0.31268547309E+02 -0.11410140588E+03  0.11982801826E+03  0.00000000000E+00 0. -1.
         22    1    1    2    0    0  0.64484496749E+01  0.51025865330E+02 -0.39200691858E+02  0.64667732896E+02  0.00000000000E+00 0.  1.
<mgrwt>
<rscale>  0 0.82597830E+02</rscale>
<asrwt>0</asrwt>
<pdfrwt beam="1">  1        2 0.27323950E-01 0.96727028E+02</pdfrwt>
<pdfrwt beam="2">  1       -2 0.48224272E-02 0.96727028E+02</pdfrwt>
<totfact> 0.35608772E+04</totfact>
</mgrwt>
</event>
<event>
 6    1  0.1727544E-002  0.9393701E+02  0.7546771E-02  0.1421938E+00
          1   -1    0    0  501    0  0.00000000000E+00  0.00000000000E+00  0.11273567935E+02  0.11273567935E+02  0.00000000000E+00 0. -1.
         -1   -1    0    0    0  501 -0.00000000000E+00 -0.00000000000E+00 -0.52760647989E+03  0.52760647989E+03  0.00000000000E+00 0.  1.
         23    2    1    2    0    0  0.10710763016E+02  0.67300865951E+00 -0.51931417265E+03  0.52774176698E+03  0.93321965861E+02 0.  0.
         11    1    3    3    0    0  0.42916951133E+02  0.27977386946E+02 -0.25781823120E+03  0.26285897211E+03  0.00000000000E+00 0. -1.
        -11    1    3    3    0    0 -0.32206188118E+02 -0.27304378287E+02 -0.26149594145E+03  0.26488279487E+03  0.00000000000E+00 0.  1.
         22    1    1    2    0    0 -0.10710763016E+02 -0.67300865951E+00  0.29812606904E+01  0.11138280852E+02  0.00000000000E+00 0.  1.
<mgrwt>
<rscale>  0 0.54613069E+02</rscale>
<asrwt>0</asrwt>
<pdfrwt beam="1">  1        1 0.17343954E-02 0.93937015E+02</pdfrwt>
<pdfrwt beam="2">  1       -1 0.81170212E-01 0.93937015E+02</pdfrwt>
<totfact> 0.10634061E+04</totfact>
</mgrwt>
</event>
<event>
 6    1  0.1727544E-002  0.9304738E+02  0.7546771E-02  0.1396012E+00
          2   -1    0    0  501    0  0.00000000000E+00  0.00000000000E+00  0.14796802365E+02  0.14796802365E+02  0.00000000000E+00 0. -1.
         -2   -1    0    0    0  501 -0.00000000000E+00 -0.00000000000E+00 -0.40879780412E+03  0.40879780412E+03  0.00000000000E+00 0.  1.
         23    2    1    2    0    0 -0.25407793342E+01 -0.16364114201E+02 -0.39611804813E+03  0.40689964681E+03  0.91561862838E+02 0.  0.
         11    1    3    3    0    0 -0.18256212299E+02 -0.19149974655E+02 -0.28322274400E+02  0.38757735279E+02  0.00000000000E+00 0. -1.
        -11    1    3    3    0    0  0.15715432965E+02  0.27858604541E+01 -0.36779577373E+03  0.36814191153E+03  0.00000000000E+00 0.  1.
         22    1    1    2    0    0  0.25407793342E+01  0.16364114201E+02  0.21170463758E+01  0.16694959675E+02  0.00000000000E+00 0. -1.
<mgrwt>
<rscale>  0 0.60435819E+02</rscale>
<asrwt>0</asrwt>
<pdfrwt beam="1">  1        2 0.22764310E-02 0.93047378E+02</pdfrwt>
<pdfrwt beam="2">  1       -2 0.62891973E-01 0.93047378E+02</pdfrwt>
<totfact> 0.98512679E+03</totfact>
</mgrwt>
</event>
<event>
 6    1  0.1727544E-002  0.1052434E+03  0.7546771E-02  0.1337401E+00
          1   -1    0    0  501    0  0.00000000000E+00  0.00000000000E+00  0.47773466196E+03  0.47773466196E+03  0.00000000000E+00 0. -1.
         -1   -1    0    0    0  501 -0.00000000000E+00 -0.00000000000E+00 -0.96306078563E+01  0.96306078563E+01  0.00000000000E+00 0.  1.
         23    2    1    2    0    0 -0.29510860372E+02  0.71274466335E+01  0.35732090619E+03  0.37249753180E+03  0.10076948854E+03 0.  0.
         11    1    3    3    0    0 -0.50545302627E+02 -0.24668166005E+02  0.28746792712E+03  0.29291834213E+03  0.00000000000E+00 0. -1.
        -11    1    3    3    0    0  0.21034442255E+02  0.31795612639E+02  0.69852979074E+02  0.79579189677E+02  0.00000000000E+00 0.  1.
         22    1    1    2    0    0  0.29510860372E+02 -0.71274466335E+01  0.11078314792E+03  0.11486773802E+03  0.00000000000E+00 0. -1.
<mgrwt>
<rscale>  0 0.77129312E+02</rscale>
<asrwt>0</asrwt>
<pdfrwt beam="1">  1        1 0.73497622E-01 0.10524344E+03</pdfrwt>
<pdfrwt beam="2">  1       -1 0.14816323E-02 0.10524344E+03</pdfrwt>
<totfact> 0.45927153E+04</totfact>
</mgrwt>
</event>
<event>
 6    1  0.1727544E-002  0.9341049E+02  0.7546771E-02  0.1413716E+00
         -2   -1    0    0    0  501 -0.00000000000E+00  0.00000000000E+00  0.75834599419E+02  0.75834599419E+02  0.00000000000E+00 0. -1.
          2   -1    0    0  501    0  0.00000000000E+00 -0.00000000000E+00 -0.94232156244E+02  0.94232156244E+02  0.00000000000E+00 0.  1.
         23    2    1    2    0    0 -0.11393401664E+02 -0.48702741271E+01  0.46256429574E+02  0.10423616149E+03  0.92585046925E+02 0.  0.
         13    1    3    3    0    0 -0.41255565951E+02 -0.31563410971E+02  0.34982987313E+02  0.62626512240E+02  0.00000000000E+00 0. -1.
        -13    1    3    3    0    0  0.29862164287E+02  0.26693136844E+02  0.11273442261E+02  0.41609649252E+02  0.00000000000E+00 0.  1.
         22    1    1    2    0    0  0.11393401664E+02  0.48702741271E+01 -0.64653986399E+02  0.65830594170E+02  0.00000000000E+00 0. -1.
<mgrwt>
<rscale>  0 0.56372930E+02</rscale>
<asrwt>0</asrwt>
<pdfrwt beam="1">  1        2 0.14497255E-01 0.93410492E+02</pdfrwt>
<pdfrwt beam="2">  1       -2 0.11666861E-01 0.93410492E+02</pdfrwt>
<totfact> 0.18732293E+04</totfact>
</mgrwt>
</event>
<event>
 6    1  0.1727544E-002  0.9840830E+02  0.7546771E-02  0.1337007E+00
          2   -1    0    0  501    0  0.00000000000E+00  0.00000000000E+00  0.12722958631E+03  0.12722958631E+03  0.00000000000E+00 0. -1.
         -2   -1    0    0    0  501 -0.00000000000E+00 -0.00000000000E+00 -0.37277144589E+02  0.37277144589E+02  0.00000000000E+00 0.  1.
         23    2    1    2    0    0  0.24737645503E+02  0.28037863779E+02  0.52299662765E+02  0.11144257470E+03  0.91028126529E+02 0.  0.
         13    1    3    3    0    0  0.59508579717E+02  0.16834352344E+02  0.34270285237E+02  0.70704447731E+02  0.00000000000E+00 0.  1.
        -13    1    3    3    0    0 -0.34770934214E+02  0.11203511435E+02  0.18029377528E+02  0.40738126965E+02  0.00000000000E+00 0. -1.
         22    1    1    2    0    0 -0.24737645503E+02 -0.28037863779E+02  0.37652778958E+02  0.53064156204E+02  0.00000000000E+00 0. -1.
<mgrwt>
<rscale>  0 0.77261834E+02</rscale>
<asrwt>0</asrwt>
<pdfrwt beam="1">  1        2 0.19573782E-01 0.98408296E+02</pdfrwt>
<pdfrwt beam="2">  1       -2 0.57349454E-02 0.98408296E+02</pdfrwt>
<totfact> 0.39783487E+04</totfact>
</mgrwt>
</event>
<event>
 6    1  0.1727544E-002  0.9488920E+02  0.7546771E-02  0.1413478E+00
          2   -1    0    0  501    0  0.00000000000E+00  0.00000000000E+00  0.10917238524E+03  0.10917238524E+03  0.00000000000E+00 0.  1.
         -2   -1    0    0    0  501 -0.00000000000E+00 -0.00000000000E+00 -0.48434757646E+02  0.48434757646E+02  0.00000000000E+00 0. -1.
         23    2    1    2    0    0  0.11378367681E+02 -0.33598295259E+01 -0.84413709265E+00  0.94892954320E+02  0.94144593613E+02 0.  0.
         13    1    3    3    0    0 -0.10211299082E+02 -0.65985136243E+01 -0.44474086239E+02  0.46105914564E+02  0.00000000000E+00 0. -1.
        -13    1    3    3    0    0  0.21589666763E+02  0.32386840984E+01  0.43629949147E+02  0.48787039756E+02  0.00000000000E+00 0.  1.
         22    1    1    2    0    0 -0.11378367681E+02  0.33598295259E+01  0.61581764687E+02  0.62714188566E+02  0.00000000000E+00 0.  1.
<mgrwt>
<rscale>  0 0.56424905E+02</rscale>
<asrwt>0</asrwt>
<pdfrwt beam="1">  1        2 0.16795751E-01 0.94889200E+02</pdfrwt>
<pdfrwt beam="2">  1       -2 0.74515012E-02 0.94889200E+02</pdfrwt>
<totfact> 0.31712585E+04</totfact>
</mgrwt>
</event>
<event>
 6    1  0.1727544E-002  0.9974206E+02  0.7546771E-02  0.1328364E+00
         -2   -1    0    0    0  501 -0.00000000000E+00  0.00000000000E+00  0.45322777762E+02  0.45322777762E+02  0.00000000000E+00 0.  1.
          2   -1    0    0  501    0  0.00000000000E+00 -0.00000000000E+00 -0.11269875276E+03  0.11269875276E+03  0.00000000000E+00 0. -1.
         23    2    1    2    0    0  0.27695837842E+01  0.41690010835E+02 -0.37079087435E+02  0.10641117309E+03  0.90569042372E+02 0.  0.
         13    1    3    3    0    0 -0.31934445876E+02  0.43664281247E+02  0.19703301197E+01  0.54131880541E+02  0.00000000000E+00 0. -1.
        -13    1    3    3    0    0  0.34704029660E+02 -0.19742704117E+01 -0.39049417555E+02  0.52279292551E+02  0.00000000000E+00 0.  1.
         22    1    1    2    0    0 -0.27695837842E+01 -0.41690010835E+02 -0.30296887560E+02  0.51610357425E+02  0.00000000000E+00 0.  1.
<mgrwt>
<rscale>  0 0.80242753E+02</rscale>
<asrwt>0</asrwt>
<pdfrwt beam="1">  1        2 0.17338269E-01 0.99742063E+02</pdfrwt>
<pdfrwt beam="2">  1       -2 0.69727352E-02 0.99742063E+02</pdfrwt>
<totfact> 0.34037755E+04</totfact>
</mgrwt>
</event>
<event>
 6    1  0.1727544E-002  0.1005803E+03  0.7546771E-02  0.1327458E+00
         -2   -1    0    0    0  501 -0.00000000000E+00  0.00000000000E+00  0.35723555501E+02  0.35723555501E+02  0.00000000000E+00 0.  1.
          2   -1    0    0  501    0  0.00000000000E+00 -0.00000000000E+00 -0.24458604217E+03  0.24458604217E+03  0.00000000000E+00 0. -1.
         23    2    1    2    0    0 -0.81568588655E+01  0.40591350240E+02 -0.43049886266E+02  0.10940608538E+03  0.91663551917E+02 0.  0.
         11    1    3    3    0    0 -0.22795790968E+02  0.24724415165E+02  0.22453801066E+02  0.40436592010E+02  0.00000000000E+00 0.  1.
        -11    1    3    3    0    0  0.14638932103E+02  0.15866935074E+02 -0.65503687331E+02  0.68969493370E+02  0.00000000000E+00 0. -1.
         22    1    1    2    0    0  0.81568588655E+01 -0.40591350240E+02 -0.16581260040E+03  0.17090351229E+03  0.00000000000E+00 0. -1.
<mgrwt>
<rscale>  0 0.80564212E+02</rscale>
<asrwt>0</asrwt>
<pdfrwt beam="1">  1        2 0.37628622E-01 0.10058031E+03</pdfrwt>
<pdfrwt beam="2">  1       -2 0.54959316E-02 0.10058031E+03</pdfrwt>
<totfact> 0.20917553E+04</totfact>
</mgrwt>
</event>
<event>
 6    1  0.1727544E-002  0.9042274E+02  0.7546771E-02  0.1377041E+00
          2   -1    0    0  501    0  0.00000000000E+00  0.00000000000E+00  0.16043858514E+02  0.16043858514E+02  0.00000000000E+00 0. -1.
         -2   -1    0    0    0  501 -0.00000000000E+00 -0.00000000000E+00 -0.21592185937E+03  0.21592185937E+03  0.00000000000E+00 0.  1.
         23    2    1    2    0    0 -0.18328061268E+02 -0.16281289665E+02 -0.17532516163E+03  0.19726931840E+03  0.87036046899E+02 0.  0.
         11    1    3    3    0    0  0.26897369685E+02  0.18524311811E+02 -0.52423938879E+02  0.61764779540E+02  0.00000000000E+00 0. -1.
        -11    1    3    3    0    0 -0.45225430953E+02 -0.34805601475E+02 -0.12290122275E+03  0.13550453886E+03  0.00000000000E+00 0.  1.
         22    1    1    2    0    0  0.18328061268E+02  0.16281289665E+02 -0.24552839234E+02  0.34696399488E+02  0.00000000000E+00 0. -1.
<mgrwt>
<rscale>  0 0.65248028E+02</rscale>
<asrwt>0</asrwt>
<pdfrwt beam="1">  1        2 0.24682862E-02 0.90422739E+02</pdfrwt>
<pdfrwt beam="2">  1       -2 0.33218744E-01 0.90422739E+02</pdfrwt>
<totfact> 0.30186200E+04</totfact>
</mgrwt>
</event>
<event>
 6    1  0.1727544E-002  0.9068021E+02  0.7546771E-02  0.1401092E+00
         -2   -1    0    0    0  501 -0.00000000000E+00  0.00000000000E+00  0.66427211723E+01  0.66427211723E+01  0.00000000000E+00 0.  1.
          2   -1    0    0  501    0  0.00000000000E+00 -0.00000000000E+00 -0.44274571906E+03  0.44274571906E+03  0.00000000000E+00 0. -1.
         23    2    1    2    0    0  0.16255346637E+02 -0.28625104807E+01 -0.39049743955E+03  0.40088795351E+03  0.89165412116E+02 0.  0.
         13    1    3    3    0    0 -0.28062534958E+02  0.25168828009E+02 -0.14203368885E+03  0.14695082354E+03  0.00000000000E+00 0. -1.
        -13    1    3    3    0    0  0.44317881594E+02 -0.28031338490E+02 -0.24846375070E+03  0.25393712998E+03  0.00000000000E+00 0.  1.
         22    1    1    2    0    0 -0.16255346637E+02  0.28625104807E+01 -0.45605558339E+02  0.48500486719E+02  0.00000000000E+00 0. -1.
<mgrwt>
<rscale>  0 0.59229943E+02</rscale>
<asrwt>0</asrwt>
<pdfrwt beam="1">  1        2 0.68114739E-01 0.90680213E+02</pdfrwt>
<pdfrwt beam="2">  1       -2 0.10219569E-02 0.90680213E+02</pdfrwt>
<totfact> 0.12659650E+05</totfact>
</mgrwt>
</event>
<event>
 6    1  0.1727544E-002  0.9342095E+02  0.7546771E-02  0.1404997E+00
          2   -1    0    0  501    0  0.00000000000E+00  0.00000000000E+00  0.56332996025E+02  0.56332996025E+02  0.00000000000E+00 0. -1.
         -2   -1    0    0    0  501 -0.00000000000E+00 -0.00000000000E+00 -0.53495779538E+02  0.53495779538E+02  0.00000000000E+00 0.  1.
         23    2    1    2    0    0 -0.23094453004E+01 -0.14004465482E+02 -0.51120823587E+01  0.93560710431E+02  0.92336420546E+02 0.  0.
         11    1    3    3    0    0  0.34344325962E+02 -0.18436265860E+02 -0.29869073686E+02  0.49107944240E+02  0.00000000000E+00 0.  1.
        -11    1    3    3    0    0 -0.36653771262E+02  0.44318003783E+01  0.24756991328E+02  0.44452766190E+02  0.00000000000E+00 0. -1.
         22    1    1    2    0    0  0.23094453004E+01  0.14004465482E+02  0.79492988451E+01  0.16268065132E+02  0.00000000000E+00 0.  1.
<mgrwt>
<rscale>  0 0.58325225E+02</rscale>
<asrwt>0</asrwt>
<pdfrwt beam="1">  1        2 0.86666147E-02 0.93420946E+02</pdfrwt>
<pdfrwt beam="2">  1       -2 0.82301200E-02 0.93420946E+02</pdfrwt>
<totfact> 0.59656936E+04</totfact>
</mgrwt>
</event>
<event>
 6    1  0.1727544E-002  0.9442352E+02  0.7546771E-02  0.1368752E+00
         -2   -1    0    0    0  501 -0.00000000000E+00  0.00000000000E+00  0.82750690002E+02  0.82750690002E+02  0.00000000000E+00 0. -1.
          2   -1    0    0  501    0  0.00000000000E+00 -0.00000000000E+00 -0.43290370334E+02  0.43290370334E+02  0.00000000000E+00 0.  1.
         23    2    1    2    0    0  0.23578314545E+02  0.72957556669E+01  0.26045927352E+02  0.97949942724E+02  0.91140748189E+02 0.  0.
         11    1    3    3    0    0  0.48048855043E+02 -0.44677851708E+00 -0.14298615807E+02  0.50133247412E+02  0.00000000000E+00 0.  1.
        -11    1    3    3    0    0 -0.24470540499E+02  0.77425341840E+01  0.40344543159E+02  0.47816695312E+02  0.00000000000E+00 0. -1.
         22    1    1    2    0    0 -0.23578314545E+02 -0.72957556669E+01  0.13414392315E+02  0.28091117612E+02  0.00000000000E+00 0. -1.
<mgrwt>
<rscale>  0 0.67515269E+02</rscale>
<asrwt>0</asrwt>
<pdfrwt beam="1">  1        2 0.66600570E-02 0.94423519E+02</pdfrwt>
<pdfrwt beam="2">  1       -2 0.12730875E-01 0.94423519E+02</pdfrwt>
<totfact> 0.42008695E+04</totfact>
</mgrwt>
</event>
<event>
 6    1  0.1727544E-002  0.9377824E+02  0.7546771E-02  0.1404223E+00
          4   -1    0    0  501    0  0.00000000000E+00  0.00000000000E+00  0.23349033507E+02  0.23349033507E+02  0.00000000000E+00 0.  1.
         -4   -1    0    0    0  501 -0.00000000000E+00 -0.00000000000E+00 -0.18648486652E+03  0.18648486652E+03  0.00000000000E+00 0. -1.
         23    2    1    2    0    0 -0.12995967659E+02  0.57319124702E+01 -0.16992973898E+03  0.19408883241E+03  0.92696325064E+02 0.  0.
         13    1    3    3    0    0 -0.19839007179E+02  0.25456341423E+02 -0.11457756894E+02  0.34247506735E+02  0.00000000000E+00 0.  1.
        -13    1    3    3    0    0  0.68430395200E+01 -0.19724428953E+02 -0.15847198208E+03  0.15984132567E+03  0.00000000000E+00 0. -1.
         22    1    1    2    0    0  0.12995967659E+02 -0.57319124702E+01  0.67939059669E+01  0.15745067616E+02  0.00000000000E+00 0. -1.
<mgrwt>
<rscale>  0 0.58503016E+02</rscale>
<asrwt>0</asrwt>
<pdfrwt beam="1">  1        4 0.35921592E-02 0.93778242E+02</pdfrwt>
<pdfrwt beam="2">  1       -4 0.28689978E-01 0.93778242E+02</pdfrwt>
<totfact> 0.69284194E+03</totfact>
</mgrwt>
</event>
<event>
 6    1  0.1727544E-002  0.1255832E+03  0.7546771E-02  0.1252323E+00
         -2   -1    0    0    0  501 -0.00000000000E+00  0.00000000000E+00  0.62196867271E+02  0.62196867271E+02  0.00000000000E+00 0.  1.
          2   -1    0    0  501    0  0.00000000000E+00 -0.00000000000E+00 -0.23349959034E+03  0.23349959034E+03  0.00000000000E+00 0. -1.
         23    2    1    2    0    0  0.69993953676E+02 -0.51689973945E+02 -0.16650241482E+03  0.20855261149E+03  0.90554572825E+02 0.  0.
         11    1    3    3    0    0  0.58077290852E+02 -0.77636734950E+02 -0.13159024502E+03  0.16345160418E+03  0.00000000000E+00 0. -1.
        -11    1    3    3    0    0  0.11916662824E+02  0.25946761005E+02 -0.34912169804E+02  0.45101007305E+02  0.00000000000E+00 0.  1.
         22    1    1    2    0    0 -0.69993953676E+02  0.51689973945E+02 -0.48003082464E+01  0.87143846122E+02  0.00000000000E+00 0.  1.
<mgrwt>
<rscale>  0 0.11457578E+03</rscale>
<asrwt>0</asrwt>
<pdfrwt beam="1">  1        2 0.35923014E-01 0.12558319E+03</pdfrwt>
<pdfrwt beam="2">  1       -2 0.95687489E-02 0.12558319E+03</pdfrwt>
<totfact> 0.96113593E+03</totfact>
</mgrwt>
</event>
<event>
 6    1  0.1727544E-002  0.8986669E+02  0.7546771E-02  0.1381165E+00
         -2   -1    0    0    0  501 -0.00000000000E+00  0.00000000000E+00  0.26670599631E+02  0.26670599631E+02  0.00000000000E+00 0.  1.
          2   -1    0    0  501    0  0.00000000000E+00 -0.00000000000E+00 -0.17137747241E+03  0.17137747241E+03  0.00000000000E+00 0. -1.
         23    2    1    2    0    0 -0.12266177572E+01 -0.23314051383E+02 -0.55018773190E+02  0.10537118824E+03  0.86781174947E+02 0.  0.
         11    1    3    3    0    0 -0.21674746370E+02 -0.27195072120E+02  0.10740499871E+02  0.36396770671E+02  0.00000000000E+00 0.  1.
        -11    1    3    3    0    0  0.20448128613E+02  0.38810207365E+01 -0.65759273061E+02  0.68974417571E+02  0.00000000000E+00 0. -1.
         22    1    1    2    0    0  0.12266177572E+01  0.23314051383E+02 -0.89688099593E+02  0.92676883804E+02  0.00000000000E+00 0.  1.
<mgrwt>
<rscale>  0 0.64158405E+02</rscale>
<asrwt>0</asrwt>
<pdfrwt beam="1">  1        2 0.26365764E-01 0.89866690E+02</pdfrwt>
<pdfrwt beam="2">  1       -2 0.41031693E-02 0.89866690E+02</pdfrwt>
<totfact> 0.46557612E+04</totfact>
</mgrwt>
</event>
<event>
 6    1  0.1727544E-002  0.1095762E+03  0.7546771E-02  0.1295130E+00
         -1   -1    0    0    0  501 -0.00000000000E+00  0.00000000000E+00  0.16572685269E+03  0.16572685269E+03  0.00000000000E+00 0.  1.
          1   -1    0    0  501    0  0.00000000000E+00 -0.00000000000E+00 -0.50877649519E+02  0.50877649519E+02  0.00000000000E+00 0. -1.
         23    2    1    2    0    0  0.47424918427E+02  0.32531257211E+02  0.11534052839E+03  0.15909235581E+03  0.93271295708E+02 0.  0.
         13    1    3    3    0    0  0.67417605714E+02  0.30942812529E+02  0.46872699495E+02  0.87747599200E+02  0.00000000000E+00 0. -1.
        -13    1    3    3    0    0 -0.19992687287E+02  0.15884446818E+01  0.68467828898E+02  0.71344756608E+02  0.00000000000E+00 0.  1.
         22    1    1    2    0    0 -0.47424918427E+02 -0.32531257211E+02 -0.49132521773E+00  0.57512146404E+02  0.00000000000E+00 0. -1.
<mgrwt>
<rscale>  0 0.93265938E+02</rscale>
<asrwt>0</asrwt>
<pdfrwt beam="1">  1        1 0.78273308E-02 0.10957618E+03</pdfrwt>
<pdfrwt beam="2">  1       -1 0.25496439E-01 0.10957618E+03</pdfrwt>
<totfact> 0.11092507E+04</totfact>
</mgrwt>
</event>
<event>
 6    1  0.1727544E-002  0.1013843E+03  0.7546771E-02  0.1408342E+00
         -2   -1    0    0    0  501 -0.00000000000E+00  0.00000000000E+00  0.17897903556E+02  0.17897903556E+02  0.00000000000E+00 0.  1.
          2   -1    0    0  501    0  0.00000000000E+00 -0.00000000000E+00 -0.19311698492E+03  0.19311698492E+03  0.00000000000E+00 0. -1.
         23    2    1    2    0    0  0.64010878208E+01  0.83703330843E+01 -0.13150780372E+03  0.16605143449E+03  0.10083521238E+03 0.  0.
         11    1    3    3    0    0 -0.35729071155E+02  0.12290537510E+02 -0.11428396306E+03  0.12036796937E+03  0.00000000000E+00 0. -1.
        -11    1    3    3    0    0  0.42130158976E+02 -0.39202044257E+01 -0.17223840660E+02  0.45683465118E+02  0.00000000000E+00 0.  1.
         22    1    1    2    0    0 -0.64010878208E+01 -0.83703330843E+01 -0.43711277645E+02  0.44963453988E+02  0.00000000000E+00 0. -1.
<mgrwt>
<rscale>  0 0.57565357E+02</rscale>
<asrwt>0</asrwt>
<pdfrwt beam="1">  1        2 0.29710307E-01 0.10138430E+03</pdfrwt>
<pdfrwt beam="2">  1       -2 0.27535235E-02 0.10138430E+03</pdfrwt>
<totfact> 0.74560382E+04</totfact>
</mgrwt>
</event>
<event>
 6    1  0.1727544E-002  0.8531695E+02  0.7546771E-02  0.1364831E+00
         -2   -1    0    0    0  501 -0.00000000000E+00  0.00000000000E+00  0.95910862065E+02  0.95910862065E+02  0.00000000000E+00 0.  1.
          2   -1    0    0  501    0  0.00000000000E+00 -0.00000000000E+00 -0.42281497290E+02  0.42281497290E+02  0.00000000000E+00 0. -1.
         23    2    1    2    0    0  0.32829367804E+02  0.14060096151E+02  0.56554716158E+02  0.10235925490E+03  0.77482433169E+02 0.  0.
         13    1    3    3    0    0 -0.24454443658E+02 -0.33953361953E+01  0.22856086992E+02  0.33644447314E+02  0.00000000000E+00 0. -1.
        -13    1    3    3    0    0  0.57283811461E+02  0.17455432346E+02  0.33698629167E+02  0.68714807586E+02  0.00000000000E+00 0.  1.
         22    1    1    2    0    0 -0.32829367804E+02 -0.14060096151E+02 -0.29253513825E+01  0.35833104455E+02  0.00000000000E+00 0. -1.
<mgrwt>
<rscale>  0 0.68625348E+02</rscale>
<asrwt>0</asrwt>
<pdfrwt beam="1">  1        2 0.65048457E-02 0.85316945E+02</pdfrwt>
<pdfrwt beam="2">  1       -2 0.14755517E-01 0.85316945E+02</pdfrwt>
<totfact> 0.33698582E+04</totfact>
</mgrwt>
</event>
<event>
 6    1  0.1727544E-002  0.9341952E+02  0.7546771E-02  0.1410155E+00
          1   -1    0    0  501    0  0.00000000000E+00  0.00000000000E+00  0.10577029840E+03  0.10577029840E+03  0.00000000000E+00 0. -1.
         -1   -1    0    0    0  501 -0.00000000000E+00 -0.00000000000E+00 -0.33145015952E+02  0.33145015952E+02  0.00000000000E+00 0.  1.
         23    2    1    2    0    0 -0.12696638258E+02  0.31966515199E+01  0.36164906490E+02  0.10017538380E+03  0.92497480261E+02 0.  0.
         13    1    3    3    0    0 -0.46867227190E+02 -0.19278436614E+01 -0.41374133932E+01  0.47088977004E+02  0.00000000000E+00 0.  1.
        -13    1    3    3    0    0  0.34170588933E+02  0.51244951813E+01  0.40302319883E+02  0.53086406799E+02  0.00000000000E+00 0. -1.
         22    1    1    2    0    0  0.12696638258E+02 -0.31966515199E+01  0.36460375956E+02  0.38739930547E+02  0.00000000000E+00 0.  1.
<mgrwt>
<rscale>  0 0.57159304E+02</rscale>
<asrwt>0</asrwt>
<pdfrwt beam="1">  1        1 0.16272354E-01 0.93419522E+02</pdfrwt>
<pdfrwt beam="2">  1       -1 0.50992333E-02 0.93419522E+02</pdfrwt>
<totfact> 0.49513715E+04</totfact>
</mgrwt>
</event>
<event>
 6    1  0.1727544E-002  0.9272662E+02  0.7546771E-02  0.1400431E+00
          2   -1    0    0  501    0  0.00000000000E+00  0.00000000000E+00  0.18748891050E+02  0.18748891050E+02  0.00000000000E+00 0. -1.
         -2   -1    0    0    0  501 -0.00000000000E+00 -0.00000000000E+00 -0.16525052569E+03  0.16525052569E+03  0.00000000000E+00 0.  1.
         23    2    1    2    0    0 -0.14578517068E+02  0.55491894486E+01 -0.13792752028E+03  0.16619935774E+03  0.91405136606E+02 0.  0.
         11    1    3    3    0    0  0.35163211245E+02 -0.15317998188E+02 -0.49542205728E+02  0.62653991428E+02  0.00000000000E+00 0.  1.
        -11    1    3    3    0    0 -0.49741728312E+02  0.20867187637E+02 -0.88385314556E+02  0.10354536631E+03  0.00000000000E+00 0. -1.
         22    1    1    2    0    0  0.14578517068E+02 -0.55491894486E+01 -0.85741143569E+01  0.17800059001E+02  0.00000000000E+00 0.  1.
<mgrwt>
<rscale>  0 0.59385036E+02</rscale>
<asrwt>0</asrwt>
<pdfrwt beam="1">  1        2 0.28844447E-02 0.92726618E+02</pdfrwt>
<pdfrwt beam="2">  1       -2 0.25423158E-01 0.92726618E+02</pdfrwt>
<totfact> 0.39537353E+04</totfact>
</mgrwt>
</event>
<event>
 6    1  0.1727544E-002  0.9193808E+02  0.7546771E-02  0.1417287E+00
          1   -1    0    0  501    0  0.00000000000E+00  0.00000000000E+00  0.41102232029E+01  0.41102232029E+01  0.00000000000E+00 0. -1.
         -1   -1    0    0    0  501 -0.00000000000E+00 -0.00000000000E+00 -0.72058987196E+03  0.72058987196E+03  0.00000000000E+00 0.  1.
         23    2    1    2    0    0 -0.27043681277E+01  0.11995438624E+02 -0.68038139336E+03  0.68656496442E+03  0.91112050635E+02 0.  0.
         11    1    3    3    0    0 -0.38103864200E+02  0.25350213200E+02 -0.50918485313E+03  0.51123747166E+03  0.00000000000E+00 0.  1.
        -11    1    3    3    0    0  0.35399496072E+02 -0.13354774576E+02 -0.17119654024E+03  0.17532749275E+03  0.00000000000E+00 0. -1.
         22    1    1    2    0    0  0.27043681277E+01 -0.11995438624E+02 -0.36098255390E+02  0.38135130745E+02  0.00000000000E+00 0.  1.
<mgrwt>
<rscale>  0 0.55599006E+02</rscale>
<asrwt>0</asrwt>
<pdfrwt beam="1">  1        1 0.63234218E-03 0.91938077E+02</pdfrwt>
<pdfrwt beam="2">  1       -1 0.11085995E+00 0.91938077E+02</pdfrwt>
<totfact> 0.22017648E+04</totfact>
</mgrwt>
</event>
<event>
 6    1  0.1727544E-002  0.9347683E+02  0.7546771E-02  0.1412718E+00
         -1   -1    0    0    0  501 -0.00000000000E+00  0.00000000000E+00  0.11968507144E+03  0.11968507144E+03  0.00000000000E+00 0.  1.
          1   -1    0    0  501    0  0.00000000000E+00 -0.00000000000E+00 -0.35048007138E+02  0.35048007138E+02  0.00000000000E+00 0. -1.
         23    2    1    2    0    0  0.77825471631E+01 -0.98549742018E+01  0.98659122240E+02  0.13591004308E+03  0.92629524726E+02 0.  0.
         13    1    3    3    0    0  0.13860926471E+02 -0.11173301789E+02 -0.14265746285E+02  0.22814019211E+02  0.00000000000E+00 0. -1.
        -13    1    3    3    0    0 -0.60783793079E+01  0.13183275875E+01  0.11292486853E+03  0.11309602387E+03  0.00000000000E+00 0.  1.
         22    1    1    2    0    0 -0.77825471631E+01  0.98549742018E+01 -0.14022057936E+02  0.18823035505E+02  0.00000000000E+00 0. -1.
<mgrwt>
<rscale>  0 0.56591734E+02</rscale>
<asrwt>0</asrwt>
<pdfrwt beam="1">  1        1 0.53920012E-02 0.93476828E+02</pdfrwt>
<pdfrwt beam="2">  1       -1 0.18413088E-01 0.93476828E+02</pdfrwt>
<totfact> 0.30305534E+04</totfact>
</mgrwt>
</event>
<event>
 6    1  0.1727544E-002  0.9439062E+02  0.7546771E-02  0.1381786E+00
         -2   -1    0    0    0  501 -0.00000000000E+00  0.00000000000E+00  0.28562022342E+03  0.28562022342E+03  0.00000000000E+00 0. -1.
          2   -1    0    0  501    0  0.00000000000E+00 -0.00000000000E+00 -0.21332326253E+02  0.21332326253E+02  0.00000000000E+00 0.  1.
         23    2    1    2    0    0  0.17723077209E+02 -0.91494440706E+01  0.27014849666E+03  0.28616393694E+03  0.92259247589E+02 0.  0.
         11    1    3    3    0    0 -0.25384167543E+02 -0.23785356989E+02  0.19669319136E+03  0.19974561496E+03  0.00000000000E+00 0.  1.
        -11    1    3    3    0    0  0.43107244752E+02  0.14635912919E+02  0.73455305299E+02  0.86418321979E+02  0.00000000000E+00 0. -1.
         22    1    1    2    0    0 -0.17723077209E+02  0.91494440706E+01 -0.58605994988E+01  0.20788612726E+02  0.00000000000E+00 0.  1.
<mgrwt>
<rscale>  0 0.63996676E+02</rscale>
<asrwt>0</asrwt>
<pdfrwt beam="1">  1        2 0.32818965E-02 0.94390617E+02</pdfrwt>
<pdfrwt beam="2">  1       -2 0.43941570E-01 0.94390617E+02</pdfrwt>
<totfact> 0.12337679E+04</totfact>
</mgrwt>
</event>
<event>
 6    1  0.1727544E-002  0.9330038E+02  0.7546771E-02  0.1378865E+00
         -4   -1    0    0    0  501 -0.00000000000E+00  0.00000000000E+00  0.62272490216E+02  0.62272490216E+02  0.00000000000E+00 0.  1.
          4   -1    0    0  501    0  0.00000000000E+00 -0.00000000000E+00 -0.54485984656E+02  0.54485984656E+02  0.00000000000E+00 0. -1.
         23    2    1    2    0    0 -0.11602943130E+02 -0.18290208782E+02  0.13711715947E+02  0.94302559289E+02  0.90751316837E+02 0.  0.
         13    1    3    3    0    0 -0.43055290970E+02  0.16728020102E+02  0.81762886964E+01  0.46908809768E+02  0.00000000000E+00 0.  1.
        -13    1    3    3    0    0  0.31452347839E+02 -0.35018228884E+02  0.55354272502E+01  0.47393749521E+02  0.00000000000E+00 0. -1.
         22    1    1    2    0    0  0.11602943130E+02  0.18290208782E+02 -0.59252103866E+01  0.22455915584E+02  0.00000000000E+00 0. -1.
<mgrwt>
<rscale>  0 0.64763110E+02</rscale>
<asrwt>0</asrwt>
<pdfrwt beam="1">  1        4 0.83824592E-02 0.93300383E+02</pdfrwt>
<pdfrwt beam="2">  1       -4 0.95803831E-02 0.93300383E+02</pdfrwt>
<totfact> 0.12161096E+04</totfact>
</mgrwt>
</event>
<event>
 6    1  0.1727544E-002  0.9101267E+02  0.7546771E-02  0.1399609E+00
         -4   -1    0    0    0  501 -0.00000000000E+00  0.00000000000E+00  0.56272635078E+02  0.56272635078E+02  0.00000000000E+00 0.  1.
          4   -1    0    0  501    0  0.00000000000E+00 -0.00000000000E+00 -0.53358679437E+02  0.53358679437E+02  0.00000000000E+00 0. -1.
         23    2    1    2    0    0  0.21600368999E+00  0.16711567943E+02  0.98338907262E+01  0.91542404589E+02  0.89464983487E+02 0.  0.
         13    1    3    3    0    0  0.42742268496E+02 -0.53897726432E+01  0.51525150994E+01  0.43387781427E+02  0.00000000000E+00 0. -1.
        -13    1    3    3    0    0 -0.42526264806E+02  0.22101340586E+02  0.46813756268E+01  0.48154623162E+02  0.00000000000E+00 0.  1.
         22    1    1    2    0    0 -0.21600368999E+00 -0.16711567943E+02 -0.69199350857E+01  0.18088909926E+02  0.00000000000E+00 0. -1.
<mgrwt>
<rscale>  0 0.59578528E+02</rscale>
<asrwt>0</asrwt>
<pdfrwt beam="1">  1        4 0.82090276E-02 0.91012672E+02</pdfrwt>
<pdfrwt beam="2">  1       -4 0.86573285E-02 0.91012672E+02</pdfrwt>
<totfact> 0.14779561E+04</totfact>
</mgrwt>
</event>
<event>
 6    1  0.1727544E-002  0.9020279E+02  0.7546771E-02  0.1434031E+00
         -2   -1    0    0    0  501 -0.00000000000E+00  0.00000000000E+00  0.84141387990E+01  0.84141387990E+01  0.00000000000E+00 0.  1.
          2   -1    0    0  501    0  0.00000000000E+00 -0.00000000000E+00 -0.30228733642E+03  0.30228733642E+03  0.00000000000E+00 0. -1.
         23    2    1    2    0    0 -0.29910373135E+00 -0.10080439592E+02 -0.25288698740E+03  0.26849277761E+03  0.89637260713E+02 0.  0.
         11    1    3    3    0    0  0.76698442302E+01 -0.82066757695E+01 -0.25838662530E+03  0.25863067137E+03  0.00000000000E+00 0. -1.
        -11    1    3    3    0    0 -0.79689479615E+01 -0.18737638225E+01  0.54996379028E+01  0.98621062425E+01  0.00000000000E+00 0.  1.
         22    1    1    2    0    0  0.29910373135E+00  0.10080439592E+02 -0.40986210227E+02  0.42208697613E+02  0.00000000000E+00 0. -1.
<mgrwt>
<rscale>  0 0.52159404E+02</rscale>
<asrwt>0</asrwt>
<pdfrwt beam="1">  1        2 0.46505751E-01 0.90202789E+02</pdfrwt>
<pdfrwt beam="2">  1       -2 0.12944827E-02 0.90202789E+02</pdfrwt>
<totfact> 0.13502380E+05</totfact>
</mgrwt>
</event>
<event>
 6    1  0.1727544E-002  0.9712700E+02  0.7546771E-02  0.1413961E+00
          4   -1    0    0  501    0  0.00000000000E+00  0.00000000000E+00  0.10373222112E+03  0.10373222112E+03  0.00000000000E+00 0. -1.
         -4   -1    0    0    0  501 -0.00000000000E+00 -0.00000000000E+00 -0.28549834964E+02  0.28549834964E+02  0.00000000000E+00 0.  1.
         23    2    1    2    0    0 -0.10466341013E+02 -0.33195053439E+01  0.62461103501E+02  0.11547746022E+03  0.96504357193E+02 0.  0.
         11    1    3    3    0    0 -0.36921651684E+02  0.28644354524E+01  0.76429341731E+02  0.84928544265E+02  0.00000000000E+00 0. -1.
        -11    1    3    3    0    0  0.26455310671E+02 -0.61839407963E+01 -0.13968238230E+02  0.30548915950E+02  0.00000000000E+00 0.  1.
         22    1    1    2    0    0  0.10466341013E+02  0.33195053439E+01  0.12721282655E+02  0.16804595869E+02  0.00000000000E+00 0. -1.
<mgrwt>
<rscale>  0 0.56319258E+02</rscale>
<asrwt>0</asrwt>
<pdfrwt beam="1">  1        4 0.15958803E-01 0.97127001E+02</pdfrwt>
<pdfrwt beam="2">  1       -4 0.43922824E-02 0.97127001E+02</pdfrwt>
<totfact> 0.14657391E+04</totfact>
</mgrwt>
</event>
<event>
 6    1  0.1727544E-002  0.9209241E+02  0.7546771E-02  0.1425612E+00
         -4   -1    0    0    0  501 -0.00000000000E+00  0.00000000000E+00  0.35977687711E+03  0.35977687711E+03  0.00000000000E+00 0.  1.
          4   -1    0    0  501    0  0.00000000000E+00 -0.00000000000E+00 -0.15740282620E+02  0.15740282620E+02  0.00000000000E+00 0. -1.
         23    2    1    2    0    0 -0.44867154541E+01 -0.97878779667E+01  0.35087675044E+03  0.36276094931E+03  0.91460806762E+02 0.  0.
         13    1    3    3    0    0 -0.24609982893E+02 -0.21086567014E+02  0.42130173530E+02  0.53153044015E+02  0.00000000000E+00 0. -1.
        -13    1    3    3    0    0  0.20123267439E+02  0.11298689047E+02  0.30874657691E+03  0.30960790530E+03  0.00000000000E+00 0.  1.
         22    1    1    2    0    0  0.44867154541E+01  0.97878779667E+01 -0.68401559562E+01  0.12756210415E+02  0.00000000000E+00 0. -1.
<mgrwt>
<rscale>  0 0.53851010E+02</rscale>
<asrwt>0</asrwt>
<pdfrwt beam="1">  1        4 0.24215822E-02 0.92092412E+02</pdfrwt>
<pdfrwt beam="2">  1       -4 0.55350283E-01 0.92092412E+02</pdfrwt>
<totfact> 0.35233346E+03</totfact>
</mgrwt>
</event>
<event>
 6    1  0.1727544E-002  0.9124761E+02  0.7546771E-02  0.1410802E+00
          2   -1    0    0  501    0  0.00000000000E+00  0.00000000000E+00  0.41794057431E+01  0.41794057431E+01  0.00000000000E+00 0.  1.
         -2   -1    0    0    0  501 -0.00000000000E+00 -0.00000000000E+00 -0.70342649411E+03  0.70342649411E+03  0.00000000000E+00 0. -1.
         23    2    1    2    0    0  0.48534612131E+01  0.13034851826E+02 -0.65199625945E+03  0.65835039985E+03  0.90181279591E+02 0.  0.
         11    1    3    3    0    0 -0.29704305697E+02  0.10325948094E+02 -0.54441445387E+03  0.54532198614E+03  0.00000000000E+00 0. -1.
        -11    1    3    3    0    0  0.34557766910E+02  0.27089037317E+01 -0.10758180558E+03  0.11302841371E+03  0.00000000000E+00 0.  1.
         22    1    1    2    0    0 -0.48534612131E+01 -0.13034851826E+02 -0.47250828909E+02  0.49255500003E+02  0.00000000000E+00 0.  1.
<mgrwt>
<rscale>  0 0.57015245E+02</rscale>
<asrwt>0</asrwt>
<pdfrwt beam="1">  1        2 0.64298538E-03 0.91247612E+02</pdfrwt>
<pdfrwt beam="2">  1       -2 0.10821948E+00 0.91247612E+02</pdfrwt>
<totfact> 0.16786514E+04</totfact>
</mgrwt>
</event>
<event>
 6    1  0.1727544E-002  0.9453847E+02  0.7546771E-02  0.1415214E+00
          1   -1    0    0  501    0  0.00000000000E+00  0.00000000000E+00  0.18055582143E+02  0.18055582143E+02  0.00000000000E+00 0.  1.
         -1   -1    0    0    0  501 -0.00000000000E+00 -0.00000000000E+00 -0.15700723448E+03  0.15700723448E+03  0.00000000000E+00 0. -1.
         23    2    1    2    0    0 -0.62271967042E+01  0.98792007361E+01 -0.12731414928E+03  0.15857621408E+03  0.93814425753E+02 0.  0.
         13    1    3    3    0    0  0.36071873913E+02  0.30646064333E+02 -0.60454831568E+02  0.76779867196E+02  0.00000000000E+00 0. -1.
        -13    1    3    3    0    0 -0.42299070617E+02 -0.20766863597E+02 -0.66859317715E+02  0.81796346887E+02  0.00000000000E+00 0.  1.
         22    1    1    2    0    0  0.62271967042E+01 -0.98792007361E+01 -0.11637503053E+02  0.16486602539E+02  0.00000000000E+00 0. -1.
<mgrwt>
<rscale>  0 0.56046554E+02</rscale>
<asrwt>0</asrwt>
<pdfrwt beam="1">  1        1 0.27777820E-02 0.94538474E+02</pdfrwt>
<pdfrwt beam="2">  1       -1 0.24154958E-01 0.94538474E+02</pdfrwt>
<totfact> 0.48529890E+04</totfact>
</mgrwt>
</event>
<event>
 6    1  0.1727544E-002  0.9596923E+02  0.7546771E-02  0.1364999E+00
          2   -1    0    0  501    0  0.00000000000E+00  0.00000000000E+00  0.22253213825E+03  0.22253213825E+03  0.00000000000E+00 0. -1.
         -2   -1    0    0    0  501 -0.00000000000E+00 -0.00000000000E+00 -0.17513633835E+02  0.17513633835E+02  0.00000000000E+00 0.  1.
         23    2    1    2    0    0 -0.24840890741E+02 -0.30061284181E+01  0.13456719257E+03  0.16528285346E+03  0.92649801244E+02 0.  0.
         11    1    3    3    0    0  0.16660819819E+02  0.80472192310E+01 -0.50745183875E+01  0.19185707995E+02  0.00000000000E+00 0.  1.
        -11    1    3    3    0    0 -0.41501710560E+02 -0.11053347649E+02  0.13964171096E+03  0.14609714546E+03  0.00000000000E+00 0. -1.
         22    1    1    2    0    0  0.24840890741E+02  0.30061284181E+01  0.70451311843E+02  0.74762918624E+02  0.00000000000E+00 0. -1.
<mgrwt>
<rscale>  0 0.68577245E+02</rscale>
<asrwt>0</asrwt>
<pdfrwt beam="1">  1        2 0.34235712E-01 0.95969226E+02</pdfrwt>
<pdfrwt beam="2">  1       -2 0.26944054E-02 0.95969226E+02</pdfrwt>
<totfact> 0.65643781E+04</totfact>
</mgrwt>
</event>
<event>
 6    1  0.1727544E-002  0.9379450E+02  0.7546771E-02  0.1411775E+00
         -2   -1    0    0    0  501 -0.00000000000E+00  0.00000000000E+00  0.23896783423E+03  0.23896783423E+03  0.00000000000E+00 0.  1.
          2   -1    0    0  501    0  0.00000000000E+00 -0.00000000000E+00 -0.14931313426E+02  0.14931313426E+02  0.00000000000E+00 0. -1.
         23    2    1    2    0    0  0.85744438380E+01 -0.92513602967E+01  0.22215774788E+03  0.24114616596E+03  0.92942453488E+02 0.  0.
         13    1    3    3    0    0 -0.34787549382E+02 -0.26512274974E+02  0.75649135429E+02  0.87383442411E+02  0.00000000000E+00 0. -1.
        -13    1    3    3    0    0  0.43361993220E+02  0.17260914678E+02  0.14650861245E+03  0.15376272355E+03  0.00000000000E+00 0.  1.
         22    1    1    2    0    0 -0.85744438380E+01  0.92513602967E+01  0.18787729276E+01  0.12752981698E+02  0.00000000000E+00 0.  1.
<mgrwt>
<rscale>  0 0.56799537E+02</rscale>
<asrwt>0</asrwt>
<pdfrwt beam="1">  1        2 0.22971253E-02 0.93794501E+02</pdfrwt>
<pdfrwt beam="2">  1       -2 0.36764279E-01 0.93794501E+02</pdfrwt>
<totfact> 0.27746785E+04</totfact>
</mgrwt>
</event>
<event>
 6    1  0.1727544E-002  0.9575982E+02  0.7546771E-02  0.1362093E+00
          2   -1    0    0  501    0  0.00000000000E+00  0.00000000000E+00  0.14182442026E+03  0.14182442026E+03  0.00000000000E+00 0. -1.
         -2   -1    0    0    0  501 -0.00000000000E+00 -0.00000000000E+00 -0.65373175752E+02  0.65373175752E+02  0.00000000000E+00 0.  1.
         23    2    1    2    0    0 -0.68009951601E+01 -0.25550746368E+02 -0.27745638156E+02  0.99698365634E+02  0.92037218006E+02 0.  0.
         11    1    3    3    0    0  0.63532989283E+01  0.25189949979E+02  0.16775987867E+02  0.30924614082E+02  0.00000000000E+00 0. -1.
        -11    1    3    3    0    0 -0.13154294088E+02 -0.50740696347E+02 -0.44521626023E+02  0.68773751552E+02  0.00000000000E+00 0.  1.
         22    1    1    2    0    0  0.68009951601E+01  0.25550746368E+02  0.10419688266E+03  0.10749923038E+03  0.00000000000E+00 0. -1.
<mgrwt>
<rscale>  0 0.69415181E+02</rscale>
<asrwt>0</asrwt>
<pdfrwt beam="1">  1        2 0.21819142E-01 0.95759823E+02</pdfrwt>
<pdfrwt beam="2">  1       -2 0.10057412E-01 0.95759823E+02</pdfrwt>
<totfact> 0.14905906E+04</totfact>
</mgrwt>
</event>
<event>
 6    1  0.1727544E-002  0.9759040E+02  0.7546771E-02  0.1390969E+00
          1   -1    0    0  501    0  0.00000000000E+00  0.00000000000E+00  0.17344498534E+03  0.17344498534E+03  0.00000000000E+00 0. -1.
         -1   -1    0    0    0  501 -0.00000000000E+00 -0.00000000000E+00 -0.18486693596E+02  0.18486693596E+02  0.00000000000E+00 0.  1.
         23    2    1    2    0    0  0.15229758294E+02  0.31822613909E+01  0.13635083357E+03  0.16767657999E+03  0.96342168007E+02 0.  0.
         11    1    3    3    0    0  0.75942018658E+01 -0.17962656830E+02  0.14292843437E+03  0.14425278608E+03  0.00000000000E+00 0. -1.
        -11    1    3    3    0    0  0.76355564280E+01  0.21144918221E+02 -0.65776007997E+01  0.23423793903E+02  0.00000000000E+00 0.  1.
         22    1    1    2    0    0 -0.15229758294E+02 -0.31822613909E+01  0.18607458177E+02  0.24255098949E+02  0.00000000000E+00 0. -1.
<mgrwt>
<rscale>  0 0.61666380E+02</rscale>
<asrwt>0</asrwt>
<pdfrwt beam="1">  1        1 0.26683843E-01 0.97590397E+02</pdfrwt>
<pdfrwt beam="2">  1       -1 0.28441068E-02 0.97590397E+02</pdfrwt>
<totfact> 0.62531444E+04</totfact>
</mgrwt>
</event>
<event>
 6    1  0.1727544E-002  0.9567453E+02  0.7546771E-02  0.1370618E+00
         -1   -1    0    0    0  501 -0.00000000000E+00  0.00000000000E+00  0.27261588947E+02  0.27261588947E+02  0.00000000000E+00 0.  1.
          1   -1    0    0  501    0  0.00000000000E+00 -0.00000000000E+00 -0.13383919667E+03  0.13383919667E+03  0.00000000000E+00 0. -1.
         23    2    1    2    0    0 -0.19414583175E+02 -0.12339080651E+02 -0.72748782028E+02  0.12019151528E+03  0.92867842166E+02 0.  0.
         11    1    3    3    0    0  0.22036882935E+02 -0.11664225746E+02 -0.74637026998E+02  0.78691576238E+02  0.00000000000E+00 0. -1.
        -11    1    3    3    0    0 -0.41451466110E+02 -0.67485490492E+00  0.18882449692E+01  0.41499939046E+02  0.00000000000E+00 0.  1.
         22    1    1    2    0    0  0.19414583175E+02  0.12339080651E+02 -0.33828825693E+02  0.40909270330E+02  0.00000000000E+00 0.  1.
<mgrwt>
<rscale>  0 0.66995798E+02</rscale>
<asrwt>0</asrwt>
<pdfrwt beam="1">  1        1 0.20590646E-01 0.95674527E+02</pdfrwt>
<pdfrwt beam="2">  1       -1 0.41940904E-02 0.95674527E+02</pdfrwt>
<totfact> 0.49077598E+04</totfact>
</mgrwt>
</event>
<event>
 6    1  0.1727544E-002  0.9225304E+02  0.7546771E-02  0.1413755E+00
         -2   -1    0    0    0  501 -0.00000000000E+00  0.00000000000E+00  0.17886927095E+02  0.17886927095E+02  0.00000000000E+00 0. -1.
          2   -1    0    0  501    0  0.00000000000E+00 -0.00000000000E+00 -0.16537799900E+03  0.16537799900E+03  0.00000000000E+00 0.  1.
         23    2    1    2    0    0 -0.23150617467E+01 -0.12644841079E+02 -0.10962823439E+03  0.14327935393E+03  0.91353007449E+02 0.  0.
         13    1    3    3    0    0  0.29688513404E+02  0.23411055671E+02 -0.23328390984E+02  0.44426334326E+02  0.00000000000E+00 0. -1.
        -13    1    3    3    0    0 -0.32003575150E+02 -0.36055896749E+02 -0.86299843403E+02  0.98853019601E+02  0.00000000000E+00 0.  1.
         22    1    1    2    0    0  0.23150617467E+01  0.12644841079E+02 -0.37862837520E+02  0.39985572171E+02  0.00000000000E+00 0. -1.
<mgrwt>
<rscale>  0 0.56364246E+02</rscale>
<asrwt>0</asrwt>
<pdfrwt beam="1">  1        2 0.25442769E-01 0.92253041E+02</pdfrwt>
<pdfrwt beam="2">  1       -2 0.27518350E-02 0.92253041E+02</pdfrwt>
<totfact> 0.87048999E+04</totfact>
</mgrwt>
</event>
<event>
 6    1  0.1727544E-002  0.1028321E+03  0.7546771E-02  0.1315144E+00
         -3   -1    0    0    0  501 -0.00000000000E+00  0.00000000000E+00  0.91335330132E+02  0.91335330132E+02  0.00000000000E+00 0.  1.
          3   -1    0    0  501    0  0.00000000000E+00 -0.00000000000E+00 -0.10960328663E+03  0.10960328663E+03  0.00000000000E+00 0. -1.
         23    2    1    2    0    0  0.38473444439E+02 -0.29126644442E+02  0.52363817099E+02  0.11539672769E+03  0.90806762292E+02 0.  0.
         11    1    3    3    0    0  0.11204568704E+02 -0.83866716372E+01 -0.26191106130E+02  0.29696004130E+02  0.00000000000E+00 0. -1.
        -11    1    3    3    0    0  0.27268875735E+02 -0.20739972805E+02  0.78554923230E+02  0.85700723564E+02  0.00000000000E+00 0.  1.
         22    1    1    2    0    0 -0.38473444439E+02  0.29126644442E+02 -0.70631773594E+02  0.85541889063E+02  0.00000000000E+00 0. -1.
<mgrwt>
<rscale>  0 0.85110383E+02</rscale>
<asrwt>0</asrwt>
<pdfrwt beam="1">  1        3 0.16862044E-01 0.10283207E+03</pdfrwt>
<pdfrwt beam="2">  1       -3 0.14051589E-01 0.10283207E+03</pdfrwt>
<totfact> 0.27277817E+03</totfact>
</mgrwt>
</event>
<event>
 6    1  0.1727544E-002  0.1106081E+03  0.7546771E-02  0.1292131E+00
         -2   -1    0    0    0  501 -0.00000000000E+00  0.00000000000E+00  0.18178833141E+03  0.18178833141E+03  0.00000000000E+00 0. -1.
          2   -1    0    0  501    0  0.00000000000E+00 -0.00000000000E+00 -0.48891808209E+02  0.48891808209E+02  0.00000000000E+00 0.  1.
         23    2    1    2    0    0  0.10269819389E+02  0.58228431253E+02  0.13109886975E+03  0.17152567272E+03  0.93477929771E+02 0.  0.
         11    1    3    3    0    0  0.31059127452E+02  0.59977691365E+02  0.40933507313E+02  0.78978129128E+02  0.00000000000E+00 0.  1.
        -11    1    3    3    0    0 -0.20789308063E+02 -0.17492601125E+01  0.90165362437E+02  0.92547543588E+02  0.00000000000E+00 0. -1.
         22    1    1    2    0    0 -0.10269819389E+02 -0.58228431253E+02  0.17976534486E+01  0.59154466901E+02  0.00000000000E+00 0.  1.
<mgrwt>
<rscale>  0 0.94577277E+02</rscale>
<asrwt>0</asrwt>
<pdfrwt beam="1">  1        2 0.75218167E-02 0.11060806E+03</pdfrwt>
<pdfrwt beam="2">  1       -2 0.27967435E-01 0.11060806E+03</pdfrwt>
<totfact> 0.98453092E+03</totfact>
</mgrwt>
</event>
<event>
 6    1  0.1727544E-002  0.9150274E+02  0.7546771E-02  0.1409001E+00
          2   -1    0    0  501    0  0.00000000000E+00  0.00000000000E+00  0.14822352013E+02  0.14822352013E+02  0.00000000000E+00 0. -1.
         -2   -1    0    0    0  501 -0.00000000000E+00 -0.00000000000E+00 -0.29553812926E+03  0.29553812926E+03  0.00000000000E+00 0.  1.
         23    2    1    2    0    0  0.26156906636E+01  0.13943046345E+02 -0.28165246733E+03  0.29614331674E+03  0.90396356790E+02 0.  0.
         11    1    3    3    0    0  0.70679220169E+01  0.32611551690E+02 -0.27310147955E+03  0.27513248982E+03  0.00000000000E+00 0.  1.
        -11    1    3    3    0    0 -0.44522313533E+01 -0.18668505346E+02 -0.85509877805E+01  0.21010826921E+02  0.00000000000E+00 0. -1.
         22    1    1    2    0    0 -0.26156906636E+01 -0.13943046345E+02  0.93669007872E+00  0.14217164532E+02  0.00000000000E+00 0.  1.
<mgrwt>
<rscale>  0 0.57417287E+02</rscale>
<asrwt>0</asrwt>
<pdfrwt beam="1">  1        2 0.22803619E-02 0.91502741E+02</pdfrwt>
<pdfrwt beam="2">  1       -2 0.45467403E-01 0.91502741E+02</pdfrwt>
<totfact> 0.18710577E+04</totfact>
</mgrwt>
</event>
<event>
 6    1  0.1727544E-002  0.8925679E+02  0.7546771E-02  0.1420297E+00
          1   -1    0    0  501    0  0.00000000000E+00  0.00000000000E+00  0.26727428012E+03  0.26727428012E+03  0.00000000000E+00 0. -1.
         -1   -1    0    0    0  501 -0.00000000000E+00 -0.00000000000E+00 -0.99002181729E+01  0.99002181729E+01  0.00000000000E+00 0.  1.
         23    2    1    2    0    0 -0.10948587930E+02 -0.66872451598E+01  0.21204503676E+03  0.23006493079E+03  0.88329971931E+02 0.  0.
         11    1    3    3    0    0 -0.26116651088E+02 -0.17934486610E+02  0.20821270446E+02  0.37911087785E+02  0.00000000000E+00 0.  1.
        -11    1    3    3    0    0  0.15168063158E+02  0.11247241450E+02  0.19122376631E+03  0.19215384301E+03  0.00000000000E+00 0. -1.
         22    1    1    2    0    0  0.10948587930E+02  0.66872451598E+01  0.45329025188E+02  0.47109567499E+02  0.00000000000E+00 0. -1.
<mgrwt>
<rscale>  0 0.54958093E+02</rscale>
<asrwt>0</asrwt>
<pdfrwt beam="1">  1        1 0.41119115E-01 0.89256791E+02</pdfrwt>
<pdfrwt beam="2">  1       -1 0.15231107E-02 0.89256791E+02</pdfrwt>
<totfact> 0.88695523E+04</totfact>
</mgrwt>
</event>
<event>
 6    1  0.1727544E-002  0.9599449E+02  0.7546771E-02  0.1351099E+00
         -4   -1    0    0    0  501 -0.00000000000E+00  0.00000000000E+00  0.85518708544E+02  0.85518708544E+02  0.00000000000E+00 0.  1.
          4   -1    0    0  501    0  0.00000000000E+00 -0.00000000000E+00 -0.48208695743E+02  0.48208695743E+02  0.00000000000E+00 0. -1.
         23    2    1    2    0    0  0.11692402336E+02 -0.29361561795E+02  0.21427208347E+02  0.98356836569E+02  0.90642862151E+02 0.  0.
         11    1    3    3    0    0  0.37234313216E+02 -0.47427993268E+02 -0.24483373100E+00  0.60298163899E+02  0.00000000000E+00 0. -1.
        -11    1    3    3    0    0 -0.25541910880E+02  0.18066431472E+02  0.21672042078E+02  0.38058672670E+02  0.00000000000E+00 0.  1.
         22    1    1    2    0    0 -0.11692402336E+02  0.29361561795E+02  0.15882804454E+02  0.35370567719E+02  0.00000000000E+00 0.  1.
<mgrwt>
<rscale>  0 0.72714376E+02</rscale>
<asrwt>0</asrwt>
<pdfrwt beam="1">  1        4 0.74167224E-02 0.95994490E+02</pdfrwt>
<pdfrwt beam="2">  1       -4 0.13156724E-01 0.95994490E+02</pdfrwt>
<totfact> 0.87773470E+03</totfact>
</mgrwt>
</event>
<event>
 6    1  0.1727544E-002  0.9165069E+02  0.7546771E-02  0.1417890E+00
         -2   -1    0    0    0  501 -0.00000000000E+00  0.00000000000E+00  0.13938746417E+02  0.13938746417E+02  0.00000000000E+00 0.  1.
          2   -1    0    0  501    0  0.00000000000E+00 -0.00000000000E+00 -0.19492778425E+03  0.19492778425E+03  0.00000000000E+00 0. -1.
         23    2    1    2    0    0 -0.71518799891E+01 -0.10004137908E+02 -0.15402285972E+03  0.17922860016E+03  0.90821900642E+02 0.  0.
         11    1    3    3    0    0 -0.47046547074E+02 -0.18341871261E+02 -0.93459719626E+02  0.10622862621E+03  0.00000000000E+00 0. -1.
        -11    1    3    3    0    0  0.39894667085E+02  0.83377333534E+01 -0.60563140091E+02  0.72999973951E+02  0.00000000000E+00 0.  1.
         22    1    1    2    0    0  0.71518799891E+01  0.10004137908E+02 -0.26966178112E+02  0.29637930505E+02  0.00000000000E+00 0.  1.
<mgrwt>
<rscale>  0 0.55469895E+02</rscale>
<asrwt>0</asrwt>
<pdfrwt beam="1">  1        2 0.29988891E-01 0.91650694E+02</pdfrwt>
<pdfrwt beam="2">  1       -2 0.21444225E-02 0.91650694E+02</pdfrwt>
<totfact> 0.10443137E+05</totfact>
</mgrwt>
</event>
<event>
 6    1  0.1727544E-002  0.9406323E+02  0.7546771E-02  0.1355470E+00
         -2   -1    0    0    0  501 -0.00000000000E+00  0.00000000000E+00  0.57436466881E+03  0.57436466881E+03  0.00000000000E+00 0. -1.
          2   -1    0    0  501    0  0.00000000000E+00 -0.00000000000E+00 -0.13599589945E+02  0.13599589945E+02  0.00000000000E+00 0.  1.
         23    2    1    2    0    0  0.17593936180E+01 -0.31138361277E+02  0.54492573545E+03  0.55298458167E+03  0.88742308961E+02 0.  0.
         13    1    3    3    0    0 -0.77267977703E+01 -0.42462867657E+02  0.53077829796E+03  0.53253018705E+03  0.00000000000E+00 0. -1.
        -13    1    3    3    0    0  0.94861913883E+01  0.11324506380E+02  0.14147437495E+02  0.20454394626E+02  0.00000000000E+00 0.  1.
         22    1    1    2    0    0 -0.17593936180E+01  0.31138361277E+02  0.15839343409E+02  0.34979677079E+02  0.00000000000E+00 0. -1.
<mgrwt>
<rscale>  0 0.71377589E+02</rscale>
<asrwt>0</asrwt>
<pdfrwt beam="1">  1        2 0.20922451E-02 0.94063226E+02</pdfrwt>
<pdfrwt beam="2">  1       -2 0.88363776E-01 0.94063226E+02</pdfrwt>
<totfact> 0.53380682E+03</totfact>
</mgrwt>
</event>
<event>
 6    1  0.1727544E-002  0.9171482E+02  0.7546771E-02  0.1417643E+00
         -2   -1    0    0    0  501 -0.00000000000E+00  0.00000000000E+00  0.10071328053E+02  0.10071328053E+02  0.00000000000E+00 0. -1.
          2   -1    0    0  501    0  0.00000000000E+00 -0.00000000000E+00 -0.27610185618E+03  0.27610185618E+03  0.00000000000E+00 0.  1.
         23    2    1    2    0    0 -0.96648486780E+01 -0.76381207906E+01 -0.21632816158E+03  0.23496697924E+03  0.90883759012E+02 0.  0.
         13    1    3    3    0    0 -0.16754133981E+02 -0.47937058360E+02 -0.12201142955E+03  0.13215692002E+03  0.00000000000E+00 0. -1.
        -13    1    3    3    0    0  0.70892853030E+01  0.40298937569E+02 -0.94316732029E+02  0.10281005922E+03  0.00000000000E+00 0.  1.
         22    1    1    2    0    0  0.96648486780E+01  0.76381207906E+01 -0.49702366551E+02  0.51206204994E+02  0.00000000000E+00 0.  1.
<mgrwt>
<rscale>  0 0.55522727E+02</rscale>
<asrwt>0</asrwt>
<pdfrwt beam="1">  1        2 0.42477201E-01 0.91714818E+02</pdfrwt>
<pdfrwt beam="2">  1       -2 0.15494354E-02 0.91714818E+02</pdfrwt>
<totfact> 0.11519153E+05</totfact>
</mgrwt>
</event>
<event>
 6    1  0.1727544E-002  0.1109025E+03  0.7546771E-02  0.1289609E+00
          2   -1    0    0  501    0  0.00000000000E+00  0.00000000000E+00  0.26341409316E+03  0.26341409316E+03  0.00000000000E+00 0. -1.
         -2   -1    0    0    0  501 -0.00000000000E+00 -0.00000000000E+00 -0.38753768172E+02  0.38753768172E+02  0.00000000000E+00 0.  1.
         23    2    1    2    0    0 -0.45802930563E+02  0.41026814435E+02  0.59335395003E+02  0.12577783773E+03  0.92294460362E+02 0.  0.
         11    1    3    3    0    0 -0.45038822330E+02  0.29479756641E+02  0.83292291955E+02  0.99172362418E+02  0.00000000000E+00 0. -1.
        -11    1    3    3    0    0 -0.76410823322E+00  0.11547057794E+02 -0.23956896952E+02  0.26605475314E+02  0.00000000000E+00 0.  1.
         22    1    1    2    0    0  0.45802930563E+02 -0.41026814435E+02  0.16532492999E+03  0.17639002360E+03  0.00000000000E+00 0. -1.
<mgrwt>
<rscale>  0 0.95699249E+02</rscale>
<asrwt>0</asrwt>
<pdfrwt beam="1">  1        2 0.40525244E-01 0.11090255E+03</pdfrwt>
<pdfrwt beam="2">  1       -2 0.59621183E-02 0.11090255E+03</pdfrwt>
<totfact> 0.17284790E+04</totfact>
</mgrwt>
</event>
<event>
 6    1  0.1727544E-002  0.8991007E+02  0.7546771E-02  0.1434616E+00
         -1   -1    0    0    0  501 -0.00000000000E+00  0.00000000000E+00  0.68664071936E+03  0.68664071936E+03  0.00000000000E+00 0.  1.
          1   -1    0    0  501    0  0.00000000000E+00 -0.00000000000E+00 -0.51097968623E+01  0.51097968623E+01  0.00000000000E+00 0. -1.
         23    2    1    2    0    0  0.77200275390E+01 -0.65034204641E+01  0.67159491870E+03  0.67758656641E+03  0.89341629987E+02 0.  0.
         11    1    3    3    0    0 -0.79799057322E+00 -0.17555832392E+02  0.23514875333E+02  0.29356317921E+02  0.00000000000E+00 0. -1.
        -11    1    3    3    0    0  0.85180181123E+01  0.11052411928E+02  0.64808004337E+03  0.64823024849E+03  0.00000000000E+00 0.  1.
         22    1    1    2    0    0 -0.77200275390E+01  0.65034204641E+01  0.99360038019E+01  0.14163949819E+02  0.00000000000E+00 0. -1.
<mgrwt>
<rscale>  0 0.52044453E+02</rscale>
<asrwt>0</asrwt>
<pdfrwt beam="1">  1        1 0.78612314E-03 0.89910067E+02</pdfrwt>
<pdfrwt beam="2">  1       -1 0.10563696E+00 0.89910067E+02</pdfrwt>
<totfact> 0.18088044E+04</totfact>
</mgrwt>
</event>
<event>
 6    1  0.1727544E-002  0.9568783E+02  0.7546771E-02  0.1371233E+00
          2   -1    0    0  501    0  0.00000000000E+00  0.00000000000E+00  0.60278635861E+03  0.60278635861E+03  0.00000000000E+00 0. -1.
         -2   -1    0    0    0  501 -0.00000000000E+00 -0.00000000000E+00 -0.93767875974E+01  0.93767875974E+01  0.00000000000E+00 0.  1.
         23    2    1    2    0    0 -0.17995979373E+02 -0.13936952166E+02  0.57494670323E+03  0.58285493241E+03  0.92941200626E+02 0.  0.
         13    1    3    3    0    0  0.19497871785E+01  0.35841821092E+02  0.33878313019E+03  0.34067939050E+03  0.00000000000E+00 0. -1.
        -13    1    3    3    0    0 -0.19945766551E+02 -0.49778773258E+02  0.23616357304E+03  0.24217554191E+03  0.00000000000E+00 0.  1.
         22    1    1    2    0    0  0.17995979373E+02  0.13936952166E+02  0.18462867791E+02  0.29308213803E+02  0.00000000000E+00 0.  1.
<mgrwt>
<rscale>  0 0.66825711E+02</rscale>
<asrwt>0</asrwt>
<pdfrwt beam="1">  1        2 0.92736333E-01 0.95687829E+02</pdfrwt>
<pdfrwt beam="2">  1       -2 0.14425832E-02 0.95687829E+02</pdfrwt>
<totfact> 0.55828121E+04</totfact>
</mgrwt>
</event>
<event>
 6    1  0.1727544E-002  0.9561447E+02  0.7546771E-02  0.1350041E+00
          2   -1    0    0  501    0  0.00000000000E+00  0.00000000000E+00  0.18679197691E+02  0.18679197691E+02  0.00000000000E+00 0. -1.
         -2   -1    0    0    0  501 -0.00000000000E+00 -0.00000000000E+00 -0.22169086873E+03  0.22169086873E+03  0.00000000000E+00 0.  1.
         23    2    1    2    0    0 -0.11284055746E+02 -0.30546792471E+02 -0.16046281400E+03  0.18678983052E+03  0.89898218353E+02 0.  0.
         11    1    3    3    0    0  0.32532380960E+02 -0.38678801619E+02 -0.75617555281E+02  0.90952845872E+02  0.00000000000E+00 0. -1.
        -11    1    3    3    0    0 -0.43816436707E+02  0.81320091476E+01 -0.84845258723E+02  0.95836984647E+02  0.00000000000E+00 0.  1.
         22    1    1    2    0    0  0.11284055746E+02  0.30546792471E+02 -0.42548857037E+02  0.53580235904E+02  0.00000000000E+00 0. -1.
<mgrwt>
<rscale>  0 0.73042946E+02</rscale>
<asrwt>0</asrwt>
<pdfrwt beam="1">  1        2 0.28737229E-02 0.95614466E+02</pdfrwt>
<pdfrwt beam="2">  1       -2 0.34106286E-01 0.95614466E+02</pdfrwt>
<totfact> 0.23658959E+04</totfact>
</mgrwt>
</event>
<event>
 6    1  0.1727544E-002  0.9272072E+02  0.7546771E-02  0.1419802E+00
         -1   -1    0    0    0  501 -0.00000000000E+00  0.00000000000E+00  0.85332640540E+02  0.85332640540E+02  0.00000000000E+00 0.  1.
          1   -1    0    0  501    0  0.00000000000E+00 -0.00000000000E+00 -0.32680894897E+02  0.32680894897E+02  0.00000000000E+00 0. -1.
         23    2    1    2    0    0 -0.11371026911E+02 -0.19198919773E+01  0.52348275587E+02  0.10647757721E+03  0.92000794847E+02 0.  0.
         11    1    3    3    0    0  0.24855116783E+01  0.27240645540E+02  0.65985314357E+02  0.71430331432E+02  0.00000000000E+00 0.  1.
        -11    1    3    3    0    0 -0.13856538589E+02 -0.29160537517E+02 -0.13637038770E+02  0.35047245774E+02  0.00000000000E+00 0. -1.
         22    1    1    2    0    0  0.11371026911E+02  0.19198919773E+01  0.30347005576E+00  0.11535958230E+02  0.00000000000E+00 0. -1.
<mgrwt>
<rscale>  0 0.55062819E+02</rscale>
<asrwt>0</asrwt>
<pdfrwt beam="1">  1        1 0.50278300E-02 0.92720723E+02</pdfrwt>
<pdfrwt beam="2">  1       -1 0.13128098E-01 0.92720723E+02</pdfrwt>
<totfact> 0.56318534E+04</totfact>
</mgrwt>
</event>
<event>
 6    1  0.1727544E-002  0.9040610E+02  0.7546771E-02  0.1413780E+00
          1   -1    0    0  501    0  0.00000000000E+00  0.00000000000E+00  0.19275779655E+03  0.19275779655E+03  0.00000000000E+00 0. -1.
         -1   -1    0    0    0  501 -0.00000000000E+00 -0.00000000000E+00 -0.15623700423E+02  0.15623700423E+02  0.00000000000E+00 0.  1.
         23    2    1    2    0    0  0.79683496536E+00  0.13630651367E+02  0.12360647899E+03  0.15313988766E+03  0.89369088296E+02 0.  0.
         13    1    3    3    0    0 -0.12807599508E+02  0.18461480122E+02 -0.55780912922E+01  0.23151154527E+02  0.00000000000E+00 0.  1.
        -13    1    3    3    0    0  0.13604434474E+02 -0.48308287553E+01  0.12918457028E+03  0.12998873313E+03  0.00000000000E+00 0. -1.
         22    1    1    2    0    0 -0.79683496536E+00 -0.13630651367E+02  0.53527617137E+02  0.55241609309E+02  0.00000000000E+00 0. -1.
<mgrwt>
<rscale>  0 0.56358921E+02</rscale>
<asrwt>0</asrwt>
<pdfrwt beam="1">  1        1 0.29655044E-01 0.90406103E+02</pdfrwt>
<pdfrwt beam="2">  1       -1 0.24036464E-02 0.90406103E+02</pdfrwt>
<totfact> 0.69160448E+04</totfact>
</mgrwt>
</event>
<event>
 6    1  0.1727544E-002  0.9373402E+02  0.7546771E-02  0.1378686E+00
          2   -1    0    0  501    0  0.00000000000E+00  0.00000000000E+00  0.85814679554E+02  0.85814679554E+02  0.00000000000E+00 0. -1.
         -2   -1    0    0    0  501 -0.00000000000E+00 -0.00000000000E+00 -0.42342788859E+02  0.42342788859E+02  0.00000000000E+00 0.  1.
         23    2    1    2    0    0 -0.18503926630E+02  0.10796753164E+02  0.19013119034E+02  0.95642907201E+02  0.91252955146E+02 0.  0.
         13    1    3    3    0    0 -0.55116219389E+01 -0.12334688905E+01  0.55130283290E+02  0.55418837569E+02  0.00000000000E+00 0. -1.
        -13    1    3    3    0    0 -0.12992304691E+02  0.12030222055E+02 -0.36117164256E+02  0.40224069632E+02  0.00000000000E+00 0.  1.
         22    1    1    2    0    0  0.18503926630E+02 -0.10796753164E+02  0.24458771662E+02  0.32514561212E+02  0.00000000000E+00 0. -1.
<mgrwt>
<rscale>  0 0.64810506E+02</rscale>
<asrwt>0</asrwt>
<pdfrwt beam="1">  1        2 0.13202258E-01 0.93734023E+02</pdfrwt>
<pdfrwt beam="2">  1       -2 0.65142752E-02 0.93734023E+02</pdfrwt>
<totfact> 0.51307645E+04</totfact>
</mgrwt>
</event>
<event>
 6    1  0.1727544E-002  0.9472773E+02  0.7546771E-02  0.1412267E+00
          1   -1    0    0  501    0  0.00000000000E+00  0.00000000000E+00  0.44266716242E+01  0.44266716242E+01  0.00000000000E+00 0. -1.
         -1   -1    0    0    0  501 -0.00000000000E+00 -0.00000000000E+00 -0.12070772238E+04  0.12070772238E+04  0.00000000000E+00 0.  1.
         23    2    1    2    0    0  0.14296234206E+01 -0.12066946813E+02 -0.11906950668E+04  0.11944572342E+04  0.93945128627E+02 0.  0.
         11    1    3    3    0    0 -0.16121127987E+02  0.13763164794E+02 -0.65825370987E+02  0.69154138982E+02  0.00000000000E+00 0. -1.
        -11    1    3    3    0    0  0.17550751407E+02 -0.25830111607E+02 -0.11248696958E+04  0.11253030952E+04  0.00000000000E+00 0.  1.
         22    1    1    2    0    0 -0.14296234206E+01  0.12066946813E+02 -0.11955485381E+02  0.17046661233E+02  0.00000000000E+00 0. -1.
<mgrwt>
<rscale>  0 0.56690967E+02</rscale>
<asrwt>0</asrwt>
<pdfrwt beam="1">  1        1 0.68102639E-03 0.94727727E+02</pdfrwt>
<pdfrwt beam="2">  1       -1 0.18570419E+00 0.94727727E+02</pdfrwt>
<totfact> 0.54053921E+03</totfact>
</mgrwt>
</event>
<event>
 6    1  0.1727544E-002  0.9330098E+02  0.7546771E-02  0.1384880E+00
          4   -1    0    0  501    0  0.00000000000E+00  0.00000000000E+00  0.23554781003E+01  0.23554781003E+01  0.00000000000E+00 0. -1.
         -4   -1    0    0    0  501 -0.00000000000E+00 -0.00000000000E+00 -0.17982689803E+04  0.17982689803E+04  0.00000000000E+00 0.  1.
         23    2    1    2    0    0 -0.28378529718E+01 -0.19434935970E+02 -0.17078763885E+04  0.17104229976E+04  0.91210208337E+02 0.  0.
         11    1    3    3    0    0  0.14260547537E+02 -0.47070132024E+02 -0.58096101496E+03  0.58303915944E+03  0.00000000000E+00 0. -1.
        -11    1    3    3    0    0 -0.17098400508E+02  0.27635196054E+02 -0.11269153736E+04  0.11273838382E+04  0.00000000000E+00 0.  1.
         22    1    1    2    0    0  0.28378529718E+01  0.19434935970E+02 -0.88037113676E+02  0.90201460798E+02  0.00000000000E+00 0. -1.
<mgrwt>
<rscale>  0 0.63198347E+02</rscale>
<asrwt>0</asrwt>
<pdfrwt beam="1">  1        4 0.36238240E-03 0.93300977E+02</pdfrwt>
<pdfrwt beam="2">  1       -4 0.27665589E+00 0.93300977E+02</pdfrwt>
<totfact> 0.10678782E+03</totfact>
</mgrwt>
</event>
<event>
 6    1  0.1727544E-002  0.9435847E+02  0.7546771E-02  0.1363454E+00
         -3   -1    0    0    0  501 -0.00000000000E+00  0.00000000000E+00  0.40085405540E+02  0.40085405540E+02  0.00000000000E+00 0.  1.
          3   -1    0    0  501    0  0.00000000000E+00 -0.00000000000E+00 -0.17083961404E+03  0.17083961404E+03  0.00000000000E+00 0. -1.
         23    2    1    2    0    0  0.36350959883E+00 -0.27011280009E+02 -0.19388523710E+02  0.96329831481E+02  0.90408960809E+02 0.  0.
         13    1    3    3    0    0 -0.32529227359E+02 -0.23848731606E+02 -0.40466408283E+02  0.57135302845E+02  0.00000000000E+00 0. -1.
        -13    1    3    3    0    0  0.32892736958E+02 -0.31625484023E+01  0.21077884573E+02  0.39194528637E+02  0.00000000000E+00 0.  1.
         22    1    1    2    0    0 -0.36350959883E+00  0.27011280009E+02 -0.11136568479E+03  0.11459518810E+03  0.00000000000E+00 0. -1.
<mgrwt>
<rscale>  0 0.69021088E+02</rscale>
<asrwt>0</asrwt>
<pdfrwt beam="1">  1        3 0.26283018E-01 0.94358474E+02</pdfrwt>
<pdfrwt beam="2">  1       -3 0.61669854E-02 0.94358474E+02</pdfrwt>
<totfact> 0.47131754E+03</totfact>
</mgrwt>
</event>
<event>
 6    1  0.1727544E-002  0.1199894E+03  0.7546771E-02  0.1316121E+00
         -2   -1    0    0    0  501 -0.00000000000E+00  0.00000000000E+00  0.43748591470E+02  0.43748591470E+02  0.00000000000E+00 0.  1.
          2   -1    0    0  501    0  0.00000000000E+00 -0.00000000000E+00 -0.13132973632E+03  0.13132973632E+03  0.00000000000E+00 0. -1.
         23    2    1    2    0    0 -0.19734245945E+02 -0.22389490712E+02 -0.58822382568E+02  0.13363202319E+03  0.11621839430E+03 0.  0.
         13    1    3    3    0    0  0.70901108620E+01 -0.63622949246E+02 -0.54814744614E+02  0.84278144081E+02  0.00000000000E+00 0. -1.
        -13    1    3    3    0    0 -0.26824356807E+02  0.41233458534E+02 -0.40076379540E+01  0.49353879105E+02  0.00000000000E+00 0.  1.
         22    1    1    2    0    0  0.19734245945E+02  0.22389490712E+02 -0.28758762285E+02  0.41446304606E+02  0.00000000000E+00 0. -1.
<mgrwt>
<rscale>  0 0.84737428E+02</rscale>
<asrwt>0</asrwt>
<pdfrwt beam="1">  1        2 0.20204575E-01 0.11998935E+03</pdfrwt>
<pdfrwt beam="2">  1       -2 0.67305526E-02 0.11998935E+03</pdfrwt>
<totfact> 0.30865482E+04</totfact>
</mgrwt>
</event>
<event>
 6    1  0.1727544E-002  0.1159542E+03  0.7546771E-02  0.1274364E+00
          2   -1    0    0  501    0  0.00000000000E+00  0.00000000000E+00  0.16135624272E+03  0.16135624272E+03  0.00000000000E+00 0. -1.
         -2   -1    0    0    0  501 -0.00000000000E+00 -0.00000000000E+00 -0.76250831368E+02  0.76250831368E+02  0.00000000000E+00 0.  1.
         23    2    1    2    0    0  0.34408254282E+02  0.63065929410E+02 -0.12266031354E+02  0.11660113510E+03  0.91017194899E+02 0.  0.
         11    1    3    3    0    0  0.38416494750E+02 -0.67694997830E+01 -0.23815481400E+02  0.45703723596E+02  0.00000000000E+00 0.  1.
        -11    1    3    3    0    0 -0.40082404676E+01  0.69835429193E+02  0.11549450047E+02  0.70897411508E+02  0.00000000000E+00 0. -1.
         22    1    1    2    0    0 -0.34408254282E+02 -0.63065929410E+02  0.97371442708E+02  0.12100593899E+03  0.00000000000E+00 0. -1.
<mgrwt>
<rscale>  0 0.10287480E+03</rscale>
<asrwt>0</asrwt>
<pdfrwt beam="1">  1        2 0.24824037E-01 0.11595417E+03</pdfrwt>
<pdfrwt beam="2">  1       -2 0.11730897E-01 0.11595417E+03</pdfrwt>
<totfact> 0.10330627E+04</totfact>
</mgrwt>
</event>
<event>
 6    1  0.1727544E-002  0.9067377E+02  0.7546771E-02  0.1432216E+00
          2   -1    0    0  501    0  0.00000000000E+00  0.00000000000E+00  0.26648180000E+01  0.26648180000E+01  0.00000000000E+00 0. -1.
         -2   -1    0    0    0  501 -0.00000000000E+00 -0.00000000000E+00 -0.98203013152E+03  0.98203013152E+03  0.00000000000E+00 0.  1.
         23    2    1    2    0    0  0.87683175077E+01  0.52195718818E+01 -0.92015312876E+03  0.92460992520E+03  0.90097758593E+02 0.  0.
         11    1    3    3    0    0 -0.13897743355E+02  0.18839423881E+02 -0.83755627119E+03  0.83788339199E+03  0.00000000000E+00 0.  1.
        -11    1    3    3    0    0  0.22666060863E+02 -0.13619851999E+02 -0.82596857561E+02  0.86726533210E+02  0.00000000000E+00 0. -1.
         22    1    1    2    0    0 -0.87683175077E+01 -0.52195718818E+01 -0.59212184761E+02  0.60085024313E+02  0.00000000000E+00 0. -1.
<mgrwt>
<rscale>  0 0.52517840E+02</rscale>
<asrwt>0</asrwt>
<pdfrwt beam="1">  1        2 0.40997198E-03 0.90673775E+02</pdfrwt>
<pdfrwt beam="2">  1       -2 0.15108157E+00 0.90673775E+02</pdfrwt>
<totfact> 0.13879669E+04</totfact>
</mgrwt>
</event>
<event>
 6    1  0.1727544E-002  0.9730370E+02  0.7546771E-02  0.1353962E+00
          1   -1    0    0  501    0  0.00000000000E+00  0.00000000000E+00  0.12615804552E+03  0.12615804552E+03  0.00000000000E+00 0. -1.
         -1   -1    0    0    0  501 -0.00000000000E+00 -0.00000000000E+00 -0.42858301203E+02  0.42858301203E+02  0.00000000000E+00 0.  1.
         23    2    1    2    0    0  0.18855960139E+02  0.21906470456E+02  0.19870447327E+02  0.99311853343E+02  0.92911618525E+02 0.  0.
         11    1    3    3    0    0  0.37443275950E+02  0.31135262727E+02 -0.21342741651E+02  0.53168751350E+02  0.00000000000E+00 0.  1.
        -11    1    3    3    0    0 -0.18587315811E+02 -0.92287922717E+01  0.41213188978E+02  0.46143101993E+02  0.00000000000E+00 0. -1.
         22    1    1    2    0    0 -0.18855960139E+02 -0.21906470456E+02  0.63429296994E+02  0.69704493383E+02  0.00000000000E+00 0. -1.
<mgrwt>
<rscale>  0 0.71835060E+02</rscale>
<asrwt>0</asrwt>
<pdfrwt beam="1">  1        1 0.19408930E-01 0.97303697E+02</pdfrwt>
<pdfrwt beam="2">  1       -1 0.65935849E-02 0.97303697E+02</pdfrwt>
<totfact> 0.27258370E+04</totfact>
</mgrwt>
</event>
<event>
 6    1  0.1727544E-002  0.7887191E+02  0.7546771E-02  0.1453013E+00
          1   -1    0    0  501    0  0.00000000000E+00  0.00000000000E+00  0.50686236875E+02  0.50686236875E+02  0.00000000000E+00 0. -1.
         -1   -1    0    0    0  501 -0.00000000000E+00 -0.00000000000E+00 -0.41906929908E+02  0.41906929908E+02  0.00000000000E+00 0.  1.
         23    2    1    2    0    0 -0.96108495052E+01 -0.60852266560E+01  0.11205878608E+01  0.78879874326E+02  0.78047296205E+02 0.  0.
         11    1    3    3    0    0  0.88801206758E+01  0.14674034830E+02 -0.31593376109E+02  0.35948925649E+02  0.00000000000E+00 0.  1.
        -11    1    3    3    0    0 -0.18490970181E+02 -0.20759261486E+02  0.32713963969E+02  0.42930948677E+02  0.00000000000E+00 0. -1.
         22    1    1    2    0    0  0.96108495052E+01  0.60852266560E+01  0.76587191060E+01  0.13713292457E+02  0.00000000000E+00 0. -1.
<mgrwt>
<rscale>  0 0.48605219E+02</rscale>
<asrwt>0</asrwt>
<pdfrwt beam="1">  1        1 0.77978826E-02 0.78871914E+02</pdfrwt>
<pdfrwt beam="2">  1       -1 0.64472200E-02 0.78871914E+02</pdfrwt>
<totfact> 0.88855240E+04</totfact>
</mgrwt>
</event>
<event>
 6    1  0.1727544E-002  0.1009972E+03  0.7546771E-02  0.1319822E+00
         -4   -1    0    0    0  501 -0.00000000000E+00  0.00000000000E+00  0.20895872883E+02  0.20895872883E+02  0.00000000000E+00 0.  1.
          4   -1    0    0  501    0  0.00000000000E+00 -0.00000000000E+00 -0.30227792427E+03  0.30227792427E+03  0.00000000000E+00 0. -1.
         23    2    1    2    0    0 -0.31369090527E+02 -0.34776118015E+02 -0.12945574602E+03  0.16419266467E+03  0.89482080484E+02 0.  0.
         13    1    3    3    0    0  0.27871968644E+02 -0.91483455642E+00 -0.63216243424E+02  0.69093972175E+02  0.00000000000E+00 0. -1.
        -13    1    3    3    0    0 -0.59241059171E+02 -0.33861283459E+02 -0.66239502598E+02  0.95098692492E+02  0.00000000000E+00 0.  1.
         22    1    1    2    0    0  0.31369090527E+02  0.34776118015E+02 -0.15192630537E+03  0.15898113249E+03  0.00000000000E+00 0. -1.
<mgrwt>
<rscale>  0 0.83343511E+02</rscale>
<asrwt>0</asrwt>
<pdfrwt beam="1">  1        4 0.46504293E-01 0.10099723E+03</pdfrwt>
<pdfrwt beam="2">  1       -4 0.32147499E-02 0.10099723E+03</pdfrwt>
<totfact> 0.33127007E+03</totfact>
</mgrwt>
</event>
<event>
 6    1  0.1727544E-002  0.1049264E+03  0.7546771E-02  0.1398783E+00
          2   -1    0    0  501    0  0.00000000000E+00  0.00000000000E+00  0.29470013119E+02  0.29470013119E+02  0.00000000000E+00 0. -1.
         -2   -1    0    0    0  501 -0.00000000000E+00 -0.00000000000E+00 -0.12345268349E+03  0.12345268349E+03  0.00000000000E+00 0.  1.
         23    2    1    2    0    0 -0.98790107253E+01 -0.49521961348E+01 -0.95361408905E+02  0.14178626902E+03  0.10434284200E+03 0.  0.
         11    1    3    3    0    0 -0.24552723494E+02  0.48991063798E+01  0.15551855253E+02  0.29473677682E+02  0.00000000000E+00 0. -1.
        -11    1    3    3    0    0  0.14673712769E+02 -0.98513025146E+01 -0.11091326416E+03  0.11231259134E+03  0.00000000000E+00 0.  1.
         22    1    1    2    0    0  0.98790107253E+01  0.49521961348E+01  0.13787385330E+01  0.11136427587E+02  0.00000000000E+00 0. -1.
<mgrwt>
<rscale>  0 0.59773888E+02</rscale>
<asrwt>0</asrwt>
<pdfrwt beam="1">  1        2 0.45338482E-02 0.10492639E+03</pdfrwt>
<pdfrwt beam="2">  1       -2 0.18992720E-01 0.10492639E+03</pdfrwt>
<totfact> 0.36382468E+04</totfact>
</mgrwt>
</event>
<event>
 6    1  0.1727544E-002  0.9716938E+02  0.7546771E-02  0.1339479E+00
          4   -1    0    0  501    0  0.00000000000E+00  0.00000000000E+00  0.28323059845E+03  0.28323059845E+03  0.00000000000E+00 0. -1.
         -4   -1    0    0    0  501 -0.00000000000E+00 -0.00000000000E+00 -0.22876155207E+02  0.22876155207E+02  0.00000000000E+00 0.  1.
         23    2    1    2    0    0  0.29841809395E+02  0.22220937683E+02  0.92426524187E+02  0.13410649302E+03  0.89764054266E+02 0.  0.
         11    1    3    3    0    0  0.21642843624E+02  0.83428849723E+01 -0.13582245868E+02  0.26879245016E+02  0.00000000000E+00 0.  1.
        -11    1    3    3    0    0  0.81989657713E+01  0.13878052711E+02  0.10600877005E+03  0.10722724801E+03  0.00000000000E+00 0. -1.
         22    1    1    2    0    0 -0.29841809395E+02 -0.22220937683E+02  0.16792791906E+03  0.17200026063E+03  0.00000000000E+00 0. -1.
<mgrwt>
<rscale>  0 0.76436538E+02</rscale>
<asrwt>0</asrwt>
<pdfrwt beam="1">  1        4 0.43573936E-01 0.97169384E+02</pdfrwt>
<pdfrwt beam="2">  1       -4 0.35194087E-02 0.97169384E+02</pdfrwt>
<totfact> 0.32395280E+03</totfact>
</mgrwt>
</event>
<event>
 6    1  0.1727544E-002  0.9598117E+02  0.7546771E-02  0.1405035E+00
         -2   -1    0    0    0  501 -0.00000000000E+00  0.00000000000E+00  0.16441526798E+02  0.16441526798E+02  0.00000000000E+00 0. -1.
          2   -1    0    0  501    0  0.00000000000E+00 -0.00000000000E+00 -0.20121325767E+03  0.20121325767E+03  0.00000000000E+00 0.  1.
         23    2    1    2    0    0 -0.78870751906E+01 -0.10434839952E+02 -0.13151059343E+03  0.16281100085E+03  0.95085719085E+02 0.  0.
         13    1    3    3    0    0 -0.37355226462E+02  0.10368193743E+02 -0.16245602708E+02  0.42033700680E+02  0.00000000000E+00 0. -1.
        -13    1    3    3    0    0  0.29468151272E+02 -0.20803033695E+02 -0.11526499072E+03  0.12077730017E+03  0.00000000000E+00 0.  1.
         22    1    1    2    0    0  0.78870751906E+01  0.10434839952E+02 -0.53261137441E+02  0.54843783616E+02  0.00000000000E+00 0.  1.
<mgrwt>
<rscale>  0 0.58316736E+02</rscale>
<asrwt>0</asrwt>
<pdfrwt beam="1">  1        2 0.30955886E-01 0.95981174E+02</pdfrwt>
<pdfrwt beam="2">  1       -2 0.25294657E-02 0.95981174E+02</pdfrwt>
<totfact> 0.80078616E+04</totfact>
</mgrwt>
</event>
<event>
 6    1  0.1727544E-002  0.9315356E+02  0.7546771E-02  0.1376851E+00
         -2   -1    0    0    0  501 -0.00000000000E+00  0.00000000000E+00  0.90414486149E+01  0.90414486149E+01  0.00000000000E+00 0.  1.
          2   -1    0    0  501    0  0.00000000000E+00 -0.00000000000E+00 -0.38663384652E+03  0.38663384652E+03  0.00000000000E+00 0. -1.
         23    2    1    2    0    0  0.78602271544E+01  0.21073531189E+02 -0.26602228158E+03  0.28186067505E+03  0.90397505256E+02 0.  0.
         11    1    3    3    0    0  0.24837919287E+02  0.41800635902E+02 -0.23866895503E+03  0.24357152028E+03  0.00000000000E+00 0. -1.
        -11    1    3    3    0    0 -0.16977692133E+02 -0.20727104713E+02 -0.27353326554E+02  0.38289154777E+02  0.00000000000E+00 0.  1.
         22    1    1    2    0    0 -0.78602271544E+01 -0.21073531189E+02 -0.11157011632E+03  0.11381462008E+03  0.00000000000E+00 0.  1.
<mgrwt>
<rscale>  0 0.65298800E+02</rscale>
<asrwt>0</asrwt>
<pdfrwt beam="1">  1        2 0.59482133E-01 0.93153561E+02</pdfrwt>
<pdfrwt beam="2">  1       -2 0.13909920E-02 0.93153561E+02</pdfrwt>
<totfact> 0.94656655E+04</totfact>
</mgrwt>
</event>
<event>
 6    1  0.1727544E-002  0.6410938E+02  0.7546771E-02  0.1477318E+00
         -2   -1    0    0    0  501 -0.00000000000E+00  0.00000000000E+00  0.14755339894E+02  0.14755339894E+02  0.00000000000E+00 0. -1.
          2   -1    0    0  501    0  0.00000000000E+00 -0.00000000000E+00 -0.10664401775E+03  0.10664401775E+03  0.00000000000E+00 0.  1.
         23    2    1    2    0    0  0.91848379327E+01  0.11755576341E+02 -0.70122508004E+02  0.95011463203E+02  0.62349476248E+02 0.  0.
         11    1    3    3    0    0  0.67646296223E+01  0.37183315522E+02 -0.48900220622E+02  0.61802837669E+02  0.00000000000E+00 0.  1.
        -11    1    3    3    0    0  0.24202083103E+01 -0.25427739181E+02 -0.21222287382E+02  0.33208625534E+02  0.00000000000E+00 0. -1.
         22    1    1    2    0    0 -0.91848379327E+01 -0.11755576341E+02 -0.21766169850E+02  0.26387894439E+02  0.00000000000E+00 0.  1.
<mgrwt>
<rscale>  0 0.44526728E+02</rscale>
<asrwt>0</asrwt>
<pdfrwt beam="1">  1        2 0.16406772E-01 0.64109375E+02</pdfrwt>
<pdfrwt beam="2">  1       -2 0.22700523E-02 0.64109375E+02</pdfrwt>
<totfact> 0.17553921E+05</totfact>
</mgrwt>
</event>
<event>
 6    1  0.1727544E-002  0.9252488E+02  0.7546771E-02  0.1399167E+00
         -2   -1    0    0    0  501 -0.00000000000E+00  0.00000000000E+00  0.11698263832E+02  0.11698263832E+02  0.00000000000E+00 0.  1.
          2   -1    0    0  501    0  0.00000000000E+00 -0.00000000000E+00 -0.27568720450E+03  0.27568720450E+03  0.00000000000E+00 0. -1.
         23    2    1    2    0    0 -0.78480576649E+00 -0.15999494923E+02 -0.18569040025E+03  0.20746512555E+03  0.91127678664E+02 0.  0.
         11    1    3    3    0    0  0.10224981628E+02  0.18703738290E+02 -0.34135293392E+01  0.21587780290E+02  0.00000000000E+00 0.  1.
        -11    1    3    3    0    0 -0.11009787394E+02 -0.34703233213E+02 -0.18227687091E+03  0.18587734526E+03  0.00000000000E+00 0. -1.
         22    1    1    2    0    0  0.78480576649E+00  0.15999494923E+02 -0.78298540419E+02  0.79920342777E+02  0.00000000000E+00 0. -1.
<mgrwt>
<rscale>  0 0.59683039E+02</rscale>
<asrwt>0</asrwt>
<pdfrwt beam="1">  1        2 0.42413411E-01 0.92524881E+02</pdfrwt>
<pdfrwt beam="2">  1       -2 0.17997331E-02 0.92524881E+02</pdfrwt>
<totfact> 0.93248368E+04</totfact>
</mgrwt>
</event>
<event>
 6    1  0.1727544E-002  0.1320504E+03  0.7546771E-02  0.1241585E+00
         -2   -1    0    0    0  501 -0.00000000000E+00  0.00000000000E+00  0.11728258412E+02  0.11728258412E+02  0.00000000000E+00 0. -1.
          2   -1    0    0  501    0  0.00000000000E+00 -0.00000000000E+00 -0.16594359677E+04  0.16594359677E+04  0.00000000000E+00 0.  1.
         23    2    1    2    0    0 -0.71013030077E+02  0.59822005075E+02 -0.14067697379E+04  0.14129537911E+04  0.93892477611E+02 0.  0.
         13    1    3    3    0    0 -0.28372281479E+02 -0.43264884956E+00 -0.95964719744E+02  0.10007197898E+03  0.00000000000E+00 0. -1.
        -13    1    3    3    0    0 -0.42640748598E+02  0.60254653925E+02 -0.13108050182E+04  0.13128818121E+04  0.00000000000E+00 0.  1.
         22    1    1    2    0    0  0.71013030077E+02 -0.59822005075E+02 -0.24093797132E+03  0.25821043502E+03  0.00000000000E+00 0. -1.
<mgrwt>
<rscale>  0 0.12092133E+03</rscale>
<asrwt>0</asrwt>
<pdfrwt beam="1">  1        2 0.25529778E+00 0.13205045E+03</pdfrwt>
<pdfrwt beam="2">  1       -2 0.18043479E-02 0.13205045E+03</pdfrwt>
<totfact> 0.98623373E+03</totfact>
</mgrwt>
</event>
<event>
 6    1  0.1727544E-002  0.8165728E+02  0.7546771E-02  0.1414404E+00
          2   -1    0    0  501    0  0.00000000000E+00  0.00000000000E+00  0.14214634275E+02  0.14214634275E+02  0.00000000000E+00 0. -1.
         -2   -1    0    0    0  501 -0.00000000000E+00 -0.00000000000E+00 -0.17606175114E+03  0.17606175114E+03  0.00000000000E+00 0.  1.
         23    2    1    2    0    0 -0.17967105776E+02 -0.37338133684E+01 -0.13430770330E+03  0.15718291851E+03  0.79568539346E+02 0.  0.
         13    1    3    3    0    0 -0.31357629699E+02 -0.11637831363E+02 -0.13732840987E+03  0.14134295956E+03  0.00000000000E+00 0.  1.
        -13    1    3    3    0    0  0.13390523922E+02  0.79040179945E+01  0.30207065722E+01  0.15839958951E+02  0.00000000000E+00 0. -1.
         22    1    1    2    0    0  0.17967105776E+02  0.37338133684E+01 -0.27539413562E+02  0.33093466902E+02  0.00000000000E+00 0.  1.
<mgrwt>
<rscale>  0 0.56222603E+02</rscale>
<asrwt>0</asrwt>
<pdfrwt beam="1">  1        2 0.21868667E-02 0.81657276E+02</pdfrwt>
<pdfrwt beam="2">  1       -2 0.27086425E-01 0.81657276E+02</pdfrwt>
<totfact> 0.50279488E+04</totfact>
</mgrwt>
</event>
<event>
 6    1  0.1727544E-002  0.9075632E+02  0.7546771E-02  0.1415685E+00
          4   -1    0    0  501    0  0.00000000000E+00  0.00000000000E+00  0.77508386006E+01  0.77508386006E+01  0.00000000000E+00 0. -1.
         -4   -1    0    0    0  501 -0.00000000000E+00 -0.00000000000E+00 -0.37656618316E+03  0.37656618316E+03  0.00000000000E+00 0.  1.
         23    2    1    2    0    0  0.13103665567E+02  0.35289011976E-02 -0.34864594835E+03  0.36026477431E+03  0.89805368703E+02 0.  0.
         11    1    3    3    0    0  0.48911284355E+02  0.81029600402E+01 -0.25306732360E+03  0.25787795945E+03  0.00000000000E+00 0.  1.
        -11    1    3    3    0    0 -0.35807618789E+02 -0.80994311390E+01 -0.95578624749E+02  0.10238681486E+03  0.00000000000E+00 0. -1.
         22    1    1    2    0    0 -0.13103665567E+02 -0.35289011976E-02 -0.20169396213E+02  0.24052247449E+02  0.00000000000E+00 0. -1.
<mgrwt>
<rscale>  0 0.55944304E+02</rscale>
<asrwt>0</asrwt>
<pdfrwt beam="1">  1        4 0.11924369E-02 0.90756324E+02</pdfrwt>
<pdfrwt beam="2">  1       -4 0.57933251E-01 0.90756324E+02</pdfrwt>
<totfact> 0.93682432E+03</totfact>
</mgrwt>
</event>
<event>
 6    1  0.1727544E-002  0.9661623E+02  0.7546771E-02  0.1355060E+00
         -2   -1    0    0    0  501 -0.00000000000E+00  0.00000000000E+00  0.15817722248E+03  0.15817722248E+03  0.00000000000E+00 0. -1.
          2   -1    0    0  501    0  0.00000000000E+00 -0.00000000000E+00 -0.24974486959E+02  0.24974486959E+02  0.00000000000E+00 0.  1.
         23    2    1    2    0    0 -0.18658476954E+02  0.22175597475E+02  0.99219300453E+02  0.13848886420E+03  0.92167239517E+02 0.  0.
         11    1    3    3    0    0  0.36266425317E+02  0.19565462204E+02  0.48962525253E+02  0.63995232601E+02  0.00000000000E+00 0. -1.
        -11    1    3    3    0    0 -0.54924902271E+02  0.26101352716E+01  0.50256775200E+02  0.74493631601E+02  0.00000000000E+00 0.  1.
         22    1    1    2    0    0  0.18658476954E+02 -0.22175597475E+02  0.33983435074E+02  0.44662845241E+02  0.00000000000E+00 0.  1.
<mgrwt>
<rscale>  0 0.71501598E+02</rscale>
<asrwt>0</asrwt>
<pdfrwt beam="1">  1        2 0.38422289E-02 0.96616230E+02</pdfrwt>
<pdfrwt beam="2">  1       -2 0.24334957E-01 0.96616230E+02</pdfrwt>
<totfact> 0.29348081E+04</totfact>
</mgrwt>
</event>
<event>
 6    1  0.1727544E-002  0.9348453E+02  0.7546771E-02  0.1400349E+00
          2   -1    0    0  501    0  0.00000000000E+00  0.00000000000E+00  0.36777895913E+03  0.36777895913E+03  0.00000000000E+00 0. -1.
         -2   -1    0    0    0  501 -0.00000000000E+00 -0.00000000000E+00 -0.85090797368E+01  0.85090797368E+01  0.00000000000E+00 0.  1.
         23    2    1    2    0    0  0.15235057125E+02 -0.46800418019E+00  0.26999424924E+03  0.28572058261E+03  0.92233566075E+02 0.  0.
         11    1    3    3    0    0 -0.18983109399E+02 -0.15903264932E+02  0.22821396668E+03  0.22955366881E+03  0.00000000000E+00 0. -1.
        -11    1    3    3    0    0  0.34218166524E+02  0.15435260751E+02  0.41780282563E+02  0.56166913800E+02  0.00000000000E+00 0.  1.
         22    1    1    2    0    0 -0.15235057125E+02  0.46800418019E+00  0.89275630151E+02  0.90567456254E+02  0.00000000000E+00 0. -1.
<mgrwt>
<rscale>  0 0.59404183E+02</rscale>
<asrwt>0</asrwt>
<pdfrwt beam="1">  1        2 0.56581366E-01 0.93484527E+02</pdfrwt>
<pdfrwt beam="2">  1       -2 0.13090895E-02 0.93484527E+02</pdfrwt>
<totfact> 0.10882265E+05</totfact>
</mgrwt>
</event>
<event>
 6    1  0.1727544E-002  0.9031767E+02  0.7546771E-02  0.1374107E+00
          2   -1    0    0  501    0  0.00000000000E+00  0.00000000000E+00  0.35774657225E+03  0.35774657225E+03  0.00000000000E+00 0. -1.
         -2   -1    0    0    0  501 -0.00000000000E+00 -0.00000000000E+00 -0.95514319668E+01  0.95514319668E+01  0.00000000000E+00 0.  1.
         23    2    1    2    0    0  0.14807246639E+02 -0.21146269462E+02  0.25188020378E+03  0.26758348041E+03  0.86549769872E+02 0.  0.
         13    1    3    3    0    0  0.47757416918E+02 -0.19998300494E+02  0.10529295957E+03  0.11733418184E+03  0.00000000000E+00 0.  1.
        -13    1    3    3    0    0 -0.32950170279E+02 -0.11479689685E+01  0.14658724422E+03  0.15024929857E+03  0.00000000000E+00 0. -1.
         22    1    1    2    0    0 -0.14807246639E+02  0.21146269462E+02  0.96314936502E+02  0.99714523809E+02  0.00000000000E+00 0. -1.
<mgrwt>
<rscale>  0 0.66038621E+02</rscale>
<asrwt>0</asrwt>
<pdfrwt beam="1">  1        2 0.55037924E-01 0.90317672E+02</pdfrwt>
<pdfrwt beam="2">  1       -2 0.14694513E-02 0.90317672E+02</pdfrwt>
<totfact> 0.94541598E+04</totfact>
</mgrwt>
</event>
<event>
 6    1  0.1727544E-002  0.9889136E+02  0.7546771E-02  0.1336498E+00
         -1   -1    0    0    0  501 -0.00000000000E+00  0.00000000000E+00  0.14822942527E+04  0.14822942527E+04  0.00000000000E+00 0.  1.
          1   -1    0    0  501    0  0.00000000000E+00 -0.00000000000E+00 -0.35298098234E+01  0.35298098234E+01  0.00000000000E+00 0. -1.
         23    2    1    2    0    0  0.17429728995E+02  0.32833425451E+02  0.12643188941E+04  0.12681804946E+04  0.91638810326E+02 0.  0.
         11    1    3    3    0    0  0.21857916117E+02 -0.77328924659E+01  0.83569860390E+02  0.86726510875E+02  0.00000000000E+00 0. -1.
        -11    1    3    3    0    0 -0.44281871218E+01  0.40566317917E+02  0.11807490337E+04  0.11814539837E+04  0.00000000000E+00 0.  1.
         22    1    1    2    0    0 -0.17429728995E+02 -0.32833425451E+02  0.21444554873E+03  0.21764356790E+03  0.00000000000E+00 0.  1.
<mgrwt>
<rscale>  0 0.77432906E+02</rscale>
<asrwt>0</asrwt>
<pdfrwt beam="1">  1        1 0.54304885E-03 0.98891359E+02</pdfrwt>
<pdfrwt beam="2">  1       -1 0.22804477E+00 0.98891359E+02</pdfrwt>
<totfact> 0.39592577E+03</totfact>
</mgrwt>
</event>
<event>
 6    1  0.1727544E-002  0.1175512E+03  0.7546771E-02  0.1273390E+00
          1   -1    0    0  501    0  0.00000000000E+00  0.00000000000E+00  0.53720828655E+03  0.53720828655E+03  0.00000000000E+00 0. -1.
         -1   -1    0    0    0  501 -0.00000000000E+00 -0.00000000000E+00 -0.27760381683E+02  0.27760381683E+02  0.00000000000E+00 0.  1.
         23    2    1    2    0    0  0.69694989409E+02  0.88620051009E+01  0.11547657878E+03  0.16478204619E+03  0.94246250940E+02 0.  0.
         13    1    3    3    0    0 -0.18499756918E+02  0.21585055418E+02  0.26796616290E+02  0.39066792395E+02  0.00000000000E+00 0. -1.
        -13    1    3    3    0    0  0.88194746327E+02 -0.12723050317E+02  0.88679962486E+02  0.12571525379E+03  0.00000000000E+00 0.  1.
         22    1    1    2    0    0 -0.69694989409E+02 -0.88620051009E+01  0.39397132609E+03  0.40018662205E+03  0.00000000000E+00 0. -1.
<mgrwt>
<rscale>  0 0.10335735E+03</rscale>
<asrwt>0</asrwt>
<pdfrwt beam="1">  1        1 0.82647421E-01 0.11755119E+03</pdfrwt>
<pdfrwt beam="2">  1       -1 0.42708284E-02 0.11755119E+03</pdfrwt>
<totfact> 0.86480562E+03</totfact>
</mgrwt>
</event>
<event>
 6    1  0.1727544E-002  0.9225486E+02  0.7546771E-02  0.1381642E+00
          4   -1    0    0  501    0  0.00000000000E+00  0.00000000000E+00  0.20994602713E+03  0.20994602713E+03  0.00000000000E+00 0. -1.
         -4   -1    0    0    0  501 -0.00000000000E+00 -0.00000000000E+00 -0.15678242260E+02  0.15678242260E+02  0.00000000000E+00 0.  1.
         23    2    1    2    0    0 -0.19660673577E+02  0.84841513836E+01  0.14441166402E+03  0.17136419479E+03  0.89735364479E+02 0.  0.
         13    1    3    3    0    0 -0.40125523283E+02  0.26704579958E+02  0.37703853200E+02  0.61194548414E+02  0.00000000000E+00 0.  1.
        -13    1    3    3    0    0  0.20464849706E+02 -0.18220428574E+02  0.10670781082E+03  0.11016964637E+03  0.00000000000E+00 0. -1.
         22    1    1    2    0    0  0.19660673577E+02 -0.84841513836E+01  0.49856120842E+02  0.54260074600E+02  0.00000000000E+00 0.  1.
<mgrwt>
<rscale>  0 0.64034210E+02</rscale>
<asrwt>0</asrwt>
<pdfrwt beam="1">  1        4 0.32299387E-01 0.92254857E+02</pdfrwt>
<pdfrwt beam="2">  1       -4 0.24120374E-02 0.92254857E+02</pdfrwt>
<totfact> 0.10244266E+04</totfact>
</mgrwt>
</event>
<event>
 6    1  0.1727544E-002  0.1007023E+03  0.7546771E-02  0.1369998E+00
          1   -1    0    0  501    0  0.00000000000E+00  0.00000000000E+00  0.88571732495E+02  0.88571732495E+02  0.00000000000E+00 0. -1.
         -1   -1    0    0    0  501 -0.00000000000E+00 -0.00000000000E+00 -0.33095563265E+03  0.33095563265E+03  0.00000000000E+00 0.  1.
         23    2    1    2    0    0  0.11263434767E+02  0.16442936143E+02 -0.32203894450E+03  0.33741670078E+03  0.98710248079E+02 0.  0.
         11    1    3    3    0    0  0.35690466107E+02  0.46364520749E+02 -0.14806822100E+03  0.15920953560E+03  0.00000000000E+00 0. -1.
        -11    1    3    3    0    0 -0.24427031340E+02 -0.29921584606E+02 -0.17397072350E+03  0.17820716518E+03  0.00000000000E+00 0.  1.
         22    1    1    2    0    0 -0.11263434767E+02 -0.16442936143E+02  0.79655044351E+02  0.82110664364E+02  0.00000000000E+00 0. -1.
<mgrwt>
<rscale>  0 0.67167690E+02</rscale>
<asrwt>0</asrwt>
<pdfrwt beam="1">  1        1 0.13626420E-01 0.10070227E+03</pdfrwt>
<pdfrwt beam="2">  1       -1 0.50916253E-01 0.10070227E+03</pdfrwt>
<totfact> 0.16236899E+03</totfact>
</mgrwt>
</event>
<event>
 6    1  0.1727544E-002  0.9412239E+02  0.7546771E-02  0.1387092E+00
         -2   -1    0    0    0  501 -0.00000000000E+00  0.00000000000E+00  0.79123688528E+01  0.79123688528E+01  0.00000000000E+00 0. -1.
          2   -1    0    0  501    0  0.00000000000E+00 -0.00000000000E+00 -0.41825885234E+03  0.41825885234E+03  0.00000000000E+00 0.  1.
         23    2    1    2    0    0  0.35973851787E+01  0.18105351034E+02 -0.30409319761E+03  0.31832639899E+03  0.92294520667E+02 0.  0.
         13    1    3    3    0    0 -0.20208887779E+02 -0.21415857013E+02 -0.37045100475E+02  0.47322061938E+02  0.00000000000E+00 0. -1.
        -13    1    3    3    0    0  0.23806272958E+02  0.39521208047E+02 -0.26704809713E+03  0.27100433705E+03  0.00000000000E+00 0.  1.
         22    1    1    2    0    0 -0.35973851787E+01 -0.18105351034E+02 -0.10625328588E+03  0.10784482220E+03  0.00000000000E+00 0.  1.
<mgrwt>
<rscale>  0 0.62635907E+02</rscale>
<asrwt>0</asrwt>
<pdfrwt beam="1">  1        2 0.64347529E-01 0.94122386E+02</pdfrwt>
<pdfrwt beam="2">  1       -2 0.12172873E-02 0.94122386E+02</pdfrwt>
<totfact> 0.10550038E+05</totfact>
</mgrwt>
</event>
<event>
 6    1  0.1727544E-002  0.1122903E+03  0.7546771E-02  0.1318694E+00
          1   -1    0    0  501    0  0.00000000000E+00  0.00000000000E+00  0.98560398871E+02  0.98560398871E+02  0.00000000000E+00 0. -1.
         -1   -1    0    0    0  501 -0.00000000000E+00 -0.00000000000E+00 -0.82584550539E+03  0.82584550539E+03  0.00000000000E+00 0.  1.
         23    2    1    2    0    0 -0.14997774270E+02 -0.31370913635E+02 -0.81882279502E+03  0.82648646865E+03  0.10677099683E+03 0.  0.
         11    1    3    3    0    0  0.17976169994E+02  0.34205129234E+02 -0.25677585029E+03  0.25966703842E+03  0.00000000000E+00 0. -1.
        -11    1    3    3    0    0 -0.32973944264E+02 -0.65576042869E+02 -0.56204694473E+03  0.56681943022E+03  0.00000000000E+00 0.  1.
         22    1    1    2    0    0  0.14997774270E+02  0.31370913635E+02  0.91537688498E+02  0.97919435614E+02  0.00000000000E+00 0. -1.
<mgrwt>
<rscale>  0 0.83765082E+02</rscale>
<asrwt>0</asrwt>
<pdfrwt beam="1">  1        1 0.15163139E-01 0.11229031E+03</pdfrwt>
<pdfrwt beam="2">  1       -1 0.12705315E+00 0.11229031E+03</pdfrwt>
<totfact> 0.21537414E+02</totfact>
</mgrwt>
</event>
<event>
 6    1  0.1727544E-002  0.9152054E+02  0.7546771E-02  0.1395935E+00
          2   -1    0    0  501    0  0.00000000000E+00  0.00000000000E+00  0.16243779842E+03  0.16243779842E+03  0.00000000000E+00 0. -1.
         -2   -1    0    0    0  501 -0.00000000000E+00 -0.00000000000E+00 -0.19805624637E+02  0.19805624637E+02  0.00000000000E+00 0.  1.
         23    2    1    2    0    0  0.12471564851E+02  0.12168295092E+02  0.96820282127E+02  0.13322978462E+03  0.89846542196E+02 0.  0.
         13    1    3    3    0    0  0.86411138601E+01  0.28618340146E+02  0.10859881689E+03  0.11263827622E+03  0.00000000000E+00 0. -1.
        -13    1    3    3    0    0  0.38304509906E+01 -0.16450045054E+02 -0.11778534761E+02  0.20591508400E+02  0.00000000000E+00 0.  1.
         22    1    1    2    0    0 -0.12471564851E+02 -0.12168295092E+02  0.45811891652E+02  0.49013638429E+02  0.00000000000E+00 0.  1.
<mgrwt>
<rscale>  0 0.60454405E+02</rscale>
<asrwt>0</asrwt>
<pdfrwt beam="1">  1        2 0.24990430E-01 0.91520536E+02</pdfrwt>
<pdfrwt beam="2">  1       -2 0.30470193E-02 0.91520536E+02</pdfrwt>
<totfact> 0.76463706E+04</totfact>
</mgrwt>
</event>
<event>
 6    1  0.1727544E-002  0.9341868E+02  0.7546771E-02  0.1414446E+00
          2   -1    0    0  501    0  0.00000000000E+00  0.00000000000E+00  0.28780058695E+03  0.28780058695E+03  0.00000000000E+00 0.  1.
         -2   -1    0    0    0  501 -0.00000000000E+00 -0.00000000000E+00 -0.10093920973E+02  0.10093920973E+02  0.00000000000E+00 0. -1.
         23    2    1    2    0    0 -0.70222968243E+01 -0.10034707409E+02  0.22195469488E+03  0.24081307235E+03  0.92612316844E+02 0.  0.
         13    1    3    3    0    0 -0.12851761462E+02  0.33973223363E+02  0.16308862519E+03  0.16708455148E+03  0.00000000000E+00 0. -1.
        -13    1    3    3    0    0  0.58294646374E+01 -0.44007930771E+02  0.58866069692E+02  0.73728520870E+02  0.00000000000E+00 0.  1.
         22    1    1    2    0    0  0.70222968243E+01  0.10034707409E+02  0.55751971094E+02  0.57081435567E+02  0.00000000000E+00 0. -1.
<mgrwt>
<rscale>  0 0.56213366E+02</rscale>
<asrwt>0</asrwt>
<pdfrwt beam="1">  1        2 0.44277007E-01 0.93418677E+02</pdfrwt>
<pdfrwt beam="2">  1       -2 0.15529111E-02 0.93418677E+02</pdfrwt>
<totfact> 0.11025212E+05</totfact>
</mgrwt>
</event>
<event>
 6    1  0.1727544E-002  0.1081969E+03  0.7546771E-02  0.1296310E+00
          2   -1    0    0  501    0  0.00000000000E+00  0.00000000000E+00  0.96444723997E+03  0.96444723997E+03  0.00000000000E+00 0. -1.
         -2   -1    0    0    0  501 -0.00000000000E+00 -0.00000000000E+00 -0.72321563266E+01  0.72321563266E+01  0.00000000000E+00 0.  1.
         23    2    1    2    0    0  0.58155997082E+02 -0.57893202397E+01  0.65262961416E+03  0.66153758285E+03  0.91054511273E+02 0.  0.
         11    1    3    3    0    0 -0.10586371941E+02 -0.26442077367E+01  0.38653524857E+03  0.38668923116E+03  0.00000000000E+00 0. -1.
        -11    1    3    3    0    0  0.68742369023E+02 -0.31451125030E+01  0.26609436559E+03  0.27484835170E+03  0.00000000000E+00 0.  1.
         22    1    1    2    0    0 -0.58155997082E+02  0.57893202397E+01  0.30458546948E+03  0.31014181344E+03  0.00000000000E+00 0. -1.
<mgrwt>
<rscale>  0 0.92756626E+02</rscale>
<asrwt>0</asrwt>
<pdfrwt beam="1">  1        2 0.14837640E+00 0.10819686E+03</pdfrwt>
<pdfrwt beam="2">  1       -2 0.11126402E-02 0.10819686E+03</pdfrwt>
<totfact> 0.46338310E+04</totfact>
</mgrwt>
</event>
<event>
 6    1  0.1727544E-002  0.9162330E+02  0.7546771E-02  0.1396269E+00
         -2   -1    0    0    0  501 -0.00000000000E+00  0.00000000000E+00  0.46656154679E+03  0.46656154679E+03  0.00000000000E+00 0.  1.
          2   -1    0    0  501    0  0.00000000000E+00 -0.00000000000E+00 -0.65715434532E+01  0.65715434532E+01  0.00000000000E+00 0. -1.
         23    2    1    2    0    0  0.16374257704E+02 -0.55010768974E+01  0.41371495852E+03  0.42373918440E+03  0.89980282973E+02 0.  0.
         13    1    3    3    0    0  0.53926823605E+01  0.21346390011E+02  0.37353363596E+03  0.37418194316E+03  0.00000000000E+00 0.  1.
        -13    1    3    3    0    0  0.10981575344E+02 -0.26847466908E+02  0.40181322559E+02  0.49557241237E+02  0.00000000000E+00 0. -1.
         22    1    1    2    0    0 -0.16374257704E+02  0.55010768974E+01  0.46275044816E+02  0.49393905850E+02  0.00000000000E+00 0. -1.
<mgrwt>
<rscale>  0 0.60374053E+02</rscale>
<asrwt>0</asrwt>
<pdfrwt beam="1">  1        2 0.10110071E-02 0.91623302E+02</pdfrwt>
<pdfrwt beam="2">  1       -2 0.71778673E-01 0.91623302E+02</pdfrwt>
<totfact> 0.22462117E+04</totfact>
</mgrwt>
</event>
<event>
 6    1  0.1727544E-002  0.9918059E+02  0.7546771E-02  0.1337130E+00
          2   -1    0    0  501    0  0.00000000000E+00  0.00000000000E+00  0.35190365091E+02  0.35190365091E+02  0.00000000000E+00 0. -1.
         -2   -1    0    0    0  501 -0.00000000000E+00 -0.00000000000E+00 -0.13067897519E+03  0.13067897519E+03  0.00000000000E+00 0.  1.
         23    2    1    2    0    0 -0.13914243381E+02 -0.33685327296E+02 -0.69865427828E+02  0.12131762973E+03  0.92241432301E+02 0.  0.
         11    1    3    3    0    0 -0.28054371898E+02  0.22035607275E+02 -0.48017515928E+02  0.59818873330E+02  0.00000000000E+00 0.  1.
        -11    1    3    3    0    0  0.14140128517E+02 -0.55720934571E+02 -0.21847911900E+02  0.61498756396E+02  0.00000000000E+00 0. -1.
         22    1    1    2    0    0  0.13914243381E+02  0.33685327296E+02 -0.25623182275E+02  0.44551710560E+02  0.00000000000E+00 0.  1.
<mgrwt>
<rscale>  0 0.77220452E+02</rscale>
<asrwt>0</asrwt>
<pdfrwt beam="1">  1        2 0.54139022E-02 0.99180589E+02</pdfrwt>
<pdfrwt beam="2">  1       -2 0.20104458E-01 0.99180589E+02</pdfrwt>
<totfact> 0.26096891E+04</totfact>
</mgrwt>
</event>
<event>
 6    1  0.1727544E-002  0.9251256E+02  0.7546771E-02  0.1396544E+00
         -2   -1    0    0    0  501 -0.00000000000E+00  0.00000000000E+00  0.84691506577E+02  0.84691506577E+02  0.00000000000E+00 0.  1.
          2   -1    0    0  501    0  0.00000000000E+00 -0.00000000000E+00 -0.35731929749E+02  0.35731929749E+02  0.00000000000E+00 0. -1.
         23    2    1    2    0    0 -0.52882124666E+01 -0.15847919350E+02  0.46483517763E+02  0.10353401338E+03  0.90991498311E+02 0.  0.
         13    1    3    3    0    0  0.26305562786E+02  0.15633798507E+02  0.50185885642E+02  0.58779430134E+02  0.00000000000E+00 0.  1.
        -13    1    3    3    0    0 -0.31593775253E+02 -0.31481717857E+02 -0.37023678788E+01  0.44754583250E+02  0.00000000000E+00 0. -1.
         22    1    1    2    0    0  0.52882124666E+01  0.15847919350E+02  0.24760590648E+01  0.16889422942E+02  0.00000000000E+00 0.  1.
<mgrwt>
<rscale>  0 0.60307975E+02</rscale>
<asrwt>0</asrwt>
<pdfrwt beam="1">  1        2 0.54972200E-02 0.92512564E+02</pdfrwt>
<pdfrwt beam="2">  1       -2 0.13029463E-01 0.92512564E+02</pdfrwt>
<totfact> 0.51533484E+04</totfact>
</mgrwt>
</event>
<event>
 6    1  0.1727544E-002  0.9470080E+02  0.7546771E-02  0.1406901E+00
         -2   -1    0    0    0  501 -0.00000000000E+00  0.00000000000E+00  0.79531826137E+03  0.79531826137E+03  0.00000000000E+00 0.  1.
          2   -1    0    0  501    0  0.00000000000E+00 -0.00000000000E+00 -0.86168778506E+01  0.86168778506E+01  0.00000000000E+00 0. -1.
         23    2    1    2    0    0 -0.53509280835E+01  0.12093918528E+02  0.78489519288E+03  0.79058756936E+03  0.93772841014E+02 0.  0.
         11    1    3    3    0    0  0.36175712192E+02  0.17418258236E+02  0.58387490805E+03  0.58525377925E+03  0.00000000000E+00 0.  1.
        -11    1    3    3    0    0 -0.41526640276E+02 -0.53243397083E+01  0.20102028483E+03  0.20533379011E+03  0.00000000000E+00 0. -1.
         22    1    1    2    0    0  0.53509280835E+01 -0.12093918528E+02  0.18061906371E+01  0.13347569866E+02  0.00000000000E+00 0. -1.
<mgrwt>
<rscale>  0 0.57891192E+02</rscale>
<asrwt>0</asrwt>
<pdfrwt beam="1">  1        2 0.13256741E-02 0.94700797E+02</pdfrwt>
<pdfrwt beam="2">  1       -2 0.12235660E+00 0.94700797E+02</pdfrwt>
<totfact> 0.46818279E+03</totfact>
</mgrwt>
</event>
<event>
 6    1  0.1727544E-002  0.1133558E+03  0.7546771E-02  0.1281519E+00
         -1   -1    0    0    0  501 -0.00000000000E+00  0.00000000000E+00  0.38836430341E+02  0.38836430341E+02  0.00000000000E+00 0.  1.
          1   -1    0    0  501    0  0.00000000000E+00 -0.00000000000E+00 -0.30841620756E+03  0.30841620756E+03  0.00000000000E+00 0. -1.
         23    2    1    2    0    0  0.65832708960E+02  0.12858715464E+02 -0.62210335037E+02  0.12930453012E+03  0.91379667283E+02 0.  0.
         11    1    3    3    0    0  0.41177726196E+02 -0.28791090372E+02 -0.63392822704E+02  0.80889937506E+02  0.00000000000E+00 0. -1.
        -11    1    3    3    0    0  0.24654982764E+02  0.41649805836E+02  0.11824876670E+01  0.48414592617E+02  0.00000000000E+00 0.  1.
         22    1    1    2    0    0 -0.65832708960E+02 -0.12858715464E+02 -0.20736944218E+03  0.21794810778E+03  0.00000000000E+00 0. -1.
<mgrwt>
<rscale>  0 0.99420470E+02</rscale>
<asrwt>0</asrwt>
<pdfrwt beam="1">  1        1 0.47448649E-01 0.11335579E+03</pdfrwt>
<pdfrwt beam="2">  1       -1 0.59748353E-02 0.11335579E+03</pdfrwt>
<totfact> 0.10594802E+04</totfact>
</mgrwt>
</event>
<event>
 6    1  0.1727544E-002  0.9541988E+02  0.7546771E-02  0.1412095E+00
         -3   -1    0    0    0  501 -0.00000000000E+00  0.00000000000E+00  0.11490481031E+04  0.11490481031E+04  0.00000000000E+00 0.  1.
          3   -1    0    0  501    0  0.00000000000E+00 -0.00000000000E+00 -0.32223935769E+01  0.32223935769E+01  0.00000000000E+00 0. -1.
         23    2    1    2    0    0  0.80983533691E+01 -0.87476583818E+01  0.11171227335E+04  0.11211905082E+04  0.94672324338E+02 0.  0.
         11    1    3    3    0    0  0.16804408693E+02 -0.44213070294E+02  0.34779079675E+03  0.35099233900E+03  0.00000000000E+00 0. -1.
        -11    1    3    3    0    0 -0.87060553241E+01  0.35465411912E+02  0.76933193676E+03  0.77019816915E+03  0.00000000000E+00 0.  1.
         22    1    1    2    0    0 -0.80983533691E+01  0.87476583818E+01  0.28702975990E+02  0.31079988500E+02  0.00000000000E+00 0. -1.
<mgrwt>
<rscale>  0 0.56729019E+02</rscale>
<asrwt>0</asrwt>
<pdfrwt beam="1">  1        3 0.49575378E-03 0.95419882E+02</pdfrwt>
<pdfrwt beam="2">  1       -3 0.17677630E+00 0.95419882E+02</pdfrwt>
<totfact> 0.37388893E+03</totfact>
</mgrwt>
</event>
<event>
 6    1  0.1727544E-002  0.9046507E+02  0.7546771E-02  0.1431426E+00
         -2   -1    0    0    0  501 -0.00000000000E+00  0.00000000000E+00  0.26004067835E+02  0.26004067835E+02  0.00000000000E+00 0.  1.
          2   -1    0    0  501    0  0.00000000000E+00 -0.00000000000E+00 -0.98518196167E+02  0.98518196167E+02  0.00000000000E+00 0. -1.
         23    2    1    2    0    0  0.10324864564E+02 -0.12354827511E+01 -0.68068514170E+02  0.11321329715E+03  0.89865448228E+02 0.  0.
         11    1    3    3    0    0  0.40452471352E+02  0.11360753219E+02 -0.51583632612E+01  0.42332940646E+02  0.00000000000E+00 0.  1.
        -11    1    3    3    0    0 -0.30127606788E+02 -0.12596235970E+02 -0.62910150909E+02  0.70880356508E+02  0.00000000000E+00 0. -1.
         22    1    1    2    0    0 -0.10324864564E+02  0.12354827511E+01 -0.44456141613E+01  0.11308966848E+02  0.00000000000E+00 0.  1.
<mgrwt>
<rscale>  0 0.52674882E+02</rscale>
<asrwt>0</asrwt>
<pdfrwt beam="1">  1        2 0.15156646E-01 0.90465065E+02</pdfrwt>
<pdfrwt beam="2">  1       -2 0.40006258E-02 0.90465065E+02</pdfrwt>
<totfact> 0.89793758E+04</totfact>
</mgrwt>
</event>
<event>
 6    1  0.1727544E-002  0.9429912E+02  0.7546771E-02  0.1370341E+00
          2   -1    0    0  501    0  0.00000000000E+00  0.00000000000E+00  0.45135441097E+02  0.45135441097E+02  0.00000000000E+00 0. -1.
         -2   -1    0    0    0  501 -0.00000000000E+00 -0.00000000000E+00 -0.86960128531E+02  0.86960128531E+02  0.00000000000E+00 0.  1.
         23    2    1    2    0    0 -0.83656925125E+01  0.22639203547E+02 -0.49845179527E+02  0.10666238969E+03  0.91158132404E+02 0.  0.
         11    1    3    3    0    0  0.35197643043E+02  0.82481451055E+01  0.34787874318E+01  0.36318148844E+02  0.00000000000E+00 0. -1.
        -11    1    3    3    0    0 -0.43563335555E+02  0.14391058442E+02 -0.53323966959E+02  0.70344240844E+02  0.00000000000E+00 0.  1.
         22    1    1    2    0    0  0.83656925125E+01 -0.22639203547E+02  0.80204920926E+01  0.25433179940E+02  0.00000000000E+00 0. -1.
<mgrwt>
<rscale>  0 0.67072489E+02</rscale>
<asrwt>0</asrwt>
<pdfrwt beam="1">  1        2 0.69439141E-02 0.94299117E+02</pdfrwt>
<pdfrwt beam="2">  1       -2 0.13378481E-01 0.94299117E+02</pdfrwt>
<totfact> 0.36816208E+04</totfact>
</mgrwt>
</event>
<event>
 6    1  0.1727544E-002  0.1007818E+03  0.7546771E-02  0.1324845E+00
         -2   -1    0    0    0  501 -0.00000000000E+00  0.00000000000E+00  0.64447446623E+02  0.64447446623E+02  0.00000000000E+00 0. -1.
          2   -1    0    0  501    0  0.00000000000E+00 -0.00000000000E+00 -0.82633749640E+02  0.82633749640E+02  0.00000000000E+00 0.  1.
         23    2    1    2    0    0 -0.18322663583E+02  0.39014083658E+02 -0.13034408963E+01  0.10079027104E+03  0.91099731362E+02 0.  0.
         11    1    3    3    0    0  0.43694330208E+01  0.44193721130E+02 -0.37251874329E+02  0.57964463883E+02  0.00000000000E+00 0.  1.
        -11    1    3    3    0    0 -0.22692096604E+02 -0.51796374723E+01  0.35948433432E+02  0.42825807159E+02  0.00000000000E+00 0. -1.
         22    1    1    2    0    0  0.18322663583E+02 -0.39014083658E+02 -0.16882862120E+02  0.46290925221E+02  0.00000000000E+00 0.  1.
<mgrwt>
<rscale>  0 0.81500850E+02</rscale>
<asrwt>0</asrwt>
<pdfrwt beam="1">  1        2 0.12712885E-01 0.10078184E+03</pdfrwt>
<pdfrwt beam="2">  1       -2 0.99149918E-02 0.10078184E+03</pdfrwt>
<totfact> 0.28445196E+04</totfact>
</mgrwt>
</event>
<event>
 6    1  0.1727544E-002  0.9700723E+02  0.7546771E-02  0.1334437E+00
         -1   -1    0    0    0  501 -0.00000000000E+00  0.00000000000E+00  0.62951241359E+01  0.62951241359E+01  0.00000000000E+00 0.  1.
          1   -1    0    0  501    0  0.00000000000E+00 -0.00000000000E+00 -0.75726247774E+03  0.75726247774E+03  0.00000000000E+00 0. -1.
         23    2    1    2    0    0 -0.36286836606E+02  0.18703563907E+02 -0.50670094310E+03  0.51590333256E+03  0.87999119235E+02 0.  0.
         11    1    3    3    0    0 -0.36363196242E+02  0.18931446965E+02 -0.51047654545E+03  0.51212008863E+03  0.00000000000E+00 0. -1.
        -11    1    3    3    0    0  0.76359635918E-01 -0.22788305788E+00  0.37756023484E+01  0.37832439223E+01  0.00000000000E+00 0.  1.
         22    1    1    2    0    0  0.36286836606E+02 -0.18703563907E+02 -0.24426641050E+03  0.24765426932E+03  0.00000000000E+00 0.  1.
<mgrwt>
<rscale>  0 0.78132303E+02</rscale>
<asrwt>0</asrwt>
<pdfrwt beam="1">  1        1 0.11650189E+00 0.97007231E+02</pdfrwt>
<pdfrwt beam="2">  1       -1 0.96848087E-03 0.97007231E+02</pdfrwt>
<totfact> 0.44572979E+04</totfact>
</mgrwt>
</event>
<event>
 6    1  0.1727544E-002  0.9537175E+02  0.7546771E-02  0.1366013E+00
          1   -1    0    0  501    0  0.00000000000E+00  0.00000000000E+00  0.41014480029E+02  0.41014480029E+02  0.00000000000E+00 0. -1.
         -1   -1    0    0    0  501 -0.00000000000E+00 -0.00000000000E+00 -0.12183316677E+03  0.12183316677E+03  0.00000000000E+00 0.  1.
         23    2    1    2    0    0 -0.14075741759E+01 -0.25028377121E+02 -0.94523903461E+02  0.13427783945E+03  0.92018307504E+02 0.  0.
         13    1    3    3    0    0  0.26195636804E+02 -0.50046631373E+02 -0.68736469625E+02  0.88969539483E+02  0.00000000000E+00 0.  1.
        -13    1    3    3    0    0 -0.27603210980E+02  0.25018254252E+02 -0.25787433836E+02  0.45308299969E+02  0.00000000000E+00 0. -1.
         22    1    1    2    0    0  0.14075741759E+01  0.25028377121E+02  0.13705216722E+02  0.28569807345E+02  0.00000000000E+00 0. -1.
<mgrwt>
<rscale>  0 0.68288001E+02</rscale>
<asrwt>0</asrwt>
<pdfrwt beam="1">  1        1 0.63099201E-02 0.95371746E+02</pdfrwt>
<pdfrwt beam="2">  1       -1 0.18743564E-01 0.95371746E+02</pdfrwt>
<totfact> 0.23910860E+04</totfact>
</mgrwt>
</event>
<event>
 6    1  0.1727544E-002  0.9171622E+02  0.7546771E-02  0.1417339E+00
         -2   -1    0    0    0  501 -0.00000000000E+00  0.00000000000E+00  0.10664154892E+02  0.10664154892E+02  0.00000000000E+00 0.  1.
          2   -1    0    0  501    0  0.00000000000E+00 -0.00000000000E+00 -0.26670453423E+03  0.26670453423E+03  0.00000000000E+00 0. -1.
         23    2    1    2    0    0  0.10429595195E+02  0.66624437998E+01 -0.24117629274E+03  0.25802687732E+03  0.90877393381E+02 0.  0.
         13    1    3    3    0    0  0.23645590306E+02  0.34700061867E+02 -0.54527853957E+02  0.68822199120E+02  0.00000000000E+00 0.  1.
        -13    1    3    3    0    0 -0.13215995112E+02 -0.28037618068E+02 -0.18664843878E+03  0.18920467820E+03  0.00000000000E+00 0. -1.
         22    1    1    2    0    0 -0.10429595195E+02 -0.66624437998E+01 -0.14864086597E+02  0.19341811799E+02  0.00000000000E+00 0.  1.
<mgrwt>
<rscale>  0 0.55587791E+02</rscale>
<asrwt>0</asrwt>
<pdfrwt beam="1">  1        2 0.41031461E-01 0.91716221E+02</pdfrwt>
<pdfrwt beam="2">  1       -2 0.16406394E-02 0.91716221E+02</pdfrwt>
<totfact> 0.11007077E+05</totfact>
</mgrwt>
</event>
<event>
 6    1  0.1727544E-002  0.9292181E+02  0.7546771E-02  0.1408465E+00
         -2   -1    0    0    0  501 -0.00000000000E+00  0.00000000000E+00  0.15346584024E+02  0.15346584024E+02  0.00000000000E+00 0.  1.
          2   -1    0    0  501    0  0.00000000000E+00 -0.00000000000E+00 -0.20340563835E+03  0.20340563835E+03  0.00000000000E+00 0. -1.
         23    2    1    2    0    0  0.66054773006E+01  0.11957016116E+02 -0.13448881495E+03  0.16346774796E+03  0.91912244617E+02 0.  0.
         11    1    3    3    0    0  0.42176203729E+02  0.11438907951E+02 -0.11473796182E+03  0.12277817664E+03  0.00000000000E+00 0. -1.
        -11    1    3    3    0    0 -0.35570726428E+02  0.51810816525E+00 -0.19750853132E+02  0.40689571319E+02  0.00000000000E+00 0.  1.
         22    1    1    2    0    0 -0.66054773006E+01 -0.11957016116E+02 -0.53570239380E+02  0.55284474421E+02  0.00000000000E+00 0. -1.
<mgrwt>
<rscale>  0 0.57537761E+02</rscale>
<asrwt>0</asrwt>
<pdfrwt beam="1">  1        2 0.31293175E-01 0.92921813E+02</pdfrwt>
<pdfrwt beam="2">  1       -2 0.23610129E-02 0.92921813E+02</pdfrwt>
<totfact> 0.87043403E+04</totfact>
</mgrwt>
</event>
<event>
 6    1  0.1727544E-002  0.9601621E+02  0.7546771E-02  0.1369835E+00
         -2   -1    0    0    0  501 -0.00000000000E+00  0.00000000000E+00  0.15705773090E+02  0.15705773090E+02  0.00000000000E+00 0.  1.
          2   -1    0    0  501    0  0.00000000000E+00 -0.00000000000E+00 -0.23043392730E+03  0.23043392730E+03  0.00000000000E+00 0. -1.
         23    2    1    2    0    0  0.15137417914E+02 -0.17390432225E+02 -0.15774359584E+03  0.18466768687E+03  0.93206995391E+02 0.  0.
         13    1    3    3    0    0 -0.16220030370E+01 -0.98483631220E+01  0.11042014336E+02  0.14884462725E+02  0.00000000000E+00 0.  1.
        -13    1    3    3    0    0  0.16759420951E+02 -0.75420691032E+01 -0.16878561018E+03  0.16978322414E+03  0.00000000000E+00 0. -1.
         22    1    1    2    0    0 -0.15137417914E+02  0.17390432225E+02 -0.56984558365E+02  0.61472013520E+02  0.00000000000E+00 0. -1.
<mgrwt>
<rscale>  0 0.67213008E+02</rscale>
<asrwt>0</asrwt>
<pdfrwt beam="1">  1        2 0.35451373E-01 0.96016210E+02</pdfrwt>
<pdfrwt beam="2">  1       -2 0.24162728E-02 0.96016210E+02</pdfrwt>
<totfact> 0.74081252E+04</totfact>
</mgrwt>
</event>
<event>
 6    1  0.1727544E-002  0.9215955E+02  0.7546771E-02  0.1393686E+00
          2   -1    0    0  501    0  0.00000000000E+00  0.00000000000E+00  0.19394381694E+03  0.19394381694E+03  0.00000000000E+00 0. -1.
         -2   -1    0    0    0  501 -0.00000000000E+00 -0.00000000000E+00 -0.15554299122E+02  0.15554299122E+02  0.00000000000E+00 0.  1.
         23    2    1    2    0    0 -0.16070370877E+02  0.73894205398E+01  0.14996811520E+03  0.17602220707E+03  0.90446235129E+02 0.  0.
         13    1    3    3    0    0  0.21751265974E+02  0.14268512609E+02  0.55814484916E+01  0.26605649603E+02  0.00000000000E+00 0.  1.
        -13    1    3    3    0    0 -0.37821636851E+02 -0.68790920690E+01  0.14438666671E+03  0.14941655747E+03  0.00000000000E+00 0. -1.
         22    1    1    2    0    0  0.16070370877E+02 -0.73894205398E+01  0.28421402614E+02  0.33475908988E+02  0.00000000000E+00 0.  1.
<mgrwt>
<rscale>  0 0.60999189E+02</rscale>
<asrwt>0</asrwt>
<pdfrwt beam="1">  1        2 0.29837509E-01 0.92159545E+02</pdfrwt>
<pdfrwt beam="2">  1       -2 0.23929692E-02 0.92159545E+02</pdfrwt>
<totfact> 0.89717608E+04</totfact>
</mgrwt>
</event>
<event>
 6    1  0.1727544E-002  0.9303026E+02  0.7546771E-02  0.1385155E+00
          1   -1    0    0  501    0  0.00000000000E+00  0.00000000000E+00  0.34256747468E+02  0.34256747468E+02  0.00000000000E+00 0. -1.
         -1   -1    0    0    0  501 -0.00000000000E+00 -0.00000000000E+00 -0.92891471091E+02  0.92891471091E+02  0.00000000000E+00 0.  1.
         23    2    1    2    0    0 -0.25775137632E+01 -0.19555739349E+02 -0.50009585953E+02  0.10562001570E+03  0.90915117059E+02 0.  0.
         11    1    3    3    0    0 -0.27907381412E+02 -0.14431374011E+02  0.15619258267E+02  0.35086289658E+02  0.00000000000E+00 0. -1.
        -11    1    3    3    0    0  0.25329867649E+02 -0.51243653375E+01 -0.65628844220E+02  0.70533726039E+02  0.00000000000E+00 0.  1.
         22    1    1    2    0    0  0.25775137632E+01  0.19555739349E+02 -0.86251376703E+01  0.21528202863E+02  0.00000000000E+00 0.  1.
<mgrwt>
<rscale>  0 0.63127954E+02</rscale>
<asrwt>0</asrwt>
<pdfrwt beam="1">  1        1 0.52702689E-02 0.93030259E+02</pdfrwt>
<pdfrwt beam="2">  1       -1 0.14290995E-01 0.93030259E+02</pdfrwt>
<totfact> 0.46391594E+04</totfact>
</mgrwt>
</event>
<event>
 6    1  0.1727544E-002  0.9145796E+02  0.7546771E-02  0.1422493E+00
         -2   -1    0    0    0  501 -0.00000000000E+00  0.00000000000E+00  0.22914247342E+02  0.22914247342E+02  0.00000000000E+00 0.  1.
          2   -1    0    0  501    0  0.00000000000E+00 -0.00000000000E+00 -0.12145016342E+03  0.12145016342E+03  0.00000000000E+00 0. -1.
         23    2    1    2    0    0  0.88295187213E+01 -0.74145910027E+01 -0.75465004096E+02  0.11857287067E+03  0.90728288066E+02 0.  0.
         11    1    3    3    0    0  0.42572996420E+02 -0.27969930573E+02 -0.33687456256E+02  0.61070629188E+02  0.00000000000E+00 0.  1.
        -11    1    3    3    0    0 -0.33743477699E+02  0.20555339570E+02 -0.41777547840E+02  0.57502241483E+02  0.00000000000E+00 0. -1.
         22    1    1    2    0    0 -0.88295187213E+01  0.74145910027E+01 -0.23070911984E+02  0.25791540093E+02  0.00000000000E+00 0. -1.
<mgrwt>
<rscale>  0 0.54496887E+02</rscale>
<asrwt>0</asrwt>
<pdfrwt beam="1">  1        2 0.18684640E-01 0.91457962E+02</pdfrwt>
<pdfrwt beam="2">  1       -2 0.35252688E-02 0.91457962E+02</pdfrwt>
<totfact> 0.85283396E+04</totfact>
</mgrwt>
</event>
<event>
 6    1  0.1727544E-002  0.1101350E+03  0.7546771E-02  0.1381386E+00
          4   -1    0    0  501    0  0.00000000000E+00  0.00000000000E+00  0.42867551028E+03  0.42867551028E+03  0.00000000000E+00 0. -1.
         -4   -1    0    0    0  501 -0.00000000000E+00 -0.00000000000E+00 -0.89169389633E+01  0.89169389633E+01  0.00000000000E+00 0.  1.
         23    2    1    2    0    0 -0.94511131792E+01 -0.83903003676E+01  0.35816734767E+03  0.37471797500E+03  0.10940745483E+03 0.  0.
         13    1    3    3    0    0  0.48080604812E+02 -0.17723504485E+01  0.21425506750E+03  0.21959080066E+03  0.00000000000E+00 0.  1.
        -13    1    3    3    0    0 -0.57531717991E+02 -0.66179499191E+01  0.14391228017E+03  0.15512717434E+03  0.00000000000E+00 0. -1.
         22    1    1    2    0    0  0.94511131792E+01  0.83903003676E+01  0.61591223653E+02  0.62874474245E+02  0.00000000000E+00 0. -1.
<mgrwt>
<rscale>  0 0.64100892E+02</rscale>
<asrwt>0</asrwt>
<pdfrwt beam="1">  1        4 0.65950062E-01 0.11013497E+03</pdfrwt>
<pdfrwt beam="2">  1       -4 0.13718371E-02 0.11013497E+03</pdfrwt>
<totfact> 0.61040315E+03</totfact>
</mgrwt>
</event>
<event>
 6    1  0.1727544E-002  0.1425815E+03  0.7546771E-02  0.1221954E+00
         -1   -1    0    0    0  501 -0.00000000000E+00  0.00000000000E+00  0.33329798379E+02  0.33329798379E+02  0.00000000000E+00 0.  1.
          1   -1    0    0  501    0  0.00000000000E+00 -0.00000000000E+00 -0.82108308446E+03  0.82108308446E+03  0.00000000000E+00 0. -1.
         23    2    1    2    0    0 -0.86685804911E+02  0.68525100354E+02 -0.14921685309E+03  0.20638595870E+03  0.90107583205E+02 0.  0.
         11    1    3    3    0    0 -0.90231027546E+02  0.69565405839E+02 -0.85212175153E+02  0.14227473007E+03  0.00000000000E+00 0.  1.
        -11    1    3    3    0    0  0.35452226349E+01 -0.10403054843E+01 -0.64004677937E+02  0.64111228633E+02  0.00000000000E+00 0. -1.
         22    1    1    2    0    0  0.86685804911E+02 -0.68525100354E+02 -0.63853643299E+03  0.64802692414E+03  0.00000000000E+00 0. -1.
<mgrwt>
<rscale>  0 0.13377885E+03</rscale>
<asrwt>0</asrwt>
<pdfrwt beam="1">  1        1 0.12632047E+00 0.14258154E+03</pdfrwt>
<pdfrwt beam="2">  1       -1 0.51276616E-02 0.14258154E+03</pdfrwt>
<totfact> 0.36712017E+03</totfact>
</mgrwt>
</event>
<event>
 6    1  0.1727544E-002  0.9384773E+02  0.7546771E-02  0.1384916E+00
          1   -1    0    0  501    0  0.00000000000E+00  0.00000000000E+00  0.35081977641E+02  0.35081977641E+02  0.00000000000E+00 0. -1.
         -1   -1    0    0    0  501 -0.00000000000E+00 -0.00000000000E+00 -0.93063211365E+02  0.93063211365E+02  0.00000000000E+00 0.  1.
         23    2    1    2    0    0 -0.35160612941E+01 -0.18965096160E+02 -0.54562560676E+02  0.10855629203E+03  0.91844204782E+02 0.  0.
         13    1    3    3    0    0 -0.25243216337E+02  0.27337250215E+02 -0.53748145045E+01  0.37595662666E+02  0.00000000000E+00 0. -1.
        -13    1    3    3    0    0  0.21727155043E+02 -0.46302346375E+02 -0.49187746171E+02  0.70960629362E+02  0.00000000000E+00 0.  1.
         22    1    1    2    0    0  0.35160612941E+01  0.18965096160E+02 -0.34186730489E+01  0.19588896978E+02  0.00000000000E+00 0.  1.
<mgrwt>
<rscale>  0 0.63188953E+02</rscale>
<asrwt>0</asrwt>
<pdfrwt beam="1">  1        1 0.53972275E-02 0.93847725E+02</pdfrwt>
<pdfrwt beam="2">  1       -1 0.14317417E-01 0.93847725E+02</pdfrwt>
<totfact> 0.44852030E+04</totfact>
</mgrwt>
</event>
<event>
 6    1  0.1727544E-002  0.9425896E+02  0.7546771E-02  0.1367834E+00
         -1   -1    0    0    0  501 -0.00000000000E+00  0.00000000000E+00  0.82876678454E+01  0.82876678454E+01  0.00000000000E+00 0.  1.
          1   -1    0    0  501    0  0.00000000000E+00 -0.00000000000E+00 -0.43562214006E+03  0.43562214006E+03  0.00000000000E+00 0. -1.
         23    2    1    2    0    0 -0.22875710695E+02 -0.10551567837E+02 -0.31587353137E+03  0.32963743566E+03  0.90830157148E+02 0.  0.
         11    1    3    3    0    0 -0.37149356613E+02  0.97944893853E-01 -0.30788664108E+03  0.31011976404E+03  0.00000000000E+00 0. -1.
        -11    1    3    3    0    0  0.14273645918E+02 -0.10649512731E+02 -0.79868902854E+01  0.19517671624E+02  0.00000000000E+00 0.  1.
         22    1    1    2    0    0  0.22875710695E+02  0.10551567837E+02 -0.11146094085E+03  0.11427237224E+03  0.00000000000E+00 0. -1.
<mgrwt>
<rscale>  0 0.67773103E+02</rscale>
<asrwt>0</asrwt>
<pdfrwt beam="1">  1        1 0.67018817E-01 0.94258958E+02</pdfrwt>
<pdfrwt beam="2">  1       -1 0.12750253E-02 0.94258958E+02</pdfrwt>
<totfact> 0.63026927E+04</totfact>
</mgrwt>
</event>
<event>
 6    1  0.1727544E-002  0.9143889E+02  0.7546771E-02  0.1382839E+00
         -2   -1    0    0    0  501 -0.00000000000E+00  0.00000000000E+00  0.97795393602E+02  0.97795393602E+02  0.00000000000E+00 0.  1.
          2   -1    0    0  501    0  0.00000000000E+00 -0.00000000000E+00 -0.66226159320E+02  0.66226159320E+02  0.00000000000E+00 0. -1.
         23    2    1    2    0    0  0.83877390829E+01 -0.19869748750E+02  0.73204136540E+02  0.11713204271E+03  0.88858926055E+02 0.  0.
         11    1    3    3    0    0  0.38893106290E+02 -0.20405461211E+02  0.73206261850E+01  0.44526937149E+02  0.00000000000E+00 0. -1.
        -11    1    3    3    0    0 -0.30505367207E+02  0.53571246067E+00  0.65883510355E+02  0.72605105557E+02  0.00000000000E+00 0.  1.
         22    1    1    2    0    0 -0.83877390829E+01  0.19869748750E+02 -0.41634902258E+02  0.46889510216E+02  0.00000000000E+00 0. -1.
<mgrwt>
<rscale>  0 0.63723352E+02</rscale>
<asrwt>0</asrwt>
<pdfrwt beam="1">  1        2 0.10188640E-01 0.91438886E+02</pdfrwt>
<pdfrwt beam="2">  1       -2 0.15045445E-01 0.91438886E+02</pdfrwt>
<totfact> 0.18915823E+04</totfact>
</mgrwt>
</event>
<event>
 6    1  0.1727544E-002  0.9985745E+02  0.7546771E-02  0.1329868E+00
          1   -1    0    0  501    0  0.00000000000E+00  0.00000000000E+00  0.26933795291E+02  0.26933795291E+02  0.00000000000E+00 0. -1.
         -1   -1    0    0    0  501 -0.00000000000E+00 -0.00000000000E+00 -0.27485415187E+03  0.27485415187E+03  0.00000000000E+00 0.  1.
         23    2    1    2    0    0  0.38086983689E+02  0.13912121407E+02 -0.24071357738E+03  0.26060417469E+03  0.91254282546E+02 0.  0.
         13    1    3    3    0    0 -0.16031429668E+02  0.26776078886E+02 -0.32377014377E+02  0.44969280600E+02  0.00000000000E+00 0. -1.
        -13    1    3    3    0    0  0.54118413357E+02 -0.12863957478E+02 -0.20833656300E+03  0.21563489409E+03  0.00000000000E+00 0.  1.
         22    1    1    2    0    0 -0.38086983689E+02 -0.13912121407E+02 -0.72067792014E+01  0.41183772472E+02  0.00000000000E+00 0. -1.
<mgrwt>
<rscale>  0 0.79712886E+02</rscale>
<asrwt>0</asrwt>
<pdfrwt beam="1">  1        1 0.41436610E-02 0.99857446E+02</pdfrwt>
<pdfrwt beam="2">  1       -1 0.42285252E-01 0.99857446E+02</pdfrwt>
<totfact> 0.11021553E+04</totfact>
</mgrwt>
</event>
<event>
 6    1  0.1727544E-002  0.9113056E+02  0.7546771E-02  0.1415939E+00
          2   -1    0    0  501    0  0.00000000000E+00  0.00000000000E+00  0.85035577892E+01  0.85035577892E+01  0.00000000000E+00 0. -1.
         -2   -1    0    0    0  501 -0.00000000000E+00 -0.00000000000E+00 -0.32324063035E+03  0.32324063035E+03  0.00000000000E+00 0.  1.
         23    2    1    2    0    0 -0.85767493000E+01 -0.96253616331E+01 -0.28775072575E+03  0.30183647794E+03  0.90214029013E+02 0.  0.
         11    1    3    3    0    0 -0.28896419882E+02 -0.37022585710E+02 -0.23015598006E+03  0.23489880819E+03  0.00000000000E+00 0. -1.
        -11    1    3    3    0    0  0.20319670582E+02  0.27397224077E+02 -0.57594745692E+02  0.66937669746E+02  0.00000000000E+00 0.  1.
         22    1    1    2    0    0  0.85767493000E+01  0.96253616331E+01 -0.26986346809E+02  0.29907710197E+02  0.00000000000E+00 0. -1.
<mgrwt>
<rscale>  0 0.55889419E+02</rscale>
<asrwt>0</asrwt>
<pdfrwt beam="1">  1        2 0.13082398E-02 0.91130562E+02</pdfrwt>
<pdfrwt beam="2">  1       -2 0.49729321E-01 0.91130562E+02</pdfrwt>
<totfact> 0.33341197E+04</totfact>
</mgrwt>
</event>
<event>
 6    1  0.1727544E-002  0.9677833E+02  0.7546771E-02  0.1384454E+00
         -2   -1    0    0    0  501 -0.00000000000E+00  0.00000000000E+00  0.12338202753E+03  0.12338202753E+03  0.00000000000E+00 0. -1.
          2   -1    0    0  501    0  0.00000000000E+00 -0.00000000000E+00 -0.49706767614E+02  0.49706767614E+02  0.00000000000E+00 0.  1.
         23    2    1    2    0    0 -0.20229981282E+01  0.17604845617E+02  0.10140848106E+03  0.14017747998E+03  0.95142118700E+02 0.  0.
         11    1    3    3    0    0  0.22079836882E+02 -0.28411478085E+02  0.14226347441E+02  0.38692638127E+02  0.00000000000E+00 0.  1.
        -11    1    3    3    0    0 -0.24102835010E+02  0.46016323702E+02  0.87182133619E+02  0.10148484185E+03  0.00000000000E+00 0. -1.
         22    1    1    2    0    0  0.20229981282E+01 -0.17604845617E+02 -0.27733221149E+02  0.32911315165E+02  0.00000000000E+00 0.  1.
<mgrwt>
<rscale>  0 0.63307302E+02</rscale>
<asrwt>0</asrwt>
<pdfrwt beam="1">  1        2 0.76471951E-02 0.96778334E+02</pdfrwt>
<pdfrwt beam="2">  1       -2 0.18981850E-01 0.96778334E+02</pdfrwt>
<totfact> 0.18493416E+04</totfact>
</mgrwt>
</event>
<event>
 6    1  0.1727544E-002  0.9163864E+02  0.7546771E-02  0.1422539E+00
          1   -1    0    0  501    0  0.00000000000E+00  0.00000000000E+00  0.98392348322E+01  0.98392348322E+01  0.00000000000E+00 0. -1.
         -1   -1    0    0    0  501 -0.00000000000E+00 -0.00000000000E+00 -0.29878892607E+03  0.29878892607E+03  0.00000000000E+00 0.  1.
         23    2    1    2    0    0 -0.24901725473E+01  0.11179748719E+02 -0.27825954933E+03  0.29296077840E+03  0.90920037072E+02 0.  0.
         11    1    3    3    0    0 -0.19384349588E+01 -0.38917655836E+02 -0.15690650125E+03  0.16167248251E+03  0.00000000000E+00 0.  1.
        -11    1    3    3    0    0 -0.55173758852E+00  0.50097404554E+02 -0.12135304808E+03  0.13128829589E+03  0.00000000000E+00 0. -1.
         22    1    1    2    0    0  0.24901725473E+01 -0.11179748719E+02 -0.10690141904E+02  0.15667382508E+02  0.00000000000E+00 0. -1.
<mgrwt>
<rscale>  0 0.54487345E+02</rscale>
<asrwt>0</asrwt>
<pdfrwt beam="1">  1        1 0.15137281E-02 0.91638643E+02</pdfrwt>
<pdfrwt beam="2">  1       -1 0.45967536E-01 0.91638643E+02</pdfrwt>
<totfact> 0.37577730E+04</totfact>
</mgrwt>
</event>
<event>
 6    1  0.1727544E-002  0.9161014E+02  0.7546771E-02  0.1411093E+00
         -4   -1    0    0    0  501 -0.00000000000E+00  0.00000000000E+00  0.22046362817E+02  0.22046362817E+02  0.00000000000E+00 0.  1.
          4   -1    0    0  501    0  0.00000000000E+00 -0.00000000000E+00 -0.13068731231E+03  0.13068731231E+03  0.00000000000E+00 0. -1.
         23    2    1    2    0    0 -0.13523615631E+02 -0.20787584709E+01 -0.82752849996E+02  0.12345222858E+03  0.90582609489E+02 0.  0.
         11    1    3    3    0    0 -0.45404031922E+01 -0.41654100034E+02 -0.68768657318E+02  0.80528302727E+02  0.00000000000E+00 0. -1.
        -11    1    3    3    0    0 -0.89832124390E+01  0.39575341563E+02 -0.13984192678E+02  0.42923925850E+02  0.00000000000E+00 0.  1.
         22    1    1    2    0    0  0.13523615631E+02  0.20787584709E+01 -0.25888099499E+02  0.29281446553E+02  0.00000000000E+00 0. -1.
<mgrwt>
<rscale>  0 0.56950644E+02</rscale>
<asrwt>0</asrwt>
<pdfrwt beam="1">  1        4 0.20105740E-01 0.91610144E+02</pdfrwt>
<pdfrwt beam="2">  1       -4 0.33917482E-02 0.91610144E+02</pdfrwt>
<totfact> 0.14391275E+04</totfact>
</mgrwt>
</event>
<event>
 6    1  0.1727544E-002  0.9129068E+02  0.7546771E-02  0.1412023E+00
         -2   -1    0    0    0  501 -0.00000000000E+00  0.00000000000E+00  0.78526257293E+02  0.78526257293E+02  0.00000000000E+00 0. -1.
          2   -1    0    0  501    0  0.00000000000E+00 -0.00000000000E+00 -0.38918447629E+02  0.38918447629E+02  0.00000000000E+00 0.  1.
         23    2    1    2    0    0 -0.93899487647E+01  0.98765670418E+01  0.46189682440E+02  0.10231067824E+03  0.90267770572E+02 0.  0.
         13    1    3    3    0    0 -0.97753083546E+01 -0.34884434354E+02 -0.23219946760E+01  0.36302507804E+02  0.00000000000E+00 0.  1.
        -13    1    3    3    0    0  0.38535958991E+00  0.44761001395E+02  0.48511677116E+02  0.66008170438E+02  0.00000000000E+00 0. -1.
         22    1    1    2    0    0  0.93899487647E+01 -0.98765670418E+01 -0.65818727762E+01  0.15134026681E+02  0.00000000000E+00 0. -1.
<mgrwt>
<rscale>  0 0.56744856E+02</rscale>
<asrwt>0</asrwt>
<pdfrwt beam="1">  1        2 0.59874535E-02 0.91290679E+02</pdfrwt>
<pdfrwt beam="2">  1       -2 0.12080963E-01 0.91290679E+02</pdfrwt>
<totfact> 0.52002615E+04</totfact>
</mgrwt>
</event>
<event>
 6    1  0.1727544E-002  0.8897870E+02  0.7546771E-02  0.1425021E+00
          2   -1    0    0  501    0  0.00000000000E+00  0.00000000000E+00  0.18013679479E+03  0.18013679479E+03  0.00000000000E+00 0. -1.
         -2   -1    0    0    0  501 -0.00000000000E+00 -0.00000000000E+00 -0.14731481999E+02  0.14731481999E+02  0.00000000000E+00 0.  1.
         23    2    1    2    0    0  0.12044973015E+02  0.13884464688E+00  0.13053966246E+03  0.15798041665E+03  0.88159559415E+02 0.  0.
         11    1    3    3    0    0 -0.11295867574E+02 -0.80052694151E+01  0.13246325934E+03  0.13318481909E+03  0.00000000000E+00 0. -1.
        -11    1    3    3    0    0  0.23340840589E+02  0.81441140620E+01 -0.19235968752E+01  0.24795597556E+02  0.00000000000E+00 0.  1.
         22    1    1    2    0    0 -0.12044973015E+02 -0.13884464688E+00  0.34865650336E+02  0.36887860145E+02  0.00000000000E+00 0. -1.
<mgrwt>
<rscale>  0 0.53972583E+02</rscale>
<asrwt>0</asrwt>
<pdfrwt beam="1">  1        2 0.27713351E-01 0.88978697E+02</pdfrwt>
<pdfrwt beam="2">  1       -2 0.22663820E-02 0.88978697E+02</pdfrwt>
<totfact> 0.10447217E+05</totfact>
</mgrwt>
</event>
<event>
 6    1  0.1727544E-002  0.9507225E+02  0.7546771E-02  0.1368461E+00
         -1   -1    0    0    0  501 -0.00000000000E+00  0.00000000000E+00  0.10584128301E+03  0.10584128301E+03  0.00000000000E+00 0.  1.
          1   -1    0    0  501    0  0.00000000000E+00 -0.00000000000E+00 -0.33679621226E+02  0.33679621226E+02  0.00000000000E+00 0. -1.
         23    2    1    2    0    0 -0.22548183277E+02  0.90496092593E+01  0.55978551574E+02  0.11032828440E+03  0.91915265898E+02 0.  0.
         13    1    3    3    0    0  0.28637568932E+02 -0.17911597315E+02  0.69282904520E+01  0.34480964042E+02  0.00000000000E+00 0.  1.
        -13    1    3    3    0    0 -0.51185752209E+02  0.26961206574E+02  0.49050261122E+02  0.75847320356E+02  0.00000000000E+00 0. -1.
         22    1    1    2    0    0  0.22548183277E+02 -0.90496092593E+01  0.16183110208E+02  0.29192619835E+02  0.00000000000E+00 0.  1.
<mgrwt>
<rscale>  0 0.67596761E+02</rscale>
<asrwt>0</asrwt>
<pdfrwt beam="1">  1        1 0.51814802E-02 0.95072247E+02</pdfrwt>
<pdfrwt beam="2">  1       -1 0.16283274E-01 0.95072247E+02</pdfrwt>
<totfact> 0.38870184E+04</totfact>
</mgrwt>
</event>
<event>
 6    1  0.1727544E-002  0.9151956E+02  0.7546771E-02  0.1429139E+00
          3   -1    0    0  501    0  0.00000000000E+00  0.00000000000E+00  0.90903931929E+02  0.90903931929E+02  0.00000000000E+00 0.  1.
         -3   -1    0    0    0  501 -0.00000000000E+00 -0.00000000000E+00 -0.29483547800E+02  0.29483547800E+02  0.00000000000E+00 0. -1.
         23    2    1    2    0    0  0.37907039434E+01  0.96816646851E+01  0.47795024730E+02  0.10324821235E+03  0.90927030620E+02 0.  0.
         11    1    3    3    0    0  0.25290529190E+02 -0.99843227024E+01 -0.17094334381E+02  0.32117189082E+02  0.00000000000E+00 0. -1.
        -11    1    3    3    0    0 -0.21499825247E+02  0.19665987388E+02  0.64889359112E+02  0.71131023270E+02  0.00000000000E+00 0.  1.
         22    1    1    2    0    0 -0.37907039434E+01 -0.96816646851E+01  0.13625359399E+02  0.17139267377E+02  0.00000000000E+00 0. -1.
<mgrwt>
<rscale>  0 0.53133164E+02</rscale>
<asrwt>0</asrwt>
<pdfrwt beam="1">  1        3 0.13985220E-01 0.91519555E+02</pdfrwt>
<pdfrwt beam="2">  1       -3 0.45359305E-02 0.91519555E+02</pdfrwt>
<totfact> 0.22725718E+04</totfact>
</mgrwt>
</event>
<event>
 6    1  0.1727544E-002  0.5863175E+02  0.7546771E-02  0.1487580E+00
          2   -1    0    0  501    0  0.00000000000E+00  0.00000000000E+00  0.90047544404E+01  0.90047544404E+01  0.00000000000E+00 0. -1.
         -2   -1    0    0    0  501 -0.00000000000E+00 -0.00000000000E+00 -0.16140474605E+03  0.16140474605E+03  0.00000000000E+00 0.  1.
         23    2    1    2    0    0  0.87381461617E+00  0.16855985922E+02 -0.12741177293E+03  0.14025491732E+03  0.56149747445E+02 0.  0.
         11    1    3    3    0    0 -0.14936296354E+02 -0.97993607721E+01 -0.89608783376E+02  0.91372066182E+02  0.00000000000E+00 0.  1.
        -11    1    3    3    0    0  0.15810110970E+02  0.26655346694E+02 -0.37802989557E+02  0.48882851141E+02  0.00000000000E+00 0. -1.
         22    1    1    2    0    0 -0.87381461617E+00 -0.16855985922E+02 -0.24988218681E+02  0.30154583171E+02  0.00000000000E+00 0.  1.
<mgrwt>
<rscale>  0 0.42947103E+02</rscale>
<asrwt>0</asrwt>
<pdfrwt beam="1">  1        2 0.13853470E-02 0.58631749E+02</pdfrwt>
<pdfrwt beam="2">  1       -2 0.24831496E-01 0.58631749E+02</pdfrwt>
<totfact> 0.10165605E+05</totfact>
</mgrwt>
</event>
<event>
 6    1  0.1727544E-002  0.9451514E+02  0.7546771E-02  0.1400223E+00
          1   -1    0    0  501    0  0.00000000000E+00  0.00000000000E+00  0.66671210989E+01  0.66671210989E+01  0.00000000000E+00 0. -1.
         -1   -1    0    0    0  501 -0.00000000000E+00 -0.00000000000E+00 -0.52166806387E+03  0.52166806387E+03  0.00000000000E+00 0.  1.
         23    2    1    2    0    0 -0.47650480914E+01  0.13989216609E+02 -0.49199704539E+03  0.50099321797E+03  0.93352599932E+02 0.  0.
         13    1    3    3    0    0  0.20526121671E+02  0.37186286205E+02 -0.40873317741E+03  0.41093424275E+03  0.00000000000E+00 0.  1.
        -13    1    3    3    0    0 -0.25291169762E+02 -0.23197069596E+02 -0.83263867985E+02  0.90058975220E+02  0.00000000000E+00 0. -1.
         22    1    1    2    0    0  0.47650480914E+01 -0.13989216609E+02 -0.23003897376E+02  0.27341966995E+02  0.00000000000E+00 0. -1.
<mgrwt>
<rscale>  0 0.59433811E+02</rscale>
<asrwt>0</asrwt>
<pdfrwt beam="1">  1        1 0.10257106E-02 0.94515140E+02</pdfrwt>
<pdfrwt beam="2">  1       -1 0.80256655E-01 0.94515140E+02</pdfrwt>
<totfact> 0.22536851E+04</totfact>
</mgrwt>
</event>
<event>
 6    1  0.1727544E-002  0.9077949E+02  0.7546771E-02  0.1383917E+00
          4   -1    0    0  501    0  0.00000000000E+00  0.00000000000E+00  0.46806909505E+02  0.46806909505E+02  0.00000000000E+00 0. -1.
         -4   -1    0    0    0  501 -0.00000000000E+00 -0.00000000000E+00 -0.70742315254E+02  0.70742315254E+02  0.00000000000E+00 0.  1.
         23    2    1    2    0    0 -0.18961387465E+00  0.21657803887E+02 -0.29013604337E+02  0.95303224590E+02  0.88157920563E+02 0.  0.
         11    1    3    3    0    0 -0.27715599913E+02  0.29986264996E+02  0.14340567675E+02  0.43277967237E+02  0.00000000000E+00 0. -1.
        -11    1    3    3    0    0  0.27525986038E+02 -0.83284611082E+01 -0.43354172012E+02  0.52025257353E+02  0.00000000000E+00 0.  1.
         22    1    1    2    0    0  0.18961387465E+00 -0.21657803887E+02  0.50781985872E+01  0.22246000169E+02  0.00000000000E+00 0.  1.
<mgrwt>
<rscale>  0 0.63445169E+02</rscale>
<asrwt>0</asrwt>
<pdfrwt beam="1">  1        4 0.72010630E-02 0.90779488E+02</pdfrwt>
<pdfrwt beam="2">  1       -4 0.10883433E-01 0.90779488E+02</pdfrwt>
<totfact> 0.12499195E+04</totfact>
</mgrwt>
</event>
<event>
 6    1  0.1727544E-002  0.9902167E+02  0.7546771E-02  0.1336685E+00
          2   -1    0    0  501    0  0.00000000000E+00  0.00000000000E+00  0.98950913019E+02  0.98950913019E+02  0.00000000000E+00 0. -1.
         -2   -1    0    0    0  501 -0.00000000000E+00 -0.00000000000E+00 -0.38662690931E+03  0.38662690931E+03  0.00000000000E+00 0.  1.
         23    2    1    2    0    0 -0.14255993712E+02 -0.34041789065E+02 -0.37654640260E+03  0.38934879408E+03  0.91886959794E+02 0.  0.
         13    1    3    3    0    0  0.30702174174E+02  0.77659317142E+01 -0.19860731535E+03  0.20111638150E+03  0.00000000000E+00 0.  1.
        -13    1    3    3    0    0 -0.44958167886E+02 -0.41807720779E+02 -0.17793908725E+03  0.18823241259E+03  0.00000000000E+00 0. -1.
         22    1    1    2    0    0  0.14255993712E+02  0.34041789065E+02  0.88870406311E+02  0.96229028247E+02  0.00000000000E+00 0. -1.
<mgrwt>
<rscale>  0 0.77370048E+02</rscale>
<asrwt>0</asrwt>
<pdfrwt beam="1">  1        2 0.15223217E-01 0.99021665E+02</pdfrwt>
<pdfrwt beam="2">  1       -2 0.59481063E-01 0.99021665E+02</pdfrwt>
<totfact> 0.99876853E+02</totfact>
</mgrwt>
</event>
<event>
 6    1  0.1727544E-002  0.7449745E+02  0.7546771E-02  0.1403176E+00
         -1   -1    0    0    0  501 -0.00000000000E+00  0.00000000000E+00  0.23679346341E+02  0.23679346341E+02  0.00000000000E+00 0. -1.
          1   -1    0    0  501    0  0.00000000000E+00 -0.00000000000E+00 -0.17471653538E+03  0.17471653538E+03  0.00000000000E+00 0.  1.
         23    2    1    2    0    0 -0.25790778748E+02  0.12825695194E+02 -0.41796131870E+02  0.85421232807E+02  0.68703767360E+02 0.  0.
         13    1    3    3    0    0  0.16188154394E+02 -0.12244542548E+02 -0.28062850410E+02  0.34633924670E+02  0.00000000000E+00 0.  1.
        -13    1    3    3    0    0 -0.41978933142E+02  0.25070237742E+02 -0.13733281460E+02  0.50787308138E+02  0.00000000000E+00 0. -1.
         22    1    1    2    0    0  0.25790778748E+02 -0.12825695194E+02 -0.10924105717E+03  0.11297464892E+03  0.00000000000E+00 0.  1.
<mgrwt>
<rscale>  0 0.58744710E+02</rscale>
<asrwt>0</asrwt>
<pdfrwt beam="1">  1        1 0.26879467E-01 0.74497452E+02</pdfrwt>
<pdfrwt beam="2">  1       -1 0.36429763E-02 0.74497452E+02</pdfrwt>
<totfact> 0.41778613E+04</totfact>
</mgrwt>
</event>
<event>
 6    1  0.1727544E-002  0.9382083E+02  0.7546771E-02  0.1382890E+00
          4   -1    0    0  501    0  0.00000000000E+00  0.00000000000E+00  0.23219690790E+03  0.23219690790E+03  0.00000000000E+00 0. -1.
         -4   -1    0    0    0  501 -0.00000000000E+00 -0.00000000000E+00 -0.15136651132E+02  0.15136651132E+02  0.00000000000E+00 0.  1.
         23    2    1    2    0    0 -0.29189636720E+01  0.19735031199E+02  0.14616787242E+03  0.17368763610E+03  0.91675275848E+02 0.  0.
         11    1    3    3    0    0 -0.22779928651E+02  0.35745434944E+02  0.23642754205E+02  0.48534947153E+02  0.00000000000E+00 0.  1.
        -11    1    3    3    0    0  0.19860964979E+02 -0.16010403746E+02  0.12252511821E+03  0.12515268895E+03  0.00000000000E+00 0. -1.
         22    1    1    2    0    0  0.29189636720E+01 -0.19735031199E+02  0.70892384348E+02  0.73645922928E+02  0.00000000000E+00 0. -1.
<mgrwt>
<rscale>  0 0.63710163E+02</rscale>
<asrwt>0</asrwt>
<pdfrwt beam="1">  1        4 0.35722599E-01 0.93820829E+02</pdfrwt>
<pdfrwt beam="2">  1       -4 0.23287157E-02 0.93820829E+02</pdfrwt>
<totfact> 0.89681798E+03</totfact>
</mgrwt>
</event>
<event>
 6    1  0.1727544E-002  0.8867881E+02  0.7546771E-02  0.1404630E+00
         -4   -1    0    0    0  501 -0.00000000000E+00  0.00000000000E+00  0.52470128242E+02  0.52470128242E+02  0.00000000000E+00 0.  1.
          4   -1    0    0  501    0  0.00000000000E+00 -0.00000000000E+00 -0.52975629720E+02  0.52975629720E+02  0.00000000000E+00 0. -1.
         23    2    1    2    0    0  0.57166266089E+01  0.15681282712E+02  0.10270522544E+01  0.88684756554E+02  0.87093907717E+02 0.  0.
         13    1    3    3    0    0 -0.20208649545E+02  0.31342988771E+02 -0.28075929096E+02  0.46680084149E+02  0.00000000000E+00 0. -1.
        -13    1    3    3    0    0  0.25925276154E+02 -0.15661706059E+02  0.29102981351E+02  0.42004672405E+02  0.00000000000E+00 0.  1.
         22    1    1    2    0    0 -0.57166266089E+01 -0.15681282712E+02 -0.15325537321E+01  0.16761001409E+02  0.00000000000E+00 0.  1.
<mgrwt>
<rscale>  0 0.58409583E+02</rscale>
<asrwt>0</asrwt>
<pdfrwt beam="1">  1        4 0.81500968E-02 0.88678809E+02</pdfrwt>
<pdfrwt beam="2">  1       -4 0.80723275E-02 0.88678809E+02</pdfrwt>
<totfact> 0.16644370E+04</totfact>
</mgrwt>
</event>
<event>
 6    1  0.1727544E-002  0.9013155E+02  0.7546771E-02  0.1419799E+00
         -2   -1    0    0    0  501 -0.00000000000E+00  0.00000000000E+00  0.10214326070E+03  0.10214326070E+03  0.00000000000E+00 0.  1.
          2   -1    0    0  501    0  0.00000000000E+00 -0.00000000000E+00 -0.25821839062E+02  0.25821839062E+02  0.00000000000E+00 0. -1.
         23    2    1    2    0    0 -0.11221074391E+02 -0.56319220040E+01  0.67936882159E+02  0.11286769739E+03  0.89252821254E+02 0.  0.
         11    1    3    3    0    0 -0.39065236762E+02  0.11526576113E+02  0.38429515900E+01  0.40911159322E+02  0.00000000000E+00 0. -1.
        -11    1    3    3    0    0  0.27844162370E+02 -0.17158498117E+02  0.64093930569E+02  0.71956538073E+02  0.00000000000E+00 0.  1.
         22    1    1    2    0    0  0.11221074391E+02  0.56319220040E+01  0.83845394793E+01  0.15097402367E+02  0.00000000000E+00 0. -1.
<mgrwt>
<rscale>  0 0.55063380E+02</rscale>
<asrwt>0</asrwt>
<pdfrwt beam="1">  1        2 0.39725907E-02 0.90131555E+02</pdfrwt>
<pdfrwt beam="2">  1       -2 0.15714348E-01 0.90131555E+02</pdfrwt>
<totfact> 0.57833839E+04</totfact>
</mgrwt>
</event>
<event>
 6    1  0.1727544E-002  0.9181449E+02  0.7546771E-02  0.1423397E+00
          4   -1    0    0  501    0  0.00000000000E+00  0.00000000000E+00  0.85081176431E+01  0.85081176431E+01  0.00000000000E+00 0. -1.
         -4   -1    0    0    0  501 -0.00000000000E+00 -0.00000000000E+00 -0.37225159599E+03  0.37225159599E+03  0.00000000000E+00 0.  1.
         23    2    1    2    0    0  0.11054858571E+01 -0.11184812691E+02 -0.35453215982E+03  0.36622800613E+03  0.91123970462E+02 0.  0.
         13    1    3    3    0    0 -0.24956378176E+02  0.58690510633E+01 -0.31432449360E+03  0.31536828288E+03  0.00000000000E+00 0.  1.
        -13    1    3    3    0    0  0.26061864033E+02 -0.17053863755E+02 -0.40207666225E+02  0.50859723251E+02  0.00000000000E+00 0. -1.
         22    1    1    2    0    0 -0.11054858571E+01  0.11184812691E+02 -0.92113185206E+01  0.14531707498E+02  0.00000000000E+00 0.  1.
<mgrwt>
<rscale>  0 0.54308567E+02</rscale>
<asrwt>0</asrwt>
<pdfrwt beam="1">  1        4 0.13089409E-02 0.91814488E+02</pdfrwt>
<pdfrwt beam="2">  1       -4 0.57269490E-01 0.91814488E+02</pdfrwt>
<totfact> 0.83681238E+03</totfact>
</mgrwt>
</event>
<event>
 6    1  0.1727544E-002  0.9083912E+02  0.7546771E-02  0.1413258E+00
          1   -1    0    0  501    0  0.00000000000E+00  0.00000000000E+00  0.10698085751E+02  0.10698085751E+02  0.00000000000E+00 0. -1.
         -1   -1    0    0    0  501 -0.00000000000E+00 -0.00000000000E+00 -0.26592075644E+03  0.26592075644E+03  0.00000000000E+00 0.  1.
         23    2    1    2    0    0  0.12004945171E+02  0.63244374349E+01 -0.23763355069E+03  0.25440410925E+03  0.89819982026E+02 0.  0.
         13    1    3    3    0    0 -0.10345572447E+02 -0.37325008743E+02 -0.13835832939E+03  0.14367746677E+03  0.00000000000E+00 0.  1.
        -13    1    3    3    0    0  0.22350517618E+02  0.43649446178E+02 -0.99275221304E+02  0.11072664248E+03  0.00000000000E+00 0. -1.
         22    1    1    2    0    0 -0.12004945171E+02 -0.63244374349E+01 -0.17589119999E+02  0.22214732944E+02  0.00000000000E+00 0. -1.
<mgrwt>
<rscale>  0 0.56473084E+02</rscale>
<asrwt>0</asrwt>
<pdfrwt beam="1">  1        1 0.16458594E-02 0.90839124E+02</pdfrwt>
<pdfrwt beam="2">  1       -1 0.40910883E-01 0.90839124E+02</pdfrwt>
<totfact> 0.41040236E+04</totfact>
</mgrwt>
</event>
<event>
 6    1  0.1727544E-002  0.9230038E+02  0.7546771E-02  0.1414018E+00
         -2   -1    0    0    0  501 -0.00000000000E+00  0.00000000000E+00  0.15936048447E+04  0.15936048447E+04  0.00000000000E+00 0.  1.
          2   -1    0    0  501    0  0.00000000000E+00 -0.00000000000E+00 -0.21168489904E+01  0.21168489904E+01  0.00000000000E+00 0. -1.
         23    2    1    2    0    0  0.12234819043E+02  0.37030389546E+01  0.15364008669E+04  0.15391708753E+04  0.91410920672E+02 0.  0.
         13    1    3    3    0    0 -0.15457035573E+02 -0.87827654771E+01  0.63092043156E+02  0.65548934604E+02  0.00000000000E+00 0. -1.
        -13    1    3    3    0    0  0.27691854615E+02  0.12485804432E+02  0.14733088237E+04  0.14736219407E+04  0.00000000000E+00 0.  1.
         22    1    1    2    0    0 -0.12234819043E+02 -0.37030389546E+01  0.55087128790E+02  0.56550818321E+02  0.00000000000E+00 0. -1.
<mgrwt>
<rscale>  0 0.56306717E+02</rscale>
<asrwt>0</asrwt>
<pdfrwt beam="1">  1        2 0.32567035E-03 0.92300378E+02</pdfrwt>
<pdfrwt beam="2">  1       -2 0.24516902E+00 0.92300378E+02</pdfrwt>
<totfact> 0.48956761E+03</totfact>
</mgrwt>
</event>
<event>
 6    1  0.1727544E-002  0.1068417E+03  0.7546771E-02  0.1300571E+00
          2   -1    0    0  501    0  0.00000000000E+00  0.00000000000E+00  0.30936306810E+02  0.30936306810E+02  0.00000000000E+00 0. -1.
         -2   -1    0    0    0  501 -0.00000000000E+00 -0.00000000000E+00 -0.21616704309E+03  0.21616704309E+03  0.00000000000E+00 0.  1.
         23    2    1    2    0    0 -0.49275401742E+02 -0.26815566086E+02 -0.13139358661E+03  0.16935003173E+03  0.90928646998E+02 0.  0.
         11    1    3    3    0    0 -0.35522315944E+02  0.30232964805E+02 -0.72507863266E+02  0.86216340251E+02  0.00000000000E+00 0. -1.
        -11    1    3    3    0    0 -0.13753085798E+02 -0.57048530892E+02 -0.58885723343E+02  0.83133691482E+02  0.00000000000E+00 0.  1.
         22    1    1    2    0    0  0.49275401742E+02  0.26815566086E+02 -0.53837149674E+02  0.77753318170E+02  0.00000000000E+00 0.  1.
<mgrwt>
<rscale>  0 0.90948436E+02</rscale>
<asrwt>0</asrwt>
<pdfrwt beam="1">  1        2 0.47594317E-02 0.10684175E+03</pdfrwt>
<pdfrwt beam="2">  1       -2 0.33256469E-01 0.10684175E+03</pdfrwt>
<totfact> 0.12909312E+04</totfact>
</mgrwt>
</event>
<event>
 6    1  0.1727544E-002  0.9428634E+02  0.7546771E-02  0.1412948E+00
          2   -1    0    0  501    0  0.00000000000E+00  0.00000000000E+00  0.19180612896E+03  0.19180612896E+03  0.00000000000E+00 0. -1.
         -2   -1    0    0    0  501 -0.00000000000E+00 -0.00000000000E+00 -0.15830665996E+02  0.15830665996E+02  0.00000000000E+00 0.  1.
         23    2    1    2    0    0 -0.88709930382E+01  0.83653043951E+01  0.13344939835E+03  0.16339723114E+03  0.93494600853E+02 0.  0.
         13    1    3    3    0    0  0.15700631657E+02 -0.54878098244E+01  0.13415368280E+03  0.13518075491E+03  0.00000000000E+00 0. -1.
        -13    1    3    3    0    0 -0.24571624696E+02  0.13853114219E+02 -0.70428445098E+00  0.28216476221E+02  0.00000000000E+00 0.  1.
         22    1    1    2    0    0  0.88709930382E+01 -0.83653043951E+01  0.42526064621E+02  0.44239563823E+02  0.00000000000E+00 0. -1.
<mgrwt>
<rscale>  0 0.56541265E+02</rscale>
<asrwt>0</asrwt>
<pdfrwt beam="1">  1        2 0.29508634E-01 0.94286336E+02</pdfrwt>
<pdfrwt beam="2">  1       -2 0.24354872E-02 0.94286336E+02</pdfrwt>
<totfact> 0.88805334E+04</totfact>
</mgrwt>
</event>
<event>
 6    1  0.1727544E-002  0.9405652E+02  0.7546771E-02  0.1377153E+00
          2   -1    0    0  501    0  0.00000000000E+00  0.00000000000E+00  0.62412624564E+01  0.62412624564E+01  0.00000000000E+00 0. -1.
         -2   -1    0    0    0  501 -0.00000000000E+00 -0.00000000000E+00 -0.56330072476E+03  0.56330072476E+03  0.00000000000E+00 0.  1.
         23    2    1    2    0    0  0.64429553060E+01 -0.20765877777E+02 -0.49303467795E+03  0.50192611361E+03  0.91508996839E+02 0.  0.
         11    1    3    3    0    0 -0.28157963230E+02  0.14069746847E+02 -0.79785810899E+02  0.85770649353E+02  0.00000000000E+00 0. -1.
        -11    1    3    3    0    0  0.34600918536E+02 -0.34835624624E+02 -0.41324886705E+03  0.41615546425E+03  0.00000000000E+00 0.  1.
         22    1    1    2    0    0 -0.64429553060E+01  0.20765877777E+02 -0.64024784351E+02  0.67615873610E+02  0.00000000000E+00 0. -1.
<mgrwt>
<rscale>  0 0.65218188E+02</rscale>
<asrwt>0</asrwt>
<pdfrwt beam="1">  1        2 0.96019396E-03 0.94056525E+02</pdfrwt>
<pdfrwt beam="2">  1       -2 0.86661674E-01 0.94056525E+02</pdfrwt>
<totfact> 0.16088550E+04</totfact>
</mgrwt>
</event>
<event>
 6    1  0.1727544E-002  0.9133073E+02  0.7546771E-02  0.1409653E+00
         -4   -1    0    0    0  501 -0.00000000000E+00  0.00000000000E+00  0.12828067558E+02  0.12828067558E+02  0.00000000000E+00 0. -1.
          4   -1    0    0  501    0  0.00000000000E+00 -0.00000000000E+00 -0.23516601905E+03  0.23516601905E+03  0.00000000000E+00 0.  1.
         23    2    1    2    0    0  0.14122054095E+02 -0.30578673193E-01 -0.16147364706E+03  0.18551291424E+03  0.90232307446E+02 0.  0.
         11    1    3    3    0    0  0.26811364157E+02 -0.19244396329E+02 -0.13334603643E+02  0.35595051515E+02  0.00000000000E+00 0. -1.
        -11    1    3    3    0    0 -0.12689310063E+02  0.19213817656E+02 -0.14813904342E+03  0.14991786272E+03  0.00000000000E+00 0.  1.
         22    1    1    2    0    0 -0.14122054095E+02  0.30578673193E-01 -0.60864304429E+02  0.62481172369E+02  0.00000000000E+00 0.  1.
<mgrwt>
<rscale>  0 0.57271351E+02</rscale>
<asrwt>0</asrwt>
<pdfrwt beam="1">  1        4 0.36179385E-01 0.91330732E+02</pdfrwt>
<pdfrwt beam="2">  1       -4 0.19735490E-02 0.91330732E+02</pdfrwt>
<totfact> 0.11188758E+04</totfact>
</mgrwt>
</event>
<event>
 6    1  0.1727544E-002  0.9705923E+02  0.7546771E-02  0.1345272E+00
         -2   -1    0    0    0  501 -0.00000000000E+00  0.00000000000E+00  0.37729173897E+02  0.37729173897E+02  0.00000000000E+00 0.  1.
          2   -1    0    0  501    0  0.00000000000E+00 -0.00000000000E+00 -0.12561210124E+03  0.12561210124E+03  0.00000000000E+00 0. -1.
         23    2    1    2    0    0 -0.24240599672E+02  0.23526789762E+02 -0.40547488428E+02  0.10518837077E+03  0.90991087579E+02 0.  0.
         13    1    3    3    0    0 -0.26106426898E+01 -0.32510699908E+02 -0.29776241990E+02  0.44163170752E+02  0.00000000000E+00 0. -1.
        -13    1    3    3    0    0 -0.21629956982E+02  0.56037489671E+02 -0.10771246438E+02  0.61025200020E+02  0.00000000000E+00 0.  1.
         22    1    1    2    0    0  0.24240599672E+02 -0.23526789762E+02 -0.47335438918E+02  0.58152904368E+02  0.00000000000E+00 0. -1.
<mgrwt>
<rscale>  0 0.74549354E+02</rscale>
<asrwt>0</asrwt>
<pdfrwt beam="1">  1        2 0.19324939E-01 0.97059232E+02</pdfrwt>
<pdfrwt beam="2">  1       -2 0.58044883E-02 0.97059232E+02</pdfrwt>
<totfact> 0.39567154E+04</totfact>
</mgrwt>
</event>
<event>
 6    1  0.1727544E-002  0.9326460E+02  0.7546771E-02  0.1400649E+00
         -2   -1    0    0    0  501 -0.00000000000E+00  0.00000000000E+00  0.80339138152E+02  0.80339138152E+02  0.00000000000E+00 0.  1.
          2   -1    0    0  501    0  0.00000000000E+00 -0.00000000000E+00 -0.49228398051E+02  0.49228398051E+02  0.00000000000E+00 0. -1.
         23    2    1    2    0    0 -0.88410392354E+01  0.12459672051E+02  0.49559203487E+02  0.10561439019E+03  0.92004768157E+02 0.  0.
         13    1    3    3    0    0 -0.46074775735E+00  0.11333676740E+02  0.76521330124E+02  0.77357472043E+02  0.00000000000E+00 0.  1.
        -13    1    3    3    0    0 -0.83802914781E+01  0.11259953117E+01 -0.26962126636E+02  0.28256918152E+02  0.00000000000E+00 0. -1.
         22    1    1    2    0    0  0.88410392354E+01 -0.12459672051E+02 -0.18448463386E+02  0.23953146008E+02  0.00000000000E+00 0. -1.
<mgrwt>
<rscale>  0 0.59333769E+02</rscale>
<asrwt>0</asrwt>
<pdfrwt beam="1">  1        2 0.75735997E-02 0.93264595E+02</pdfrwt>
<pdfrwt beam="2">  1       -2 0.12359867E-01 0.93264595E+02</pdfrwt>
<totfact> 0.37408617E+04</totfact>
</mgrwt>
</event>
<event>
 6    1  0.1727544E-002  0.9326368E+02  0.7546771E-02  0.1382670E+00
         -2   -1    0    0    0  501 -0.00000000000E+00  0.00000000000E+00  0.54359842743E+03  0.54359842743E+03  0.00000000000E+00 0.  1.
          2   -1    0    0  501    0  0.00000000000E+00 -0.00000000000E+00 -0.70897064325E+01  0.70897064325E+01  0.00000000000E+00 0. -1.
         23    2    1    2    0    0  0.74191752126E+01  0.18983753394E+02  0.50216106881E+03  0.51074832584E+03  0.91009264748E+02 0.  0.
         11    1    3    3    0    0 -0.61473918213E+01 -0.35659242861E+02  0.22948494980E+03  0.23232028369E+03  0.00000000000E+00 0.  1.
        -11    1    3    3    0    0  0.13566567034E+02  0.54642996256E+02  0.27267611900E+03  0.27842804215E+03  0.00000000000E+00 0. -1.
         22    1    1    2    0    0 -0.74191752126E+01 -0.18983753394E+02  0.34347652186E+02  0.39939808017E+02  0.00000000000E+00 0.  1.
<mgrwt>
<rscale>  0 0.63767038E+02</rscale>
<asrwt>0</asrwt>
<pdfrwt beam="1">  1        2 0.10907245E-02 0.93263676E+02</pdfrwt>
<pdfrwt beam="2">  1       -2 0.83630494E-01 0.93263676E+02</pdfrwt>
<totfact> 0.14595743E+04</totfact>
</mgrwt>
</event>
<event>
 6    1  0.1727544E-002  0.9177655E+02  0.7546771E-02  0.1419209E+00
         -2   -1    0    0    0  501 -0.00000000000E+00  0.00000000000E+00  0.15661388083E+02  0.15661388083E+02  0.00000000000E+00 0.  1.
          2   -1    0    0  501    0  0.00000000000E+00 -0.00000000000E+00 -0.17380732135E+03  0.17380732135E+03  0.00000000000E+00 0. -1.
         23    2    1    2    0    0  0.47609588453E+00 -0.11991163992E+02 -0.13282434215E+03  0.16144733085E+03  0.90988571199E+02 0.  0.
         11    1    3    3    0    0  0.34950307668E+00  0.32869356928E+02 -0.16515620961E+02  0.36786988365E+02  0.00000000000E+00 0. -1.
        -11    1    3    3    0    0  0.12659280786E+00 -0.44860520920E+02 -0.11630872119E+03  0.12466034248E+03  0.00000000000E+00 0.  1.
         22    1    1    2    0    0 -0.47609588453E+00  0.11991163992E+02 -0.25321591114E+02  0.28021378584E+02  0.00000000000E+00 0.  1.
<mgrwt>
<rscale>  0 0.55188633E+02</rscale>
<asrwt>0</asrwt>
<pdfrwt beam="1">  1        2 0.26739587E-01 0.91776548E+02</pdfrwt>
<pdfrwt beam="2">  1       -2 0.24094444E-02 0.91776548E+02</pdfrwt>
<totfact> 0.99887867E+04</totfact>
</mgrwt>
</event>
<event>
 6    1  0.1727544E-002  0.9295120E+02  0.7546771E-02  0.1411534E+00
          2   -1    0    0  501    0  0.00000000000E+00  0.00000000000E+00  0.13387237102E+03  0.13387237102E+03  0.00000000000E+00 0. -1.
         -2   -1    0    0    0  501 -0.00000000000E+00 -0.00000000000E+00 -0.20999397441E+02  0.20999397441E+02  0.00000000000E+00 0.  1.
         23    2    1    2    0    0 -0.77953698401E+01  0.10414736432E+02  0.96948758912E+02  0.13430929928E+03  0.92036359629E+02 0.  0.
         11    1    3    3    0    0  0.20694594082E+01 -0.13669673947E+02  0.10589085253E+03  0.10678958421E+03  0.00000000000E+00 0. -1.
        -11    1    3    3    0    0 -0.98648292483E+01  0.24084410379E+02 -0.89420936131E+01  0.27519715071E+02  0.00000000000E+00 0.  1.
         22    1    1    2    0    0  0.77953698401E+01 -0.10414736432E+02  0.15924214667E+02  0.20562469177E+02  0.00000000000E+00 0.  1.
<mgrwt>
<rscale>  0 0.56852868E+02</rscale>
<asrwt>0</asrwt>
<pdfrwt beam="1">  1        2 0.20595749E-01 0.92951202E+02</pdfrwt>
<pdfrwt beam="2">  1       -2 0.32306766E-02 0.92951202E+02</pdfrwt>
<totfact> 0.87079873E+04</totfact>
</mgrwt>
</event>
<event>
 6    1  0.1727544E-002  0.1024743E+03  0.7546771E-02  0.1319488E+00
         -2   -1    0    0    0  501 -0.00000000000E+00  0.00000000000E+00  0.11849611570E+02  0.11849611570E+02  0.00000000000E+00 0. -1.
          2   -1    0    0  501    0  0.00000000000E+00 -0.00000000000E+00 -0.46960838808E+03  0.46960838808E+03  0.00000000000E+00 0.  1.
         23    2    1    2    0    0 -0.23698566000E+02  0.38378918523E+02 -0.28334744196E+03  0.30130840338E+03  0.92013138535E+02 0.  0.
         11    1    3    3    0    0 -0.51328952286E+01  0.51172795429E+02 -0.70474932234E+02  0.87245158484E+02  0.00000000000E+00 0. -1.
        -11    1    3    3    0    0 -0.18565670772E+02 -0.12793876906E+02 -0.21287250972E+03  0.21406324489E+03  0.00000000000E+00 0.  1.
         22    1    1    2    0    0  0.23698566000E+02 -0.38378918523E+02 -0.17441133455E+03  0.18014959627E+03  0.00000000000E+00 0.  1.
<mgrwt>
<rscale>  0 0.83468019E+02</rscale>
<asrwt>0</asrwt>
<pdfrwt beam="1">  1        2 0.72247441E-01 0.10247429E+03</pdfrwt>
<pdfrwt beam="2">  1       -2 0.18230172E-02 0.10247429E+03</pdfrwt>
<totfact> 0.52945310E+04</totfact>
</mgrwt>
</event>
<event>
 6    1  0.1727544E-002  0.9157749E+02  0.7546771E-02  0.1412846E+00
          2   -1    0    0  501    0  0.00000000000E+00  0.00000000000E+00  0.24308901360E+02  0.24308901360E+02  0.00000000000E+00 0. -1.
         -2   -1    0    0    0  501 -0.00000000000E+00 -0.00000000000E+00 -0.17778984517E+03  0.17778984517E+03  0.00000000000E+00 0.  1.
         23    2    1    2    0    0  0.92364126405E+01 -0.96091131088E+01 -0.16213301083E+03  0.18620835204E+03  0.90602377431E+02 0.  0.
         11    1    3    3    0    0  0.31805046099E+02  0.17946833004E+02 -0.13904685799E+03  0.14376257681E+03  0.00000000000E+00 0.  1.
        -11    1    3    3    0    0 -0.22568633459E+02 -0.27555946113E+02 -0.23086152832E+02  0.42445775231E+02  0.00000000000E+00 0. -1.
         22    1    1    2    0    0 -0.92364126405E+01  0.96091131088E+01  0.86520670214E+01  0.15890394487E+02  0.00000000000E+00 0. -1.
<mgrwt>
<rscale>  0 0.56563478E+02</rscale>
<asrwt>0</asrwt>
<pdfrwt beam="1">  1        2 0.37398309E-02 0.91577493E+02</pdfrwt>
<pdfrwt beam="2">  1       -2 0.27352285E-01 0.91577493E+02</pdfrwt>
<totfact> 0.24641881E+04</totfact>
</mgrwt>
</event>
<event>
 6    1  0.1727544E-002  0.9251589E+02  0.7546771E-02  0.1419707E+00
          4   -1    0    0  501    0  0.00000000000E+00  0.00000000000E+00  0.43049623483E+02  0.43049623483E+02  0.00000000000E+00 0.  1.
         -4   -1    0    0    0  501 -0.00000000000E+00 -0.00000000000E+00 -0.12675381791E+03  0.12675381791E+03  0.00000000000E+00 0. -1.
         23    2    1    2    0    0 -0.54279880490E+01 -0.10280794695E+02 -0.10839743427E+03  0.14251033077E+03  0.91782530068E+02 0.  0.
         13    1    3    3    0    0  0.24352323867E+02  0.60917474815E-01 -0.10828057566E+03  0.11098523530E+03  0.00000000000E+00 0. -1.
        -13    1    3    3    0    0 -0.29780311916E+02 -0.10341712169E+02 -0.11685860694E+00  0.31525095469E+02  0.00000000000E+00 0.  1.
         22    1    1    2    0    0  0.54279880490E+01  0.10280794695E+02  0.24693239841E+02  0.27293110626E+02  0.00000000000E+00 0.  1.
<mgrwt>
<rscale>  0 0.55082976E+02</rscale>
<asrwt>0</asrwt>
<pdfrwt beam="1">  1        4 0.66230189E-02 0.92515894E+02</pdfrwt>
<pdfrwt beam="2">  1       -4 0.19500588E-01 0.92515894E+02</pdfrwt>
<totfact> 0.52584045E+03</totfact>
</mgrwt>
</event>
<event>
 6    1  0.1727544E-002  0.9155544E+02  0.7546771E-02  0.1428460E+00
          1   -1    0    0  501    0  0.00000000000E+00  0.00000000000E+00  0.78639854130E+02  0.78639854130E+02  0.00000000000E+00 0. -1.
         -1   -1    0    0    0  501 -0.00000000000E+00 -0.00000000000E+00 -0.38854040394E+02  0.38854040394E+02  0.00000000000E+00 0.  1.
         23    2    1    2    0    0  0.10448268774E+02 -0.96626241034E+00  0.17993235633E+02  0.93306781348E+02  0.90952179378E+02 0.  0.
         11    1    3    3    0    0 -0.36751005286E+02 -0.14701087240E+02 -0.33342229920E+01  0.39722479763E+02  0.00000000000E+00 0.  1.
        -11    1    3    3    0    0  0.47199274060E+02  0.13734824830E+02  0.21327458625E+02  0.53584301585E+02  0.00000000000E+00 0. -1.
         22    1    1    2    0    0 -0.10448268774E+02  0.96626241034E+00  0.21792578103E+02  0.24187113176E+02  0.00000000000E+00 0. -1.
<mgrwt>
<rscale>  0 0.53270470E+02</rscale>
<asrwt>0</asrwt>
<pdfrwt beam="1">  1        1 0.12098439E-01 0.91555442E+02</pdfrwt>
<pdfrwt beam="2">  1       -1 0.59775447E-02 0.91555442E+02</pdfrwt>
<totfact> 0.57207974E+04</totfact>
</mgrwt>
</event>
<event>
 6    1  0.1727544E-002  0.9305658E+02  0.7546771E-02  0.1386111E+00
         -2   -1    0    0    0  501 -0.00000000000E+00  0.00000000000E+00  0.22175561839E+03  0.22175561839E+03  0.00000000000E+00 0.  1.
          2   -1    0    0  501    0  0.00000000000E+00 -0.00000000000E+00 -0.46399606131E+02  0.46399606131E+02  0.00000000000E+00 0. -1.
         23    2    1    2    0    0 -0.16138125522E+02 -0.10776984833E+02  0.20930058089E+03  0.22905514477E+03  0.91010678958E+02 0.  0.
         11    1    3    3    0    0  0.18018179927E+02 -0.25381748967E+02  0.17733922932E+03  0.18005024367E+03  0.00000000000E+00 0.  1.
        -11    1    3    3    0    0 -0.34156305449E+02  0.14604764134E+02  0.31961351570E+02  0.49004901097E+02  0.00000000000E+00 0. -1.
         22    1    1    2    0    0  0.16138125522E+02  0.10776984833E+02 -0.33944568631E+02  0.39100079757E+02  0.00000000000E+00 0. -1.
<mgrwt>
<rscale>  0 0.62884385E+02</rscale>
<asrwt>0</asrwt>
<pdfrwt beam="1">  1        2 0.71384011E-02 0.93056575E+02</pdfrwt>
<pdfrwt beam="2">  1       -2 0.34116248E-01 0.93056575E+02</pdfrwt>
<totfact> 0.72396813E+03</totfact>
</mgrwt>
</event>
<event>
 6    1  0.1727544E-002  0.9194849E+02  0.7546771E-02  0.1417548E+00
         -3   -1    0    0    0  501 -0.00000000000E+00  0.00000000000E+00  0.38695909375E+01  0.38695909375E+01  0.00000000000E+00 0.  1.
          3   -1    0    0  501    0  0.00000000000E+00 -0.00000000000E+00 -0.11669109005E+04  0.11669109005E+04  0.00000000000E+00 0. -1.
         23    2    1    2    0    0  0.10081422118E+00  0.12242588464E+02 -0.11466033296E+04  0.11502841913E+04  0.91129765142E+02 0.  0.
         13    1    3    3    0    0 -0.33595604706E+02  0.23475341433E+02 -0.92013760569E+03  0.92104992791E+03  0.00000000000E+00 0. -1.
        -13    1    3    3    0    0  0.33696418927E+02 -0.11232752969E+02 -0.22646572390E+03  0.22923426334E+03  0.00000000000E+00 0.  1.
         22    1    1    2    0    0 -0.10081422118E+00 -0.12242588464E+02 -0.16437980012E+02  0.20496300219E+02  0.00000000000E+00 0.  1.
<mgrwt>
<rscale>  0 0.55543143E+02</rscale>
<asrwt>0</asrwt>
<pdfrwt beam="1">  1        3 0.17952480E+00 0.91948492E+02</pdfrwt>
<pdfrwt beam="2">  1       -3 0.59532153E-03 0.91948492E+02</pdfrwt>
<totfact> 0.27427938E+03</totfact>
</mgrwt>
</event>
<event>
 6    1  0.1727544E-002  0.9040977E+02  0.7546771E-02  0.1412202E+00
         -2   -1    0    0    0  501 -0.00000000000E+00  0.00000000000E+00  0.77409170689E+01  0.77409170689E+01  0.00000000000E+00 0.  1.
          2   -1    0    0  501    0  0.00000000000E+00 -0.00000000000E+00 -0.35886593204E+03  0.35886593204E+03  0.00000000000E+00 0. -1.
         23    2    1    2    0    0  0.96510244038E+01  0.10129565723E+02 -0.28416398320E+03  0.29819975774E+03  0.89320634760E+02 0.  0.
         11    1    3    3    0    0  0.12511857894E+02  0.66346436166E+01 -0.29026422908E+03  0.29060951080E+03  0.00000000000E+00 0. -1.
        -11    1    3    3    0    0 -0.28608334898E+01  0.34949221068E+01  0.61002458807E+01  0.75902469389E+01  0.00000000000E+00 0.  1.
         22    1    1    2    0    0 -0.96510244038E+01 -0.10129565723E+02 -0.66961031771E+02  0.68407091369E+02  0.00000000000E+00 0. -1.
<mgrwt>
<rscale>  0 0.56705390E+02</rscale>
<asrwt>0</asrwt>
<pdfrwt beam="1">  1        2 0.55210144E-01 0.90409768E+02</pdfrwt>
<pdfrwt beam="2">  1       -2 0.11909103E-02 0.90409768E+02</pdfrwt>
<totfact> 0.12709118E+05</totfact>
</mgrwt>
</event>
<event>
 6    1  0.1727544E-002  0.9963521E+02  0.7546771E-02  0.1370795E+00
         -1   -1    0    0    0  501 -0.00000000000E+00  0.00000000000E+00  0.11795714812E+03  0.11795714812E+03  0.00000000000E+00 0.  1.
          1   -1    0    0  501    0  0.00000000000E+00 -0.00000000000E+00 -0.45446069346E+02  0.45446069346E+02  0.00000000000E+00 0. -1.
         23    2    1    2    0    0  0.13614703027E+02  0.15069183394E+02  0.91738321697E+02  0.13543667859E+03  0.97543497031E+02 0.  0.
         11    1    3    3    0    0  0.29273693473E+02  0.51857603371E+02  0.51847152816E+02  0.78957503836E+02  0.00000000000E+00 0. -1.
        -11    1    3    3    0    0 -0.15658990446E+02 -0.36788419977E+02  0.39891168881E+02  0.56479174754E+02  0.00000000000E+00 0.  1.
         22    1    1    2    0    0 -0.13614703027E+02 -0.15069183394E+02 -0.19227242919E+02  0.27966538881E+02  0.00000000000E+00 0.  1.
<mgrwt>
<rscale>  0 0.66946792E+02</rscale>
<asrwt>0</asrwt>
<pdfrwt beam="1">  1        1 0.69917030E-02 0.99635206E+02</pdfrwt>
<pdfrwt beam="2">  1       -1 0.18147253E-01 0.99635206E+02</pdfrwt>
<totfact> 0.22046968E+04</totfact>
</mgrwt>
</event>
<event>
 6    1  0.1727544E-002  0.9223831E+02  0.7546771E-02  0.1428218E+00
          2   -1    0    0  501    0  0.00000000000E+00  0.00000000000E+00  0.14596994640E+03  0.14596994640E+03  0.00000000000E+00 0. -1.
         -2   -1    0    0    0  501 -0.00000000000E+00 -0.00000000000E+00 -0.21032289014E+02  0.21032289014E+02  0.00000000000E+00 0.  1.
         23    2    1    2    0    0  0.10213723950E+02  0.13244073307E+01  0.83887094732E+02  0.12467939399E+03  0.91661509983E+02 0.  0.
         13    1    3    3    0    0 -0.25506716218E+02 -0.30630298946E+02  0.57509875157E+02  0.69972805619E+02  0.00000000000E+00 0. -1.
        -13    1    3    3    0    0  0.35720440168E+02  0.31954706277E+02  0.26377219575E+02  0.54706588374E+02  0.00000000000E+00 0.  1.
         22    1    1    2    0    0 -0.10213723950E+02 -0.13244073307E+01  0.41050562652E+02  0.42322841418E+02  0.00000000000E+00 0. -1.
<mgrwt>
<rscale>  0 0.53319338E+02</rscale>
<asrwt>0</asrwt>
<pdfrwt beam="1">  1        2 0.22456914E-01 0.92238314E+02</pdfrwt>
<pdfrwt beam="2">  1       -2 0.32357369E-02 0.92238314E+02</pdfrwt>
<totfact> 0.78850585E+04</totfact>
</mgrwt>
</event>
<event>
 6    1  0.1727544E-002  0.9394137E+02  0.7546771E-02  0.1394874E+00
          1   -1    0    0  501    0  0.00000000000E+00  0.00000000000E+00  0.75048767030E+02  0.75048767030E+02  0.00000000000E+00 0. -1.
         -1   -1    0    0    0  501 -0.00000000000E+00 -0.00000000000E+00 -0.47754223713E+02  0.47754223713E+02  0.00000000000E+00 0.  1.
         23    2    1    2    0    0 -0.25135338763E+01 -0.16192439948E+02  0.36205197395E+01  0.94011110701E+02  0.92501177333E+02 0.  0.
         13    1    3    3    0    0 -0.32489068065E+02  0.53229819462E+01 -0.29666929214E+02  0.44317043781E+02  0.00000000000E+00 0.  1.
        -13    1    3    3    0    0  0.29975534189E+02 -0.21515421894E+02  0.33287448954E+02  0.49694066920E+02  0.00000000000E+00 0. -1.
         22    1    1    2    0    0  0.25135338763E+01  0.16192439948E+02  0.23674023577E+02  0.28791880042E+02  0.00000000000E+00 0.  1.
<mgrwt>
<rscale>  0 0.60710432E+02</rscale>
<asrwt>0</asrwt>
<pdfrwt beam="1">  1        1 0.11545964E-01 0.93941369E+02</pdfrwt>
<pdfrwt beam="2">  1       -1 0.73468037E-02 0.93941369E+02</pdfrwt>
<totfact> 0.44949853E+04</totfact>
</mgrwt>
</event>
<event>
 6    1  0.1727544E-002  0.9745775E+02  0.7546771E-02  0.1343912E+00
          2   -1    0    0  501    0  0.00000000000E+00  0.00000000000E+00  0.47415622816E+02  0.47415622816E+02  0.00000000000E+00 0. -1.
         -2   -1    0    0    0  501 -0.00000000000E+00 -0.00000000000E+00 -0.92864359062E+02  0.92864359062E+02  0.00000000000E+00 0.  1.
         23    2    1    2    0    0  0.34074521383E+02  0.23826087817E+01 -0.41387344393E+02  0.10588165727E+03  0.91275753836E+02 0.  0.
         13    1    3    3    0    0  0.85556666972E+01 -0.14473282898E+02  0.26522735717E+02  0.31402720589E+02  0.00000000000E+00 0. -1.
        -13    1    3    3    0    0  0.25518854685E+02  0.16855891679E+02 -0.67910080109E+02  0.74478936682E+02  0.00000000000E+00 0.  1.
         22    1    1    2    0    0 -0.34074521383E+02 -0.23826087817E+01 -0.40613918532E+01  0.34398324608E+02  0.00000000000E+00 0.  1.
<mgrwt>
<rscale>  0 0.74986745E+02</rscale>
<asrwt>0</asrwt>
<pdfrwt beam="1">  1        2 0.72947113E-02 0.97457750E+02</pdfrwt>
<pdfrwt beam="2">  1       -2 0.14286824E-01 0.97457750E+02</pdfrwt>
<totfact> 0.31273948E+04</totfact>
</mgrwt>
</event>
<event>
 6    1  0.1727544E-002  0.9393859E+02  0.7546771E-02  0.1402870E+00
          1   -1    0    0  501    0  0.00000000000E+00  0.00000000000E+00  0.11893549905E+03  0.11893549905E+03  0.00000000000E+00 0. -1.
         -1   -1    0    0    0  501 -0.00000000000E+00 -0.00000000000E+00 -0.46066637622E+02  0.46066637622E+02  0.00000000000E+00 0.  1.
         23    2    1    2    0    0 -0.77284189162E+01  0.12192795109E+02  0.33479110832E+01  0.93998226579E+02  0.92822763263E+02 0.  0.
         13    1    3    3    0    0  0.37819547691E+02  0.26384714292E+02 -0.70081438786E+00  0.46119003422E+02  0.00000000000E+00 0.  1.
        -13    1    3    3    0    0 -0.45547966607E+02 -0.14191919183E+02  0.40487254710E+01  0.47879223157E+02  0.00000000000E+00 0. -1.
         22    1    1    2    0    0  0.77284189162E+01 -0.12192795109E+02  0.69520950341E+02  0.71003910089E+02  0.00000000000E+00 0. -1.
<mgrwt>
<rscale>  0 0.58815708E+02</rscale>
<asrwt>0</asrwt>
<pdfrwt beam="1">  1        1 0.18297769E-01 0.93938587E+02</pdfrwt>
<pdfrwt beam="2">  1       -1 0.70871751E-02 0.93938587E+02</pdfrwt>
<totfact> 0.26272858E+04</totfact>
</mgrwt>
</event>
<event>
 6    1  0.1727544E-002  0.9431576E+02  0.7546771E-02  0.1421261E+00
         -2   -1    0    0    0  501 -0.00000000000E+00  0.00000000000E+00  0.42279451979E+03  0.42279451979E+03  0.00000000000E+00 0.  1.
          2   -1    0    0  501    0  0.00000000000E+00 -0.00000000000E+00 -0.13541937510E+02  0.13541937510E+02  0.00000000000E+00 0. -1.
         23    2    1    2    0    0  0.64930838527E+01  0.85220722969E+01  0.41400761470E+03  0.42461484532E+03  0.93705261269E+02 0.  0.
         13    1    3    3    0    0  0.46528032760E+01 -0.17125017419E+02  0.38669877890E+03  0.38710574835E+03  0.00000000000E+00 0.  1.
        -13    1    3    3    0    0  0.18402805767E+01  0.25647089716E+02  0.27308835792E+02  0.37509096974E+02  0.00000000000E+00 0. -1.
         22    1    1    2    0    0 -0.64930838527E+01 -0.85220722969E+01 -0.47550324121E+01  0.11721611979E+02  0.00000000000E+00 0. -1.
<mgrwt>
<rscale>  0 0.54755057E+02</rscale>
<asrwt>0</asrwt>
<pdfrwt beam="1">  1        2 0.20833753E-02 0.94315756E+02</pdfrwt>
<pdfrwt beam="2">  1       -2 0.65045301E-01 0.94315756E+02</pdfrwt>
<totfact> 0.10369122E+04</totfact>
</mgrwt>
</event>
<event>
 6    1  0.1727544E-002  0.9182301E+02  0.7546771E-02  0.1426930E+00
          2   -1    0    0  501    0  0.00000000000E+00  0.00000000000E+00  0.18842756683E+03  0.18842756683E+03  0.00000000000E+00 0.  1.
         -2   -1    0    0    0  501 -0.00000000000E+00 -0.00000000000E+00 -0.15350051579E+02  0.15350051579E+02  0.00000000000E+00 0. -1.
         23    2    1    2    0    0 -0.10119363019E+02  0.33074286074E+01  0.12843300331E+03  0.15788128916E+03  0.91203752864E+02 0.  0.
         11    1    3    3    0    0 -0.26859628197E+01  0.23736270368E+02  0.13344963985E+03  0.13557076124E+03  0.00000000000E+00 0.  1.
        -11    1    3    3    0    0 -0.74334001997E+01 -0.20428841761E+02 -0.50166365355E+01  0.22310527926E+02  0.00000000000E+00 0. -1.
         22    1    1    2    0    0  0.10119363019E+02 -0.33074286074E+01  0.44644511939E+02  0.45896329245E+02  0.00000000000E+00 0. -1.
<mgrwt>
<rscale>  0 0.53581125E+02</rscale>
<asrwt>0</asrwt>
<pdfrwt beam="1">  1        2 0.28988855E-01 0.91823010E+02</pdfrwt>
<pdfrwt beam="2">  1       -2 0.23615465E-02 0.91823010E+02</pdfrwt>
<totfact> 0.94266400E+04</totfact>
</mgrwt>
</event>
<event>
 6    1  0.1727544E-002  0.9065834E+02  0.7546771E-02  0.1418296E+00
         -2   -1    0    0    0  501 -0.00000000000E+00  0.00000000000E+00  0.87666763925E+03  0.87666763925E+03  0.00000000000E+00 0.  1.
          2   -1    0    0  501    0  0.00000000000E+00 -0.00000000000E+00 -0.52178812413E+01  0.52178812413E+01  0.00000000000E+00 0. -1.
         23    2    1    2    0    0  0.11765543642E+02  0.45826074367E+01  0.86023114972E+03  0.86499512441E+03  0.89774751368E+02 0.  0.
         13    1    3    3    0    0  0.43814559845E+02  0.12160344234E+01  0.70975003880E+03  0.71110218110E+03  0.00000000000E+00 0.  1.
        -13    1    3    3    0    0 -0.32049016203E+02  0.33665730133E+01  0.15048111093E+03  0.15389294331E+03  0.00000000000E+00 0. -1.
         22    1    1    2    0    0 -0.11765543642E+02 -0.45826074367E+01  0.11218608289E+02  0.16890396090E+02  0.00000000000E+00 0.  1.
<mgrwt>
<rscale>  0 0.55383002E+02</rscale>
<asrwt>0</asrwt>
<pdfrwt beam="1">  1        2 0.80275166E-03 0.90658338E+02</pdfrwt>
<pdfrwt beam="2">  1       -2 0.13487183E+00 0.90658338E+02</pdfrwt>
<totfact> 0.73089102E+03</totfact>
</mgrwt>
</event>
<event>
 6    1  0.1727544E-002  0.9689178E+02  0.7546771E-02  0.1405749E+00
          1   -1    0    0  501    0  0.00000000000E+00  0.00000000000E+00  0.79715583531E+02  0.79715583531E+02  0.00000000000E+00 0. -1.
         -1   -1    0    0    0  501 -0.00000000000E+00 -0.00000000000E+00 -0.46211169903E+02  0.46211169903E+02  0.00000000000E+00 0.  1.
         23    2    1    2    0    0  0.10612578248E+02  0.67417580680E+01  0.76694660471E+01  0.97194843726E+02  0.96072570584E+02 0.  0.
         11    1    3    3    0    0  0.47714353011E+02 -0.86653275384E+01  0.23656360484E+02  0.53957119789E+02  0.00000000000E+00 0. -1.
        -11    1    3    3    0    0 -0.37101774764E+02  0.15407085606E+02 -0.15986894437E+02  0.43237723937E+02  0.00000000000E+00 0.  1.
         22    1    1    2    0    0 -0.10612578248E+02 -0.67417580680E+01  0.25834947581E+02  0.28731909708E+02  0.00000000000E+00 0.  1.
<mgrwt>
<rscale>  0 0.58153274E+02</rscale>
<asrwt>0</asrwt>
<pdfrwt beam="1">  1        1 0.12263936E-01 0.96891780E+02</pdfrwt>
<pdfrwt beam="2">  1       -1 0.71094108E-02 0.96891780E+02</pdfrwt>
<totfact> 0.43823431E+04</totfact>
</mgrwt>
</event>
<event>
 6    1  0.1727544E-002  0.9256594E+02  0.7546771E-02  0.1393727E+00
          2   -1    0    0  501    0  0.00000000000E+00  0.00000000000E+00  0.24965134912E+02  0.24965134912E+02  0.00000000000E+00 0.  1.
         -2   -1    0    0    0  501 -0.00000000000E+00 -0.00000000000E+00 -0.14908317407E+03  0.14908317407E+03  0.00000000000E+00 0. -1.
         23    2    1    2    0    0 -0.15192750997E+02 -0.85726101063E+01 -0.12616926189E+03  0.15648366149E+03  0.90907339321E+02 0.  0.
         11    1    3    3    0    0 -0.26871818409E+02  0.33438099977E+02 -0.90488303571E+02  0.10014157098E+03  0.00000000000E+00 0. -1.
        -11    1    3    3    0    0  0.11679067412E+02 -0.42010710084E+02 -0.35680958314E+02  0.56342090515E+02  0.00000000000E+00 0.  1.
         22    1    1    2    0    0  0.15192750997E+02  0.85726101063E+01  0.20512227237E+01  0.17564647493E+02  0.00000000000E+00 0.  1.
<mgrwt>
<rscale>  0 0.60989185E+02</rscale>
<asrwt>0</asrwt>
<pdfrwt beam="1">  1        2 0.38407899E-02 0.92565942E+02</pdfrwt>
<pdfrwt beam="2">  1       -2 0.22935873E-01 0.92565942E+02</pdfrwt>
<totfact> 0.32322916E+04</totfact>
</mgrwt>
</event>
<event>
 6    1  0.1727544E-002  0.1013206E+03  0.7546771E-02  0.1390455E+00
          2   -1    0    0  501    0  0.00000000000E+00  0.00000000000E+00  0.14142372919E+03  0.14142372919E+03  0.00000000000E+00 0. -1.
         -2   -1    0    0    0  501 -0.00000000000E+00 -0.00000000000E+00 -0.35861798613E+02  0.35861798613E+02  0.00000000000E+00 0.  1.
         23    2    1    2    0    0 -0.13541020382E+02 -0.36250050716E+01  0.37884594364E+02  0.10817169611E+03  0.10034626776E+03 0.  0.
         11    1    3    3    0    0  0.72329677696E+01 -0.19058452102E+02  0.66520733235E+02  0.69574049541E+02  0.00000000000E+00 0. -1.
        -11    1    3    3    0    0 -0.20773988152E+02  0.15433447031E+02 -0.28636138872E+02  0.38597646566E+02  0.00000000000E+00 0.  1.
         22    1    1    2    0    0  0.13541020382E+02  0.36250050716E+01  0.67677336211E+02  0.69113831694E+02  0.00000000000E+00 0. -1.
<mgrwt>
<rscale>  0 0.61793636E+02</rscale>
<asrwt>0</asrwt>
<pdfrwt beam="1">  1        2 0.21757497E-01 0.10132065E+03</pdfrwt>
<pdfrwt beam="2">  1       -2 0.55171998E-02 0.10132065E+03</pdfrwt>
<totfact> 0.37602618E+04</totfact>
</mgrwt>
</event>
<event>
 6    1  0.1727544E-002  0.9102196E+02  0.7546771E-02  0.1422174E+00
         -2   -1    0    0    0  501 -0.00000000000E+00  0.00000000000E+00  0.12520814021E+03  0.12520814021E+03  0.00000000000E+00 0.  1.
          2   -1    0    0  501    0  0.00000000000E+00 -0.00000000000E+00 -0.23362033256E+02  0.23362033256E+02  0.00000000000E+00 0. -1.
         23    2    1    2    0    0  0.63608910293E+01  0.98836807916E+01  0.10214086023E+03  0.13681283702E+03  0.90259896769E+02 0.  0.
         11    1    3    3    0    0 -0.15576261443E+02  0.24919744618E+02 -0.18785606872E+01  0.29447284809E+02  0.00000000000E+00 0. -1.
        -11    1    3    3    0    0  0.21937152472E+02 -0.15036063827E+02  0.10401942092E+03  0.10736555221E+03  0.00000000000E+00 0.  1.
         22    1    1    2    0    0 -0.63608910293E+01 -0.98836807916E+01 -0.29475327960E+00  0.11757336440E+02  0.00000000000E+00 0. -1.
<mgrwt>
<rscale>  0 0.54563565E+02</rscale>
<asrwt>0</asrwt>
<pdfrwt beam="1">  1        2 0.35941591E-02 0.91021959E+02</pdfrwt>
<pdfrwt beam="2">  1       -2 0.19262790E-01 0.91021959E+02</pdfrwt>
<totfact> 0.47242141E+04</totfact>
</mgrwt>
</event>
<event>
 6    1  0.1727544E-002  0.9564139E+02  0.7546771E-02  0.1359996E+00
         -2   -1    0    0    0  501 -0.00000000000E+00  0.00000000000E+00  0.76298710795E+02  0.76298710795E+02  0.00000000000E+00 0.  1.
          2   -1    0    0  501    0  0.00000000000E+00 -0.00000000000E+00 -0.54777646582E+02  0.54777646582E+02  0.00000000000E+00 0. -1.
         23    2    1    2    0    0 -0.19164955576E+02 -0.19707014945E+02  0.33156970525E+02  0.10122579162E+03  0.91605754375E+02 0.  0.
         11    1    3    3    0    0 -0.36553425276E+02 -0.17898258512E+02  0.57995458827E+02  0.70851773456E+02  0.00000000000E+00 0.  1.
        -11    1    3    3    0    0  0.17388469701E+02 -0.18087564326E+01 -0.24838488303E+02  0.30374018166E+02  0.00000000000E+00 0. -1.
         22    1    1    2    0    0  0.19164955576E+02  0.19707014945E+02 -0.11635906312E+02  0.29850565756E+02  0.00000000000E+00 0. -1.
<mgrwt>
<rscale>  0 0.70028588E+02</rscale>
<asrwt>0</asrwt>
<pdfrwt beam="1">  1        2 0.84273303E-02 0.95641394E+02</pdfrwt>
<pdfrwt beam="2">  1       -2 0.11738263E-01 0.95641394E+02</pdfrwt>
<totfact> 0.35666368E+04</totfact>
</mgrwt>
</event>
<event>
 6    1  0.1727544E-002  0.6779912E+02  0.7546771E-02  0.1466061E+00
          2   -1    0    0  501    0  0.00000000000E+00  0.00000000000E+00  0.16863191808E+02  0.16863191808E+02  0.00000000000E+00 0.  1.
         -2   -1    0    0    0  501 -0.00000000000E+00 -0.00000000000E+00 -0.10215449444E+03  0.10215449444E+03  0.00000000000E+00 0. -1.
         23    2    1    2    0    0  0.13033475542E+02  0.70421036321E+01 -0.74207044775E+02  0.10051570039E+03  0.66160848115E+02 0.  0.
         13    1    3    3    0    0 -0.74811334097E+01 -0.53082193578E+01 -0.75954750444E+02  0.76506657650E+02  0.00000000000E+00 0. -1.
        -13    1    3    3    0    0  0.20514608952E+02  0.12350322990E+02  0.17477056685E+01  0.24009042744E+02  0.00000000000E+00 0.  1.
         22    1    1    2    0    0 -0.13033475542E+02 -0.70421036321E+01 -0.11084257856E+02  0.18501985853E+02  0.00000000000E+00 0.  1.
<mgrwt>
<rscale>  0 0.46354097E+02</rscale>
<asrwt>0</asrwt>
<pdfrwt beam="1">  1        2 0.25943372E-02 0.67799119E+02</pdfrwt>
<pdfrwt beam="2">  1       -2 0.15716076E-01 0.67799119E+02</pdfrwt>
<totfact> 0.96649080E+04</totfact>
</mgrwt>
</event>
<event>
 6    1  0.1727544E-002  0.1151292E+03  0.7546771E-02  0.1336439E+00
          2   -1    0    0  501    0  0.00000000000E+00  0.00000000000E+00  0.29715995745E+02  0.29715995745E+02  0.00000000000E+00 0. -1.
         -2   -1    0    0    0  501 -0.00000000000E+00 -0.00000000000E+00 -0.16920171354E+03  0.16920171354E+03  0.00000000000E+00 0.  1.
         23    2    1    2    0    0 -0.22719873789E+02  0.63216516820E+01 -0.12958503654E+03  0.17334077760E+03  0.11268800974E+03 0.  0.
         11    1    3    3    0    0 -0.16045812271E+02  0.54098231533E+02 -0.32974789485E+02  0.65356128160E+02  0.00000000000E+00 0. -1.
        -11    1    3    3    0    0 -0.66740615189E+01 -0.47776579851E+02 -0.96610247054E+02  0.10798464944E+03  0.00000000000E+00 0.  1.
         22    1    1    2    0    0  0.22719873789E+02 -0.63216516820E+01 -0.99006812574E+01  0.25576931684E+02  0.00000000000E+00 0. -1.
<mgrwt>
<rscale>  0 0.77453103E+02</rscale>
<asrwt>0</asrwt>
<pdfrwt beam="1">  1        2 0.45716917E-02 0.11512925E+03</pdfrwt>
<pdfrwt beam="2">  1       -2 0.26031033E-01 0.11512925E+03</pdfrwt>
<totfact> 0.21239136E+04</totfact>
</mgrwt>
</event>
<event>
 6    1  0.1727544E-002  0.1021441E+03  0.7546771E-02  0.1315793E+00
         -2   -1    0    0    0  501 -0.00000000000E+00  0.00000000000E+00  0.12517050274E+02  0.12517050274E+02  0.00000000000E+00 0.  1.
          2   -1    0    0  501    0  0.00000000000E+00 -0.00000000000E+00 -0.46345556381E+03  0.46345556381E+03  0.00000000000E+00 0. -1.
         23    2    1    2    0    0  0.48271195909E+02  0.61799204798E+01 -0.33524255225E+03  0.35045825145E+03  0.89805998648E+02 0.  0.
         11    1    3    3    0    0  0.73368847727E+02  0.87773604541E+01 -0.28230207484E+03  0.29181242491E+03  0.00000000000E+00 0.  1.
        -11    1    3    3    0    0 -0.25097651818E+02 -0.25974399743E+01 -0.52940477411E+02  0.58645826533E+02  0.00000000000E+00 0. -1.
         22    1    1    2    0    0 -0.48271195909E+02 -0.61799204798E+01 -0.11569596129E+03  0.12551436264E+03  0.00000000000E+00 0. -1.
<mgrwt>
<rscale>  0 0.84862251E+02</rscale>
<asrwt>0</asrwt>
<pdfrwt beam="1">  1        2 0.71300858E-01 0.10214410E+03</pdfrwt>
<pdfrwt beam="2">  1       -2 0.19257000E-02 0.10214410E+03</pdfrwt>
<totfact> 0.49611133E+04</totfact>
</mgrwt>
</event>
<event>
 6    1  0.1727544E-002  0.9143012E+02  0.7546771E-02  0.1431384E+00
          1   -1    0    0  501    0  0.00000000000E+00  0.00000000000E+00  0.42382172497E+03  0.42382172497E+03  0.00000000000E+00 0. -1.
         -1   -1    0    0    0  501 -0.00000000000E+00 -0.00000000000E+00 -0.60781064400E+01  0.60781064400E+01  0.00000000000E+00 0.  1.
         23    2    1    2    0    0 -0.97005285231E+01 -0.27362111094E+01  0.37606643259E+03  0.38702122447E+03  0.90872874763E+02 0.  0.
         13    1    3    3    0    0 -0.30530398048E+02  0.80406549478E+01  0.44147915142E+02  0.54275185383E+02  0.00000000000E+00 0. -1.
        -13    1    3    3    0    0  0.20829869524E+02 -0.10776866057E+02  0.33191851745E+03  0.33274603909E+03  0.00000000000E+00 0.  1.
         22    1    1    2    0    0  0.97005285231E+01  0.27362111094E+01  0.41677185938E+02  0.42878606934E+02  0.00000000000E+00 0.  1.
<mgrwt>
<rscale>  0 0.52683156E+02</rscale>
<asrwt>0</asrwt>
<pdfrwt beam="1">  1        1 0.65203319E-01 0.91430118E+02</pdfrwt>
<pdfrwt beam="2">  1       -1 0.93509363E-03 0.91430118E+02</pdfrwt>
<totfact> 0.10067696E+05</totfact>
</mgrwt>
</event>
<event>
 6    1  0.1727544E-002  0.9425076E+02  0.7546771E-02  0.1370593E+00
         -2   -1    0    0    0  501 -0.00000000000E+00  0.00000000000E+00  0.80558197252E+01  0.80558197252E+01  0.00000000000E+00 0.  1.
          2   -1    0    0  501    0  0.00000000000E+00 -0.00000000000E+00 -0.43624847721E+03  0.43624847721E+03  0.00000000000E+00 0. -1.
         23    2    1    2    0    0 -0.12361875553E+02  0.20655304451E+02 -0.35197583088E+03  0.36437644055E+03  0.91124899631E+02 0.  0.
         13    1    3    3    0    0 -0.39912378419E+02 -0.63353309161E+01 -0.27827315591E+03  0.28119225393E+03  0.00000000000E+00 0. -1.
        -13    1    3    3    0    0  0.27550502866E+02  0.26990635367E+02 -0.73702674968E+02  0.83184186617E+02  0.00000000000E+00 0.  1.
         22    1    1    2    0    0  0.12361875553E+02 -0.20655304451E+02 -0.76216826605E+02  0.79927856388E+02  0.00000000000E+00 0. -1.
<mgrwt>
<rscale>  0 0.67002551E+02</rscale>
<asrwt>0</asrwt>
<pdfrwt beam="1">  1        2 0.67115169E-01 0.94250755E+02</pdfrwt>
<pdfrwt beam="2">  1       -2 0.12393565E-02 0.94250755E+02</pdfrwt>
<totfact> 0.98366224E+04</totfact>
</mgrwt>
</event>
<event>
 6    1  0.1727544E-002  0.6758437E+02  0.7546771E-02  0.1482500E+00
         -1   -1    0    0    0  501 -0.00000000000E+00  0.00000000000E+00  0.17077746058E+02  0.17077746058E+02  0.00000000000E+00 0.  1.
          1   -1    0    0  501    0  0.00000000000E+00 -0.00000000000E+00 -0.97060344560E+02  0.97060344560E+02  0.00000000000E+00 0. -1.
         23    2    1    2    0    0  0.88026121334E+01 -0.79098889884E+01 -0.57516769655E+02  0.88745851844E+02  0.66540176614E+02 0.  0.
         11    1    3    3    0    0  0.98753188157E+00 -0.27578431851E+02 -0.14677314326E+00  0.27596497331E+02  0.00000000000E+00 0.  1.
        -11    1    3    3    0    0  0.78150802519E+01  0.19668542862E+02 -0.57369996512E+02  0.61149354513E+02  0.00000000000E+00 0. -1.
         22    1    1    2    0    0 -0.88026121334E+01  0.79098889884E+01 -0.22465828848E+02  0.25392238775E+02  0.00000000000E+00 0. -1.
<mgrwt>
<rscale>  0 0.43719079E+02</rscale>
<asrwt>0</asrwt>
<pdfrwt beam="1">  1        1 0.14932361E-01 0.67584373E+02</pdfrwt>
<pdfrwt beam="2">  1       -1 0.26273455E-02 0.67584373E+02</pdfrwt>
<totfact> 0.13653092E+05</totfact>
</mgrwt>
</event>
<event>
 6    1  0.1727544E-002  0.9282255E+02  0.7546771E-02  0.1404648E+00
          2   -1    0    0  501    0  0.00000000000E+00  0.00000000000E+00  0.66892661972E+02  0.66892661972E+02  0.00000000000E+00 0.  1.
         -2   -1    0    0    0  501 -0.00000000000E+00 -0.00000000000E+00 -0.45787131186E+02  0.45787131186E+02  0.00000000000E+00 0. -1.
         23    2    1    2    0    0  0.14358063445E+02  0.23532553407E+01  0.81181561058E+01  0.93176878052E+02  0.91675156658E+02 0.  0.
         11    1    3    3    0    0 -0.34486959851E+02  0.20758476760E+02 -0.59581506561E+00  0.40256921799E+02  0.00000000000E+00 0. -1.
        -11    1    3    3    0    0  0.48845023296E+02 -0.18405221419E+02  0.87139711714E+01  0.52919956253E+02  0.00000000000E+00 0.  1.
         22    1    1    2    0    0 -0.14358063445E+02 -0.23532553407E+01  0.12987374680E+02  0.19502915107E+02  0.00000000000E+00 0. -1.
<mgrwt>
<rscale>  0 0.58405417E+02</rscale>
<asrwt>0</asrwt>
<pdfrwt beam="1">  1        2 0.10291179E-01 0.92822552E+02</pdfrwt>
<pdfrwt beam="2">  1       -2 0.70441740E-02 0.92822552E+02</pdfrwt>
<totfact> 0.61265422E+04</totfact>
</mgrwt>
</event>
<event>
 6    1  0.1727544E-002  0.9514345E+02  0.7546771E-02  0.1390175E+00
         -1   -1    0    0    0  501 -0.00000000000E+00  0.00000000000E+00  0.63312602237E+01  0.63312602237E+01  0.00000000000E+00 0.  1.
          1   -1    0    0  501    0  0.00000000000E+00 -0.00000000000E+00 -0.50669594526E+03  0.50669594526E+03  0.00000000000E+00 0. -1.
         23    2    1    2    0    0  0.15405414204E+02  0.72019369887E+01 -0.44719578899E+03  0.45720493224E+03  0.93611333139E+02 0.  0.
         11    1    3    3    0    0  0.34774062467E+02 -0.32716471996E+02 -0.17409139537E+03  0.18051985182E+03  0.00000000000E+00 0.  1.
        -11    1    3    3    0    0 -0.19368648263E+02  0.39918408985E+02 -0.27310439362E+03  0.27668508041E+03  0.00000000000E+00 0. -1.
         22    1    1    2    0    0 -0.15405414204E+02 -0.72019369887E+01 -0.53168896049E+02  0.55822273245E+02  0.00000000000E+00 0.  1.
<mgrwt>
<rscale>  0 0.61863283E+02</rscale>
<asrwt>0</asrwt>
<pdfrwt beam="1">  1        1 0.77953251E-01 0.95143452E+02</pdfrwt>
<pdfrwt beam="2">  1       -1 0.97403968E-03 0.95143452E+02</pdfrwt>
<totfact> 0.76194511E+04</totfact>
</mgrwt>
</event>
<event>
 6    1  0.1727544E-002  0.9527709E+02  0.7546771E-02  0.1356672E+00
          2   -1    0    0  501    0  0.00000000000E+00  0.00000000000E+00  0.86639809711E+03  0.86639809711E+03  0.00000000000E+00 0. -1.
         -2   -1    0    0    0  501 -0.00000000000E+00 -0.00000000000E+00 -0.45360644901E+01  0.45360644901E+01  0.00000000000E+00 0.  1.
         23    2    1    2    0    0 -0.64376500497E+01 -0.28694131781E+02  0.69504310193E+03  0.70154303972E+03  0.90625197908E+02 0.  0.
         13    1    3    3    0    0 -0.35435573930E+02 -0.35652941372E+02  0.22463163512E+03  0.23018727946E+03  0.00000000000E+00 0.  1.
        -13    1    3    3    0    0  0.28997923880E+02  0.69588095913E+01  0.47041146681E+03  0.47135576026E+03  0.00000000000E+00 0. -1.
         22    1    1    2    0    0  0.64376500497E+01  0.28694131781E+02  0.16681893069E+03  0.16939112188E+03  0.00000000000E+00 0. -1.
<mgrwt>
<rscale>  0 0.71015899E+02</rscale>
<asrwt>0</asrwt>
<pdfrwt beam="1">  1        2 0.13329188E+00 0.95277086E+02</pdfrwt>
<pdfrwt beam="2">  1       -2 0.69785676E-03 0.95277086E+02</pdfrwt>
<totfact> 0.10162516E+05</totfact>
</mgrwt>
</event>
<event>
 6    1  0.1727544E-002  0.9662550E+02  0.7546771E-02  0.1348518E+00
          2   -1    0    0  501    0  0.00000000000E+00  0.00000000000E+00  0.59657142716E+02  0.59657142716E+02  0.00000000000E+00 0. -1.
         -2   -1    0    0    0  501 -0.00000000000E+00 -0.00000000000E+00 -0.98548892241E+02  0.98548892241E+02  0.00000000000E+00 0.  1.
         23    2    1    2    0    0 -0.62237879343E+01  0.31780543365E+02 -0.65130068601E+02  0.11652644930E+03  0.91037075290E+02 0.  0.
         11    1    3    3    0    0  0.28895586710E+02  0.70810500256E+01 -0.67252192712E+02  0.73538789937E+02  0.00000000000E+00 0.  1.
        -11    1    3    3    0    0 -0.35119374644E+02  0.24699493339E+02  0.21221241117E+01  0.42987659361E+02  0.00000000000E+00 0. -1.
         22    1    1    2    0    0  0.62237879343E+01 -0.31780543365E+02  0.26238319076E+02  0.41679585659E+02  0.00000000000E+00 0. -1.
<mgrwt>
<rscale>  0 0.73519445E+02</rscale>
<asrwt>0</asrwt>
<pdfrwt beam="1">  1        2 0.91780220E-02 0.96625502E+02</pdfrwt>
<pdfrwt beam="2">  1       -2 0.15161368E-01 0.96625502E+02</pdfrwt>
<totfact> 0.21348144E+04</totfact>
</mgrwt>
</event>
<event>
 6    1  0.1727544E-002  0.1027576E+03  0.7546771E-02  0.1320646E+00
         -3   -1    0    0    0  501 -0.00000000000E+00  0.00000000000E+00  0.11614294798E+02  0.11614294798E+02  0.00000000000E+00 0.  1.
          3   -1    0    0  501    0  0.00000000000E+00 -0.00000000000E+00 -0.49386972845E+03  0.49386972845E+03  0.00000000000E+00 0. -1.
         23    2    1    2    0    0 -0.77576721989E+01 -0.43126173184E+02 -0.27320315880E+03  0.29188884093E+03  0.92946657743E+02 0.  0.
         11    1    3    3    0    0 -0.11015225579E+02  0.26372474054E+02 -0.12414814407E+03  0.12739546404E+03  0.00000000000E+00 0. -1.
        -11    1    3    3    0    0  0.32575533798E+01 -0.69498647238E+02 -0.14905501474E+03  0.16449337689E+03  0.00000000000E+00 0.  1.
         22    1    1    2    0    0  0.77576721989E+01  0.43126173184E+02 -0.20905227485E+03  0.21359518232E+03  0.00000000000E+00 0.  1.
<mgrwt>
<rscale>  0 0.83037557E+02</rscale>
<asrwt>0</asrwt>
<pdfrwt beam="1">  1        3 0.75979960E-01 0.10275762E+03</pdfrwt>
<pdfrwt beam="2">  1       -3 0.17868145E-02 0.10275762E+03</pdfrwt>
<totfact> 0.40848069E+03</totfact>
</mgrwt>
</event>
<event>
 6    1  0.1727544E-002  0.8832378E+02  0.7546771E-02  0.1407908E+00
         -2   -1    0    0    0  501 -0.00000000000E+00  0.00000000000E+00  0.64617729827E+02  0.64617729827E+02  0.00000000000E+00 0.  1.
          2   -1    0    0  501    0  0.00000000000E+00 -0.00000000000E+00 -0.42397750282E+02  0.42397750282E+02  0.00000000000E+00 0. -1.
         23    2    1    2    0    0  0.14438410489E+02  0.70003724852E+01  0.21751262950E+02  0.90962673263E+02  0.86854001490E+02 0.  0.
         13    1    3    3    0    0 -0.99015021013E+01  0.85964540066E+01 -0.30554316310E+02  0.33249135485E+02  0.00000000000E+00 0. -1.
        -13    1    3    3    0    0  0.24339912591E+02 -0.15960815214E+01  0.52305579260E+02  0.57713537778E+02  0.00000000000E+00 0.  1.
         22    1    1    2    0    0 -0.14438410489E+02 -0.70003724852E+01  0.46871659508E+00  0.16052806846E+02  0.00000000000E+00 0.  1.
<mgrwt>
<rscale>  0 0.57663326E+02</rscale>
<asrwt>0</asrwt>
<pdfrwt beam="1">  1        2 0.65227308E-02 0.88323782E+02</pdfrwt>
<pdfrwt beam="2">  1       -2 0.99411892E-02 0.88323782E+02</pdfrwt>
<totfact> 0.63015134E+04</totfact>
</mgrwt>
</event>
<event>
 6    1  0.1727544E-002  0.9727291E+02  0.7546771E-02  0.1401189E+00
          1   -1    0    0  501    0  0.00000000000E+00  0.00000000000E+00  0.99772348353E+01  0.99772348353E+01  0.00000000000E+00 0. -1.
         -1   -1    0    0    0  501 -0.00000000000E+00 -0.00000000000E+00 -0.45318440171E+03  0.45318440171E+03  0.00000000000E+00 0.  1.
         23    2    1    2    0    0  0.12561638999E+02  0.45238566768E+01 -0.43825671662E+03  0.44892200834E+03  0.96352269634E+02 0.  0.
         11    1    3    3    0    0 -0.37720513038E+02 -0.13405216356E+02 -0.25224184666E+03  0.25539868076E+03  0.00000000000E+00 0.  1.
        -11    1    3    3    0    0  0.50282152037E+02  0.17929073032E+02 -0.18601486996E+03  0.19352332758E+03  0.00000000000E+00 0. -1.
         22    1    1    2    0    0 -0.12561638999E+02 -0.45238566768E+01 -0.49504502613E+01  0.14239628203E+02  0.00000000000E+00 0. -1.
<mgrwt>
<rscale>  0 0.59207361E+02</rscale>
<asrwt>0</asrwt>
<pdfrwt beam="1">  1        1 0.15349596E-02 0.97272915E+02</pdfrwt>
<pdfrwt beam="2">  1       -1 0.69720661E-01 0.97272915E+02</pdfrwt>
<totfact> 0.17117387E+04</totfact>
</mgrwt>
</event>
<event>
 6    1  0.1727544E-002  0.9398484E+02  0.7546771E-02  0.1372286E+00
          1   -1    0    0  501    0  0.00000000000E+00  0.00000000000E+00  0.56904290701E+02  0.56904290701E+02  0.00000000000E+00 0. -1.
         -1   -1    0    0    0  501 -0.00000000000E+00 -0.00000000000E+00 -0.60900133441E+02  0.60900133441E+02  0.00000000000E+00 0.  1.
         23    2    1    2    0    0  0.23422560855E+02  0.29464672259E+01 -0.55306448524E+01  0.94147424254E+02  0.90971706783E+02 0.  0.
         13    1    3    3    0    0  0.49642986676E+02 -0.25025172672E+02 -0.17436809237E+01  0.55621271259E+02  0.00000000000E+00 0. -1.
        -13    1    3    3    0    0 -0.26220425821E+02  0.27971639898E+02 -0.37869639287E+01  0.38526152995E+02  0.00000000000E+00 0.  1.
         22    1    1    2    0    0 -0.23422560855E+02 -0.29464672259E+01  0.15348021126E+01  0.23656999887E+02  0.00000000000E+00 0. -1.
<mgrwt>
<rscale>  0 0.66535631E+02</rscale>
<asrwt>0</asrwt>
<pdfrwt beam="1">  1        1 0.87545063E-02 0.93984836E+02</pdfrwt>
<pdfrwt beam="2">  1       -1 0.93692513E-02 0.93984836E+02</pdfrwt>
<totfact> 0.44900838E+04</totfact>
</mgrwt>
</event>
<event>
 6    1  0.1727544E-002  0.9352674E+02  0.7546771E-02  0.1377871E+00
         -2   -1    0    0    0  501 -0.00000000000E+00  0.00000000000E+00  0.44236350748E+01  0.44236350748E+01  0.00000000000E+00 0.  1.
          2   -1    0    0  501    0  0.00000000000E+00 -0.00000000000E+00 -0.75925714369E+03  0.75925714369E+03  0.00000000000E+00 0. -1.
         23    2    1    2    0    0 -0.50143682594E+00 -0.21849617370E+02 -0.63829041356E+03  0.64510611779E+03  0.90937307863E+02 0.  0.
         11    1    3    3    0    0  0.17142711214E+02  0.76591417749E+01 -0.27210375092E+02  0.33059635708E+02  0.00000000000E+00 0.  1.
        -11    1    3    3    0    0 -0.17644148040E+02 -0.29508759144E+02 -0.61108003846E+03  0.61204648209E+03  0.00000000000E+00 0. -1.
         22    1    1    2    0    0  0.50143682594E+00  0.21849617370E+02 -0.11654309506E+03  0.11857466097E+03  0.00000000000E+00 0. -1.
<mgrwt>
<rscale>  0 0.65026652E+02</rscale>
<asrwt>0</asrwt>
<pdfrwt beam="1">  1        2 0.11680875E+00 0.93526740E+02</pdfrwt>
<pdfrwt beam="2">  1       -2 0.68055947E-03 0.93526740E+02</pdfrwt>
<totfact> 0.12354494E+05</totfact>
</mgrwt>
</event>
<event>
 6    1  0.1727544E-002  0.1107592E+03  0.7546771E-02  0.1298515E+00
          2   -1    0    0  501    0  0.00000000000E+00  0.00000000000E+00  0.30102390851E+03  0.30102390851E+03  0.00000000000E+00 0. -1.
         -2   -1    0    0    0  501 -0.00000000000E+00 -0.00000000000E+00 -0.29414809747E+02  0.29414809747E+02  0.00000000000E+00 0.  1.
         23    2    1    2    0    0 -0.39956438041E+02  0.33747772744E+02  0.93941611795E+02  0.14523298122E+03  0.97632798285E+02 0.  0.
         11    1    3    3    0    0  0.18910897380E+02  0.44201074286E+02  0.58533670822E+02  0.75746601426E+02  0.00000000000E+00 0.  1.
        -11    1    3    3    0    0 -0.58867335421E+02 -0.10453301541E+02  0.35407940973E+02  0.69486379792E+02  0.00000000000E+00 0. -1.
         22    1    1    2    0    0  0.39956438041E+02 -0.33747772744E+02  0.17766748697E+03  0.18520573704E+03  0.00000000000E+00 0.  1.
<mgrwt>
<rscale>  0 0.91814851E+02</rscale>
<asrwt>0</asrwt>
<pdfrwt beam="1">  1        2 0.46311368E-01 0.11075916E+03</pdfrwt>
<pdfrwt beam="2">  1       -2 0.45253556E-02 0.11075916E+03</pdfrwt>
<totfact> 0.22688334E+04</totfact>
</mgrwt>
</event>
<event>
 6    1  0.1727544E-002  0.8933555E+02  0.7546771E-02  0.1418405E+00
         -4   -1    0    0    0  501 -0.00000000000E+00  0.00000000000E+00  0.31454879540E+03  0.31454879540E+03  0.00000000000E+00 0.  1.
          4   -1    0    0  501    0  0.00000000000E+00 -0.00000000000E+00 -0.12328615748E+02  0.12328615748E+02  0.00000000000E+00 0. -1.
         23    2    1    2    0    0  0.17468944857E+01  0.13057245648E+02  0.30061262173E+03  0.31360610576E+03  0.88358915361E+02 0.  0.
         13    1    3    3    0    0 -0.29078893866E+02  0.33828371370E+01  0.26031571865E+03  0.26195667396E+03  0.00000000000E+00 0.  1.
        -13    1    3    3    0    0  0.30825788352E+02  0.96744085113E+01  0.40296903072E+02  0.51649431795E+02  0.00000000000E+00 0. -1.
         22    1    1    2    0    0 -0.17468944857E+01 -0.13057245648E+02  0.16075579272E+01  0.13271305390E+02  0.00000000000E+00 0. -1.
<mgrwt>
<rscale>  0 0.55359765E+02</rscale>
<asrwt>0</asrwt>
<pdfrwt beam="1">  1        4 0.18967104E-02 0.89335554E+02</pdfrwt>
<pdfrwt beam="2">  1       -4 0.48392116E-01 0.89335554E+02</pdfrwt>
<totfact> 0.66700648E+03</totfact>
</mgrwt>
</event>
<event>
 6    1  0.1727544E-002  0.9178404E+02  0.7546771E-02  0.1400816E+00
         -1   -1    0    0    0  501 -0.00000000000E+00  0.00000000000E+00  0.27504137690E+02  0.27504137690E+02  0.00000000000E+00 0.  1.
          1   -1    0    0  501    0  0.00000000000E+00 -0.00000000000E+00 -0.10571483160E+03  0.10571483160E+03  0.00000000000E+00 0. -1.
         23    2    1    2    0    0  0.15984645001E+02  0.26467720305E+00 -0.68318926856E+02  0.11441934203E+03  0.90381033038E+02 0.  0.
         11    1    3    3    0    0  0.23670264940E+02  0.24936877981E+02 -0.79230143766E+02  0.86368657550E+02  0.00000000000E+00 0. -1.
        -11    1    3    3    0    0 -0.76856199384E+01 -0.24672200778E+02  0.10911216911E+02  0.28050684476E+02  0.00000000000E+00 0.  1.
         22    1    1    2    0    0 -0.15984645001E+02 -0.26467720305E+00 -0.98917670554E+01  0.18799627266E+02  0.00000000000E+00 0.  1.
<mgrwt>
<rscale>  0 0.59294718E+02</rscale>
<asrwt>0</asrwt>
<pdfrwt beam="1">  1        1 0.16263820E-01 0.91784040E+02</pdfrwt>
<pdfrwt beam="2">  1       -1 0.42314058E-02 0.91784040E+02</pdfrwt>
<totfact> 0.64903243E+04</totfact>
</mgrwt>
</event>
<event>
 6    1  0.1727544E-002  0.9125866E+02  0.7546771E-02  0.1421104E+00
          2   -1    0    0  501    0  0.00000000000E+00  0.00000000000E+00  0.13611644469E+03  0.13611644469E+03  0.00000000000E+00 0. -1.
         -2   -1    0    0    0  501 -0.00000000000E+00 -0.00000000000E+00 -0.29099563555E+02  0.29099563555E+02  0.00000000000E+00 0.  1.
         23    2    1    2    0    0 -0.11806999814E+02  0.10720357271E+01  0.44399629982E+02  0.10148630836E+03  0.90485297906E+02 0.  0.
         13    1    3    3    0    0 -0.13200679268E+02 -0.42501934226E+02  0.35645226043E+02  0.57019772762E+02  0.00000000000E+00 0. -1.
        -13    1    3    3    0    0  0.13936794535E+01  0.43573969953E+02  0.87544039388E+01  0.44466535600E+02  0.00000000000E+00 0.  1.
         22    1    1    2    0    0  0.11806999814E+02 -0.10720357271E+01  0.62617251150E+02  0.63729699880E+02  0.00000000000E+00 0. -1.
<mgrwt>
<rscale>  0 0.54788092E+02</rscale>
<asrwt>0</asrwt>
<pdfrwt beam="1">  1        2 0.20940991E-01 0.91258663E+02</pdfrwt>
<pdfrwt beam="2">  1       -2 0.44768560E-02 0.91258663E+02</pdfrwt>
<totfact> 0.52818881E+04</totfact>
</mgrwt>
</event>
<event>
 6    1  0.1727544E-002  0.9610737E+02  0.7546771E-02  0.1359582E+00
         -4   -1    0    0    0  501 -0.00000000000E+00  0.00000000000E+00  0.68433622940E+02  0.68433622940E+02  0.00000000000E+00 0.  1.
          4   -1    0    0  501    0  0.00000000000E+00 -0.00000000000E+00 -0.57250014049E+02  0.57250014049E+02  0.00000000000E+00 0. -1.
         23    2    1    2    0    0  0.25594251823E+02  0.94431741321E+01 -0.23999664327E+00  0.96107666550E+02  0.92154146446E+02 0.  0.
         13    1    3    3    0    0  0.35163290564E+02  0.43757769556E+02 -0.14105457449E+02  0.57880595450E+02  0.00000000000E+00 0. -1.
        -13    1    3    3    0    0 -0.95690387406E+01 -0.34314595424E+02  0.13865460806E+02  0.38227071100E+02  0.00000000000E+00 0.  1.
         22    1    1    2    0    0 -0.25594251823E+02 -0.94431741321E+01  0.11423605534E+02  0.29575970440E+02  0.00000000000E+00 0.  1.
<mgrwt>
<rscale>  0 0.70150631E+02</rscale>
<asrwt>0</asrwt>
<pdfrwt beam="1">  1        4 0.88076945E-02 0.96107367E+02</pdfrwt>
<pdfrwt beam="2">  1       -4 0.10528250E-01 0.96107367E+02</pdfrwt>
<totfact> 0.96545563E+03</totfact>
</mgrwt>
</event>
<event>
 6    1  0.1727544E-002  0.9504761E+02  0.7546771E-02  0.1359671E+00
          2   -1    0    0  501    0  0.00000000000E+00  0.00000000000E+00  0.10377666907E+03  0.10377666907E+03  0.00000000000E+00 0. -1.
         -2   -1    0    0    0  501 -0.00000000000E+00 -0.00000000000E+00 -0.97368603348E+02  0.97368603348E+02  0.00000000000E+00 0.  1.
         23    2    1    2    0    0 -0.27410017351E+02  0.64599774842E+01 -0.71088106809E+02  0.11869106017E+03  0.90780000413E+02 0.  0.
         11    1    3    3    0    0 -0.51321736421E+02 -0.79679755346E+01 -0.11954822232E+02  0.53294718669E+02  0.00000000000E+00 0. -1.
        -11    1    3    3    0    0  0.23911719070E+02  0.14427953019E+02 -0.59133284577E+02  0.65396341504E+02  0.00000000000E+00 0.  1.
         22    1    1    2    0    0  0.27410017351E+02 -0.64599774842E+01  0.77496172533E+02  0.82454212249E+02  0.00000000000E+00 0. -1.
<mgrwt>
<rscale>  0 0.70124185E+02</rscale>
<asrwt>0</asrwt>
<pdfrwt beam="1">  1        2 0.15965641E-01 0.95047614E+02</pdfrwt>
<pdfrwt beam="2">  1       -2 0.14979785E-01 0.95047614E+02</pdfrwt>
<totfact> 0.11258470E+04</totfact>
</mgrwt>
</event>
<event>
 6    1  0.1727544E-002  0.8874881E+02  0.7546771E-02  0.1413838E+00
          2   -1    0    0  501    0  0.00000000000E+00  0.00000000000E+00  0.29285349059E+03  0.29285349059E+03  0.00000000000E+00 0. -1.
         -2   -1    0    0    0  501 -0.00000000000E+00 -0.00000000000E+00 -0.91557010505E+01  0.91557010505E+01  0.00000000000E+00 0.  1.
         23    2    1    2    0    0 -0.10476501506E+02  0.99086742026E+01  0.25242474848E+03  0.26757168294E+03  0.87569475041E+02 0.  0.
         11    1    3    3    0    0 -0.33022342436E+02 -0.23131353550E+02  0.18353677980E+03  0.18791296963E+03  0.00000000000E+00 0.  1.
        -11    1    3    3    0    0  0.22545840929E+02  0.33040027753E+02  0.68887968677E+02  0.79658713306E+02  0.00000000000E+00 0. -1.
         22    1    1    2    0    0  0.10476501506E+02 -0.99086742026E+01  0.31273041062E+02  0.34437508701E+02  0.00000000000E+00 0. -1.
<mgrwt>
<rscale>  0 0.56346103E+02</rscale>
<asrwt>0</asrwt>
<pdfrwt beam="1">  1        2 0.45054376E-01 0.88748813E+02</pdfrwt>
<pdfrwt beam="2">  1       -2 0.14085696E-02 0.88748813E+02</pdfrwt>
<totfact> 0.12344497E+05</totfact>
</mgrwt>
</event>
<event>
 6    1  0.1727544E-002  0.9140822E+02  0.7546771E-02  0.1428259E+00
          2   -1    0    0  501    0  0.00000000000E+00  0.00000000000E+00  0.66834839718E+02  0.66834839718E+02  0.00000000000E+00 0.  1.
         -2   -1    0    0    0  501 -0.00000000000E+00 -0.00000000000E+00 -0.39084689055E+02  0.39084689055E+02  0.00000000000E+00 0. -1.
         23    2    1    2    0    0 -0.76343581902E+01 -0.73187265224E+01  0.22621425547E+02  0.94165763239E+02  0.90794354944E+02 0.  0.
         11    1    3    3    0    0 -0.39558771487E+02  0.17671861398E+02  0.30342196089E+02  0.52894611732E+02  0.00000000000E+00 0.  1.
        -11    1    3    3    0    0  0.31924413297E+02 -0.24990587920E+02 -0.77207705419E+01  0.41271151507E+02  0.00000000000E+00 0. -1.
         22    1    1    2    0    0  0.76343581902E+01  0.73187265224E+01  0.51287251165E+01  0.11753765533E+02  0.00000000000E+00 0.  1.
<mgrwt>
<rscale>  0 0.53311028E+02</rscale>
<asrwt>0</asrwt>
<pdfrwt beam="1">  1        2 0.10282283E-01 0.91408217E+02</pdfrwt>
<pdfrwt beam="2">  1       -2 0.60130291E-02 0.91408217E+02</pdfrwt>
<totfact> 0.77692099E+04</totfact>
</mgrwt>
</event>
<event>
 6    1  0.1727544E-002  0.9249959E+02  0.7546771E-02  0.1409140E+00
         -1   -1    0    0    0  501 -0.00000000000E+00  0.00000000000E+00  0.15757043058E+02  0.15757043058E+02  0.00000000000E+00 0.  1.
          1   -1    0    0  501    0  0.00000000000E+00 -0.00000000000E+00 -0.18495862657E+03  0.18495862657E+03  0.00000000000E+00 0. -1.
         23    2    1    2    0    0  0.93687487948E+01 -0.99997777174E+01 -0.13296626549E+03  0.16197593188E+03  0.91478990718E+02 0.  0.
         11    1    3    3    0    0 -0.29776984419E+02 -0.14987942387E+01 -0.11366515179E+03  0.11751034813E+03  0.00000000000E+00 0. -1.
        -11    1    3    3    0    0  0.39145733213E+02 -0.85009834787E+01 -0.19301113702E+02  0.44465583759E+02  0.00000000000E+00 0.  1.
         22    1    1    2    0    0 -0.93687487948E+01  0.99997777174E+01 -0.36235318023E+02  0.38739737746E+02  0.00000000000E+00 0. -1.
<mgrwt>
<rscale>  0 0.57386251E+02</rscale>
<asrwt>0</asrwt>
<pdfrwt beam="1">  1        1 0.28455174E-01 0.92499593E+02</pdfrwt>
<pdfrwt beam="2">  1       -1 0.24241604E-02 0.92499593E+02</pdfrwt>
<totfact> 0.72122209E+04</totfact>
</mgrwt>
</event>
<event>
 6    1  0.1727544E-002  0.7592314E+02  0.7546771E-02  0.1437794E+00
          2   -1    0    0  501    0  0.00000000000E+00  0.00000000000E+00  0.30850339718E+03  0.30850339718E+03  0.00000000000E+00 0. -1.
         -2   -1    0    0    0  501 -0.00000000000E+00 -0.00000000000E+00 -0.71410182697E+01  0.71410182697E+01  0.00000000000E+00 0.  1.
         23    2    1    2    0    0 -0.15953037366E+02 -0.96365462437E+00  0.22014208199E+03  0.23286661249E+03  0.74221930163E+02 0.  0.
         13    1    3    3    0    0  0.26362516635E+02 -0.12996389289E+02  0.60314147147E+02  0.67094595639E+02  0.00000000000E+00 0.  1.
        -13    1    3    3    0    0 -0.42315554001E+02  0.12032734665E+02  0.15982793485E+03  0.16577201685E+03  0.00000000000E+00 0. -1.
         22    1    1    2    0    0  0.15953037366E+02  0.96365462437E+00  0.81220296914E+02  0.82777802956E+02  0.00000000000E+00 0.  1.
<mgrwt>
<rscale>  0 0.51426762E+02</rscale>
<asrwt>0</asrwt>
<pdfrwt beam="1">  1        2 0.47462051E-01 0.75923138E+02</pdfrwt>
<pdfrwt beam="2">  1       -2 0.10986184E-02 0.75923138E+02</pdfrwt>
<totfact> 0.16207999E+05</totfact>
</mgrwt>
</event>
<event>
 6    1  0.1727544E-002  0.9306842E+02  0.7546771E-02  0.1326800E+00
          1   -1    0    0  501    0  0.00000000000E+00  0.00000000000E+00  0.32494086687E+03  0.32494086687E+03  0.00000000000E+00 0. -1.
         -1   -1    0    0    0  501 -0.00000000000E+00 -0.00000000000E+00 -0.16539056452E+02  0.16539056452E+02  0.00000000000E+00 0.  1.
         23    2    1    2    0    0  0.45693243844E+02  0.26596670392E+02  0.18049247375E+03  0.20307452669E+03  0.76592916789E+02 0.  0.
         13    1    3    3    0    0  0.27067272875E+02  0.53721838706E+02  0.11798655476E+03  0.13243677857E+03  0.00000000000E+00 0. -1.
        -13    1    3    3    0    0  0.18625970969E+02 -0.27125168314E+02  0.62505918991E+02  0.70637748120E+02  0.00000000000E+00 0.  1.
         22    1    1    2    0    0 -0.45693243844E+02 -0.26596670392E+02  0.12790933666E+03  0.13840539662E+03  0.00000000000E+00 0.  1.
<mgrwt>
<rscale>  0 0.80798711E+02</rscale>
<asrwt>0</asrwt>
<pdfrwt beam="1">  1        1 0.49990898E-01 0.93068417E+02</pdfrwt>
<pdfrwt beam="2">  1       -1 0.25444705E-02 0.93068417E+02</pdfrwt>
<totfact> 0.33789980E+04</totfact>
</mgrwt>
</event>
<event>
 6    1  0.1727544E-002  0.9068878E+02  0.7546771E-02  0.1410529E+00
         -4   -1    0    0    0  501 -0.00000000000E+00  0.00000000000E+00  0.46870721368E+02  0.46870721368E+02  0.00000000000E+00 0.  1.
          4   -1    0    0  501    0  0.00000000000E+00 -0.00000000000E+00 -0.59729574740E+02  0.59729574740E+02  0.00000000000E+00 0. -1.
         23    2    1    2    0    0  0.10499655899E+02 -0.96020283929E+01 -0.62266822532E+01  0.90902289323E+02  0.89565690468E+02 0.  0.
         11    1    3    3    0    0  0.17616345043E+02  0.26287894615E+02 -0.32880536072E+02  0.45634621378E+02  0.00000000000E+00 0. -1.
        -11    1    3    3    0    0 -0.71166891437E+01 -0.35889923008E+02  0.26653853818E+02  0.45267667946E+02  0.00000000000E+00 0.  1.
         22    1    1    2    0    0 -0.10499655899E+02  0.96020283929E+01 -0.66321711189E+01  0.15698006785E+02  0.00000000000E+00 0. -1.
<mgrwt>
<rscale>  0 0.57075887E+02</rscale>
<asrwt>0</asrwt>
<pdfrwt beam="1">  1        4 0.91891653E-02 0.90688779E+02</pdfrwt>
<pdfrwt beam="2">  1       -4 0.72108802E-02 0.90688779E+02</pdfrwt>
<totfact> 0.16539193E+04</totfact>
</mgrwt>
</event>
<event>
 6    1  0.1727544E-002  0.1235300E+03  0.7546771E-02  0.1256811E+00
          2   -1    0    0  501    0  0.00000000000E+00  0.00000000000E+00  0.49882699293E+03  0.49882699293E+03  0.00000000000E+00 0. -1.
         -2   -1    0    0    0  501 -0.00000000000E+00 -0.00000000000E+00 -0.26719896635E+02  0.26719896635E+02  0.00000000000E+00 0.  1.
         23    2    1    2    0    0  0.63361414715E+01  0.83398561303E+02  0.38693197184E+03  0.40617240091E+03  0.90907654853E+02 0.  0.
         11    1    3    3    0    0  0.27458020741E+02  0.72106528746E+02  0.36696939649E+03  0.37499310974E+03  0.00000000000E+00 0. -1.
        -11    1    3    3    0    0 -0.21121879270E+02  0.11292032557E+02  0.19962575347E+02  0.31179291167E+02  0.00000000000E+00 0.  1.
         22    1    1    2    0    0 -0.63361414715E+01 -0.83398561303E+02  0.85175124450E+02  0.11937448865E+03  0.00000000000E+00 0.  1.
<mgrwt>
<rscale>  0 0.11205507E+03</rscale>
<asrwt>0</asrwt>
<pdfrwt beam="1">  1        2 0.76742607E-01 0.12353003E+03</pdfrwt>
<pdfrwt beam="2">  1       -2 0.41107537E-02 0.12353003E+03</pdfrwt>
<totfact> 0.15434178E+04</totfact>
</mgrwt>
</event>
<event>
 6    1  0.1727544E-002  0.8793143E+02  0.7546771E-02  0.1406756E+00
         -2   -1    0    0    0  501 -0.00000000000E+00  0.00000000000E+00  0.99993262797E+02  0.99993262797E+02  0.00000000000E+00 0.  1.
          2   -1    0    0  501    0  0.00000000000E+00 -0.00000000000E+00 -0.45888069583E+02  0.45888069583E+02  0.00000000000E+00 0. -1.
         23    2    1    2    0    0 -0.88204286028E+01  0.14012854351E+02  0.77506702510E+02  0.11721444059E+03  0.86358416498E+02 0.  0.
         11    1    3    3    0    0  0.27540737459E+02 -0.97653283136E+01  0.66138453758E+02  0.72305939744E+02  0.00000000000E+00 0.  1.
        -11    1    3    3    0    0 -0.36361166061E+02  0.23778182664E+02  0.11368248753E+02  0.44908500842E+02  0.00000000000E+00 0. -1.
         22    1    1    2    0    0  0.88204286028E+01 -0.14012854351E+02 -0.23401509296E+02  0.28666891794E+02  0.00000000000E+00 0. -1.
<mgrwt>
<rscale>  0 0.57924010E+02</rscale>
<asrwt>0</asrwt>
<pdfrwt beam="1">  1        2 0.70597030E-02 0.87931429E+02</pdfrwt>
<pdfrwt beam="2">  1       -2 0.15383579E-01 0.87931429E+02</pdfrwt>
<totfact> 0.28536657E+04</totfact>
</mgrwt>
</event>
<event>
 6    1  0.1727544E-002  0.9375202E+02  0.7546771E-02  0.1354312E+00
          2   -1    0    0  501    0  0.00000000000E+00  0.00000000000E+00  0.56005305133E+03  0.56005305133E+03  0.00000000000E+00 0. -1.
         -2   -1    0    0    0  501 -0.00000000000E+00 -0.00000000000E+00 -0.70729302413E+01  0.70729302413E+01  0.00000000000E+00 0.  1.
         23    2    1    2    0    0  0.21481178638E+02  0.23884966556E+02  0.41105906999E+03  0.42161475380E+03  0.88076721875E+02 0.  0.
         13    1    3    3    0    0 -0.14558570260E+02 -0.26514601491E+02  0.17301042287E+03  0.17563479861E+03  0.00000000000E+00 0. -1.
        -13    1    3    3    0    0  0.36039748898E+02  0.50399568047E+02  0.23804864713E+03  0.24597995520E+03  0.00000000000E+00 0.  1.
         22    1    1    2    0    0 -0.21481178638E+02 -0.23884966556E+02  0.14192105109E+03  0.14551122777E+03  0.00000000000E+00 0. -1.
<mgrwt>
<rscale>  0 0.71728525E+02</rscale>
<asrwt>0</asrwt>
<pdfrwt beam="1">  1        2 0.86161973E-01 0.93752022E+02</pdfrwt>
<pdfrwt beam="2">  1       -2 0.10881436E-02 0.93752022E+02</pdfrwt>
<totfact> 0.90257601E+04</totfact>
</mgrwt>
</event>
<event>
 6    1  0.1727544E-002  0.9287970E+02  0.7546771E-02  0.1398440E+00
          4   -1    0    0  501    0  0.00000000000E+00  0.00000000000E+00  0.31909898732E+02  0.31909898732E+02  0.00000000000E+00 0. -1.
         -4   -1    0    0    0  501 -0.00000000000E+00 -0.00000000000E+00 -0.98994710702E+02  0.98994710702E+02  0.00000000000E+00 0.  1.
         23    2    1    2    0    0  0.14215611476E+02 -0.73848475553E+01 -0.43920422333E+02  0.10274065143E+03  0.91487804521E+02 0.  0.
         11    1    3    3    0    0 -0.26657189700E+02 -0.12384849244E+02  0.13284826355E+02  0.32256423621E+02  0.00000000000E+00 0. -1.
        -11    1    3    3    0    0  0.40872801176E+02  0.50000016885E+01 -0.57205248689E+02  0.70484227813E+02  0.00000000000E+00 0.  1.
         22    1    1    2    0    0 -0.14215611476E+02  0.73848475553E+01 -0.23164389636E+02  0.28163958001E+02  0.00000000000E+00 0. -1.
<mgrwt>
<rscale>  0 0.59855190E+02</rscale>
<asrwt>0</asrwt>
<pdfrwt beam="1">  1        4 0.49092153E-02 0.92879696E+02</pdfrwt>
<pdfrwt beam="2">  1       -4 0.15229955E-01 0.92879696E+02</pdfrwt>
<totfact> 0.13145611E+04</totfact>
</mgrwt>
</event>
<event>
 6    1  0.1727544E-002  0.1070663E+03  0.7546771E-02  0.1322726E+00
          1   -1    0    0  501    0  0.00000000000E+00  0.00000000000E+00  0.15022774623E+03  0.15022774623E+03  0.00000000000E+00 0. -1.
         -1   -1    0    0    0  501 -0.00000000000E+00 -0.00000000000E+00 -0.37373860698E+02  0.37373860698E+02  0.00000000000E+00 0.  1.
         23    2    1    2    0    0 -0.36991891676E+02  0.50034079300E+01  0.10394645521E+03  0.14922483719E+03  0.10034815565E+03 0.  0.
         11    1    3    3    0    0  0.22244389130E+02  0.34249373393E+02  0.35728591290E+02  0.54262000158E+02  0.00000000000E+00 0. -1.
        -11    1    3    3    0    0 -0.59236280806E+02 -0.29245965463E+02  0.68217863921E+02  0.94962837034E+02  0.00000000000E+00 0.  1.
         22    1    1    2    0    0  0.36991891676E+02 -0.50034079300E+01  0.89074303250E+01  0.38376769740E+02  0.00000000000E+00 0.  1.
<mgrwt>
<rscale>  0 0.82271670E+02</rscale>
<asrwt>0</asrwt>
<pdfrwt beam="1">  1        1 0.23111961E-01 0.10706627E+03</pdfrwt>
<pdfrwt beam="2">  1       -1 0.57498248E-02 0.10706627E+03</pdfrwt>
<totfact> 0.27108475E+04</totfact>
</mgrwt>
</event>
<event>
 6    1  0.1727544E-002  0.9481554E+02  0.7546771E-02  0.1363148E+00
         -2   -1    0    0    0  501 -0.00000000000E+00  0.00000000000E+00  0.11250554380E+04  0.11250554380E+04  0.00000000000E+00 0.  1.
          2   -1    0    0  501    0  0.00000000000E+00 -0.00000000000E+00 -0.35146799076E+01  0.35146799076E+01  0.00000000000E+00 0. -1.
         23    2    1    2    0    0 -0.62036330299E+01 -0.26032329020E+02  0.97555187750E+03  0.98014868928E+03  0.90960542003E+02 0.  0.
         13    1    3    3    0    0  0.10718479574E+02  0.32035461957E+02  0.30057178144E+03  0.30246413411E+03  0.00000000000E+00 0. -1.
        -13    1    3    3    0    0 -0.16922112604E+02 -0.58067790977E+02  0.67498009606E+03  0.67768455517E+03  0.00000000000E+00 0.  1.
         22    1    1    2    0    0  0.62036330299E+01  0.26032329020E+02  0.14598888059E+03  0.14842142862E+03  0.00000000000E+00 0. -1.
<mgrwt>
<rscale>  0 0.69109295E+02</rscale>
<asrwt>0</asrwt>
<pdfrwt beam="1">  1        2 0.54072088E-03 0.94815544E+02</pdfrwt>
<pdfrwt beam="2">  1       -2 0.17308517E+00 0.94815544E+02</pdfrwt>
<totfact> 0.66995557E+03</totfact>
</mgrwt>
</event>
<event>
 6    1  0.1727544E-002  0.9578133E+02  0.7546771E-02  0.1356415E+00
          1   -1    0    0  501    0  0.00000000000E+00  0.00000000000E+00  0.49271953468E+02  0.49271953468E+02  0.00000000000E+00 0. -1.
         -1   -1    0    0    0  501 -0.00000000000E+00 -0.00000000000E+00 -0.85799545342E+02  0.85799545342E+02  0.00000000000E+00 0.  1.
         23    2    1    2    0    0  0.26846509060E+02  0.11153607294E+02 -0.43467898190E+02  0.10518327611E+03  0.91262946456E+02 0.  0.
         13    1    3    3    0    0  0.11579389868E+02 -0.82408948627E+01  0.27002975695E+02  0.30514837608E+02  0.00000000000E+00 0. -1.
        -13    1    3    3    0    0  0.15267119192E+02  0.19394502157E+02 -0.70470873885E+02  0.74668438503E+02  0.00000000000E+00 0.  1.
         22    1    1    2    0    0 -0.26846509060E+02 -0.11153607294E+02  0.69403063164E+01  0.29888222700E+02  0.00000000000E+00 0. -1.
<mgrwt>
<rscale>  0 0.71092961E+02</rscale>
<asrwt>0</asrwt>
<pdfrwt beam="1">  1        1 0.75803006E-02 0.95781331E+02</pdfrwt>
<pdfrwt beam="2">  1       -1 0.13199930E-01 0.95781331E+02</pdfrwt>
<totfact> 0.32341282E+04</totfact>
</mgrwt>
</event>
<event>
 6    1  0.1727544E-002  0.9592529E+02  0.7546771E-02  0.1402228E+00
          1   -1    0    0  501    0  0.00000000000E+00  0.00000000000E+00  0.57216527600E+01  0.57216527600E+01  0.00000000000E+00 0. -1.
         -1   -1    0    0    0  501 -0.00000000000E+00 -0.00000000000E+00 -0.53065373678E+03  0.53065373678E+03  0.00000000000E+00 0.  1.
         23    2    1    2    0    0  0.11571715476E+02 -0.73250130243E+01 -0.47561660534E+03  0.48519358758E+03  0.94942623383E+02 0.  0.
         11    1    3    3    0    0  0.21434225567E+02  0.41127779744E+02 -0.21908994639E+03  0.22394491488E+03  0.00000000000E+00 0. -1.
        -11    1    3    3    0    0 -0.98625100912E+01 -0.48452792768E+02 -0.25652665895E+03  0.26124867269E+03  0.00000000000E+00 0.  1.
         22    1    1    2    0    0 -0.11571715476E+02  0.73250130243E+01 -0.49315478683E+02  0.51181801967E+02  0.00000000000E+00 0. -1.
<mgrwt>
<rscale>  0 0.58964756E+02</rscale>
<asrwt>0</asrwt>
<pdfrwt beam="1">  1        1 0.88025377E-03 0.95925295E+02</pdfrwt>
<pdfrwt beam="2">  1       -1 0.81639083E-01 0.95925295E+02</pdfrwt>
<totfact> 0.26964025E+04</totfact>
</mgrwt>
</event>
<event>
 6    1  0.1727544E-002  0.9242446E+02  0.7546771E-02  0.1413426E+00
          2   -1    0    0  501    0  0.00000000000E+00  0.00000000000E+00  0.30392670730E+02  0.30392670730E+02  0.00000000000E+00 0. -1.
         -2   -1    0    0    0  501 -0.00000000000E+00 -0.00000000000E+00 -0.98056654809E+02  0.98056654809E+02  0.00000000000E+00 0.  1.
         23    2    1    2    0    0  0.12186978927E+02  0.40719063012E+01 -0.69267980093E+02  0.11550036112E+03  0.91526922140E+02 0.  0.
         13    1    3    3    0    0  0.11877364099E+02 -0.32628654123E+02 -0.70704144811E+02  0.78770406507E+02  0.00000000000E+00 0.  1.
        -13    1    3    3    0    0  0.30961482825E+00  0.36700560424E+02  0.14361647173E+01  0.36729954613E+02  0.00000000000E+00 0. -1.
         22    1    1    2    0    0 -0.12186978927E+02 -0.40719063012E+01  0.16039960138E+01  0.12948964419E+02  0.00000000000E+00 0.  1.
<mgrwt>
<rscale>  0 0.56436427E+02</rscale>
<asrwt>0</asrwt>
<pdfrwt beam="1">  1        2 0.46757955E-02 0.92424458E+02</pdfrwt>
<pdfrwt beam="2">  1       -2 0.15085639E-01 0.92424458E+02</pdfrwt>
<totfact> 0.50161560E+04</totfact>
</mgrwt>
</event>
<event>
 6    1  0.1727544E-002  0.8125866E+02  0.7546771E-02  0.1441931E+00
          1   -1    0    0  501    0  0.00000000000E+00  0.00000000000E+00  0.62874475874E+02  0.62874475874E+02  0.00000000000E+00 0. -1.
         -1   -1    0    0    0  501 -0.00000000000E+00 -0.00000000000E+00 -0.36983060168E+02  0.36983060168E+02  0.00000000000E+00 0.  1.
         23    2    1    2    0    0  0.60424666555E+01  0.10661188337E+02  0.13395240997E+02  0.82355344110E+02  0.80329308986E+02 0.  0.
         13    1    3    3    0    0  0.26823879555E+02 -0.26108404626E+02 -0.17838319461E+01  0.37474676288E+02  0.00000000000E+00 0.  1.
        -13    1    3    3    0    0 -0.20781412900E+02  0.36769592963E+02  0.15179072944E+02  0.44880667822E+02  0.00000000000E+00 0. -1.
         22    1    1    2    0    0 -0.60424666555E+01 -0.10661188337E+02  0.12496174709E+02  0.17502191931E+02  0.00000000000E+00 0. -1.
<mgrwt>
<rscale>  0 0.50637936E+02</rscale>
<asrwt>0</asrwt>
<pdfrwt beam="1">  1        1 0.96729963E-02 0.81258662E+02</pdfrwt>
<pdfrwt beam="2">  1       -1 0.56897016E-02 0.81258662E+02</pdfrwt>
<totfact> 0.80821638E+04</totfact>
</mgrwt>
</event>
<event>
 6    1  0.1727544E-002  0.9414670E+02  0.7546771E-02  0.1373037E+00
          2   -1    0    0  501    0  0.00000000000E+00  0.00000000000E+00  0.16655613891E+03  0.16655613891E+03  0.00000000000E+00 0. -1.
         -2   -1    0    0    0  501 -0.00000000000E+00 -0.00000000000E+00 -0.22464570992E+02  0.22464570992E+02  0.00000000000E+00 0.  1.
         23    2    1    2    0    0  0.17545600604E+02  0.15173487454E+02  0.90349401141E+02  0.13048607646E+03  0.91244282241E+02 0.  0.
         11    1    3    3    0    0 -0.24712084755E+02  0.21888317920E+02  0.29111018092E+01  0.33140007665E+02  0.00000000000E+00 0.  1.
        -11    1    3    3    0    0  0.42257685358E+02 -0.67148304665E+01  0.87438299331E+02  0.97346068796E+02  0.00000000000E+00 0. -1.
         22    1    1    2    0    0 -0.17545600604E+02 -0.15173487454E+02  0.53742166773E+02  0.58534633436E+02  0.00000000000E+00 0. -1.
<mgrwt>
<rscale>  0 0.66329998E+02</rscale>
<asrwt>0</asrwt>
<pdfrwt beam="1">  1        2 0.25624021E-01 0.94146704E+02</pdfrwt>
<pdfrwt beam="2">  1       -2 0.34560880E-02 0.94146704E+02</pdfrwt>
<totfact> 0.62161660E+04</totfact>
</mgrwt>
</event>
<event>
 6    1  0.1727544E-002  0.9243783E+02  0.7546771E-02  0.1367949E+00
         -2   -1    0    0    0  501 -0.00000000000E+00  0.00000000000E+00  0.90351666158E+01  0.90351666158E+01  0.00000000000E+00 0.  1.
          2   -1    0    0  501    0  0.00000000000E+00 -0.00000000000E+00 -0.39429696328E+03  0.39429696328E+03  0.00000000000E+00 0. -1.
         23    2    1    2    0    0 -0.14296636744E+02  0.22501400037E+02 -0.28707038034E+03  0.30158606822E+03  0.88510148869E+02 0.  0.
         11    1    3    3    0    0  0.13216022566E+02  0.30396253900E+02 -0.36175887867E+02  0.49064145428E+02  0.00000000000E+00 0.  1.
        -11    1    3    3    0    0 -0.27512659310E+02 -0.78948538628E+01 -0.25089449247E+03  0.25252192280E+03  0.00000000000E+00 0. -1.
         22    1    1    2    0    0  0.14296636744E+02 -0.22501400037E+02 -0.98191416322E+02  0.10174606167E+03  0.00000000000E+00 0. -1.
<mgrwt>
<rscale>  0 0.67740537E+02</rscale>
<asrwt>0</asrwt>
<pdfrwt beam="1">  1        2 0.60661067E-01 0.92437835E+02</pdfrwt>
<pdfrwt beam="2">  1       -2 0.13900257E-02 0.92437835E+02</pdfrwt>
<totfact> 0.92712046E+04</totfact>
</mgrwt>
</event>
<event>
 6    1  0.1727544E-002  0.9237188E+02  0.7546771E-02  0.1426167E+00
         -2   -1    0    0    0  501 -0.00000000000E+00  0.00000000000E+00  0.27270148503E+02  0.27270148503E+02  0.00000000000E+00 0.  1.
          2   -1    0    0  501    0  0.00000000000E+00 -0.00000000000E+00 -0.10025931178E+03  0.10025931178E+03  0.00000000000E+00 0. -1.
         23    2    1    2    0    0  0.10109168064E+02  0.31208627635E+01 -0.57616593196E+02  0.10886797657E+03  0.91763987753E+02 0.  0.
         13    1    3    3    0    0  0.10940470141E+02 -0.26170278377E+02 -0.71146383819E+02  0.76592331781E+02  0.00000000000E+00 0. -1.
        -13    1    3    3    0    0 -0.83130207619E+00  0.29291141141E+02  0.13529790622E+02  0.32275644792E+02  0.00000000000E+00 0.  1.
         22    1    1    2    0    0 -0.10109168064E+02 -0.31208627635E+01 -0.15372570077E+02  0.18661483706E+02  0.00000000000E+00 0.  1.
<mgrwt>
<rscale>  0 0.53737271E+02</rscale>
<asrwt>0</asrwt>
<pdfrwt beam="1">  1        2 0.15424510E-01 0.92371882E+02</pdfrwt>
<pdfrwt beam="2">  1       -2 0.41954074E-02 0.92371882E+02</pdfrwt>
<totfact> 0.82308702E+04</totfact>
</mgrwt>
</event>
<event>
 6    1  0.1727544E-002  0.1001643E+03  0.7546771E-02  0.1346773E+00
         -2   -1    0    0    0  501 -0.00000000000E+00  0.00000000000E+00  0.27298455281E+02  0.27298455281E+02  0.00000000000E+00 0. -1.
          2   -1    0    0  501    0  0.00000000000E+00 -0.00000000000E+00 -0.16308475530E+03  0.16308475530E+03  0.00000000000E+00 0.  1.
         23    2    1    2    0    0  0.27591900209E+02  0.11657307792E+02 -0.84756456170E+02  0.13121184297E+03  0.95580777828E+02 0.  0.
         11    1    3    3    0    0  0.52154048074E+01  0.32859202894E+02  0.73596494231E+01  0.34074801566E+02  0.00000000000E+00 0. -1.
        -11    1    3    3    0    0  0.22376495401E+02 -0.21201895102E+02 -0.92116105593E+02  0.97137041400E+02  0.00000000000E+00 0.  1.
         22    1    1    2    0    0 -0.27591900209E+02 -0.11657307792E+02 -0.51029843851E+02  0.59171367616E+02  0.00000000000E+00 0.  1.
<mgrwt>
<rscale>  0 0.74070673E+02</rscale>
<asrwt>0</asrwt>
<pdfrwt beam="1">  1        2 0.25089961E-01 0.10016432E+03</pdfrwt>
<pdfrwt beam="2">  1       -2 0.41997625E-02 0.10016432E+03</pdfrwt>
<totfact> 0.48158528E+04</totfact>
</mgrwt>
</event>
<event>
 6    1  0.1727544E-002  0.9434053E+02  0.7546771E-02  0.1410607E+00
         -2   -1    0    0    0  501 -0.00000000000E+00  0.00000000000E+00  0.21821626941E+02  0.21821626941E+02  0.00000000000E+00 0.  1.
          2   -1    0    0  501    0  0.00000000000E+00 -0.00000000000E+00 -0.16125217238E+03  0.16125217238E+03  0.00000000000E+00 0. -1.
         23    2    1    2    0    0 -0.70580279059E+00 -0.12603995872E+02 -0.84302787287E+02  0.12651914798E+03  0.93492117269E+02 0.  0.
         11    1    3    3    0    0 -0.62936059413E+01  0.17564515045E+02  0.14136905581E+02  0.23408839440E+02  0.00000000000E+00 0.  1.
        -11    1    3    3    0    0  0.55878031507E+01 -0.30168510917E+02 -0.98439692868E+02  0.10311030854E+03  0.00000000000E+00 0. -1.
         22    1    1    2    0    0  0.70580279059E+00  0.12603995872E+02 -0.55127758147E+02  0.56554651337E+02  0.00000000000E+00 0. -1.
<mgrwt>
<rscale>  0 0.57058553E+02</rscale>
<asrwt>0</asrwt>
<pdfrwt beam="1">  1        2 0.24808026E-01 0.94340526E+02</pdfrwt>
<pdfrwt beam="2">  1       -2 0.33571734E-02 0.94340526E+02</pdfrwt>
<totfact> 0.67205216E+04</totfact>
</mgrwt>
</event>
<event>
 6    1  0.1727544E-002  0.9063458E+02  0.7546771E-02  0.1419675E+00
          2   -1    0    0  501    0  0.00000000000E+00  0.00000000000E+00  0.29762383007E+03  0.29762383007E+03  0.00000000000E+00 0. -1.
         -2   -1    0    0    0  501 -0.00000000000E+00 -0.00000000000E+00 -0.89411803538E+01  0.89411803538E+01  0.00000000000E+00 0.  1.
         23    2    1    2    0    0  0.52665077301E+01  0.11193979820E+02  0.24799007881E+03  0.26403353250E+03  0.89786334180E+02 0.  0.
         11    1    3    3    0    0 -0.26589605768E+02 -0.24129098872E+02  0.16031392901E+03  0.16428565483E+03  0.00000000000E+00 0. -1.
        -11    1    3    3    0    0  0.31856113498E+02  0.35323078692E+02  0.87676149798E+02  0.99747877666E+02  0.00000000000E+00 0.  1.
         22    1    1    2    0    0 -0.52665077301E+01 -0.11193979820E+02  0.40692570908E+02  0.42531477931E+02  0.00000000000E+00 0.  1.
<mgrwt>
<rscale>  0 0.55089841E+02</rscale>
<asrwt>0</asrwt>
<pdfrwt beam="1">  1        2 0.45788274E-01 0.90634580E+02</pdfrwt>
<pdfrwt beam="2">  1       -2 0.13755664E-02 0.90634580E+02</pdfrwt>
<totfact> 0.12596609E+05</totfact>
</mgrwt>
</event>
<event>
 6    1  0.1727544E-002  0.9237771E+02  0.7546771E-02  0.1412128E+00
          4   -1    0    0  501    0  0.00000000000E+00  0.00000000000E+00  0.20580945245E+02  0.20580945245E+02  0.00000000000E+00 0. -1.
         -4   -1    0    0    0  501 -0.00000000000E+00 -0.00000000000E+00 -0.15479919040E+03  0.15479919040E+03  0.00000000000E+00 0.  1.
         23    2    1    2    0    0 -0.11492140056E+02 -0.63523766749E+01 -0.13334848739E+03  0.16222040726E+03  0.91439704011E+02 0.  0.
         13    1    3    3    0    0  0.10318154142E+02  0.39827488495E+02 -0.54715633735E+02  0.68457970462E+02  0.00000000000E+00 0. -1.
        -13    1    3    3    0    0 -0.21810294198E+02 -0.46179865170E+02 -0.78632853658E+02  0.93762436799E+02  0.00000000000E+00 0.  1.
         22    1    1    2    0    0  0.11492140056E+02  0.63523766749E+01 -0.86975775852E+00  0.13159728381E+02  0.00000000000E+00 0. -1.
<mgrwt>
<rscale>  0 0.56721731E+02</rscale>
<asrwt>0</asrwt>
<pdfrwt beam="1">  1        4 0.31662991E-02 0.92377711E+02</pdfrwt>
<pdfrwt beam="2">  1       -4 0.23815261E-01 0.92377711E+02</pdfrwt>
<totfact> 0.11837657E+04</totfact>
</mgrwt>
</event>
<event>
 6    1  0.1727544E-002  0.9201553E+02  0.7546771E-02  0.1394514E+00
         -2   -1    0    0    0  501 -0.00000000000E+00  0.00000000000E+00  0.95714917666E+02  0.95714917666E+02  0.00000000000E+00 0. -1.
          2   -1    0    0  501    0  0.00000000000E+00 -0.00000000000E+00 -0.37491717438E+02  0.37491717438E+02  0.00000000000E+00 0.  1.
         23    2    1    2    0    0 -0.16842467564E+02 -0.48884608059E+01  0.66778530663E+02  0.11369357687E+03  0.90328796637E+02 0.  0.
         11    1    3    3    0    0  0.36681660729E+02  0.53545278293E+01  0.32608962817E+02  0.49371648323E+02  0.00000000000E+00 0. -1.
        -11    1    3    3    0    0 -0.53524128292E+02 -0.10242988635E+02  0.34169567846E+02  0.64321928550E+02  0.00000000000E+00 0.  1.
         22    1    1    2    0    0  0.16842467564E+02  0.48884608059E+01 -0.85553304353E+01  0.19513058231E+02  0.00000000000E+00 0.  1.
<mgrwt>
<rscale>  0 0.60797831E+02</rscale>
<asrwt>0</asrwt>
<pdfrwt beam="1">  1        2 0.57679566E-02 0.92015527E+02</pdfrwt>
<pdfrwt beam="2">  1       -2 0.14725372E-01 0.92015527E+02</pdfrwt>
<totfact> 0.39791589E+04</totfact>
</mgrwt>
</event>
<event>
 6    1  0.1727544E-002  0.1322275E+03  0.7546771E-02  0.1239521E+00
          2   -1    0    0  501    0  0.00000000000E+00  0.00000000000E+00  0.66818419325E+02  0.66818419325E+02  0.00000000000E+00 0.  1.
         -2   -1    0    0    0  501 -0.00000000000E+00 -0.00000000000E+00 -0.37873173138E+03  0.37873173138E+03  0.00000000000E+00 0. -1.
         23    2    1    2    0    0  0.74751798580E+02 -0.60924204528E+02 -0.32248232311E+03  0.34853832626E+03  0.90468370530E+02 0.  0.
         13    1    3    3    0    0  0.66551371005E+02 -0.31223293388E+02 -0.30366122083E+03  0.31243257844E+03  0.00000000000E+00 0. -1.
        -13    1    3    3    0    0  0.82004275751E+01 -0.29700911140E+02 -0.18821102280E+02  0.36105747825E+02  0.00000000000E+00 0.  1.
         22    1    1    2    0    0 -0.74751798580E+02  0.60924204528E+02  0.10569011050E+02  0.97011824449E+02  0.00000000000E+00 0.  1.
<mgrwt>
<rscale>  0 0.12219385E+03</rscale>
<asrwt>0</asrwt>
<pdfrwt beam="1">  1        2 0.10279757E-01 0.13222752E+03</pdfrwt>
<pdfrwt beam="2">  1       -2 0.58266421E-01 0.13222752E+03</pdfrwt>
<totfact> 0.16838807E+03</totfact>
</mgrwt>
</event>
<event>
 6    1  0.1727544E-002  0.9348422E+02  0.7546771E-02  0.1401961E+00
          1   -1    0    0  501    0  0.00000000000E+00  0.00000000000E+00  0.12926366886E+03  0.12926366886E+03  0.00000000000E+00 0. -1.
         -1   -1    0    0    0  501 -0.00000000000E+00 -0.00000000000E+00 -0.27076063596E+02  0.27076063596E+02  0.00000000000E+00 0.  1.
         23    2    1    2    0    0 -0.14605180796E+02 -0.27345870276E+01  0.58704793746E+02  0.11038819092E+03  0.92295777873E+02 0.  0.
         11    1    3    3    0    0  0.17376915434E+02  0.29482286694E+00  0.73134427699E+02  0.75171062420E+02  0.00000000000E+00 0. -1.
        -11    1    3    3    0    0 -0.31982096230E+02 -0.30294098946E+01 -0.14429633954E+02  0.35217128497E+02  0.00000000000E+00 0.  1.
         22    1    1    2    0    0  0.14605180796E+02  0.27345870276E+01  0.43482811522E+02  0.45951541543E+02  0.00000000000E+00 0. -1.
<mgrwt>
<rscale>  0 0.59027037E+02</rscale>
<asrwt>0</asrwt>
<pdfrwt beam="1">  1        1 0.19886718E-01 0.93484223E+02</pdfrwt>
<pdfrwt beam="2">  1       -1 0.41655483E-02 0.93484223E+02</pdfrwt>
<totfact> 0.51620287E+04</totfact>
</mgrwt>
</event>
<event>
 6    1  0.1727544E-002  0.8497650E+02  0.7546771E-02  0.1433581E+00
          2   -1    0    0  501    0  0.00000000000E+00  0.00000000000E+00  0.13128912150E+02  0.13128912150E+02  0.00000000000E+00 0. -1.
         -2   -1    0    0    0  501 -0.00000000000E+00 -0.00000000000E+00 -0.17983199855E+03  0.17983199855E+03  0.00000000000E+00 0.  1.
         23    2    1    2    0    0 -0.10527793361E+02 -0.60540480394E+01 -0.14354985561E+03  0.16681596804E+03  0.84104222346E+02 0.  0.
         13    1    3    3    0    0 -0.31018809705E+02 -0.31987978618E+02 -0.11430662050E+03  0.12268415065E+03  0.00000000000E+00 0.  1.
        -13    1    3    3    0    0  0.20491016344E+02  0.25933930579E+02 -0.29243235114E+02  0.44131817389E+02  0.00000000000E+00 0. -1.
         22    1    1    2    0    0  0.10527793361E+02  0.60540480394E+01 -0.23153230793E+02  0.26144942663E+02  0.00000000000E+00 0. -1.
<mgrwt>
<rscale>  0 0.52247795E+02</rscale>
<asrwt>0</asrwt>
<pdfrwt beam="1">  1        2 0.20198327E-02 0.84976504E+02</pdfrwt>
<pdfrwt beam="2">  1       -2 0.27666460E-01 0.84976504E+02</pdfrwt>
<totfact> 0.54241434E+04</totfact>
</mgrwt>
</event>
<event>
 6    1  0.1727544E-002  0.8719020E+02  0.7546771E-02  0.1378796E+00
          2   -1    0    0  501    0  0.00000000000E+00  0.00000000000E+00  0.72361933237E+01  0.72361933237E+01  0.00000000000E+00 0. -1.
         -2   -1    0    0    0  501 -0.00000000000E+00 -0.00000000000E+00 -0.10037735959E+04  0.10037735959E+04  0.00000000000E+00 0.  1.
         23    2    1    2    0    0 -0.22421609858E+02 -0.14256849831E+02 -0.96837204134E+03  0.97228933044E+03  0.83043032680E+02 0.  0.
         13    1    3    3    0    0 -0.19789612511E+01 -0.89124373534E+00  0.11523519164E+01  0.24573396119E+01  0.00000000000E+00 0. -1.
        -13    1    3    3    0    0 -0.20442648607E+02 -0.13365606096E+02 -0.96952439326E+03  0.96983199083E+03  0.00000000000E+00 0.  1.
         22    1    1    2    0    0  0.22421609858E+02  0.14256849831E+02 -0.28165361268E+02  0.38720458818E+02  0.00000000000E+00 0. -1.
<mgrwt>
<rscale>  0 0.64781397E+02</rscale>
<asrwt>0</asrwt>
<pdfrwt beam="1">  1        2 0.11132608E-02 0.87190204E+02</pdfrwt>
<pdfrwt beam="2">  1       -2 0.15442667E+00 0.87190204E+02</pdfrwt>
<totfact> 0.33139179E+03</totfact>
</mgrwt>
</event>
<event>
 6    1  0.1727544E-002  0.1603229E+03  0.7546771E-02  0.1197449E+00
          1   -1    0    0  501    0  0.00000000000E+00  0.00000000000E+00  0.91102202655E+03  0.91102202655E+03  0.00000000000E+00 0. -1.
         -1   -1    0    0    0  501 -0.00000000000E+00 -0.00000000000E+00 -0.43853219779E+02  0.43853219779E+02  0.00000000000E+00 0.  1.
         23    2    1    2    0    0  0.86879249058E+02  0.98321501845E+02  0.13080619389E+03  0.20691467297E+03  0.92131969966E+02 0.  0.
         11    1    3    3    0    0  0.39129377435E+02  0.94546864334E+02  0.52213089992E+02  0.11487569151E+03  0.00000000000E+00 0.  1.
        -11    1    3    3    0    0  0.47749871623E+02  0.37746375115E+01  0.78593103895E+02  0.92038981460E+02  0.00000000000E+00 0. -1.
         22    1    1    2    0    0 -0.86879249058E+02 -0.98321501845E+02  0.73636261288E+03  0.74796057335E+03  0.00000000000E+00 0. -1.
<mgrwt>
<rscale>  0 0.15248789E+03</rscale>
<asrwt>0</asrwt>
<pdfrwt beam="1">  1        1 0.14015722E+00 0.16032287E+03</pdfrwt>
<pdfrwt beam="2">  1       -1 0.67466499E-02 0.16032287E+03</pdfrwt>
<totfact> 0.20770401E+03</totfact>
</mgrwt>
</event>
<event>
 6    1  0.1727544E-002  0.9414077E+02  0.7546771E-02  0.1388099E+00
         -2   -1    0    0    0  501 -0.00000000000E+00  0.00000000000E+00  0.25520808466E+02  0.25520808466E+02  0.00000000000E+00 0.  1.
          2   -1    0    0  501    0  0.00000000000E+00 -0.00000000000E+00 -0.12360259980E+03  0.12360259980E+03  0.00000000000E+00 0. -1.
         23    2    1    2    0    0  0.13742155339E+02  0.11857989399E+02 -0.83615219719E+02  0.12591262542E+03  0.92374376999E+02 0.  0.
         13    1    3    3    0    0 -0.26398278766E+02 -0.94613683066E+01  0.28929626857E+01  0.28191414387E+02  0.00000000000E+00 0. -1.
        -13    1    3    3    0    0  0.40140434105E+02  0.21319357705E+02 -0.86508182405E+02  0.97721211035E+02  0.00000000000E+00 0.  1.
         22    1    1    2    0    0 -0.13742155339E+02 -0.11857989399E+02 -0.14466571616E+02  0.23210782845E+02  0.00000000000E+00 0. -1.
<mgrwt>
<rscale>  0 0.62381876E+02</rscale>
<asrwt>0</asrwt>
<pdfrwt beam="1">  1        2 0.19015784E-01 0.94140768E+02</pdfrwt>
<pdfrwt beam="2">  1       -2 0.39262783E-02 0.94140768E+02</pdfrwt>
<totfact> 0.71694343E+04</totfact>
</mgrwt>
</event>
<event>
 6    1  0.1727544E-002  0.9229808E+02  0.7546771E-02  0.1420347E+00
         -2   -1    0    0    0  501 -0.00000000000E+00  0.00000000000E+00  0.10350396498E+02  0.10350396498E+02  0.00000000000E+00 0.  1.
          2   -1    0    0  501    0  0.00000000000E+00 -0.00000000000E+00 -0.26448757313E+03  0.26448757313E+03  0.00000000000E+00 0. -1.
         23    2    1    2    0    0 -0.79536575682E+01 -0.84348991153E+01 -0.23483040234E+03  0.25231776259E+03  0.91567064271E+02 0.  0.
         13    1    3    3    0    0  0.15627805552E+02 -0.11071790711E+02 -0.31311048567E+01  0.19406614170E+02  0.00000000000E+00 0.  1.
        -13    1    3    3    0    0 -0.23581463120E+02  0.26368915953E+01 -0.23169929749E+03  0.23291114842E+03  0.00000000000E+00 0. -1.
         22    1    1    2    0    0  0.79536575682E+01  0.84348991153E+01 -0.19306774287E+02  0.22520207041E+02  0.00000000000E+00 0.  1.
<mgrwt>
<rscale>  0 0.54947472E+02</rscale>
<asrwt>0</asrwt>
<pdfrwt beam="1">  1        2 0.40690397E-01 0.92298079E+02</pdfrwt>
<pdfrwt beam="2">  1       -2 0.15923686E-02 0.92298079E+02</pdfrwt>
<totfact> 0.11599133E+05</totfact>
</mgrwt>
</event>
<event>
 6    1  0.1727544E-002  0.1217930E+03  0.7546771E-02  0.1272753E+00
         -2   -1    0    0    0  501 -0.00000000000E+00  0.00000000000E+00  0.55718721134E+02  0.55718721134E+02  0.00000000000E+00 0. -1.
          2   -1    0    0  501    0  0.00000000000E+00 -0.00000000000E+00 -0.15912845133E+03  0.15912845133E+03  0.00000000000E+00 0.  1.
         23    2    1    2    0    0 -0.21093466724E+02 -0.60368802347E+02 -0.50496187784E+02  0.13184615075E+03  0.10365430937E+03 0.  0.
         13    1    3    3    0    0  0.40486875376E+02 -0.21539824017E+02 -0.53187748743E+01  0.46167526060E+02  0.00000000000E+00 0. -1.
        -13    1    3    3    0    0 -0.61580342099E+02 -0.38828978330E+02 -0.45177412909E+02  0.85678624688E+02  0.00000000000E+00 0.  1.
         22    1    1    2    0    0  0.21093466724E+02  0.60368802347E+02 -0.52913542413E+02  0.83001021716E+02  0.00000000000E+00 0.  1.
<mgrwt>
<rscale>  0 0.10367482E+03</rscale>
<asrwt>0</asrwt>
<pdfrwt beam="1">  1        2 0.24481300E-01 0.12179303E+03</pdfrwt>
<pdfrwt beam="2">  1       -2 0.85721111E-02 0.12179303E+03</pdfrwt>
<totfact> 0.17224481E+04</totfact>
</mgrwt>
</event>
<event>
 6    1  0.1727544E-002  0.9298993E+02  0.7546771E-02  0.1422831E+00
          2   -1    0    0  501    0  0.00000000000E+00  0.00000000000E+00  0.14741207604E+03  0.14741207604E+03  0.00000000000E+00 0.  1.
         -2   -1    0    0    0  501 -0.00000000000E+00 -0.00000000000E+00 -0.18462916250E+02  0.18462916250E+02  0.00000000000E+00 0. -1.
         23    2    1    2    0    0 -0.10618483514E+02  0.25171315596E+01  0.11030264567E+03  0.14426988566E+03  0.92347377463E+02 0.  0.
         13    1    3    3    0    0 -0.37802509911E+01  0.28090903560E+01 -0.16563078481E+02  0.17219664774E+02  0.00000000000E+00 0. -1.
        -13    1    3    3    0    0 -0.68382325232E+01 -0.29195879631E+00  0.12686572415E+03  0.12705022089E+03  0.00000000000E+00 0.  1.
         22    1    1    2    0    0  0.10618483514E+02 -0.25171315596E+01  0.18646514119E+02  0.21605106623E+02  0.00000000000E+00 0. -1.
<mgrwt>
<rscale>  0 0.54426510E+02</rscale>
<asrwt>0</asrwt>
<pdfrwt beam="1">  1        2 0.22678780E-01 0.92989926E+02</pdfrwt>
<pdfrwt beam="2">  1       -2 0.28404487E-02 0.92989926E+02</pdfrwt>
<totfact> 0.94400691E+04</totfact>
</mgrwt>
</event>
<event>
 6    1  0.1727544E-002  0.9236675E+02  0.7546771E-02  0.1419898E+00
         -2   -1    0    0    0  501 -0.00000000000E+00  0.00000000000E+00  0.18025794171E+02  0.18025794171E+02  0.00000000000E+00 0.  1.
          2   -1    0    0  501    0  0.00000000000E+00 -0.00000000000E+00 -0.15044171817E+03  0.15044171817E+03  0.00000000000E+00 0. -1.
         23    2    1    2    0    0  0.10943279545E+02 -0.39896961467E+01 -0.12017166672E+03  0.15156795972E+03  0.91629383324E+02 0.  0.
         11    1    3    3    0    0 -0.10317121444E+02 -0.31563981401E+02 -0.11057094567E+03  0.11544982435E+03  0.00000000000E+00 0. -1.
        -11    1    3    3    0    0  0.21260400989E+02  0.27574285254E+02 -0.96007210475E+01  0.36118135363E+02  0.00000000000E+00 0.  1.
         22    1    1    2    0    0 -0.10943279545E+02  0.39896961467E+01 -0.12244257284E+02  0.16899552627E+02  0.00000000000E+00 0. -1.
<mgrwt>
<rscale>  0 0.55042538E+02</rscale>
<asrwt>0</asrwt>
<pdfrwt beam="1">  1        2 0.23144880E-01 0.92366752E+02</pdfrwt>
<pdfrwt beam="2">  1       -2 0.27731991E-02 0.92366752E+02</pdfrwt>
<totfact> 0.95481473E+04</totfact>
</mgrwt>
</event>
<event>
 6    1  0.1727544E-002  0.9111136E+02  0.7546771E-02  0.1421590E+00
          2   -1    0    0  501    0  0.00000000000E+00  0.00000000000E+00  0.36289585825E+01  0.36289585825E+01  0.00000000000E+00 0. -1.
         -2   -1    0    0    0  501 -0.00000000000E+00 -0.00000000000E+00 -0.78179946594E+03  0.78179946594E+03  0.00000000000E+00 0.  1.
         23    2    1    2    0    0  0.11822370783E+02 -0.22685769918E+00 -0.73644997376E+03  0.74206458199E+03  0.90340799646E+02 0.  0.
         13    1    3    3    0    0  0.48813553890E+02  0.14941248970E+02 -0.39728887854E+03  0.40055518593E+03  0.00000000000E+00 0.  1.
        -13    1    3    3    0    0 -0.36991183107E+02 -0.15168106669E+02 -0.33916109522E+03  0.34150939606E+03  0.00000000000E+00 0. -1.
         22    1    1    2    0    0 -0.11822370783E+02  0.22685769918E+00 -0.41720533603E+02  0.43363842536E+02  0.00000000000E+00 0.  1.
<mgrwt>
<rscale>  0 0.54685921E+02</rscale>
<asrwt>0</asrwt>
<pdfrwt beam="1">  1        2 0.55830079E-03 0.91111360E+02</pdfrwt>
<pdfrwt beam="2">  1       -2 0.12027696E+00 0.91111360E+02</pdfrwt>
<totfact> 0.15897729E+04</totfact>
</mgrwt>
</event>
<event>
 6    1  0.1727544E-002  0.9493331E+02  0.7546771E-02  0.1384385E+00
          1   -1    0    0  501    0  0.00000000000E+00  0.00000000000E+00  0.67910271140E+01  0.67910271140E+01  0.00000000000E+00 0. -1.
         -1   -1    0    0    0  501 -0.00000000000E+00 -0.00000000000E+00 -0.51779335744E+03  0.51779335744E+03  0.00000000000E+00 0.  1.
         23    2    1    2    0    0 -0.16618637675E+02 -0.87794896531E+01 -0.46982725698E+03  0.47932242236E+03  0.93054148848E+02 0.  0.
         11    1    3    3    0    0 -0.24346899898E+02 -0.48237702146E+02 -0.29744544519E+03  0.30231348020E+03  0.00000000000E+00 0.  1.
        -11    1    3    3    0    0  0.77282622232E+01  0.39458212493E+02 -0.17238181179E+03  0.17700894216E+03  0.00000000000E+00 0. -1.
         22    1    1    2    0    0  0.16618637675E+02  0.87794896531E+01 -0.41175073349E+02  0.45261962198E+02  0.00000000000E+00 0. -1.
<mgrwt>
<rscale>  0 0.63325051E+02</rscale>
<asrwt>0</asrwt>
<pdfrwt beam="1">  1        1 0.10447732E-02 0.94933309E+02</pdfrwt>
<pdfrwt beam="2">  1       -1 0.79660535E-01 0.94933309E+02</pdfrwt>
<totfact> 0.22315594E+04</totfact>
</mgrwt>
</event>
<event>
 6    1  0.1727544E-002  0.8558705E+02  0.7546771E-02  0.1384783E+00
         -4   -1    0    0    0  501 -0.00000000000E+00  0.00000000000E+00  0.81149672241E+02  0.81149672241E+02  0.00000000000E+00 0.  1.
          4   -1    0    0  501    0  0.00000000000E+00 -0.00000000000E+00 -0.39094805494E+02  0.39094805494E+02  0.00000000000E+00 0. -1.
         23    2    1    2    0    0  0.91157857325E+01 -0.23798690314E+02  0.40571986545E+02  0.94716568618E+02  0.81704755482E+02 0.  0.
         11    1    3    3    0    0  0.19263077973E+02 -0.50595121281E+02  0.14668545662E+02  0.56090094511E+02  0.00000000000E+00 0.  1.
        -11    1    3    3    0    0 -0.10147292240E+02  0.26796430967E+02  0.25903440883E+02  0.38626474107E+02  0.00000000000E+00 0. -1.
         22    1    1    2    0    0 -0.91157857325E+01  0.23798690314E+02  0.14828802025E+01  0.25527909117E+02  0.00000000000E+00 0. -1.
<mgrwt>
<rscale>  0 0.63223182E+02</rscale>
<asrwt>0</asrwt>
<pdfrwt beam="1">  1        4 0.60145855E-02 0.85587045E+02</pdfrwt>
<pdfrwt beam="2">  1       -4 0.12484565E-01 0.85587045E+02</pdfrwt>
<totfact> 0.13024533E+04</totfact>
</mgrwt>
</event>
<event>
 6    1  0.1727544E-002  0.9164027E+02  0.7546771E-02  0.1427618E+00
          2   -1    0    0  501    0  0.00000000000E+00  0.00000000000E+00  0.68551721828E+03  0.68551721828E+03  0.00000000000E+00 0.  1.
         -2   -1    0    0    0  501 -0.00000000000E+00 -0.00000000000E+00 -0.38186142609E+01  0.38186142609E+01  0.00000000000E+00 0. -1.
         23    2    1    2    0    0  0.75015696069E+01 -0.74869766778E+01  0.61932060465E+03  0.62606385476E+03  0.91025329075E+02 0.  0.
         13    1    3    3    0    0 -0.24635126242E+02  0.26932329601E+02  0.40445759356E+03  0.40610120021E+03  0.00000000000E+00 0.  1.
        -13    1    3    3    0    0  0.32136695849E+02 -0.34419306279E+02  0.21486301109E+03  0.21996265455E+03  0.00000000000E+00 0. -1.
         22    1    1    2    0    0 -0.75015696069E+01  0.74869766778E+01  0.62377999371E+02  0.63271977777E+02  0.00000000000E+00 0. -1.
<mgrwt>
<rscale>  0 0.53441169E+02</rscale>
<asrwt>0</asrwt>
<pdfrwt beam="1">  1        2 0.10546409E+00 0.91640269E+02</pdfrwt>
<pdfrwt beam="2">  1       -2 0.58747966E-03 0.91640269E+02</pdfrwt>
<totfact> 0.17087347E+05</totfact>
</mgrwt>
</event>
<event>
 6    1  0.1727544E-002  0.9540436E+02  0.7546771E-02  0.1365458E+00
          2   -1    0    0  501    0  0.00000000000E+00  0.00000000000E+00  0.50953645700E+02  0.50953645700E+02  0.00000000000E+00 0. -1.
         -2   -1    0    0    0  501 -0.00000000000E+00 -0.00000000000E+00 -0.71964553573E+02  0.71964553573E+02  0.00000000000E+00 0.  1.
         23    2    1    2    0    0  0.24759455864E+02  0.50801684930E+01 -0.20783434179E+02  0.97641915708E+02  0.91995400973E+02 0.  0.
         13    1    3    3    0    0  0.14270941198E+02 -0.97576456431E+01  0.34965836836E+02  0.39006168190E+02  0.00000000000E+00 0. -1.
        -13    1    3    3    0    0  0.10488514666E+02  0.14837814136E+02 -0.55749271015E+02  0.58635747518E+02  0.00000000000E+00 0.  1.
         22    1    1    2    0    0 -0.24759455864E+02 -0.50801684930E+01 -0.22747369323E+00  0.25276283566E+02  0.00000000000E+00 0. -1.
<mgrwt>
<rscale>  0 0.68446317E+02</rscale>
<asrwt>0</asrwt>
<pdfrwt beam="1">  1        2 0.78390225E-02 0.95404363E+02</pdfrwt>
<pdfrwt beam="2">  1       -2 0.11071470E-01 0.95404363E+02</pdfrwt>
<totfact> 0.42765637E+04</totfact>
</mgrwt>
</event>
<event>
 6    1  0.1727544E-002  0.1057875E+03  0.7546771E-02  0.1341476E+00
          4   -1    0    0  501    0  0.00000000000E+00  0.00000000000E+00  0.36191335993E+02  0.36191335993E+02  0.00000000000E+00 0. -1.
         -4   -1    0    0    0  501 -0.00000000000E+00 -0.00000000000E+00 -0.12710637215E+03  0.12710637215E+03  0.00000000000E+00 0.  1.
         23    2    1    2    0    0  0.26534829040E+02 -0.84711140017E+01 -0.59734011309E+02  0.12148726405E+03  0.10205462407E+03 0.  0.
         11    1    3    3    0    0 -0.14502606992E+02 -0.18034791664E+02  0.20464469057E+02  0.30892941163E+02  0.00000000000E+00 0. -1.
        -11    1    3    3    0    0  0.41037436031E+02  0.95636776618E+01 -0.80198480366E+02  0.90594322888E+02  0.00000000000E+00 0.  1.
         22    1    1    2    0    0 -0.26534829040E+02  0.84711140017E+01 -0.31181024847E+02  0.41810444092E+02  0.00000000000E+00 0. -1.
<mgrwt>
<rscale>  0 0.75778951E+02</rscale>
<asrwt>0</asrwt>
<pdfrwt beam="1">  1        4 0.55678979E-02 0.10578754E+03</pdfrwt>
<pdfrwt beam="2">  1       -4 0.19554826E-01 0.10578754E+03</pdfrwt>
<totfact> 0.71888379E+03</totfact>
</mgrwt>
</event>
<event>
 6    1  0.1727544E-002  0.9067431E+02  0.7546771E-02  0.1376201E+00
         -2   -1    0    0    0  501 -0.00000000000E+00  0.00000000000E+00  0.12091986566E+02  0.12091986566E+02  0.00000000000E+00 0. -1.
          2   -1    0    0  501    0  0.00000000000E+00 -0.00000000000E+00 -0.30967990180E+03  0.30967990180E+03  0.00000000000E+00 0.  1.
         23    2    1    2    0    0 -0.16439255643E+02 -0.18366349821E+02 -0.17907633063E+03  0.20072409773E+03  0.87259723167E+02 0.  0.
         13    1    3    3    0    0  0.34563403768E+01  0.34240689750E+02 -0.69821349897E+02  0.77842096739E+02  0.00000000000E+00 0. -1.
        -13    1    3    3    0    0 -0.19895596020E+02 -0.52607039571E+02 -0.10925498073E+03  0.12288200099E+03  0.00000000000E+00 0.  1.
         22    1    1    2    0    0  0.16439255643E+02  0.18366349821E+02 -0.11851158461E+03  0.12104779064E+03  0.00000000000E+00 0.  1.
<mgrwt>
<rscale>  0 0.65473103E+02</rscale>
<asrwt>0</asrwt>
<pdfrwt beam="1">  1        2 0.47643054E-01 0.90674314E+02</pdfrwt>
<pdfrwt beam="2">  1       -2 0.18603059E-02 0.90674314E+02</pdfrwt>
<totfact> 0.78520609E+04</totfact>
</mgrwt>
</event>
<event>
 6    1  0.1727544E-002  0.9195797E+02  0.7546771E-02  0.1423197E+00
          2   -1    0    0  501    0  0.00000000000E+00  0.00000000000E+00  0.58691818872E+01  0.58691818872E+01  0.00000000000E+00 0. -1.
         -2   -1    0    0    0  501 -0.00000000000E+00 -0.00000000000E+00 -0.45554788804E+03  0.45554788804E+03  0.00000000000E+00 0.  1.
         23    2    1    2    0    0  0.91184261893E+01 -0.65398533407E+01 -0.40971267656E+03  0.41990563898E+03  0.91270767145E+02 0.  0.
         11    1    3    3    0    0 -0.23090920755E+02  0.33322927046E+02 -0.16847288433E+03  0.17328220001E+03  0.00000000000E+00 0. -1.
        -11    1    3    3    0    0  0.32209346944E+02 -0.39862780387E+02 -0.24123979223E+03  0.24662343897E+03  0.00000000000E+00 0.  1.
         22    1    1    2    0    0 -0.91184261893E+01  0.65398533407E+01 -0.39966029591E+02  0.41511430945E+02  0.00000000000E+00 0.  1.
<mgrwt>
<rscale>  0 0.54350292E+02</rscale>
<asrwt>0</asrwt>
<pdfrwt beam="1">  1        2 0.90295064E-03 0.91957970E+02</pdfrwt>
<pdfrwt beam="2">  1       -2 0.70084323E-01 0.91957970E+02</pdfrwt>
<totfact> 0.27598629E+04</totfact>
</mgrwt>
</event>
<event>
 6    1  0.1727544E-002  0.9522767E+02  0.7546771E-02  0.1360677E+00
         -2   -1    0    0    0  501 -0.00000000000E+00  0.00000000000E+00  0.68637192080E+02  0.68637192080E+02  0.00000000000E+00 0.  1.
          2   -1    0    0  501    0  0.00000000000E+00 -0.00000000000E+00 -0.56001123241E+02  0.56001123241E+02  0.00000000000E+00 0. -1.
         23    2    1    2    0    0 -0.26998659195E+02  0.53947549928E+01  0.17086949763E+02  0.96748508566E+02  0.91160732104E+02 0.  0.
         13    1    3    3    0    0 -0.38878819760E+02  0.41040002835E+01 -0.29294354858E+02  0.48852478656E+02  0.00000000000E+00 0. -1.
        -13    1    3    3    0    0  0.11880160565E+02  0.12907547093E+01  0.46381304621E+02  0.47896029910E+02  0.00000000000E+00 0.  1.
         22    1    1    2    0    0  0.26998659195E+02 -0.53947549928E+01 -0.44508809240E+01  0.27889806754E+02  0.00000000000E+00 0. -1.
<mgrwt>
<rscale>  0 0.69828587E+02</rscale>
<asrwt>0</asrwt>
<pdfrwt beam="1">  1        2 0.86155575E-02 0.95227675E+02</pdfrwt>
<pdfrwt beam="2">  1       -2 0.10559568E-01 0.95227675E+02</pdfrwt>
<totfact> 0.40964484E+04</totfact>
</mgrwt>
</event>
<event>
 6    1  0.1727544E-002  0.1000359E+03  0.7546771E-02  0.1408764E+00
          2   -1    0    0  501    0  0.00000000000E+00  0.00000000000E+00  0.64938714340E+02  0.64938714340E+02  0.00000000000E+00 0. -1.
         -2   -1    0    0    0  501 -0.00000000000E+00 -0.00000000000E+00 -0.47376220973E+02  0.47376220973E+02  0.00000000000E+00 0.  1.
         23    2    1    2    0    0 -0.66954473513E+00  0.10876548034E+02  0.15766423507E+02  0.10127077603E+03  0.99440647527E+02 0.  0.
         11    1    3    3    0    0  0.35457721342E+02  0.32300613598E+02 -0.13795133999E+02  0.49908770408E+02  0.00000000000E+00 0.  1.
        -11    1    3    3    0    0 -0.36127266077E+02 -0.21424065564E+02  0.29561557506E+02  0.51362005624E+02  0.00000000000E+00 0. -1.
         22    1    1    2    0    0  0.66954473513E+00 -0.10876548034E+02  0.17960698589E+01  0.11044159281E+02  0.00000000000E+00 0.  1.
<mgrwt>
<rscale>  0 0.57470524E+02</rscale>
<asrwt>0</asrwt>
<pdfrwt beam="1">  1        2 0.99905714E-02 0.10003594E+03</pdfrwt>
<pdfrwt beam="2">  1       -2 0.72886494E-02 0.10003594E+03</pdfrwt>
<totfact> 0.60940606E+04</totfact>
</mgrwt>
</event>
<event>
 6    1  0.1727544E-002  0.9625650E+02  0.7546771E-02  0.1349032E+00
          1   -1    0    0  501    0  0.00000000000E+00  0.00000000000E+00  0.64382076020E+03  0.64382076020E+03  0.00000000000E+00 0. -1.
         -1   -1    0    0    0  501 -0.00000000000E+00 -0.00000000000E+00 -0.64504913074E+01  0.64504913074E+01  0.00000000000E+00 0.  1.
         23    2    1    2    0    0  0.27827883700E+02  0.16733830226E+02  0.49022152895E+03  0.49958228757E+03  0.90614029952E+02 0.  0.
         13    1    3    3    0    0 -0.91934456544E+01 -0.32990720337E+02  0.17011686528E+03  0.17352998278E+03  0.00000000000E+00 0.  1.
        -13    1    3    3    0    0  0.37021329355E+02  0.49724550564E+02  0.32010466367E+03  0.32605230479E+03  0.00000000000E+00 0. -1.
         22    1    1    2    0    0 -0.27827883700E+02 -0.16733830226E+02  0.14714873995E+03  0.15068896394E+03  0.00000000000E+00 0.  1.
<mgrwt>
<rscale>  0 0.73358234E+02</rscale>
<asrwt>0</asrwt>
<pdfrwt beam="1">  1        1 0.99049297E-01 0.96256504E+02</pdfrwt>
<pdfrwt beam="2">  1       -1 0.99238379E-03 0.96256504E+02</pdfrwt>
<totfact> 0.54085318E+04</totfact>
</mgrwt>
</event>
<event>
 6    1  0.1727544E-002  0.9689300E+02  0.7546771E-02  0.1367303E+00
          2   -1    0    0  501    0  0.00000000000E+00  0.00000000000E+00  0.16007797883E+02  0.16007797883E+02  0.00000000000E+00 0. -1.
         -2   -1    0    0    0  501 -0.00000000000E+00 -0.00000000000E+00 -0.25667961320E+03  0.25667961320E+03  0.00000000000E+00 0.  1.
         23    2    1    2    0    0 -0.18408249201E+02  0.14443473906E+02 -0.22369840958E+03  0.24378111282E+03  0.94025395188E+02 0.  0.
         11    1    3    3    0    0  0.20825971036E+02  0.21590650136E+01 -0.53695699768E+01  0.21615154709E+02  0.00000000000E+00 0. -1.
        -11    1    3    3    0    0 -0.39234220237E+02  0.12284408892E+02 -0.21832883960E+03  0.22216595811E+03  0.00000000000E+00 0.  1.
         22    1    1    2    0    0  0.18408249201E+02 -0.14443473906E+02 -0.16973405736E+02  0.28906298265E+02  0.00000000000E+00 0. -1.
<mgrwt>
<rscale>  0 0.67922721E+02</rscale>
<asrwt>0</asrwt>
<pdfrwt beam="1">  1        2 0.24627381E-02 0.96892995E+02</pdfrwt>
<pdfrwt beam="2">  1       -2 0.39489171E-01 0.96892995E+02</pdfrwt>
<totfact> 0.22217319E+04</totfact>
</mgrwt>
</event>
<event>
 6    1  0.1727544E-002  0.9444510E+02  0.7546771E-02  0.1361891E+00
         -2   -1    0    0    0  501 -0.00000000000E+00  0.00000000000E+00  0.20733474158E+02  0.20733474158E+02  0.00000000000E+00 0.  1.
          2   -1    0    0  501    0  0.00000000000E+00 -0.00000000000E+00 -0.18074537524E+03  0.18074537524E+03  0.00000000000E+00 0. -1.
         23    2    1    2    0    0 -0.40501815522E+00 -0.27650656522E+02 -0.12977021288E+03  0.16049979925E+03  0.90305894393E+02 0.  0.
         13    1    3    3    0    0  0.42237456274E+02 -0.20953608893E+02 -0.44049976672E+02  0.64524854769E+02  0.00000000000E+00 0.  1.
        -13    1    3    3    0    0 -0.42642474429E+02 -0.66970476294E+01 -0.85720236205E+02  0.95974944477E+02  0.00000000000E+00 0. -1.
         22    1    1    2    0    0  0.40501815522E+00  0.27650656522E+02 -0.30241688201E+02  0.40979050148E+02  0.00000000000E+00 0.  1.
<mgrwt>
<rscale>  0 0.69474046E+02</rscale>
<asrwt>0</asrwt>
<pdfrwt beam="1">  1        2 0.27806980E-01 0.94445103E+02</pdfrwt>
<pdfrwt beam="2">  1       -2 0.31897654E-02 0.94445103E+02</pdfrwt>
<totfact> 0.63992897E+04</totfact>
</mgrwt>
</event>
<event>
 6    1  0.1727544E-002  0.9149091E+02  0.7546771E-02  0.1415256E+00
         -4   -1    0    0    0  501 -0.00000000000E+00  0.00000000000E+00  0.29663034812E+03  0.29663034812E+03  0.00000000000E+00 0.  1.
          4   -1    0    0  501    0  0.00000000000E+00 -0.00000000000E+00 -0.92084271007E+01  0.92084271007E+01  0.00000000000E+00 0. -1.
         23    2    1    2    0    0  0.67777070363E+01  0.10947508059E+02  0.25721795150E+03  0.27300487475E+03  0.90580361106E+02 0.  0.
         13    1    3    3    0    0  0.35772894218E+02  0.17726769238E+02  0.22735183169E+03  0.23083066018E+03  0.00000000000E+00 0.  1.
        -13    1    3    3    0    0 -0.28995187182E+02 -0.67792611788E+01  0.29866119814E+02  0.42174214570E+02  0.00000000000E+00 0. -1.
         22    1    1    2    0    0 -0.67777070363E+01 -0.10947508059E+02  0.30203969518E+02  0.32833900469E+02  0.00000000000E+00 0. -1.
<mgrwt>
<rscale>  0 0.56037236E+02</rscale>
<asrwt>0</asrwt>
<pdfrwt beam="1">  1        4 0.14166813E-02 0.91490912E+02</pdfrwt>
<pdfrwt beam="2">  1       -4 0.45635431E-01 0.91490912E+02</pdfrwt>
<totfact> 0.11757366E+04</totfact>
</mgrwt>
</event>
<event>
 6    1  0.1727544E-002  0.9637004E+02  0.7546771E-02  0.1361892E+00
          2   -1    0    0  501    0  0.00000000000E+00  0.00000000000E+00  0.19855253182E+02  0.19855253182E+02  0.00000000000E+00 0. -1.
         -2   -1    0    0    0  501 -0.00000000000E+00 -0.00000000000E+00 -0.20227039091E+03  0.20227039091E+03  0.00000000000E+00 0.  1.
         23    2    1    2    0    0  0.63591641282E+01 -0.25240181194E+02 -0.16407825219E+03  0.19028624890E+03  0.92788350363E+02 0.  0.
         13    1    3    3    0    0  0.10784862882E+01  0.37787143692E+01 -0.16053005361E+03  0.16057814274E+03  0.00000000000E+00 0.  1.
        -13    1    3    3    0    0  0.52806778401E+01 -0.29018895563E+02 -0.35481985801E+01  0.29708106155E+02  0.00000000000E+00 0. -1.
         22    1    1    2    0    0 -0.63591641282E+01  0.25240181194E+02 -0.18336885543E+02  0.31839395198E+02  0.00000000000E+00 0. -1.
<mgrwt>
<rscale>  0 0.69473733E+02</rscale>
<asrwt>0</asrwt>
<pdfrwt beam="1">  1        2 0.30546543E-02 0.96370035E+02</pdfrwt>
<pdfrwt beam="2">  1       -2 0.31118522E-01 0.96370035E+02</pdfrwt>
<totfact> 0.25774971E+04</totfact>
</mgrwt>
</event>
<event>
 6    1  0.1727544E-002  0.9463231E+02  0.7546771E-02  0.1359263E+00
          2   -1    0    0  501    0  0.00000000000E+00  0.00000000000E+00  0.27808306476E+02  0.27808306476E+02  0.00000000000E+00 0. -1.
         -2   -1    0    0    0  501 -0.00000000000E+00 -0.00000000000E+00 -0.15586181714E+03  0.15586181714E+03  0.00000000000E+00 0.  1.
         23    2    1    2    0    0 -0.10853359053E+02  0.26600820596E+02 -0.12184484656E+03  0.15427715559E+03  0.90165819715E+02 0.  0.
         13    1    3    3    0    0  0.19852486016E+02  0.17071899182E+02 -0.11917349138E+03  0.12201594974E+03  0.00000000000E+00 0.  1.
        -13    1    3    3    0    0 -0.30705845069E+02  0.95289214143E+01 -0.26713551830E+01  0.32261205856E+02  0.00000000000E+00 0. -1.
         22    1    1    2    0    0  0.10853359053E+02 -0.26600820596E+02 -0.62086640990E+01  0.29392968020E+02  0.00000000000E+00 0. -1.
<mgrwt>
<rscale>  0 0.70244541E+02</rscale>
<asrwt>0</asrwt>
<pdfrwt beam="1">  1        2 0.42782009E-02 0.94632310E+02</pdfrwt>
<pdfrwt beam="2">  1       -2 0.23978742E-01 0.94632310E+02</pdfrwt>
<totfact> 0.26082679E+04</totfact>
</mgrwt>
</event>
<event>
 6    1  0.1727544E-002  0.9711167E+02  0.7546771E-02  0.1352785E+00
         -2   -1    0    0    0  501 -0.00000000000E+00  0.00000000000E+00  0.26465401581E+03  0.26465401581E+03  0.00000000000E+00 0.  1.
          2   -1    0    0  501    0  0.00000000000E+00 -0.00000000000E+00 -0.81684125064E+02  0.81684125064E+02  0.00000000000E+00 0. -1.
         23    2    1    2    0    0  0.21864043988E+02  0.20045189950E+02  0.25261571105E+03  0.27063882552E+03  0.92470699966E+02 0.  0.
         11    1    3    3    0    0 -0.24171007063E+02  0.20052868046E+02  0.19185362746E+03  0.19440722586E+03  0.00000000000E+00 0.  1.
        -11    1    3    3    0    0  0.46035051052E+02 -0.76780958731E-02  0.60762083588E+02  0.76231599657E+02  0.00000000000E+00 0. -1.
         22    1    1    2    0    0 -0.21864043988E+02 -0.20045189950E+02 -0.69645820300E+02  0.75699315353E+02  0.00000000000E+00 0. -1.
<mgrwt>
<rscale>  0 0.72194548E+02</rscale>
<asrwt>0</asrwt>
<pdfrwt beam="1">  1        2 0.12566789E-01 0.97111670E+02</pdfrwt>
<pdfrwt beam="2">  1       -2 0.40716002E-01 0.97111670E+02</pdfrwt>
<totfact> 0.26247256E+03</totfact>
</mgrwt>
</event>
<event>
 6    1  0.1727544E-002  0.9529825E+02  0.7546771E-02  0.1423434E+00
         -2   -1    0    0    0  501 -0.00000000000E+00  0.00000000000E+00  0.17776867311E+02  0.17776867311E+02  0.00000000000E+00 0.  1.
          2   -1    0    0  501    0  0.00000000000E+00 -0.00000000000E+00 -0.17388711487E+03  0.17388711487E+03  0.00000000000E+00 0. -1.
         23    2    1    2    0    0  0.91874271808E+01 -0.40625117779E+01 -0.11505105354E+03  0.14939377714E+03  0.94767309285E+02 0.  0.
         13    1    3    3    0    0 -0.27850912749E+02  0.10786616323E+02 -0.24918591517E+01  0.29970548789E+02  0.00000000000E+00 0.  1.
        -13    1    3    3    0    0  0.37038339930E+02 -0.14849128101E+02 -0.11255919438E+03  0.11942322835E+03  0.00000000000E+00 0. -1.
         22    1    1    2    0    0 -0.91874271808E+01  0.40625117779E+01 -0.41059194020E+02  0.42270205036E+02  0.00000000000E+00 0. -1.
<mgrwt>
<rscale>  0 0.54300893E+02</rscale>
<asrwt>0</asrwt>
<pdfrwt beam="1">  1        2 0.26751862E-01 0.95298246E+02</pdfrwt>
<pdfrwt beam="2">  1       -2 0.27349029E-02 0.95298246E+02</pdfrwt>
<totfact> 0.83571741E+04</totfact>
</mgrwt>
</event>
<event>
 6    1  0.1727544E-002  0.1137012E+03  0.7546771E-02  0.1313127E+00
          2   -1    0    0  501    0  0.00000000000E+00  0.00000000000E+00  0.12853015383E+03  0.12853015383E+03  0.00000000000E+00 0. -1.
         -2   -1    0    0    0  501 -0.00000000000E+00 -0.00000000000E+00 -0.51378456577E+02  0.51378456577E+02  0.00000000000E+00 0.  1.
         23    2    1    2    0    0  0.66129970341E+01  0.36423970558E+02  0.25778514788E+02  0.11658688240E+03  0.10750596245E+03 0.  0.
         11    1    3    3    0    0  0.21089719478E+02  0.46504008346E+02 -0.29217633781E+02  0.58830852311E+02  0.00000000000E+00 0.  1.
        -11    1    3    3    0    0 -0.14476722444E+02 -0.10080037787E+02  0.54996148569E+02  0.57756030091E+02  0.00000000000E+00 0. -1.
         22    1    1    2    0    0 -0.66129970341E+01 -0.36423970558E+02  0.51373182469E+02  0.63321728009E+02  0.00000000000E+00 0. -1.
<mgrwt>
<rscale>  0 0.85887758E+02</rscale>
<asrwt>0</asrwt>
<pdfrwt beam="1">  1        2 0.19773870E-01 0.11370123E+03</pdfrwt>
<pdfrwt beam="2">  1       -2 0.79043779E-02 0.11370123E+03</pdfrwt>
<totfact> 0.24586946E+04</totfact>
</mgrwt>
</event>
<event>
 6    1  0.1727544E-002  0.9974181E+02  0.7546771E-02  0.1335673E+00
         -2   -1    0    0    0  501 -0.00000000000E+00  0.00000000000E+00  0.20302973973E+03  0.20302973973E+03  0.00000000000E+00 0.  1.
          2   -1    0    0  501    0  0.00000000000E+00 -0.00000000000E+00 -0.28224819797E+02  0.28224819797E+02  0.00000000000E+00 0. -1.
         23    2    1    2    0    0 -0.27302343687E+02 -0.24607073604E+02  0.16567590107E+03  0.19338286789E+03  0.92722722976E+02 0.  0.
         13    1    3    3    0    0 -0.41002011421E+02 -0.46462201978E+02  0.15209093816E+03  0.16423018792E+03  0.00000000000E+00 0.  1.
        -13    1    3    3    0    0  0.13699667734E+02  0.21855128375E+02  0.13584962909E+02  0.29152679972E+02  0.00000000000E+00 0. -1.
         22    1    1    2    0    0  0.27302343687E+02  0.24607073604E+02  0.91290188664E+01  0.37871691639E+02  0.00000000000E+00 0. -1.
<mgrwt>
<rscale>  0 0.77711786E+02</rscale>
<asrwt>0</asrwt>
<pdfrwt beam="1">  1        2 0.43422801E-02 0.99741814E+02</pdfrwt>
<pdfrwt beam="2">  1       -2 0.31235344E-01 0.99741814E+02</pdfrwt>
<totfact> 0.16172127E+04</totfact>
</mgrwt>
</event>
<event>
 6    1  0.1727544E-002  0.9422013E+02  0.7546771E-02  0.1409151E+00
          2   -1    0    0  501    0  0.00000000000E+00  0.00000000000E+00  0.58694762000E+02  0.58694762000E+02  0.00000000000E+00 0. -1.
         -2   -1    0    0    0  501 -0.00000000000E+00 -0.00000000000E+00 -0.55076055693E+02  0.55076055693E+02  0.00000000000E+00 0.  1.
         23    2    1    2    0    0 -0.55959057895E+01 -0.11693468269E+02 -0.10262856682E+02  0.94777420083E+02  0.93324068538E+02 0.  0.
         13    1    3    3    0    0  0.25706434379E+02  0.28036466286E+01  0.31406164435E+02  0.40682039862E+02  0.00000000000E+00 0. -1.
        -13    1    3    3    0    0 -0.31302340168E+02 -0.14497114897E+02 -0.41669021117E+02  0.54095380220E+02  0.00000000000E+00 0.  1.
         22    1    1    2    0    0  0.55959057895E+01  0.11693468269E+02  0.13881562989E+02  0.18993397610E+02  0.00000000000E+00 0. -1.
<mgrwt>
<rscale>  0 0.57383632E+02</rscale>
<asrwt>0</asrwt>
<pdfrwt beam="1">  1        2 0.90299634E-02 0.94220131E+02</pdfrwt>
<pdfrwt beam="2">  1       -2 0.84732394E-02 0.94220131E+02</pdfrwt>
<totfact> 0.54308018E+04</totfact>
</mgrwt>
</event>
<event>
 6    1  0.1727544E-002  0.9388199E+02  0.7546771E-02  0.1390409E+00
         -1   -1    0    0    0  501 -0.00000000000E+00  0.00000000000E+00  0.65869819317E+02  0.65869819317E+02  0.00000000000E+00 0.  1.
          1   -1    0    0  501    0  0.00000000000E+00 -0.00000000000E+00 -0.47199055705E+02  0.47199055705E+02  0.00000000000E+00 0. -1.
         23    2    1    2    0    0 -0.15306542051E+02 -0.87557141324E+01  0.15557273380E+02  0.95162267836E+02  0.92211038954E+02 0.  0.
         13    1    3    3    0    0  0.38505461249E+02 -0.69201164757E+01  0.21179361336E-01  0.39122359420E+02  0.00000000000E+00 0. -1.
        -13    1    3    3    0    0 -0.53812003299E+02 -0.18355976567E+01  0.15536094019E+02  0.56039908416E+02  0.00000000000E+00 0.  1.
         22    1    1    2    0    0  0.15306542051E+02  0.87557141324E+01  0.31134902308E+01  0.17906607186E+02  0.00000000000E+00 0.  1.
<mgrwt>
<rscale>  0 0.61804988E+02</rscale>
<asrwt>0</asrwt>
<pdfrwt beam="1">  1        1 0.72613932E-02 0.93881992E+02</pdfrwt>
<pdfrwt beam="2">  1       -1 0.10133818E-01 0.93881992E+02</pdfrwt>
<totfact> 0.51108970E+04</totfact>
</mgrwt>
</event>
<event>
 6    1  0.1727544E-002  0.9135195E+02  0.7546771E-02  0.1428922E+00
         -2   -1    0    0    0  501 -0.00000000000E+00  0.00000000000E+00  0.27086358917E+02  0.27086358917E+02  0.00000000000E+00 0.  1.
          2   -1    0    0  501    0  0.00000000000E+00 -0.00000000000E+00 -0.97624530518E+02  0.97624530518E+02  0.00000000000E+00 0. -1.
         23    2    1    2    0    0 -0.10433382266E+02 -0.10813111324E+01 -0.57357801755E+02  0.10786610245E+03  0.90747748934E+02 0.  0.
         13    1    3    3    0    0 -0.12271435690E+02  0.21790597276E+02 -0.74911767918E+02  0.78975890221E+02  0.00000000000E+00 0. -1.
        -13    1    3    3    0    0  0.18380534243E+01 -0.22871908408E+02  0.17553966163E+02  0.28890212230E+02  0.00000000000E+00 0.  1.
         22    1    1    2    0    0  0.10433382266E+02  0.10813111324E+01 -0.13180369845E+02  0.16844786984E+02  0.00000000000E+00 0. -1.
<mgrwt>
<rscale>  0 0.53177099E+02</rscale>
<asrwt>0</asrwt>
<pdfrwt beam="1">  1        2 0.15019158E-01 0.91351949E+02</pdfrwt>
<pdfrwt beam="2">  1       -2 0.41671323E-02 0.91351949E+02</pdfrwt>
<totfact> 0.85587696E+04</totfact>
</mgrwt>
</event>
<event>
 6    1  0.1727544E-002  0.9244799E+02  0.7546771E-02  0.1417554E+00
         -2   -1    0    0    0  501 -0.00000000000E+00  0.00000000000E+00  0.52761632605E+03  0.52761632605E+03  0.00000000000E+00 0.  1.
          2   -1    0    0  501    0  0.00000000000E+00 -0.00000000000E+00 -0.66774104545E+01  0.66774104545E+01  0.00000000000E+00 0. -1.
         23    2    1    2    0    0  0.12316600297E+01 -0.11981282086E+02  0.50902639776E+03  0.51735336496E+03  0.91660037708E+02 0.  0.
         13    1    3    3    0    0  0.30202373857E+02 -0.59676877302E+01  0.45254698685E+03  0.45359295849E+03  0.00000000000E+00 0.  1.
        -13    1    3    3    0    0 -0.28970713828E+02 -0.60135943559E+01  0.56479410913E+02  0.63760406475E+02  0.00000000000E+00 0. -1.
         22    1    1    2    0    0 -0.12316600297E+01  0.11981282086E+02  0.11912517834E+02  0.16940371543E+02  0.00000000000E+00 0. -1.
<mgrwt>
<rscale>  0 0.55541754E+02</rscale>
<asrwt>0</asrwt>
<pdfrwt beam="1">  1        2 0.10272943E-02 0.92447989E+02</pdfrwt>
<pdfrwt beam="2">  1       -2 0.81171710E-01 0.92447989E+02</pdfrwt>
<totfact> 0.16891313E+04</totfact>
</mgrwt>
</event>
<event>
 6    1  0.1727544E-002  0.9805397E+02  0.7546771E-02  0.1351953E+00
          4   -1    0    0  501    0  0.00000000000E+00  0.00000000000E+00  0.11558775774E+02  0.11558775774E+02  0.00000000000E+00 0. -1.
         -4   -1    0    0    0  501 -0.00000000000E+00 -0.00000000000E+00 -0.35148187089E+03  0.35148187089E+03  0.00000000000E+00 0.  1.
         23    2    1    2    0    0 -0.10240951837E+02 -0.27373131663E+02 -0.27010791981E+03  0.28735495360E+03  0.93597091743E+02 0.  0.
         11    1    3    3    0    0  0.41436587025E+02 -0.19439790488E+02 -0.12672867300E+03  0.13474068710E+03  0.00000000000E+00 0.  1.
        -11    1    3    3    0    0 -0.51677538862E+02 -0.79333411746E+01 -0.14337924681E+03  0.15261426650E+03  0.00000000000E+00 0. -1.
         22    1    1    2    0    0  0.10240951837E+02  0.27373131663E+02 -0.69815175303E+02  0.75685693061E+02  0.00000000000E+00 0. -1.
<mgrwt>
<rscale>  0 0.72450541E+02</rscale>
<asrwt>0</asrwt>
<pdfrwt beam="1">  1        4 0.17782732E-02 0.98053970E+02</pdfrwt>
<pdfrwt beam="2">  1       -4 0.54074135E-01 0.98053970E+02</pdfrwt>
<totfact> 0.60325828E+03</totfact>
</mgrwt>
</event>
<event>
 6    1  0.1727544E-002  0.9247064E+02  0.7546771E-02  0.1356574E+00
         -2   -1    0    0    0  501 -0.00000000000E+00  0.00000000000E+00  0.42359394365E+02  0.42359394365E+02  0.00000000000E+00 0.  1.
          2   -1    0    0  501    0  0.00000000000E+00 -0.00000000000E+00 -0.92192324543E+02  0.92192324543E+02  0.00000000000E+00 0. -1.
         23    2    1    2    0    0 -0.14939363654E+02 -0.28547343446E+02 -0.32868740240E+02  0.98138546230E+02  0.86675744975E+02 0.  0.
         13    1    3    3    0    0 -0.22926328590E+02 -0.49353638953E+02 -0.46868504391E+02  0.71819599862E+02  0.00000000000E+00 0. -1.
        -13    1    3    3    0    0  0.79869649369E+01  0.20806295507E+02  0.13999764151E+02  0.26318946368E+02  0.00000000000E+00 0.  1.
         22    1    1    2    0    0  0.14939363654E+02  0.28547343446E+02 -0.16964189938E+02  0.36413172678E+02  0.00000000000E+00 0.  1.
<mgrwt>
<rscale>  0 0.71045188E+02</rscale>
<asrwt>0</asrwt>
<pdfrwt beam="1">  1        2 0.14183434E-01 0.92470645E+02</pdfrwt>
<pdfrwt beam="2">  1       -2 0.65168299E-02 0.92470645E+02</pdfrwt>
<totfact> 0.47066161E+04</totfact>
</mgrwt>
</event>
<event>
 6    1  0.1727544E-002  0.9386950E+02  0.7546771E-02  0.1410931E+00
          2   -1    0    0  501    0  0.00000000000E+00  0.00000000000E+00  0.16491759633E+03  0.16491759633E+03  0.00000000000E+00 0. -1.
         -2   -1    0    0    0  501 -0.00000000000E+00 -0.00000000000E+00 -0.18418375957E+02  0.18418375957E+02  0.00000000000E+00 0.  1.
         23    2    1    2    0    0  0.87129499441E+01 -0.93087581998E+01  0.10964320516E+03  0.14433681418E+03  0.92999543079E+02 0.  0.
         11    1    3    3    0    0  0.14181540582E+02 -0.31349562280E+02  0.21544669357E+01  0.34475395229E+02  0.00000000000E+00 0.  1.
        -11    1    3    3    0    0 -0.54685906382E+01  0.22040804080E+02  0.10748873822E+03  0.10986141895E+03  0.00000000000E+00 0. -1.
         22    1    1    2    0    0 -0.87129499441E+01  0.93087581998E+01  0.36856015217E+02  0.38999158114E+02  0.00000000000E+00 0. -1.
<mgrwt>
<rscale>  0 0.56986624E+02</rscale>
<asrwt>0</asrwt>
<pdfrwt beam="1">  1        2 0.25371937E-01 0.93869502E+02</pdfrwt>
<pdfrwt beam="2">  1       -2 0.28335964E-02 0.93869502E+02</pdfrwt>
<totfact> 0.83894457E+04</totfact>
</mgrwt>
</event>
<event>
 6    1  0.1727544E-002  0.9057858E+02  0.7546771E-02  0.1422540E+00
          4   -1    0    0  501    0  0.00000000000E+00  0.00000000000E+00  0.13580504046E+02  0.13580504046E+02  0.00000000000E+00 0. -1.
         -4   -1    0    0    0  501 -0.00000000000E+00 -0.00000000000E+00 -0.32001691221E+03  0.32001691221E+03  0.00000000000E+00 0.  1.
         23    2    1    2    0    0  0.11743410138E+02  0.16611955642E+01 -0.30853214108E+03  0.32155335760E+03  0.89798733021E+02 0.  0.
         13    1    3    3    0    0  0.27650441411E+01  0.24331420348E+02 -0.28972890388E+03  0.29076193222E+03  0.00000000000E+00 0.  1.
        -13    1    3    3    0    0  0.89783659967E+01 -0.22670224784E+02 -0.18803237202E+02  0.30791425381E+02  0.00000000000E+00 0. -1.
         22    1    1    2    0    0 -0.11743410138E+02 -0.16611955642E+01  0.20957329188E+01  0.12044058653E+02  0.00000000000E+00 0.  1.
<mgrwt>
<rscale>  0 0.54487047E+02</rscale>
<asrwt>0</asrwt>
<pdfrwt beam="1">  1        4 0.20893083E-02 0.90578583E+02</pdfrwt>
<pdfrwt beam="2">  1       -4 0.49233373E-01 0.90578583E+02</pdfrwt>
<totfact> 0.55811734E+03</totfact>
</mgrwt>
</event>
<event>
 6    1  0.1727544E-002  0.7773097E+02  0.7546771E-02  0.1446400E+00
          3   -1    0    0  501    0  0.00000000000E+00  0.00000000000E+00  0.10025594637E+03  0.10025594637E+03  0.00000000000E+00 0. -1.
         -3   -1    0    0    0  501 -0.00000000000E+00 -0.00000000000E+00 -0.20683148103E+02  0.20683148103E+02  0.00000000000E+00 0.  1.
         23    2    1    2    0    0 -0.86986670704E+01 -0.97956373133E+01  0.64839480640E+02  0.10122382203E+03  0.76619074503E+02 0.  0.
         11    1    3    3    0    0 -0.28746793924E+02  0.52939059057E+01  0.69775501211E+02  0.75650671972E+02  0.00000000000E+00 0. -1.
        -11    1    3    3    0    0  0.20048126853E+02 -0.15089543219E+02 -0.49360205701E+01  0.25573150059E+02  0.00000000000E+00 0.  1.
         22    1    1    2    0    0  0.86986670704E+01  0.97956373133E+01  0.14733317629E+02  0.19715272443E+02  0.00000000000E+00 0. -1.
<mgrwt>
<rscale>  0 0.49804315E+02</rscale>
<asrwt>0</asrwt>
<pdfrwt beam="1">  1        3 0.15423991E-01 0.77730971E+02</pdfrwt>
<pdfrwt beam="2">  1       -3 0.31820228E-02 0.77730971E+02</pdfrwt>
<totfact> 0.31848417E+04</totfact>
</mgrwt>
</event>
<event>
 6    1  0.1727544E-002  0.9319082E+02  0.7546771E-02  0.1391042E+00
          4   -1    0    0  501    0  0.00000000000E+00  0.00000000000E+00  0.98572124504E+02  0.98572124504E+02  0.00000000000E+00 0. -1.
         -4   -1    0    0    0  501 -0.00000000000E+00 -0.00000000000E+00 -0.46154182098E+02  0.46154182098E+02  0.00000000000E+00 0.  1.
         23    2    1    2    0    0 -0.17643418291E+02  0.26880875687E+01  0.41708330887E+01  0.93284110097E+02  0.91465913455E+02 0.  0.
         11    1    3    3    0    0 -0.14592150607E+01 -0.63339075228E+00  0.47182068884E+02  0.47208877519E+02  0.00000000000E+00 0. -1.
        -11    1    3    3    0    0 -0.16184203231E+02  0.33214783210E+01 -0.43011235795E+02  0.46075232578E+02  0.00000000000E+00 0.  1.
         22    1    1    2    0    0  0.17643418291E+02 -0.26880875687E+01  0.48247109318E+02  0.51442196505E+02  0.00000000000E+00 0. -1.
<mgrwt>
<rscale>  0 0.61648323E+02</rscale>
<asrwt>0</asrwt>
<pdfrwt beam="1">  1        4 0.15164942E-01 0.93190822E+02</pdfrwt>
<pdfrwt beam="2">  1       -4 0.71006434E-02 0.93190822E+02</pdfrwt>
<totfact> 0.73162198E+03</totfact>
</mgrwt>
</event>
<event>
 6    1  0.1727544E-002  0.9077163E+02  0.7546771E-02  0.1424662E+00
          2   -1    0    0  501    0  0.00000000000E+00  0.00000000000E+00  0.10840248562E+03  0.10840248562E+03  0.00000000000E+00 0.  1.
         -2   -1    0    0    0  501 -0.00000000000E+00 -0.00000000000E+00 -0.27003344414E+02  0.27003344414E+02  0.00000000000E+00 0. -1.
         23    2    1    2    0    0  0.10325832291E+01 -0.11361610971E+02  0.53741421238E+02  0.10548757631E+03  0.90051851548E+02 0.  0.
         13    1    3    3    0    0 -0.19110224467E+02  0.29183936281E+02 -0.43231496852E+00  0.34886812870E+02  0.00000000000E+00 0. -1.
        -13    1    3    3    0    0  0.20142807696E+02 -0.40545547252E+02  0.54173736206E+02  0.70600763441E+02  0.00000000000E+00 0.  1.
         22    1    1    2    0    0 -0.10325832291E+01  0.11361610971E+02  0.27657719973E+02  0.29918253727E+02  0.00000000000E+00 0.  1.
<mgrwt>
<rscale>  0 0.54046693E+02</rscale>
<asrwt>0</asrwt>
<pdfrwt beam="1">  1        2 0.16677305E-01 0.90771628E+02</pdfrwt>
<pdfrwt beam="2">  1       -2 0.41543607E-02 0.90771628E+02</pdfrwt>
<totfact> 0.76155157E+04</totfact>
</mgrwt>
</event>
<event>
 6    1  0.1727544E-002  0.9421359E+02  0.7546771E-02  0.1367064E+00
         -2   -1    0    0    0  501 -0.00000000000E+00  0.00000000000E+00  0.18085382634E+02  0.18085382634E+02  0.00000000000E+00 0.  1.
          2   -1    0    0  501    0  0.00000000000E+00 -0.00000000000E+00 -0.19988455314E+03  0.19988455314E+03  0.00000000000E+00 0. -1.
         23    2    1    2    0    0  0.19945697793E+02  0.15973195162E+02 -0.13458520847E+03  0.16428444392E+03  0.90682006770E+02 0.  0.
         13    1    3    3    0    0  0.37665295077E+02 -0.19534963439E+02 -0.10925684136E+03  0.11720642744E+03  0.00000000000E+00 0. -1.
        -13    1    3    3    0    0 -0.17719597284E+02  0.35508158600E+02 -0.25328367105E+02  0.47078016476E+02  0.00000000000E+00 0.  1.
         22    1    1    2    0    0 -0.19945697793E+02 -0.15973195162E+02 -0.47213962040E+02  0.53685491854E+02  0.00000000000E+00 0.  1.
<mgrwt>
<rscale>  0 0.67990327E+02</rscale>
<asrwt>0</asrwt>
<pdfrwt beam="1">  1        2 0.30751468E-01 0.94213588E+02</pdfrwt>
<pdfrwt beam="2">  1       -2 0.27823667E-02 0.94213588E+02</pdfrwt>
<totfact> 0.70055679E+04</totfact>
</mgrwt>
</event>
<event>
 6    1  0.1727544E-002  0.9519996E+02  0.7546771E-02  0.1390166E+00
          2   -1    0    0  501    0  0.00000000000E+00  0.00000000000E+00  0.31157494554E+03  0.31157494554E+03  0.00000000000E+00 0. -1.
         -2   -1    0    0    0  501 -0.00000000000E+00 -0.00000000000E+00 -0.11146607886E+02  0.11146607886E+02  0.00000000000E+00 0.  1.
         23    2    1    2    0    0 -0.71015363109E+01  0.15421320137E+02  0.20805638013E+03  0.22880229305E+03  0.93673812024E+02 0.  0.
         13    1    3    3    0    0  0.31242379859E+02  0.36055985517E+02  0.14096178507E+03  0.14881648175E+03  0.00000000000E+00 0. -1.
        -13    1    3    3    0    0 -0.38343916170E+02 -0.20634665380E+02  0.67094595060E+02  0.79985811297E+02  0.00000000000E+00 0.  1.
         22    1    1    2    0    0  0.71015363109E+01 -0.15421320137E+02  0.92371957523E+02  0.93919260375E+02  0.00000000000E+00 0. -1.
<mgrwt>
<rscale>  0 0.61865501E+02</rscale>
<asrwt>0</asrwt>
<pdfrwt beam="1">  1        2 0.47934600E-01 0.95199958E+02</pdfrwt>
<pdfrwt beam="2">  1       -2 0.17148630E-02 0.95199958E+02</pdfrwt>
<totfact> 0.88285925E+04</totfact>
</mgrwt>
</event>
<event>
 6    1  0.1727544E-002  0.9063984E+02  0.7546771E-02  0.1415129E+00
         -4   -1    0    0    0  501 -0.00000000000E+00  0.00000000000E+00  0.13066196459E+04  0.13066196459E+04  0.00000000000E+00 0.  1.
          4   -1    0    0  501    0  0.00000000000E+00 -0.00000000000E+00 -0.27643197383E+01  0.27643197383E+01  0.00000000000E+00 0. -1.
         23    2    1    2    0    0  0.13267663547E+02 -0.11163510321E+00  0.12665542907E+04  0.12697934289E+04  0.89663466604E+02 0.  0.
         13    1    3    3    0    0 -0.34903108677E+02 -0.13394184721E+01  0.29778658562E+03  0.29982807009E+03  0.00000000000E+00 0.  1.
        -13    1    3    3    0    0  0.48170772225E+02  0.12277833689E+01  0.96876770511E+03  0.96996535877E+03  0.00000000000E+00 0. -1.
         22    1    1    2    0    0 -0.13267663547E+02  0.11163510321E+00  0.37301035441E+02  0.39590536790E+02  0.00000000000E+00 0.  1.
<mgrwt>
<rscale>  0 0.56064997E+02</rscale>
<asrwt>0</asrwt>
<pdfrwt beam="1">  1        4 0.42528100E-03 0.90639840E+02</pdfrwt>
<pdfrwt beam="2">  1       -4 0.20101791E+00 0.90639840E+02</pdfrwt>
<totfact> 0.22951170E+03</totfact>
</mgrwt>
</event>
<event>
 6    1  0.1727544E-002  0.9330526E+02  0.7546771E-02  0.1397703E+00
          1   -1    0    0  501    0  0.00000000000E+00  0.00000000000E+00  0.16377997813E+03  0.16377997813E+03  0.00000000000E+00 0. -1.
         -1   -1    0    0    0  501 -0.00000000000E+00 -0.00000000000E+00 -0.19618156173E+02  0.19618156173E+02  0.00000000000E+00 0.  1.
         23    2    1    2    0    0  0.12621327501E+02 -0.98129683212E+01  0.10165428704E+03  0.13798356858E+03  0.91925398388E+02 0.  0.
         11    1    3    3    0    0  0.18815557524E+02 -0.72111182234E+01 -0.12447133104E+02  0.23684521390E+02  0.00000000000E+00 0.  1.
        -11    1    3    3    0    0 -0.61942300232E+01 -0.26018500978E+01  0.11410142014E+03  0.11429904719E+03  0.00000000000E+00 0. -1.
         22    1    1    2    0    0 -0.12621327501E+02  0.98129683212E+01  0.42507534921E+02  0.45414565727E+02  0.00000000000E+00 0. -1.
<mgrwt>
<rscale>  0 0.60030650E+02</rscale>
<asrwt>0</asrwt>
<pdfrwt beam="1">  1        1 0.25196919E-01 0.93305258E+02</pdfrwt>
<pdfrwt beam="2">  1       -1 0.30181780E-02 0.93305258E+02</pdfrwt>
<totfact> 0.61242225E+04</totfact>
</mgrwt>
</event>
<event>
 6    1  0.1727544E-002  0.9633225E+02  0.7546771E-02  0.1360400E+00
         -2   -1    0    0    0  501 -0.00000000000E+00  0.00000000000E+00  0.22908051677E+02  0.22908051677E+02  0.00000000000E+00 0.  1.
          2   -1    0    0  501    0  0.00000000000E+00 -0.00000000000E+00 -0.17555500293E+03  0.17555500293E+03  0.00000000000E+00 0. -1.
         23    2    1    2    0    0 -0.88951161420E+01  0.25196191080E+02 -0.96864790390E+02  0.13661145312E+03  0.92552311532E+02 0.  0.
         13    1    3    3    0    0  0.21313025862E+02  0.34647111616E+01  0.97477000901E+01  0.23691073253E+02  0.00000000000E+00 0.  1.
        -13    1    3    3    0    0 -0.30208142004E+02  0.21731479918E+02 -0.10661249048E+03  0.11292037987E+03  0.00000000000E+00 0. -1.
         22    1    1    2    0    0  0.88951161420E+01 -0.25196191080E+02 -0.55782160864E+02  0.61851601489E+02  0.00000000000E+00 0. -1.
<mgrwt>
<rscale>  0 0.69909926E+02</rscale>
<asrwt>0</asrwt>
<pdfrwt beam="1">  1        2 0.27008462E-01 0.96332245E+02</pdfrwt>
<pdfrwt beam="2">  1       -2 0.35243157E-02 0.96332245E+02</pdfrwt>
<totfact> 0.57232943E+04</totfact>
</mgrwt>
</event>
<event>
 6    1  0.1727544E-002  0.9396324E+02  0.7546771E-02  0.1404544E+00
         -2   -1    0    0    0  501 -0.00000000000E+00  0.00000000000E+00  0.27280527020E+02  0.27280527020E+02  0.00000000000E+00 0.  1.
          2   -1    0    0  501    0  0.00000000000E+00 -0.00000000000E+00 -0.10969176948E+03  0.10969176948E+03  0.00000000000E+00 0. -1.
         23    2    1    2    0    0 -0.13624733951E+02 -0.34267205996E+01 -0.78363784821E+02  0.12235184156E+03  0.92907021112E+02 0.  0.
         13    1    3    3    0    0 -0.23622612251E+02 -0.44921329773E+02 -0.36080818635E+02  0.62271816671E+02  0.00000000000E+00 0. -1.
        -13    1    3    3    0    0  0.99978782997E+01  0.41494609174E+02 -0.42282966185E+02  0.60080024887E+02  0.00000000000E+00 0.  1.
         22    1    1    2    0    0  0.13624733951E+02  0.34267205996E+01 -0.40474576355E+01  0.14620454939E+02  0.00000000000E+00 0. -1.
<mgrwt>
<rscale>  0 0.58429238E+02</rscale>
<asrwt>0</asrwt>
<pdfrwt beam="1">  1        2 0.16875657E-01 0.93963239E+02</pdfrwt>
<pdfrwt beam="2">  1       -2 0.41970042E-02 0.93963239E+02</pdfrwt>
<totfact> 0.74385444E+04</totfact>
</mgrwt>
</event>
<event>
 6    1  0.1727544E-002  0.1009740E+03  0.7546771E-02  0.1318792E+00
         -2   -1    0    0    0  501 -0.00000000000E+00  0.00000000000E+00  0.10161459785E+02  0.10161459785E+02  0.00000000000E+00 0.  1.
          2   -1    0    0  501    0  0.00000000000E+00 -0.00000000000E+00 -0.56975871121E+03  0.56975871121E+03  0.00000000000E+00 0. -1.
         23    2    1    2    0    0 -0.40573870946E+02  0.25152443278E+02 -0.43310183856E+03  0.44471671734E+03  0.88976804304E+02 0.  0.
         11    1    3    3    0    0 -0.18246690415E+02 -0.18757410762E+02 -0.35647351565E+02  0.44221214855E+02  0.00000000000E+00 0.  1.
        -11    1    3    3    0    0 -0.22327180530E+02  0.43909854040E+02 -0.39745448700E+03  0.40049550248E+03  0.00000000000E+00 0. -1.
         22    1    1    2    0    0  0.40573870946E+02 -0.25152443278E+02 -0.12649541286E+03  0.13520345366E+03  0.00000000000E+00 0.  1.
<mgrwt>
<rscale>  0 0.83728358E+02</rscale>
<asrwt>0</asrwt>
<pdfrwt beam="1">  1        2 0.87655204E-01 0.10097404E+03</pdfrwt>
<pdfrwt beam="2">  1       -2 0.15633012E-02 0.10097404E+03</pdfrwt>
<totfact> 0.53347677E+04</totfact>
</mgrwt>
</event>
<event>
 6    1  0.1727544E-002  0.9198339E+02  0.7546771E-02  0.1429861E+00
         -1   -1    0    0    0  501 -0.00000000000E+00  0.00000000000E+00  0.28830802352E+02  0.28830802352E+02  0.00000000000E+00 0.  1.
          1   -1    0    0  501    0  0.00000000000E+00 -0.00000000000E+00 -0.10336371472E+03  0.10336371472E+03  0.00000000000E+00 0. -1.
         23    2    1    2    0    0 -0.49951360327E+01 -0.88119949024E+01 -0.47916128345E+02  0.10371547513E+03  0.91423967252E+02 0.  0.
         13    1    3    3    0    0  0.18452908883E+02 -0.37599406775E+02 -0.51537954025E+02  0.66410736641E+02  0.00000000000E+00 0. -1.
        -13    1    3    3    0    0 -0.23448044915E+02  0.28787411872E+02  0.36218256800E+01  0.37304738491E+02  0.00000000000E+00 0.  1.
         22    1    1    2    0    0  0.49951360327E+01  0.88119949024E+01 -0.26616784026E+02  0.28479041943E+02  0.00000000000E+00 0. -1.
<mgrwt>
<rscale>  0 0.52987921E+02</rscale>
<asrwt>0</asrwt>
<pdfrwt beam="1">  1        1 0.15902110E-01 0.91983392E+02</pdfrwt>
<pdfrwt beam="2">  1       -1 0.44355081E-02 0.91983392E+02</pdfrwt>
<totfact> 0.62379228E+04</totfact>
</mgrwt>
</event>
<event>
 6    1  0.1727544E-002  0.9947407E+02  0.7546771E-02  0.1337182E+00
         -2   -1    0    0    0  501 -0.00000000000E+00  0.00000000000E+00  0.18975257484E+03  0.18975257484E+03  0.00000000000E+00 0.  1.
          2   -1    0    0  501    0  0.00000000000E+00 -0.00000000000E+00 -0.27568052485E+02  0.27568052485E+02  0.00000000000E+00 0. -1.
         23    2    1    2    0    0  0.32039425177E+02 -0.16615748484E+02  0.14846543883E+03  0.17870947458E+03  0.92695641291E+02 0.  0.
         13    1    3    3    0    0 -0.28231383615E+01  0.34672303924E+02  0.34674012658E+02  0.49116452675E+02  0.00000000000E+00 0. -1.
        -13    1    3    3    0    0  0.34862563539E+02 -0.51288052408E+02  0.11379142617E+03  0.12959302190E+03  0.00000000000E+00 0.  1.
         22    1    1    2    0    0 -0.32039425177E+02  0.16615748484E+02  0.13719083522E+02  0.38611152742E+02  0.00000000000E+00 0.  1.
<mgrwt>
<rscale>  0 0.77202989E+02</rscale>
<asrwt>0</asrwt>
<pdfrwt beam="1">  1        2 0.42412390E-02 0.99474066E+02</pdfrwt>
<pdfrwt beam="2">  1       -2 0.29192703E-01 0.99474066E+02</pdfrwt>
<totfact> 0.18815027E+04</totfact>
</mgrwt>
</event>
<event>
 6    1  0.1727544E-002  0.9188340E+02  0.7546771E-02  0.1411144E+00
         -1   -1    0    0    0  501 -0.00000000000E+00  0.00000000000E+00  0.35787462556E+02  0.35787462556E+02  0.00000000000E+00 0.  1.
          1   -1    0    0  501    0  0.00000000000E+00 -0.00000000000E+00 -0.88196517126E+02  0.88196517126E+02  0.00000000000E+00 0. -1.
         23    2    1    2    0    0 -0.53446105255E+01  0.12451438490E+02 -0.27980836937E+02  0.96049395403E+02  0.90878798074E+02 0.  0.
         11    1    3    3    0    0 -0.32150864743E+02  0.31191738341E+02 -0.41115057402E+02  0.60803376466E+02  0.00000000000E+00 0. -1.
        -11    1    3    3    0    0  0.26806254218E+02 -0.18740299851E+02  0.13134220465E+02  0.35246018937E+02  0.00000000000E+00 0.  1.
         22    1    1    2    0    0  0.53446105255E+01 -0.12451438490E+02 -0.24428217633E+02  0.27934584280E+02  0.00000000000E+00 0. -1.
<mgrwt>
<rscale>  0 0.56939391E+02</rscale>
<asrwt>0</asrwt>
<pdfrwt beam="1">  1        1 0.13568695E-01 0.91883400E+02</pdfrwt>
<pdfrwt beam="2">  1       -1 0.55057635E-02 0.91883400E+02</pdfrwt>
<totfact> 0.55702631E+04</totfact>
</mgrwt>
</event>
<event>
 6    1  0.1727544E-002  0.8794415E+02  0.7546771E-02  0.1398964E+00
         -1   -1    0    0    0  501 -0.00000000000E+00  0.00000000000E+00  0.53913305287E+02  0.53913305287E+02  0.00000000000E+00 0.  1.
          1   -1    0    0  501    0  0.00000000000E+00 -0.00000000000E+00 -0.52753513072E+02  0.52753513072E+02  0.00000000000E+00 0. -1.
         23    2    1    2    0    0  0.18212804268E+02  0.43038986547E+01  0.12004607117E+01  0.87952347036E+02  0.85929881068E+02 0.  0.
         13    1    3    3    0    0  0.68382706360E+01  0.17301594355E+02 -0.39542094659E+02  0.43699935498E+02  0.00000000000E+00 0. -1.
        -13    1    3    3    0    0  0.11374533632E+02 -0.12997695700E+02  0.40742555371E+02  0.44252411538E+02  0.00000000000E+00 0.  1.
         22    1    1    2    0    0 -0.18212804268E+02 -0.43038986547E+01 -0.40668496697E-01  0.18714471322E+02  0.00000000000E+00 0.  1.
<mgrwt>
<rscale>  0 0.59730942E+02</rscale>
<asrwt>0</asrwt>
<pdfrwt beam="1">  1        1 0.81159251E-02 0.87944154E+02</pdfrwt>
<pdfrwt beam="2">  1       -1 0.82943547E-02 0.87944154E+02</pdfrwt>
<totfact> 0.59015285E+04</totfact>
</mgrwt>
</event>
<event>
 6    1  0.1727544E-002  0.9019704E+02  0.7546771E-02  0.1408856E+00
         -4   -1    0    0    0  501 -0.00000000000E+00  0.00000000000E+00  0.66723501194E+02  0.66723501194E+02  0.00000000000E+00 0.  1.
          4   -1    0    0  501    0  0.00000000000E+00 -0.00000000000E+00 -0.62413357424E+02  0.62413357424E+02  0.00000000000E+00 0. -1.
         23    2    1    2    0    0  0.43245028517E+00  0.14838808216E+02  0.33638425719E+02  0.96265512972E+02  0.88967005459E+02 0.  0.
         11    1    3    3    0    0 -0.27492030320E+02  0.91353429630E+01  0.53971382462E+02  0.61255010792E+02  0.00000000000E+00 0.  1.
        -11    1    3    3    0    0  0.27924480605E+02  0.57034652530E+01 -0.20332956744E+02  0.35010502180E+02  0.00000000000E+00 0. -1.
         22    1    1    2    0    0 -0.43245028517E+00 -0.14838808216E+02 -0.29328281949E+02  0.32871345646E+02  0.00000000000E+00 0. -1.
<mgrwt>
<rscale>  0 0.57450001E+02</rscale>
<asrwt>0</asrwt>
<pdfrwt beam="1">  1        4 0.96020549E-02 0.90197036E+02</pdfrwt>
<pdfrwt beam="2">  1       -4 0.10265154E-01 0.90197036E+02</pdfrwt>
<totfact> 0.85672802E+03</totfact>
</mgrwt>
</event>
<event>
 6    1  0.1727544E-002  0.9371157E+02  0.7546771E-02  0.1421142E+00
         -4   -1    0    0    0  501 -0.00000000000E+00  0.00000000000E+00  0.11655514953E+03  0.11655514953E+03  0.00000000000E+00 0.  1.
          4   -1    0    0  501    0  0.00000000000E+00 -0.00000000000E+00 -0.28632554646E+02  0.28632554646E+02  0.00000000000E+00 0. -1.
         23    2    1    2    0    0  0.71722301363E+01  0.82640332946E+01  0.93948523523E+02  0.13269582893E+03  0.93070526007E+02 0.  0.
         13    1    3    3    0    0 -0.38913490851E+02 -0.15465485643E+02  0.41628627919E+02  0.59045606769E+02  0.00000000000E+00 0.  1.
        -13    1    3    3    0    0  0.46085720987E+02  0.23729518938E+02  0.52319895604E+02  0.73650222158E+02  0.00000000000E+00 0. -1.
         22    1    1    2    0    0 -0.71722301363E+01 -0.82640332946E+01 -0.60259286344E+01  0.12491875253E+02  0.00000000000E+00 0. -1.
<mgrwt>
<rscale>  0 0.54780072E+02</rscale>
<asrwt>0</asrwt>
<pdfrwt beam="1">  1        4 0.44050085E-02 0.93711568E+02</pdfrwt>
<pdfrwt beam="2">  1       -4 0.17931561E-01 0.93711568E+02</pdfrwt>
<totfact> 0.11767685E+04</totfact>
</mgrwt>
</event>
<event>
 6    1  0.1727544E-002  0.9477765E+02  0.7546771E-02  0.1381378E+00
          2   -1    0    0  501    0  0.00000000000E+00  0.00000000000E+00  0.11014515848E+02  0.11014515848E+02  0.00000000000E+00 0.  1.
         -2   -1    0    0    0  501 -0.00000000000E+00 -0.00000000000E+00 -0.33882162739E+03  0.33882162739E+03  0.00000000000E+00 0. -1.
         23    2    1    2    0    0  0.18452834355E+02 -0.72699473552E+01 -0.30607950368E+03  0.32041764270E+03  0.92679253080E+02 0.  0.
         11    1    3    3    0    0 -0.32412216274E+02 -0.12148410180E+02 -0.19630019184E+03  0.19932862552E+03  0.00000000000E+00 0. -1.
        -11    1    3    3    0    0  0.50865050629E+02  0.48784628245E+01 -0.10977931184E+03  0.12108901719E+03  0.00000000000E+00 0.  1.
         22    1    1    2    0    0 -0.18452834355E+02  0.72699473552E+01 -0.21727607858E+02  0.29418500531E+02  0.00000000000E+00 0.  1.
<mgrwt>
<rscale>  0 0.64102966E+02</rscale>
<asrwt>0</asrwt>
<pdfrwt beam="1">  1        2 0.16945409E-02 0.94777651E+02</pdfrwt>
<pdfrwt beam="2">  1       -2 0.52126404E-01 0.94777651E+02</pdfrwt>
<totfact> 0.21492333E+04</totfact>
</mgrwt>
</event>
<event>
 6    1  0.1727544E-002  0.9389058E+02  0.7546771E-02  0.1382595E+00
          1   -1    0    0  501    0  0.00000000000E+00  0.00000000000E+00  0.21424391808E+03  0.21424391808E+03  0.00000000000E+00 0. -1.
         -1   -1    0    0    0  501 -0.00000000000E+00 -0.00000000000E+00 -0.15152402911E+02  0.15152402911E+02  0.00000000000E+00 0.  1.
         23    2    1    2    0    0  0.14228972821E+02 -0.14056016219E+02  0.16692340011E+03  0.19151726496E+03  0.91735522093E+02 0.  0.
         13    1    3    3    0    0  0.12241071513E+01 -0.52889680203E+02  0.96612269759E+02  0.11014875114E+03  0.00000000000E+00 0. -1.
        -13    1    3    3    0    0  0.13004865670E+02  0.38833663984E+02  0.70311130348E+02  0.81368513814E+02  0.00000000000E+00 0.  1.
         22    1    1    2    0    0 -0.14228972821E+02  0.14056016219E+02  0.32168115065E+02  0.37879056038E+02  0.00000000000E+00 0.  1.
<mgrwt>
<rscale>  0 0.63786505E+02</rscale>
<asrwt>0</asrwt>
<pdfrwt beam="1">  1        1 0.32960601E-01 0.93890581E+02</pdfrwt>
<pdfrwt beam="2">  1       -1 0.23311391E-02 0.93890581E+02</pdfrwt>
<totfact> 0.63817365E+04</totfact>
</mgrwt>
</event>
<event>
 6    1  0.1727544E-002  0.9182916E+02  0.7546771E-02  0.1418477E+00
          1   -1    0    0  501    0  0.00000000000E+00  0.00000000000E+00  0.15027702799E+02  0.15027702799E+02  0.00000000000E+00 0. -1.
         -1   -1    0    0    0  501 -0.00000000000E+00 -0.00000000000E+00 -0.18380944935E+03  0.18380944935E+03  0.00000000000E+00 0.  1.
         23    2    1    2    0    0  0.91201674672E+01  0.79761033069E+01 -0.15731458602E+03  0.18215508246E+03  0.91026366577E+02 0.  0.
         11    1    3    3    0    0  0.17867483486E+02 -0.56249304767E+01 -0.16370052221E+03  0.16476877064E+03  0.00000000000E+00 0.  1.
        -11    1    3    3    0    0 -0.87473160191E+01  0.13601033784E+02  0.63859361865E+01  0.17386311814E+02  0.00000000000E+00 0. -1.
         22    1    1    2    0    0 -0.91201674672E+01 -0.79761033069E+01 -0.11467160536E+02  0.16682069696E+02  0.00000000000E+00 0.  1.
<mgrwt>
<rscale>  0 0.55344520E+02</rscale>
<asrwt>0</asrwt>
<pdfrwt beam="1">  1        1 0.23119541E-02 0.91829163E+02</pdfrwt>
<pdfrwt beam="2">  1       -1 0.28278378E-01 0.91829163E+02</pdfrwt>
<totfact> 0.48068187E+04</totfact>
</mgrwt>
</event>
<event>
 6    1  0.1727544E-002  0.9128767E+02  0.7546771E-02  0.1418603E+00
          3   -1    0    0  501    0  0.00000000000E+00  0.00000000000E+00  0.35491269529E+03  0.35491269529E+03  0.00000000000E+00 0. -1.
         -3   -1    0    0    0  501 -0.00000000000E+00 -0.00000000000E+00 -0.24488857208E+02  0.24488857208E+02  0.00000000000E+00 0.  1.
         23    2    1    2    0    0 -0.12079527282E+02 -0.23645068652E+01  0.34697070551E+03  0.35877863579E+03  0.90454038856E+02 0.  0.
         13    1    3    3    0    0  0.64783713584E+01 -0.44354615821E+02  0.15170385529E+03  0.15818773957E+03  0.00000000000E+00 0.  1.
        -13    1    3    3    0    0 -0.18557898640E+02  0.41990108955E+02  0.19526685022E+03  0.20059089622E+03  0.00000000000E+00 0. -1.
         22    1    1    2    0    0  0.12079527282E+02  0.23645068652E+01 -0.16546867425E+02  0.20622916710E+02  0.00000000000E+00 0.  1.
<mgrwt>
<rscale>  0 0.55317530E+02</rscale>
<asrwt>0</asrwt>
<pdfrwt beam="1">  1        3 0.54601949E-01 0.91287672E+02</pdfrwt>
<pdfrwt beam="2">  1       -3 0.37675168E-02 0.91287672E+02</pdfrwt>
<totfact> 0.25289179E+03</totfact>
</mgrwt>
</event>
<event>
 6    1  0.1727544E-002  0.9369165E+02  0.7546771E-02  0.1381715E+00
          4   -1    0    0  501    0  0.00000000000E+00  0.00000000000E+00  0.14875849858E+02  0.14875849858E+02  0.00000000000E+00 0. -1.
         -4   -1    0    0    0  501 -0.00000000000E+00 -0.00000000000E+00 -0.27801197415E+03  0.27801197415E+03  0.00000000000E+00 0.  1.
         23    2    1    2    0    0  0.92774528220E+01  0.18189199147E+02 -0.25359715830E+03  0.27035096600E+03  0.91439641424E+02 0.  0.
         11    1    3    3    0    0  0.25917591393E+02  0.53450821102E+00 -0.13872072995E+02  0.29401388604E+02  0.00000000000E+00 0. -1.
        -11    1    3    3    0    0 -0.16640138571E+02  0.17654690936E+02 -0.23972508531E+03  0.24094957740E+03  0.00000000000E+00 0.  1.
         22    1    1    2    0    0 -0.92774528220E+01 -0.18189199147E+02 -0.95389659871E+01  0.22536858001E+02  0.00000000000E+00 0. -1.
<mgrwt>
<rscale>  0 0.64015040E+02</rscale>
<asrwt>0</asrwt>
<pdfrwt beam="1">  1        4 0.22885925E-02 0.93691654E+02</pdfrwt>
<pdfrwt beam="2">  1       -4 0.42771070E-01 0.93691654E+02</pdfrwt>
<totfact> 0.64861859E+03</totfact>
</mgrwt>
</event>
<event>
 6    1  0.1727544E-002  0.9335059E+02  0.7546771E-02  0.1406974E+00
         -2   -1    0    0    0  501 -0.00000000000E+00  0.00000000000E+00  0.23148799471E+02  0.23148799471E+02  0.00000000000E+00 0.  1.
          2   -1    0    0  501    0  0.00000000000E+00 -0.00000000000E+00 -0.15965741035E+03  0.15965741035E+03  0.00000000000E+00 0. -1.
         23    2    1    2    0    0  0.94566341782E+01 -0.10038355998E+02 -0.74932765418E+02  0.11970485274E+03  0.92326247164E+02 0.  0.
         11    1    3    3    0    0  0.48231086466E+01  0.28279601731E+02 -0.75853089855E+02  0.81096790884E+02  0.00000000000E+00 0. -1.
        -11    1    3    3    0    0  0.46335255316E+01 -0.38317957728E+02  0.92032443680E+00  0.38608061857E+02  0.00000000000E+00 0.  1.
         22    1    1    2    0    0 -0.94566341782E+01  0.10038355998E+02 -0.61575845456E+02  0.63101357075E+02  0.00000000000E+00 0. -1.
<mgrwt>
<rscale>  0 0.57874615E+02</rscale>
<asrwt>0</asrwt>
<pdfrwt beam="1">  1        2 0.24562678E-01 0.93350589E+02</pdfrwt>
<pdfrwt beam="2">  1       -2 0.35613538E-02 0.93350589E+02</pdfrwt>
<totfact> 0.62225524E+04</totfact>
</mgrwt>
</event>
<event>
 6    1  0.1727544E-002  0.9078654E+02  0.7546771E-02  0.1419253E+00
          1   -1    0    0  501    0  0.00000000000E+00  0.00000000000E+00  0.17804936368E+03  0.17804936368E+03  0.00000000000E+00 0. -1.
         -1   -1    0    0    0  501 -0.00000000000E+00 -0.00000000000E+00 -0.15070342648E+02  0.15070342648E+02  0.00000000000E+00 0.  1.
         23    2    1    2    0    0  0.75422449234E+01 -0.98286731947E+01  0.14861326304E+03  0.17414964365E+03  0.89937245660E+02 0.  0.
         13    1    3    3    0    0 -0.13702348127E+01  0.23341185512E+02  0.13531265575E+03  0.13731789137E+03  0.00000000000E+00 0. -1.
        -13    1    3    3    0    0  0.89124797362E+01 -0.33169858707E+02  0.13300607290E+02  0.36831752279E+02  0.00000000000E+00 0.  1.
         22    1    1    2    0    0 -0.75422449234E+01  0.98286731947E+01  0.14365757988E+02  0.18970062674E+02  0.00000000000E+00 0.  1.
<mgrwt>
<rscale>  0 0.55179214E+02</rscale>
<asrwt>0</asrwt>
<pdfrwt beam="1">  1        1 0.27392208E-01 0.90786543E+02</pdfrwt>
<pdfrwt beam="2">  1       -1 0.23185144E-02 0.90786543E+02</pdfrwt>
<totfact> 0.80347442E+04</totfact>
</mgrwt>
</event>
<event>
 6    1  0.1727544E-002  0.1004563E+03  0.7546771E-02  0.1398958E+00
         -2   -1    0    0    0  501 -0.00000000000E+00  0.00000000000E+00  0.28026951166E+03  0.28026951166E+03  0.00000000000E+00 0. -1.
          2   -1    0    0  501    0  0.00000000000E+00 -0.00000000000E+00 -0.11662248578E+02  0.11662248578E+02  0.00000000000E+00 0.  1.
         23    2    1    2    0    0  0.71223143860E+01  0.10342665141E+02  0.25053796736E+03  0.26992727133E+03  0.99668252879E+02 0.  0.
         11    1    3    3    0    0  0.90710927922E+01  0.54298205714E+02  0.16122924805E+03  0.17036857191E+03  0.00000000000E+00 0. -1.
        -11    1    3    3    0    0 -0.19487784063E+01 -0.43955540573E+02  0.89308719313E+02  0.99558699417E+02  0.00000000000E+00 0.  1.
         22    1    1    2    0    0 -0.71223143860E+01 -0.10342665141E+02  0.18069295725E+02  0.22004488915E+02  0.00000000000E+00 0.  1.
<mgrwt>
<rscale>  0 0.59732547E+02</rscale>
<asrwt>0</asrwt>
<pdfrwt beam="1">  1        2 0.17941923E-02 0.10045625E+03</pdfrwt>
<pdfrwt beam="2">  1       -2 0.43118381E-01 0.10045625E+03</pdfrwt>
<totfact> 0.28986448E+04</totfact>
</mgrwt>
</event>
<event>
 6    1  0.1727544E-002  0.9264080E+02  0.7546771E-02  0.1419993E+00
          4   -1    0    0  501    0  0.00000000000E+00  0.00000000000E+00  0.10461020549E+02  0.10461020549E+02  0.00000000000E+00 0. -1.
         -4   -1    0    0    0  501 -0.00000000000E+00 -0.00000000000E+00 -0.26490502261E+03  0.26490502261E+03  0.00000000000E+00 0.  1.
         23    2    1    2    0    0 -0.10500310327E+02 -0.47577426800E+01 -0.23694053294E+03  0.25440741573E+03  0.91920750630E+02 0.  0.
         11    1    3    3    0    0 -0.26343128671E+02 -0.32134739354E+02 -0.50946874028E+02  0.65743333310E+02  0.00000000000E+00 0. -1.
        -11    1    3    3    0    0  0.15842818344E+02  0.27376996674E+02 -0.18599365891E+03  0.18866408242E+03  0.00000000000E+00 0.  1.
         22    1    1    2    0    0  0.10500310327E+02  0.47577426800E+01 -0.17503469119E+02  0.20958627426E+02  0.00000000000E+00 0.  1.
<mgrwt>
<rscale>  0 0.55022373E+02</rscale>
<asrwt>0</asrwt>
<pdfrwt beam="1">  1        4 0.16093878E-02 0.92640796E+02</pdfrwt>
<pdfrwt beam="2">  1       -4 0.40754619E-01 0.92640796E+02</pdfrwt>
<totfact> 0.12164201E+04</totfact>
</mgrwt>
</event>
<event>
 6    1  0.1727544E-002  0.9393027E+02  0.7546771E-02  0.1409952E+00
         -2   -1    0    0    0  501 -0.00000000000E+00  0.00000000000E+00  0.18570613399E+03  0.18570613399E+03  0.00000000000E+00 0. -1.
          2   -1    0    0  501    0  0.00000000000E+00 -0.00000000000E+00 -0.76015054651E+02  0.76015054651E+02  0.00000000000E+00 0.  1.
         23    2    1    2    0    0  0.48503490316E+01  0.11976369229E+02  0.17313562983E+03  0.19697421734E+03  0.93037286467E+02 0.  0.
         11    1    3    3    0    0  0.19893826751E+02  0.39744670928E+02  0.15345656469E+03  0.15976332638E+03  0.00000000000E+00 0. -1.
        -11    1    3    3    0    0 -0.15043477720E+02 -0.27768301699E+02  0.19679065149E+02  0.37210890963E+02  0.00000000000E+00 0.  1.
         22    1    1    2    0    0 -0.48503490316E+01 -0.11976369229E+02 -0.63444550493E+02  0.64746971303E+02  0.00000000000E+00 0.  1.
<mgrwt>
<rscale>  0 0.57204542E+02</rscale>
<asrwt>0</asrwt>
<pdfrwt beam="1">  1        2 0.11694624E-01 0.93930272E+02</pdfrwt>
<pdfrwt beam="2">  1       -2 0.28570174E-01 0.93930272E+02</pdfrwt>
<totfact> 0.54447037E+03</totfact>
</mgrwt>
</event>
<event>
 6    1  0.1727544E-002  0.9758671E+02  0.7546771E-02  0.1396779E+00
         -2   -1    0    0    0  501 -0.00000000000E+00  0.00000000000E+00  0.12204721091E+03  0.12204721091E+03  0.00000000000E+00 0.  1.
          2   -1    0    0  501    0  0.00000000000E+00 -0.00000000000E+00 -0.32930201344E+02  0.32930201344E+02  0.00000000000E+00 0. -1.
         23    2    1    2    0    0  0.11281594664E+02  0.85919296826E+01  0.97954066851E+02  0.13826845611E+03  0.96550873162E+02 0.  0.
         11    1    3    3    0    0  0.24325031812E+01  0.48785189730E+02  0.25896614169E+02  0.55286041946E+02  0.00000000000E+00 0. -1.
        -11    1    3    3    0    0  0.88490914824E+01 -0.40193260047E+02  0.72057452681E+02  0.82982414162E+02  0.00000000000E+00 0.  1.
         22    1    1    2    0    0 -0.11281594664E+02 -0.85919296826E+01 -0.88370572881E+01  0.16708956141E+02  0.00000000000E+00 0.  1.
<mgrwt>
<rscale>  0 0.60251568E+02</rscale>
<asrwt>0</asrwt>
<pdfrwt beam="1">  1        2 0.50661849E-02 0.97586714E+02</pdfrwt>
<pdfrwt beam="2">  1       -2 0.18776494E-01 0.97586714E+02</pdfrwt>
<totfact> 0.31805325E+04</totfact>
</mgrwt>
</event>
<event>
 6    1  0.1727544E-002  0.8904565E+02  0.7546771E-02  0.1379482E+00
          3   -1    0    0  501    0  0.00000000000E+00  0.00000000000E+00  0.36608978440E+02  0.36608978440E+02  0.00000000000E+00 0. -1.
         -3   -1    0    0    0  501 -0.00000000000E+00 -0.00000000000E+00 -0.32584084071E+03  0.32584084071E+03  0.00000000000E+00 0.  1.
         23    2    1    2    0    0  0.24443096987E+02 -0.33066032125E+01 -0.31466423376E+03  0.32702095896E+03  0.85561258613E+02 0.  0.
         11    1    3    3    0    0 -0.23424751545E+02  0.16647506109E+02 -0.18748184493E+03  0.18967155987E+03  0.00000000000E+00 0.  1.
        -11    1    3    3    0    0  0.47867848533E+02 -0.19954109322E+02 -0.12718238883E+03  0.13734939909E+03  0.00000000000E+00 0. -1.
         22    1    1    2    0    0 -0.24443096987E+02  0.33066032125E+01  0.25432371487E+02  0.35428860193E+02  0.00000000000E+00 0. -1.
<mgrwt>
<rscale>  0 0.64600080E+02</rscale>
<asrwt>0</asrwt>
<pdfrwt beam="1">  1        3 0.56321504E-02 0.89045649E+02</pdfrwt>
<pdfrwt beam="2">  1       -3 0.50129362E-01 0.89045649E+02</pdfrwt>
<totfact> 0.15916345E+03</totfact>
</mgrwt>
</event>
<event>
 6    1  0.1727544E-002  0.8989076E+02  0.7546771E-02  0.1412169E+00
          2   -1    0    0  501    0  0.00000000000E+00  0.00000000000E+00  0.29147248352E+02  0.29147248352E+02  0.00000000000E+00 0. -1.
         -2   -1    0    0    0  501 -0.00000000000E+00 -0.00000000000E+00 -0.11973412609E+03  0.11973412609E+03  0.00000000000E+00 0.  1.
         23    2    1    2    0    0  0.47240935452E+01  0.13435741220E+02 -0.97868645554E+02  0.13288573928E+03  0.88755347551E+02 0.  0.
         11    1    3    3    0    0 -0.36755619188E+02  0.15446611694E+02 -0.76303685507E+02  0.86091961162E+02  0.00000000000E+00 0.  1.
        -11    1    3    3    0    0  0.41479712734E+02 -0.20108704745E+01 -0.21564960048E+02  0.46793778116E+02  0.00000000000E+00 0. -1.
         22    1    1    2    0    0 -0.47240935452E+01 -0.13435741220E+02  0.72817678127E+01  0.15995635168E+02  0.00000000000E+00 0.  1.
<mgrwt>
<rscale>  0 0.56712587E+02</rscale>
<asrwt>0</asrwt>
<pdfrwt beam="1">  1        2 0.44841921E-02 0.89890755E+02</pdfrwt>
<pdfrwt beam="2">  1       -2 0.18420635E-01 0.89890755E+02</pdfrwt>
<totfact> 0.38034736E+04</totfact>
</mgrwt>
</event>
<event>
 6    1  0.1727544E-002  0.9278337E+02  0.7546771E-02  0.1399929E+00
          2   -1    0    0  501    0  0.00000000000E+00  0.00000000000E+00  0.48880737714E+02  0.48880737714E+02  0.00000000000E+00 0. -1.
         -2   -1    0    0    0  501 -0.00000000000E+00 -0.00000000000E+00 -0.60218526887E+02  0.60218526887E+02  0.00000000000E+00 0.  1.
         23    2    1    2    0    0  0.15651269170E+02  0.11655618800E+01 -0.87839741171E+01  0.93198235312E+02  0.91446334551E+02 0.  0.
         11    1    3    3    0    0  0.50378569195E+02 -0.11257289840E+02  0.87546633419E+01  0.52358102896E+02  0.00000000000E+00 0. -1.
        -11    1    3    3    0    0 -0.34727300025E+02  0.12422851720E+02 -0.17538637459E+02  0.40840132416E+02  0.00000000000E+00 0.  1.
         22    1    1    2    0    0 -0.15651269170E+02 -0.11655618800E+01 -0.25538150562E+01  0.15901029289E+02  0.00000000000E+00 0.  1.
<mgrwt>
<rscale>  0 0.59503186E+02</rscale>
<asrwt>0</asrwt>
<pdfrwt beam="1">  1        2 0.75201136E-02 0.92783365E+02</pdfrwt>
<pdfrwt beam="2">  1       -2 0.92643887E-02 0.92783365E+02</pdfrwt>
<totfact> 0.59224944E+04</totfact>
</mgrwt>
</event>
<event>
 6    1  0.1727544E-002  0.1013816E+03  0.7546771E-02  0.1385749E+00
         -1   -1    0    0    0  501 -0.00000000000E+00  0.00000000000E+00  0.40505847922E+01  0.40505847922E+01  0.00000000000E+00 0.  1.
          1   -1    0    0  501    0  0.00000000000E+00 -0.00000000000E+00 -0.85899494627E+03  0.85899494627E+03  0.00000000000E+00 0. -1.
         23    2    1    2    0    0  0.37237607386E+00 -0.15090578722E+02 -0.78288654505E+03  0.78942357009E+03  0.10025151546E+03 0.  0.
         13    1    3    3    0    0 -0.49356527502E+01  0.52908910229E+01 -0.10593640741E+01  0.73127592691E+01  0.00000000000E+00 0.  1.
        -13    1    3    3    0    0  0.53080288240E+01 -0.20381469745E+02 -0.78182718098E+03  0.78211081082E+03  0.00000000000E+00 0. -1.
         22    1    1    2    0    0 -0.37237607386E+00  0.15090578722E+02 -0.72057816426E+02  0.73621960978E+02  0.00000000000E+00 0. -1.
<mgrwt>
<rscale>  0 0.62976555E+02</rscale>
<asrwt>0</asrwt>
<pdfrwt beam="1">  1        1 0.13215325E+00 0.10138161E+03</pdfrwt>
<pdfrwt beam="2">  1       -1 0.62316602E-03 0.10138161E+03</pdfrwt>
<totfact> 0.69091924E+04</totfact>
</mgrwt>
</event>
<event>
 6    1  0.1727544E-002  0.9402131E+02  0.7546771E-02  0.1419850E+00
         -4   -1    0    0    0  501 -0.00000000000E+00  0.00000000000E+00  0.47712183028E+02  0.47712183028E+02  0.00000000000E+00 0. -1.
          4   -1    0    0  501    0  0.00000000000E+00 -0.00000000000E+00 -0.60148958322E+02  0.60148958322E+02  0.00000000000E+00 0.  1.
         23    2    1    2    0    0  0.28702411907E+01  0.10672543737E+02 -0.42679976390E+01  0.94118128482E+02  0.93369506964E+02 0.  0.
         11    1    3    3    0    0 -0.20858884859E+02  0.39947355027E+02 -0.24554465049E+02  0.51320619687E+02  0.00000000000E+00 0.  1.
        -11    1    3    3    0    0  0.23729126050E+02 -0.29274811289E+02  0.20286467410E+02  0.42797508795E+02  0.00000000000E+00 0. -1.
         22    1    1    2    0    0 -0.28702411907E+01 -0.10672543737E+02 -0.81687776547E+01  0.13743012868E+02  0.00000000000E+00 0.  1.
<mgrwt>
<rscale>  0 0.55052572E+02</rscale>
<asrwt>0</asrwt>
<pdfrwt beam="1">  1        4 0.92536859E-02 0.94021308E+02</pdfrwt>
<pdfrwt beam="2">  1       -4 0.73403358E-02 0.94021308E+02</pdfrwt>
<totfact> 0.16056396E+04</totfact>
</mgrwt>
</event>
<event>
 6    1  0.1727544E-002  0.9203661E+02  0.7546771E-02  0.1390528E+00
         -2   -1    0    0    0  501 -0.00000000000E+00  0.00000000000E+00  0.18343640369E+02  0.18343640369E+02  0.00000000000E+00 0.  1.
          2   -1    0    0  501    0  0.00000000000E+00 -0.00000000000E+00 -0.16722097143E+03  0.16722097143E+03  0.00000000000E+00 0. -1.
         23    2    1    2    0    0 -0.46226481248E+01  0.18099269840E+02 -0.12584399843E+03  0.15590846814E+03  0.90120952357E+02 0.  0.
         13    1    3    3    0    0  0.18453995570E+02 -0.88247583410E+01  0.44001573213E+01  0.20923376801E+02  0.00000000000E+00 0.  1.
        -13    1    3    3    0    0 -0.23076643695E+02  0.26924028181E+02 -0.13024415575E+03  0.13498509134E+03  0.00000000000E+00 0. -1.
         22    1    1    2    0    0  0.46226481248E+01 -0.18099269840E+02 -0.23033332635E+02  0.29656143659E+02  0.00000000000E+00 0.  1.
<mgrwt>
<rscale>  0 0.61775499E+02</rscale>
<asrwt>0</asrwt>
<pdfrwt beam="1">  1        2 0.25726303E-01 0.92036615E+02</pdfrwt>
<pdfrwt beam="2">  1       -2 0.28220985E-02 0.92036615E+02</pdfrwt>
<totfact> 0.82888499E+04</totfact>
</mgrwt>
</event>
<event>
 6    1  0.1727544E-002  0.9167053E+02  0.7546771E-02  0.1413170E+00
          2   -1    0    0  501    0  0.00000000000E+00  0.00000000000E+00  0.10517753418E+03  0.10517753418E+03  0.00000000000E+00 0. -1.
         -2   -1    0    0    0  501 -0.00000000000E+00 -0.00000000000E+00 -0.28447674686E+02  0.28447674686E+02  0.00000000000E+00 0.  1.
         23    2    1    2    0    0  0.67653078366E+01 -0.11359271506E+02  0.51513202340E+02  0.10515272676E+03  0.90712091202E+02 0.  0.
         13    1    3    3    0    0 -0.12066368984E+02  0.36707229328E+02  0.13080370030E+02  0.40793553725E+02  0.00000000000E+00 0.  1.
        -13    1    3    3    0    0  0.18831676820E+02 -0.48066500834E+02  0.38432832310E+02  0.64359173034E+02  0.00000000000E+00 0. -1.
         22    1    1    2    0    0 -0.67653078366E+01  0.11359271506E+02  0.25216657149E+02  0.28472482102E+02  0.00000000000E+00 0. -1.
<mgrwt>
<rscale>  0 0.56492493E+02</rscale>
<asrwt>0</asrwt>
<pdfrwt beam="1">  1        2 0.16181159E-01 0.91670529E+02</pdfrwt>
<pdfrwt beam="2">  1       -2 0.43765654E-02 0.91670529E+02</pdfrwt>
<totfact> 0.73107897E+04</totfact>
</mgrwt>
</event>
<event>
 6    1  0.1727544E-002  0.9266551E+02  0.7546771E-02  0.1380852E+00
         -2   -1    0    0    0  501 -0.00000000000E+00  0.00000000000E+00  0.15357228434E+03  0.15357228434E+03  0.00000000000E+00 0.  1.
          2   -1    0    0  501    0  0.00000000000E+00 -0.00000000000E+00 -0.22444823303E+02  0.22444823303E+02  0.00000000000E+00 0. -1.
         23    2    1    2    0    0  0.21382189687E+02 -0.94924100931E+00  0.12081182701E+03  0.15225765900E+03  0.90159847417E+02 0.  0.
         13    1    3    3    0    0  0.45679644886E+02 -0.25876055090E+02  0.46232320228E+02  0.69954468175E+02  0.00000000000E+00 0. -1.
        -13    1    3    3    0    0 -0.24297455199E+02  0.24926814080E+02  0.74579506779E+02  0.82303190829E+02  0.00000000000E+00 0.  1.
         22    1    1    2    0    0 -0.21382189687E+02  0.94924100931E+00  0.10315634035E+02  0.23759448644E+02  0.00000000000E+00 0.  1.
<mgrwt>
<rscale>  0 0.64240443E+02</rscale>
<asrwt>0</asrwt>
<pdfrwt beam="1">  1        2 0.34530498E-02 0.92665512E+02</pdfrwt>
<pdfrwt beam="2">  1       -2 0.23626505E-01 0.92665512E+02</pdfrwt>
<totfact> 0.35344584E+04</totfact>
</mgrwt>
</event>
<event>
 6    1  0.1727544E-002  0.9281615E+02  0.7546771E-02  0.1421894E+00
          2   -1    0    0  501    0  0.00000000000E+00  0.00000000000E+00  0.98871579283E+02  0.98871579283E+02  0.00000000000E+00 0. -1.
         -2   -1    0    0    0  501 -0.00000000000E+00 -0.00000000000E+00 -0.27361258059E+02  0.27361258059E+02  0.00000000000E+00 0.  1.
         23    2    1    2    0    0 -0.88151107621E+01  0.67996368702E+01  0.65294958475E+02  0.11348246584E+03  0.92146064548E+02 0.  0.
         13    1    3    3    0    0  0.28108312718E+02  0.14423158691E+01  0.70406687824E+02  0.75823869654E+02  0.00000000000E+00 0. -1.
        -13    1    3    3    0    0 -0.36923423481E+02  0.53573210011E+01 -0.51117293488E+01  0.37658596187E+02  0.00000000000E+00 0.  1.
         22    1    1    2    0    0  0.88151107621E+01 -0.67996368702E+01  0.62153627495E+01  0.12750371501E+02  0.00000000000E+00 0.  1.
<mgrwt>
<rscale>  0 0.54622259E+02</rscale>
<asrwt>0</asrwt>
<pdfrwt beam="1">  1        2 0.15211012E-01 0.92816154E+02</pdfrwt>
<pdfrwt beam="2">  1       -2 0.42094244E-02 0.92816154E+02</pdfrwt>
<totfact> 0.83292488E+04</totfact>
</mgrwt>
</event>
<event>
 6    1  0.1727544E-002  0.9301081E+02  0.7546771E-02  0.1426820E+00
         -1   -1    0    0    0  501 -0.00000000000E+00  0.00000000000E+00  0.13638468160E+03  0.13638468160E+03  0.00000000000E+00 0.  1.
          1   -1    0    0  501    0  0.00000000000E+00 -0.00000000000E+00 -0.37963054893E+02  0.37963054893E+02  0.00000000000E+00 0. -1.
         23    2    1    2    0    0 -0.43471722756E+01 -0.92943547398E+01  0.11918805859E+03  0.15118467042E+03  0.92443108576E+02 0.  0.
         11    1    3    3    0    0 -0.37906299758E+02 -0.32810226300E+02  0.50217879412E+02  0.70959382211E+02  0.00000000000E+00 0. -1.
        -11    1    3    3    0    0  0.33559127482E+02  0.23515871560E+02  0.68970179176E+02  0.80225288208E+02  0.00000000000E+00 0.  1.
         22    1    1    2    0    0  0.43471722756E+01  0.92943547398E+01 -0.20766431881E+02  0.23163066073E+02  0.00000000000E+00 0.  1.
<mgrwt>
<rscale>  0 0.53603707E+02</rscale>
<asrwt>0</asrwt>
<pdfrwt beam="1">  1        1 0.58404700E-02 0.93010813E+02</pdfrwt>
<pdfrwt beam="2">  1       -1 0.20982258E-01 0.93010813E+02</pdfrwt>
<totfact> 0.22106533E+04</totfact>
</mgrwt>
</event>
<event>
 6    1  0.1727544E-002  0.9432573E+02  0.7546771E-02  0.1404256E+00
         -1   -1    0    0    0  501 -0.00000000000E+00  0.00000000000E+00  0.50516007257E+03  0.50516007257E+03  0.00000000000E+00 0.  1.
          1   -1    0    0  501    0  0.00000000000E+00 -0.00000000000E+00 -0.58327999947E+01  0.58327999947E+01  0.00000000000E+00 0. -1.
         23    2    1    2    0    0  0.12816847382E+02 -0.55095626852E+01  0.42154019530E+03  0.43196467350E+03  0.93288348859E+02 0.  0.
         11    1    3    3    0    0  0.16600810101E+02 -0.35223940484E+02  0.78582346397E+02  0.87701186107E+02  0.00000000000E+00 0. -1.
        -11    1    3    3    0    0 -0.37839627194E+01  0.29714377799E+02  0.34295784891E+03  0.34426348739E+03  0.00000000000E+00 0.  1.
         22    1    1    2    0    0 -0.12816847382E+02  0.55095626852E+01  0.77787077268E+02  0.79028199066E+02  0.00000000000E+00 0.  1.
<mgrwt>
<rscale>  0 0.58495569E+02</rscale>
<asrwt>0</asrwt>
<pdfrwt beam="1">  1        1 0.89735424E-03 0.94325728E+02</pdfrwt>
<pdfrwt beam="2">  1       -1 0.77716900E-01 0.94325728E+02</pdfrwt>
<totfact> 0.28942458E+04</totfact>
</mgrwt>
</event>
<event>
 6    1  0.1727544E-002  0.9245785E+02  0.7546771E-02  0.1419837E+00
          2   -1    0    0  501    0  0.00000000000E+00  0.00000000000E+00  0.10235176016E+03  0.10235176016E+03  0.00000000000E+00 0. -1.
         -2   -1    0    0    0  501 -0.00000000000E+00 -0.00000000000E+00 -0.29254018176E+02  0.29254018176E+02  0.00000000000E+00 0.  1.
         23    2    1    2    0    0 -0.33581052501E+01  0.11128739848E+02  0.48515502428E+02  0.10441364302E+03  0.91724201558E+02 0.  0.
         13    1    3    3    0    0  0.43375588282E+01 -0.35838279563E+02  0.43542831686E+02  0.56561249012E+02  0.00000000000E+00 0. -1.
        -13    1    3    3    0    0 -0.76956640783E+01  0.46967019411E+02  0.49726707423E+01  0.47852394008E+02  0.00000000000E+00 0.  1.
         22    1    1    2    0    0  0.33581052501E+01 -0.11128739848E+02  0.24582239557E+02  0.27192135317E+02  0.00000000000E+00 0. -1.
<mgrwt>
<rscale>  0 0.55055424E+02</rscale>
<asrwt>0</asrwt>
<pdfrwt beam="1">  1        2 0.15746425E-01 0.92457855E+02</pdfrwt>
<pdfrwt beam="2">  1       -2 0.45006182E-02 0.92457855E+02</pdfrwt>
<totfact> 0.72467840E+04</totfact>
</mgrwt>
</event>
<event>
 6    1  0.1727544E-002  0.9102924E+02  0.7546771E-02  0.1386689E+00
          2   -1    0    0  501    0  0.00000000000E+00  0.00000000000E+00  0.47349601222E+02  0.47349601222E+02  0.00000000000E+00 0. -1.
         -2   -1    0    0    0  501 -0.00000000000E+00 -0.00000000000E+00 -0.93143663598E+02  0.93143663598E+02  0.00000000000E+00 0.  1.
         23    2    1    2    0    0 -0.15658275652E+02 -0.13291256586E+02 -0.65409497329E+02  0.11209248338E+03  0.88681922572E+02 0.  0.
         11    1    3    3    0    0 -0.39175922886E+01 -0.23699551312E+02  0.16209759948E+02  0.28978829847E+02  0.00000000000E+00 0. -1.
        -11    1    3    3    0    0 -0.11740683364E+02  0.10408294726E+02 -0.81619257277E+02  0.83113653532E+02  0.00000000000E+00 0.  1.
         22    1    1    2    0    0  0.15658275652E+02  0.13291256586E+02  0.19615434953E+02  0.28400781441E+02  0.00000000000E+00 0. -1.
<mgrwt>
<rscale>  0 0.62737765E+02</rscale>
<asrwt>0</asrwt>
<pdfrwt beam="1">  1        2 0.72845542E-02 0.91029240E+02</pdfrwt>
<pdfrwt beam="2">  1       -2 0.14329794E-01 0.91029240E+02</pdfrwt>
<totfact> 0.30910443E+04</totfact>
</mgrwt>
</event>
<event>
 6    1  0.1727544E-002  0.1115804E+03  0.7546771E-02  0.1284300E+00
         -3   -1    0    0    0  501 -0.00000000000E+00  0.00000000000E+00  0.27674630169E+03  0.27674630169E+03  0.00000000000E+00 0.  1.
          3   -1    0    0  501    0  0.00000000000E+00 -0.00000000000E+00 -0.32029646407E+02  0.32029646407E+02  0.00000000000E+00 0. -1.
         23    2    1    2    0    0  0.23603642740E+02 -0.62406949987E+02  0.10175431467E+03  0.15101033020E+03  0.89433885721E+02 0.  0.
         11    1    3    3    0    0 -0.52250643611E+01  0.21277376951E+02  0.29537440181E+02  0.36776193929E+02  0.00000000000E+00 0.  1.
        -11    1    3    3    0    0  0.28828707102E+02 -0.83684326938E+02  0.72216874491E+02  0.11423413627E+03  0.00000000000E+00 0. -1.
         22    1    1    2    0    0 -0.23603642740E+02  0.62406949987E+02  0.14296234061E+03  0.15776561790E+03  0.00000000000E+00 0.  1.
<mgrwt>
<rscale>  0 0.98119949E+02</rscale>
<asrwt>0</asrwt>
<pdfrwt beam="1">  1        3 0.49276381E-02 0.11158037E+03</pdfrwt>
<pdfrwt beam="2">  1       -3 0.42576353E-01 0.11158037E+03</pdfrwt>
<totfact> 0.28270600E+03</totfact>
</mgrwt>
</event>
<event>
 6    1  0.1727544E-002  0.9403440E+02  0.7546771E-02  0.1380748E+00
         -2   -1    0    0    0  501 -0.00000000000E+00  0.00000000000E+00  0.25553359232E+03  0.25553359232E+03  0.00000000000E+00 0.  1.
          2   -1    0    0  501    0  0.00000000000E+00 -0.00000000000E+00 -0.12891814968E+02  0.12891814968E+02  0.00000000000E+00 0. -1.
         23    2    1    2    0    0  0.10822084395E+02 -0.17430521481E+02  0.19218674060E+03  0.21395843267E+03  0.91768878497E+02 0.  0.
         11    1    3    3    0    0  0.16319732789E+02 -0.24602283106E+02  0.94501835863E+01  0.30998580325E+02  0.00000000000E+00 0. -1.
        -11    1    3    3    0    0 -0.54976483945E+01  0.71717616254E+01  0.18273655701E+03  0.18295985235E+03  0.00000000000E+00 0.  1.
         22    1    1    2    0    0 -0.10822084395E+02  0.17430521481E+02  0.50455036752E+02  0.54466974612E+02  0.00000000000E+00 0.  1.
<mgrwt>
<rscale>  0 0.64267685E+02</rscale>
<asrwt>0</asrwt>
<pdfrwt beam="1">  1        2 0.19833563E-02 0.94034396E+02</pdfrwt>
<pdfrwt beam="2">  1       -2 0.39312857E-01 0.94034396E+02</pdfrwt>
<totfact> 0.29863954E+04</totfact>
</mgrwt>
</event>
<event>
 6    1  0.1727544E-002  0.9787035E+02  0.7546771E-02  0.1351943E+00
          2   -1    0    0  501    0  0.00000000000E+00  0.00000000000E+00  0.70526059447E+02  0.70526059447E+02  0.00000000000E+00 0. -1.
         -2   -1    0    0    0  501 -0.00000000000E+00 -0.00000000000E+00 -0.59634194248E+02  0.59634194248E+02  0.00000000000E+00 0.  1.
         23    2    1    2    0    0  0.24695692888E+02 -0.15944760920E+02 -0.23983141473E+01  0.97899728048E+02  0.93351444515E+02 0.  0.
         11    1    3    3    0    0  0.29759696050E+01  0.36143954171E+02  0.14394754834E+02  0.39018595373E+02  0.00000000000E+00 0. -1.
        -11    1    3    3    0    0  0.21719723283E+02 -0.52088715090E+02 -0.16793068981E+02  0.58881132675E+02  0.00000000000E+00 0.  1.
         22    1    1    2    0    0 -0.24695692888E+02  0.15944760920E+02  0.13290179346E+02  0.32260525648E+02  0.00000000000E+00 0. -1.
<mgrwt>
<rscale>  0 0.72453545E+02</rscale>
<asrwt>0</asrwt>
<pdfrwt beam="1">  1        2 0.10850163E-01 0.97870347E+02</pdfrwt>
<pdfrwt beam="2">  1       -2 0.91744914E-02 0.97870347E+02</pdfrwt>
<totfact> 0.38629518E+04</totfact>
</mgrwt>
</event>
<event>
 6    1  0.1727544E-002  0.9394778E+02  0.7546771E-02  0.1360054E+00
          2   -1    0    0  501    0  0.00000000000E+00  0.00000000000E+00  0.21903323015E+02  0.21903323015E+02  0.00000000000E+00 0.  1.
         -2   -1    0    0    0  501 -0.00000000000E+00 -0.00000000000E+00 -0.17529744015E+03  0.17529744015E+03  0.00000000000E+00 0. -1.
         23    2    1    2    0    0  0.28468521933E+02 -0.53919467402E+01 -0.12726039489E+03  0.15818152088E+03  0.89368090543E+02 0.  0.
         13    1    3    3    0    0 -0.11746611726E+02 -0.65124022814E+01 -0.11548426433E+03  0.11626267491E+03  0.00000000000E+00 0. -1.
        -13    1    3    3    0    0  0.40215133658E+02  0.11204555412E+01 -0.11776130566E+02  0.41918845963E+02  0.00000000000E+00 0.  1.
         22    1    1    2    0    0 -0.28468521933E+02  0.53919467402E+01 -0.26133722239E+02  0.39019242288E+02  0.00000000000E+00 0. -1.
<mgrwt>
<rscale>  0 0.70011504E+02</rscale>
<asrwt>0</asrwt>
<pdfrwt beam="1">  1        2 0.33697420E-02 0.93947780E+02</pdfrwt>
<pdfrwt beam="2">  1       -2 0.26968837E-01 0.93947780E+02</pdfrwt>
<totfact> 0.29073379E+04</totfact>
</mgrwt>
</event>
<event>
 6    1  0.1727544E-002  0.9277013E+02  0.7546771E-02  0.1415157E+00
         -1   -1    0    0    0  501 -0.00000000000E+00  0.00000000000E+00  0.99020704343E+02  0.99020704343E+02  0.00000000000E+00 0.  1.
          1   -1    0    0  501    0  0.00000000000E+00 -0.00000000000E+00 -0.31751528202E+02  0.31751528202E+02  0.00000000000E+00 0. -1.
         23    2    1    2    0    0 -0.11789049087E+02  0.37448066193E+01  0.40385697493E+02  0.10117955306E+03  0.91941786693E+02 0.  0.
         11    1    3    3    0    0  0.11921158183E+01  0.42526527114E+02  0.42623192987E+02  0.60221783675E+02  0.00000000000E+00 0.  1.
        -11    1    3    3    0    0 -0.12981164906E+02 -0.38781720495E+02 -0.22374954939E+01  0.40957769384E+02  0.00000000000E+00 0. -1.
         22    1    1    2    0    0  0.11789049087E+02 -0.37448066193E+01  0.26883478648E+02  0.29592679487E+02  0.00000000000E+00 0.  1.
<mgrwt>
<rscale>  0 0.56058881E+02</rscale>
<asrwt>0</asrwt>
<pdfrwt beam="1">  1        1 0.48848505E-02 0.92770132E+02</pdfrwt>
<pdfrwt beam="2">  1       -1 0.15233954E-01 0.92770132E+02</pdfrwt>
<totfact> 0.46539874E+04</totfact>
</mgrwt>
</event>
<event>
 6    1  0.1727544E-002  0.9302866E+02  0.7546771E-02  0.1399444E+00
         -2   -1    0    0    0  501 -0.00000000000E+00  0.00000000000E+00  0.27318102302E+03  0.27318102302E+03  0.00000000000E+00 0. -1.
          2   -1    0    0  501    0  0.00000000000E+00 -0.00000000000E+00 -0.11933174081E+02  0.11933174081E+02  0.00000000000E+00 0.  1.
         23    2    1    2    0    0 -0.14789188808E+02  0.52424494334E+01  0.24693005589E+03  0.26387266750E+03  0.91695849280E+02 0.  0.
         11    1    3    3    0    0  0.21465760981E+02 -0.77044409530E+01  0.11926438565E+02  0.25736690574E+02  0.00000000000E+00 0.  1.
        -11    1    3    3    0    0 -0.36254949789E+02  0.12946890386E+02  0.23500361732E+03  0.23813597693E+03  0.00000000000E+00 0. -1.
         22    1    1    2    0    0  0.14789188808E+02 -0.52424494334E+01  0.14317793057E+02  0.21241529599E+02  0.00000000000E+00 0.  1.
<mgrwt>
<rscale>  0 0.59617579E+02</rscale>
<asrwt>0</asrwt>
<pdfrwt beam="1">  1        2 0.18358731E-02 0.93028663E+02</pdfrwt>
<pdfrwt beam="2">  1       -2 0.42027845E-01 0.93028663E+02</pdfrwt>
<totfact> 0.29189220E+04</totfact>
</mgrwt>
</event>
<event>
 6    1  0.1727544E-002  0.9669244E+02  0.7546771E-02  0.1373591E+00
         -2   -1    0    0    0  501 -0.00000000000E+00  0.00000000000E+00  0.34690118766E+02  0.34690118766E+02  0.00000000000E+00 0.  1.
          2   -1    0    0  501    0  0.00000000000E+00 -0.00000000000E+00 -0.10019314379E+03  0.10019314379E+03  0.00000000000E+00 0. -1.
         23    2    1    2    0    0  0.88889502189E+01 -0.19266097043E+02 -0.53654970169E+02  0.11058156848E+03  0.94335738358E+02 0.  0.
         11    1    3    3    0    0  0.32932370870E+02 -0.17464520817E+02 -0.71467287366E+02  0.80604737466E+02  0.00000000000E+00 0. -1.
        -11    1    3    3    0    0 -0.24043420651E+02 -0.18015762256E+01  0.17812317197E+02  0.29976831010E+02  0.00000000000E+00 0.  1.
         22    1    1    2    0    0 -0.88889502189E+01  0.19266097043E+02 -0.11848054854E+02  0.24301694078E+02  0.00000000000E+00 0.  1.
<mgrwt>
<rscale>  0 0.66178905E+02</rscale>
<asrwt>0</asrwt>
<pdfrwt beam="1">  1        2 0.15414330E-01 0.96692437E+02</pdfrwt>
<pdfrwt beam="2">  1       -2 0.53369414E-02 0.96692437E+02</pdfrwt>
<totfact> 0.58019963E+04</totfact>
</mgrwt>
</event>
<event>
 6    1  0.1727544E-002  0.9223434E+02  0.7546771E-02  0.1423084E+00
          2   -1    0    0  501    0  0.00000000000E+00  0.00000000000E+00  0.20115829139E+03  0.20115829139E+03  0.00000000000E+00 0.  1.
         -2   -1    0    0    0  501 -0.00000000000E+00 -0.00000000000E+00 -0.13322926306E+02  0.13322926306E+02  0.00000000000E+00 0. -1.
         23    2    1    2    0    0  0.11122089677E+02  0.62825985189E+00  0.17110786017E+03  0.19438382956E+03  0.91559149149E+02 0.  0.
         13    1    3    3    0    0  0.25157287598E+02 -0.41097515116E+02  0.91686826991E+02  0.10357784083E+03  0.00000000000E+00 0.  1.
        -13    1    3    3    0    0 -0.14035197920E+02  0.41725774967E+02  0.79421033175E+02  0.90805988723E+02  0.00000000000E+00 0. -1.
         22    1    1    2    0    0 -0.11122089677E+02 -0.62825985189E+00  0.16727504915E+02  0.20097388137E+02  0.00000000000E+00 0.  1.
<mgrwt>
<rscale>  0 0.54373717E+02</rscale>
<asrwt>0</asrwt>
<pdfrwt beam="1">  1        2 0.30947427E-01 0.92234339E+02</pdfrwt>
<pdfrwt beam="2">  1       -2 0.20496811E-02 0.92234339E+02</pdfrwt>
<totfact> 0.10786640E+05</totfact>
</mgrwt>
</event>
<event>
 6    1  0.1727544E-002  0.9563473E+02  0.7546771E-02  0.1379070E+00
         -2   -1    0    0    0  501 -0.00000000000E+00  0.00000000000E+00  0.23223627142E+02  0.23223627142E+02  0.00000000000E+00 0. -1.
          2   -1    0    0  501    0  0.00000000000E+00 -0.00000000000E+00 -0.17599265519E+03  0.17599265519E+03  0.00000000000E+00 0.  1.
         23    2    1    2    0    0  0.18780212852E+02  0.70082709925E+01 -0.83015141050E+02  0.12663930934E+03  0.93510367179E+02 0.  0.
         13    1    3    3    0    0  0.22966160182E+02 -0.30373604916E+02 -0.29677483414E+01  0.38194344075E+02  0.00000000000E+00 0. -1.
        -13    1    3    3    0    0 -0.41859473305E+01  0.37381875909E+02 -0.80047392709E+02  0.88444965266E+02  0.00000000000E+00 0.  1.
         22    1    1    2    0    0 -0.18780212852E+02 -0.70082709925E+01 -0.69753886997E+02  0.72576972989E+02  0.00000000000E+00 0.  1.
<mgrwt>
<rscale>  0 0.64708989E+02</rscale>
<asrwt>0</asrwt>
<pdfrwt beam="1">  1        2 0.27075793E-01 0.95634727E+02</pdfrwt>
<pdfrwt beam="2">  1       -2 0.35728657E-02 0.95634727E+02</pdfrwt>
<totfact> 0.55891347E+04</totfact>
</mgrwt>
</event>
<event>
 6    1  0.1727544E-002  0.8616157E+02  0.7546771E-02  0.1428705E+00
          4   -1    0    0  501    0  0.00000000000E+00  0.00000000000E+00  0.77793225892E+02  0.77793225892E+02  0.00000000000E+00 0. -1.
         -4   -1    0    0    0  501 -0.00000000000E+00 -0.00000000000E+00 -0.38861370869E+02  0.38861370869E+02  0.00000000000E+00 0.  1.
         23    2    1    2    0    0  0.11803603692E+02 -0.42417303592E+01  0.12062358778E+02  0.87001820077E+02  0.85243761419E+02 0.  0.
         13    1    3    3    0    0  0.22824978172E+02 -0.10076117658E+02  0.45181485669E+02  0.51612735084E+02  0.00000000000E+00 0. -1.
        -13    1    3    3    0    0 -0.11021374480E+02  0.58343872988E+01 -0.33119126892E+02  0.35389084993E+02  0.00000000000E+00 0.  1.
         22    1    1    2    0    0 -0.11803603692E+02  0.42417303592E+01  0.26869496246E+02  0.29652776684E+02  0.00000000000E+00 0. -1.
<mgrwt>
<rscale>  0 0.53220908E+02</rscale>
<asrwt>0</asrwt>
<pdfrwt beam="1">  1        4 0.11968189E-01 0.86161570E+02</pdfrwt>
<pdfrwt beam="2">  1       -4 0.59786725E-02 0.86161570E+02</pdfrwt>
<totfact> 0.14157071E+04</totfact>
</mgrwt>
</event>
<event>
 6    1  0.1727544E-002  0.9214781E+02  0.7546771E-02  0.1425960E+00
         -2   -1    0    0    0  501 -0.00000000000E+00  0.00000000000E+00  0.13610355122E+03  0.13610355122E+03  0.00000000000E+00 0.  1.
          2   -1    0    0  501    0  0.00000000000E+00 -0.00000000000E+00 -0.28818725234E+02  0.28818725234E+02  0.00000000000E+00 0. -1.
         23    2    1    2    0    0 -0.10529421980E+02  0.18508667804E+01  0.11804595331E+03  0.14975335111E+03  0.91525540923E+02 0.  0.
         13    1    3    3    0    0  0.54424410669E+01 -0.24992053747E+02 -0.20520314886E+01  0.25659963922E+02  0.00000000000E+00 0. -1.
        -13    1    3    3    0    0 -0.15971863047E+02  0.26842920527E+02  0.12009798479E+03  0.12409338719E+03  0.00000000000E+00 0.  1.
         22    1    1    2    0    0  0.10529421980E+02 -0.18508667804E+01 -0.10761127317E+02  0.15168925348E+02  0.00000000000E+00 0. -1.
<mgrwt>
<rscale>  0 0.53779518E+02</rscale>
<asrwt>0</asrwt>
<pdfrwt beam="1">  1        2 0.44336501E-02 0.92147811E+02</pdfrwt>
<pdfrwt beam="2">  1       -2 0.20939008E-01 0.92147811E+02</pdfrwt>
<totfact> 0.31259519E+04</totfact>
</mgrwt>
</event>
<event>
 6    1  0.1727544E-002  0.9101710E+02  0.7546771E-02  0.1432126E+00
         -1   -1    0    0    0  501 -0.00000000000E+00  0.00000000000E+00  0.70899795964E+03  0.70899795964E+03  0.00000000000E+00 0.  1.
          1   -1    0    0  501    0  0.00000000000E+00 -0.00000000000E+00 -0.43725080784E+01  0.43725080784E+01  0.00000000000E+00 0. -1.
         23    2    1    2    0    0 -0.43186572323E+01 -0.91334089572E+01  0.68741034189E+03  0.69340975729E+03  0.90454648418E+02 0.  0.
         11    1    3    3    0    0 -0.26552556596E+02 -0.22104547944E+02  0.62425178233E+03  0.62520711531E+03  0.00000000000E+00 0.  1.
        -11    1    3    3    0    0  0.22233899363E+02  0.12971138986E+02  0.63158559558E+02  0.68202641979E+02  0.00000000000E+00 0. -1.
         22    1    1    2    0    0  0.43186572323E+01  0.91334089572E+01  0.17215109676E+02  0.19960710424E+02  0.00000000000E+00 0.  1.
<mgrwt>
<rscale>  0 0.52535698E+02</rscale>
<asrwt>0</asrwt>
<pdfrwt beam="1">  1        1 0.67269411E-03 0.91017105E+02</pdfrwt>
<pdfrwt beam="2">  1       -1 0.10907652E+00 0.91017105E+02</pdfrwt>
<totfact> 0.20932033E+04</totfact>
</mgrwt>
</event>
<event>
 6    1  0.1727544E-002  0.9400891E+02  0.7546771E-02  0.1382660E+00
          2   -1    0    0  501    0  0.00000000000E+00  0.00000000000E+00  0.27735403407E+03  0.27735403407E+03  0.00000000000E+00 0. -1.
         -2   -1    0    0    0  501 -0.00000000000E+00 -0.00000000000E+00 -0.14493298662E+02  0.14493298662E+02  0.00000000000E+00 0.  1.
         23    2    1    2    0    0 -0.21874578061E+01  0.19783814949E+02  0.14841413083E+03  0.17568275292E+03  0.91877587774E+02 0.  0.
         13    1    3    3    0    0 -0.26487120322E+02 -0.23592820635E+02  0.27299192628E+02  0.44759743595E+02  0.00000000000E+00 0.  1.
        -13    1    3    3    0    0  0.24299662516E+02  0.43376635584E+02  0.12111493821E+03  0.13092300932E+03  0.00000000000E+00 0. -1.
         22    1    1    2    0    0  0.21874578061E+01 -0.19783814949E+02  0.11444660457E+03  0.11616457982E+03  0.00000000000E+00 0. -1.
<mgrwt>
<rscale>  0 0.63769634E+02</rscale>
<asrwt>0</asrwt>
<pdfrwt beam="1">  1        2 0.42669847E-01 0.94008911E+02</pdfrwt>
<pdfrwt beam="2">  1       -2 0.22297385E-02 0.94008911E+02</pdfrwt>
<totfact> 0.68254206E+04</totfact>
</mgrwt>
</event>
<event>
 6    1  0.1727544E-002  0.1031774E+03  0.7546771E-02  0.1313505E+00
          3   -1    0    0  501    0  0.00000000000E+00  0.00000000000E+00  0.47613540980E+03  0.47613540980E+03  0.00000000000E+00 0. -1.
         -3   -1    0    0    0  501 -0.00000000000E+00 -0.00000000000E+00 -0.13636908111E+02  0.13636908111E+02  0.00000000000E+00 0.  1.
         23    2    1    2    0    0  0.47116765658E+02  0.14180775407E+02  0.22936996448E+03  0.25150776147E+03  0.90688971074E+02 0.  0.
         13    1    3    3    0    0  0.24861841527E+00  0.44353775387E+02  0.13272773792E+03  0.13994274407E+03  0.00000000000E+00 0. -1.
        -13    1    3    3    0    0  0.46868147243E+02 -0.30172999980E+02  0.96642226560E+02  0.11156501740E+03  0.00000000000E+00 0.  1.
         22    1    1    2    0    0 -0.47116765658E+02 -0.14180775407E+02  0.23312853720E+03  0.23826455644E+03  0.00000000000E+00 0. -1.
<mgrwt>
<rscale>  0 0.85741214E+02</rscale>
<asrwt>0</asrwt>
<pdfrwt beam="1">  1        3 0.73251589E-01 0.10317739E+03</pdfrwt>
<pdfrwt beam="2">  1       -3 0.20979862E-02 0.10317739E+03</pdfrwt>
<totfact> 0.34665153E+03</totfact>
</mgrwt>
</event>
<event>
 6    1  0.1727544E-002  0.9150488E+02  0.7546771E-02  0.1420369E+00
         -3   -1    0    0    0  501 -0.00000000000E+00  0.00000000000E+00  0.37818448928E+03  0.37818448928E+03  0.00000000000E+00 0.  1.
          3   -1    0    0  501    0  0.00000000000E+00 -0.00000000000E+00 -0.86645825279E+01  0.86645825279E+01  0.00000000000E+00 0. -1.
         23    2    1    2    0    0 -0.10043386642E+02 -0.63708934619E+01  0.36047271298E+03  0.37190552424E+03  0.90728629768E+02 0.  0.
         11    1    3    3    0    0 -0.26745044422E+02  0.18815023011E+02  0.48629757377E+02  0.58601670578E+02  0.00000000000E+00 0. -1.
        -11    1    3    3    0    0  0.16701657780E+02 -0.25185916472E+02  0.31184295560E+03  0.31330385366E+03  0.00000000000E+00 0.  1.
         22    1    1    2    0    0  0.10043386642E+02  0.63708934619E+01  0.90471937750E+01  0.14943547569E+02  0.00000000000E+00 0.  1.
<mgrwt>
<rscale>  0 0.54942899E+02</rscale>
<asrwt>0</asrwt>
<pdfrwt beam="1">  1        3 0.13330130E-02 0.91504875E+02</pdfrwt>
<pdfrwt beam="2">  1       -3 0.58182216E-01 0.91504875E+02</pdfrwt>
<totfact> 0.10753005E+04</totfact>
</mgrwt>
</event>
<event>
 6    1  0.1727544E-002  0.9544892E+02  0.7546771E-02  0.1370050E+00
         -4   -1    0    0    0  501 -0.00000000000E+00  0.00000000000E+00  0.14895293140E+02  0.14895293140E+02  0.00000000000E+00 0.  1.
          4   -1    0    0  501    0  0.00000000000E+00 -0.00000000000E+00 -0.24273205644E+03  0.24273205644E+03  0.00000000000E+00 0. -1.
         23    2    1    2    0    0 -0.31837449979E+00 -0.23383956425E+02 -0.16554975667E+03  0.19109478631E+03  0.92539638213E+02 0.  0.
         11    1    3    3    0    0 -0.13477538292E+01  0.33295115344E+02 -0.32842775157E+02  0.46787060456E+02  0.00000000000E+00 0.  1.
        -11    1    3    3    0    0  0.10293793294E+01 -0.56679071769E+02 -0.13270698151E+03  0.14430772585E+03  0.00000000000E+00 0. -1.
         22    1    1    2    0    0  0.31837449979E+00  0.23383956425E+02 -0.62287006633E+02  0.66532563273E+02  0.00000000000E+00 0.  1.
<mgrwt>
<rscale>  0 0.67153369E+02</rscale>
<asrwt>0</asrwt>
<pdfrwt beam="1">  1        4 0.37343394E-01 0.95448915E+02</pdfrwt>
<pdfrwt beam="2">  1       -4 0.22915835E-02 0.95448915E+02</pdfrwt>
<totfact> 0.84814024E+03</totfact>
</mgrwt>
</event>
<event>
 6    1  0.1727544E-002  0.9161954E+02  0.7546771E-02  0.1405836E+00
          2   -1    0    0  501    0  0.00000000000E+00  0.00000000000E+00  0.72686720659E+03  0.72686720659E+03  0.00000000000E+00 0. -1.
         -2   -1    0    0    0  501 -0.00000000000E+00 -0.00000000000E+00 -0.44518115092E+01  0.44518115092E+01  0.00000000000E+00 0.  1.
         23    2    1    2    0    0 -0.80520609320E+01 -0.12478090289E+02  0.68441127375E+03  0.69051642430E+03  0.90407976257E+02 0.  0.
         11    1    3    3    0    0 -0.86791976151E+01  0.34858085906E+02  0.44638784125E+03  0.44783090496E+03  0.00000000000E+00 0.  1.
        -11    1    3    3    0    0  0.62713668306E+00 -0.47336176195E+02  0.23802343250E+03  0.24268551934E+03  0.00000000000E+00 0. -1.
         22    1    1    2    0    0  0.80520609320E+01  0.12478090289E+02  0.38004121330E+02  0.40802593798E+02  0.00000000000E+00 0.  1.
<mgrwt>
<rscale>  0 0.58133520E+02</rscale>
<asrwt>0</asrwt>
<pdfrwt beam="1">  1        2 0.11182563E+00 0.91619543E+02</pdfrwt>
<pdfrwt beam="2">  1       -2 0.68489465E-03 0.91619543E+02</pdfrwt>
<totfact> 0.12859137E+05</totfact>
</mgrwt>
</event>
<event>
 6    1  0.1727544E-002  0.9410417E+02  0.7546771E-02  0.1324969E+00
          2   -1    0    0  501    0  0.00000000000E+00  0.00000000000E+00  0.36243577540E+02  0.36243577540E+02  0.00000000000E+00 0. -1.
         -2   -1    0    0    0  501 -0.00000000000E+00 -0.00000000000E+00 -0.25389807063E+03  0.25389807063E+03  0.00000000000E+00 0.  1.
         23    2    1    2    0    0  0.51590771001E+02 -0.11368878887E+02 -0.21785709150E+03  0.23731267784E+03  0.77876412934E+02 0.  0.
         11    1    3    3    0    0  0.38344566092E+02 -0.12428297550E+02 -0.33318295618E+02  0.52296052926E+02  0.00000000000E+00 0. -1.
        -11    1    3    3    0    0  0.13246204909E+02  0.10594186628E+01 -0.18453879588E+03  0.18501662492E+03  0.00000000000E+00 0.  1.
         22    1    1    2    0    0 -0.51590771001E+02  0.11368878887E+02  0.20259840353E+00  0.52828970326E+02  0.00000000000E+00 0. -1.
<mgrwt>
<rscale>  0 0.81456152E+02</rscale>
<asrwt>0</asrwt>
<pdfrwt beam="1">  1        2 0.55759352E-02 0.94104170E+02</pdfrwt>
<pdfrwt beam="2">  1       -2 0.39061240E-01 0.94104170E+02</pdfrwt>
<totfact> 0.77210332E+03</totfact>
</mgrwt>
</event>
<event>
 6    1  0.1727544E-002  0.9380920E+02  0.7546771E-02  0.1404229E+00
         -1   -1    0    0    0  501 -0.00000000000E+00  0.00000000000E+00  0.46784338830E+03  0.46784338830E+03  0.00000000000E+00 0.  1.
          1   -1    0    0  501    0  0.00000000000E+00 -0.00000000000E+00 -0.63228605543E+01  0.63228605543E+01  0.00000000000E+00 0. -1.
         23    2    1    2    0    0  0.91978099418E+01 -0.10803386125E+02  0.41775962040E+03  0.42816266344E+03  0.92730000892E+02 0.  0.
         11    1    3    3    0    0  0.16964792988E+02  0.35581453960E+02  0.11041342319E+03  0.11723893589E+03  0.00000000000E+00 0. -1.
        -11    1    3    3    0    0 -0.77669830467E+01 -0.46384840084E+02  0.30734619721E+03  0.31092372755E+03  0.00000000000E+00 0.  1.
         22    1    1    2    0    0 -0.91978099418E+01  0.10803386125E+02  0.43760907341E+02  0.46003585412E+02  0.00000000000E+00 0. -1.
<mgrwt>
<rscale>  0 0.58501636E+02</rscale>
<asrwt>0</asrwt>
<pdfrwt beam="1">  1        1 0.97274814E-03 0.93809200E+02</pdfrwt>
<pdfrwt beam="2">  1       -1 0.71975879E-01 0.93809200E+02</pdfrwt>
<totfact> 0.30124837E+04</totfact>
</mgrwt>
</event>
<event>
 6    1  0.1727544E-002  0.9221253E+02  0.7546771E-02  0.1424105E+00
          1   -1    0    0  501    0  0.00000000000E+00  0.00000000000E+00  0.21873494367E+03  0.21873494367E+03  0.00000000000E+00 0. -1.
         -1   -1    0    0    0  501 -0.00000000000E+00 -0.00000000000E+00 -0.12565898580E+02  0.12565898580E+02  0.00000000000E+00 0.  1.
         23    2    1    2    0    0  0.10809287496E+02 -0.18991033930E+01  0.16869570637E+03  0.19225345559E+03  0.91557099943E+02 0.  0.
         13    1    3    3    0    0  0.26624515251E+02  0.36424004099E+02  0.12055811027E+03  0.12872385497E+03  0.00000000000E+00 0. -1.
        -13    1    3    3    0    0 -0.15815227755E+02 -0.38323107492E+02  0.48137596099E+02  0.63529600621E+02  0.00000000000E+00 0.  1.
         22    1    1    2    0    0 -0.10809287496E+02  0.18991033930E+01  0.37473338727E+02  0.39047386663E+02  0.00000000000E+00 0.  1.
<mgrwt>
<rscale>  0 0.54161672E+02</rscale>
<asrwt>0</asrwt>
<pdfrwt beam="1">  1        1 0.33651527E-01 0.92212525E+02</pdfrwt>
<pdfrwt beam="2">  1       -1 0.19332153E-02 0.92212525E+02</pdfrwt>
<totfact> 0.81095322E+04</totfact>
</mgrwt>
</event>
<event>
 6    1  0.1727544E-002  0.9638035E+02  0.7546771E-02  0.1371900E+00
         -2   -1    0    0    0  501 -0.00000000000E+00  0.00000000000E+00  0.12070020988E+02  0.12070020988E+02  0.00000000000E+00 0.  1.
          2   -1    0    0  501    0  0.00000000000E+00 -0.00000000000E+00 -0.31838891920E+03  0.31838891920E+03  0.00000000000E+00 0. -1.
         23    2    1    2    0    0  0.56444276917E+01 -0.21294931059E+02 -0.20168229321E+03  0.22352834233E+03  0.93828773711E+02 0.  0.
         11    1    3    3    0    0 -0.24975592659E+02 -0.48599465761E+02 -0.10154795070E+03  0.11531554358E+03  0.00000000000E+00 0.  1.
        -11    1    3    3    0    0  0.30620020351E+02  0.27304534702E+02 -0.10013434251E+03  0.10821279874E+03  0.00000000000E+00 0. -1.
         22    1    1    2    0    0 -0.56444276917E+01  0.21294931059E+02 -0.10463660500E+03  0.10693059786E+03  0.00000000000E+00 0. -1.
<mgrwt>
<rscale>  0 0.66641756E+02</rscale>
<asrwt>0</asrwt>
<pdfrwt beam="1">  1        2 0.48982916E-01 0.96380353E+02</pdfrwt>
<pdfrwt beam="2">  1       -2 0.18569261E-02 0.96380353E+02</pdfrwt>
<totfact> 0.77132067E+04</totfact>
</mgrwt>
</event>
<event>
 6    1  0.1727544E-002  0.9264614E+02  0.7546771E-02  0.1389090E+00
          4   -1    0    0  501    0  0.00000000000E+00  0.00000000000E+00  0.22504022758E+03  0.22504022758E+03  0.00000000000E+00 0. -1.
         -4   -1    0    0    0  501 -0.00000000000E+00 -0.00000000000E+00 -0.14024531608E+02  0.14024531608E+02  0.00000000000E+00 0.  1.
         23    2    1    2    0    0  0.79317583556E+00  0.18725462456E+02  0.16250384479E+03  0.18705830019E+03  0.90730568319E+02 0.  0.
         13    1    3    3    0    0 -0.50632680154E+01  0.55005479990E+02  0.10825845997E+03  0.12153655281E+03  0.00000000000E+00 0. -1.
        -13    1    3    3    0    0  0.58564438510E+01 -0.36280017534E+02  0.54245384812E+02  0.65521747384E+02  0.00000000000E+00 0.  1.
         22    1    1    2    0    0 -0.79317583556E+00 -0.18725462456E+02  0.48511851188E+02  0.52006459000E+02  0.00000000000E+00 0.  1.
<mgrwt>
<rscale>  0 0.62133521E+02</rscale>
<asrwt>0</asrwt>
<pdfrwt beam="1">  1        4 0.34621571E-01 0.92646145E+02</pdfrwt>
<pdfrwt beam="2">  1       -4 0.21576204E-02 0.92646145E+02</pdfrwt>
<totfact> 0.10666406E+04</totfact>
</mgrwt>
</event>
<event>
 6    1  0.1727544E-002  0.8888422E+02  0.7546771E-02  0.1436857E+00
          2   -1    0    0  501    0  0.00000000000E+00  0.00000000000E+00  0.15359175550E+03  0.15359175550E+03  0.00000000000E+00 0. -1.
         -2   -1    0    0    0  501 -0.00000000000E+00 -0.00000000000E+00 -0.17191087399E+02  0.17191087399E+02  0.00000000000E+00 0.  1.
         23    2    1    2    0    0  0.26184096020E+01 -0.97563335082E+01  0.10381497097E+03  0.13666730729E+03  0.88308338066E+02 0.  0.
         13    1    3    3    0    0  0.45021926825E+01  0.19019549284E+02  0.10596247058E+03  0.10774997989E+03  0.00000000000E+00 0. -1.
        -13    1    3    3    0    0 -0.18837830804E+01 -0.28775882792E+02 -0.21474996182E+01  0.28917327397E+02  0.00000000000E+00 0.  1.
         22    1    1    2    0    0 -0.26184096020E+01  0.97563335082E+01  0.32585697130E+02  0.34115535608E+02  0.00000000000E+00 0. -1.
<mgrwt>
<rscale>  0 0.51607870E+02</rscale>
<asrwt>0</asrwt>
<pdfrwt beam="1">  1        2 0.23629500E-01 0.88884221E+02</pdfrwt>
<pdfrwt beam="2">  1       -2 0.26447828E-02 0.88884221E+02</pdfrwt>
<totfact> 0.99381120E+04</totfact>
</mgrwt>
</event>
<event>
 6    1  0.1727544E-002  0.9403589E+02  0.7546771E-02  0.1370890E+00
          3   -1    0    0  501    0  0.00000000000E+00  0.00000000000E+00  0.18403081474E+02  0.18403081474E+02  0.00000000000E+00 0. -1.
         -3   -1    0    0    0  501 -0.00000000000E+00 -0.00000000000E+00 -0.23317237442E+03  0.23317237442E+03  0.00000000000E+00 0.  1.
         23    2    1    2    0    0  0.21670921035E+02  0.10587146859E+02 -0.20502705799E+03  0.22556338871E+03  0.90890215763E+02 0.  0.
         13    1    3    3    0    0  0.46898009577E+01 -0.64720157768E+01  0.79248734571E+01  0.11255436044E+02  0.00000000000E+00 0. -1.
        -13    1    3    3    0    0  0.16981120077E+02  0.17059162636E+02 -0.21295193145E+03  0.21430795267E+03  0.00000000000E+00 0.  1.
         22    1    1    2    0    0 -0.21670921035E+02 -0.10587146859E+02 -0.97422349535E+01  0.26012067181E+02  0.00000000000E+00 0.  1.
<mgrwt>
<rscale>  0 0.66920494E+02</rscale>
<asrwt>0</asrwt>
<pdfrwt beam="1">  1        3 0.28312433E-02 0.94035886E+02</pdfrwt>
<pdfrwt beam="2">  1       -3 0.35872673E-01 0.94035886E+02</pdfrwt>
<totfact> 0.89210745E+03</totfact>
</mgrwt>
</event>
<event>
 6    1  0.1727544E-002  0.1375215E+03  0.7546771E-02  0.1230003E+00
         -2   -1    0    0    0  501 -0.00000000000E+00  0.00000000000E+00  0.27319838277E+03  0.27319838277E+03  0.00000000000E+00 0.  1.
          2   -1    0    0  501    0  0.00000000000E+00 -0.00000000000E+00 -0.86294512357E+02  0.86294512357E+02  0.00000000000E+00 0. -1.
         23    2    1    2    0    0 -0.10406678994E+03  0.47647429348E+01 -0.87854734162E+01  0.13780185148E+03  0.89775086669E+02 0.  0.
         11    1    3    3    0    0 -0.11318287985E+03  0.21698273808E+02  0.29331760103E+01  0.11528132068E+03  0.00000000000E+00 0. -1.
        -11    1    3    3    0    0  0.91160899125E+01 -0.16933530873E+02 -0.11718649426E+02  0.22520530800E+02  0.00000000000E+00 0.  1.
         22    1    1    2    0    0  0.10406678994E+03 -0.47647429348E+01  0.19568934383E+03  0.22169104364E+03  0.00000000000E+00 0.  1.
<mgrwt>
<rscale>  0 0.12829794E+03</rscale>
<asrwt>0</asrwt>
<pdfrwt beam="1">  1        2 0.13276079E-01 0.13752151E+03</pdfrwt>
<pdfrwt beam="2">  1       -2 0.42030520E-01 0.13752151E+03</pdfrwt>
<totfact> 0.23618707E+03</totfact>
</mgrwt>
</event>
<event>
 6    1  0.1727544E-002  0.9324305E+02  0.7546771E-02  0.1383651E+00
          2   -1    0    0  501    0  0.00000000000E+00  0.00000000000E+00  0.13664844471E+02  0.13664844471E+02  0.00000000000E+00 0. -1.
         -2   -1    0    0    0  501 -0.00000000000E+00 -0.00000000000E+00 -0.25584650936E+03  0.25584650936E+03  0.00000000000E+00 0.  1.
         23    2    1    2    0    0  0.98662907770E+01  0.17481362542E+02 -0.22316121409E+03  0.24185779568E+03  0.91056708293E+02 0.  0.
         11    1    3    3    0    0 -0.27825655671E+02 -0.10964286483E+02 -0.27670692503E+02  0.40744937296E+02  0.00000000000E+00 0. -1.
        -11    1    3    3    0    0  0.37691946448E+02  0.28445649025E+02 -0.19549052159E+03  0.20111285838E+03  0.00000000000E+00 0.  1.
         22    1    1    2    0    0 -0.98662907770E+01 -0.17481362542E+02 -0.19020450796E+02  0.27653558153E+02  0.00000000000E+00 0. -1.
<mgrwt>
<rscale>  0 0.63513731E+02</rscale>
<asrwt>0</asrwt>
<pdfrwt beam="1">  1        2 0.21022840E-02 0.93243047E+02</pdfrwt>
<pdfrwt beam="2">  1       -2 0.39360996E-01 0.93243047E+02</pdfrwt>
<totfact> 0.27512891E+04</totfact>
</mgrwt>
</event>
<event>
 6    1  0.1727544E-002  0.1052263E+03  0.7546771E-02  0.1301441E+00
          2   -1    0    0  501    0  0.00000000000E+00  0.00000000000E+00  0.73428166785E+01  0.73428166785E+01  0.00000000000E+00 0. -1.
         -2   -1    0    0    0  501 -0.00000000000E+00 -0.00000000000E+00 -0.99922471418E+03  0.99922471418E+03  0.00000000000E+00 0.  1.
         23    2    1    2    0    0 -0.29517358375E+02 -0.49683244946E+02 -0.77529714907E+03  0.78240541870E+03  0.87936741940E+02 0.  0.
         11    1    3    3    0    0  0.27949067114E+02 -0.11664479017E+02 -0.13205868994E+03  0.13548692931E+03  0.00000000000E+00 0. -1.
        -11    1    3    3    0    0 -0.57466425490E+02 -0.38018765929E+02 -0.64323845912E+03  0.64691848939E+03  0.00000000000E+00 0.  1.
         22    1    1    2    0    0  0.29517358375E+02  0.49683244946E+02 -0.21658474844E+03  0.22416211216E+03  0.00000000000E+00 0. -1.
<mgrwt>
<rscale>  0 0.90585061E+02</rscale>
<asrwt>0</asrwt>
<pdfrwt beam="1">  1        2 0.11296648E-02 0.10522628E+03</pdfrwt>
<pdfrwt beam="2">  1       -2 0.15372679E+00 0.10522628E+03</pdfrwt>
<totfact> 0.33502378E+03</totfact>
</mgrwt>
</event>
<event>
 6    1  0.1727544E-002  0.1102129E+03  0.7546771E-02  0.1291018E+00
         -2   -1    0    0    0  501 -0.00000000000E+00  0.00000000000E+00  0.57500532207E+02  0.57500532207E+02  0.00000000000E+00 0.  1.
          2   -1    0    0  501    0  0.00000000000E+00 -0.00000000000E+00 -0.38699395617E+03  0.38699395617E+03  0.00000000000E+00 0. -1.
         23    2    1    2    0    0  0.58915977342E+02 -0.15890047357E+02 -0.83172911932E+00  0.11021601816E+03  0.91778499090E+02 0.  0.
         11    1    3    3    0    0  0.11732223673E+02  0.25745697541E+02 -0.29668198935E+02  0.40996195460E+02  0.00000000000E+00 0. -1.
        -11    1    3    3    0    0  0.47183753669E+02 -0.41635744898E+02  0.28836469816E+02  0.69219822702E+02  0.00000000000E+00 0.  1.
         22    1    1    2    0    0 -0.58915977342E+02  0.15890047357E+02 -0.32866169485E+03  0.33427847022E+03  0.00000000000E+00 0. -1.
<mgrwt>
<rscale>  0 0.95070206E+02</rscale>
<asrwt>0</asrwt>
<pdfrwt beam="1">  1        2 0.59537530E-01 0.11021288E+03</pdfrwt>
<pdfrwt beam="2">  1       -2 0.88462360E-02 0.11021288E+03</pdfrwt>
<totfact> 0.63065145E+03</totfact>
</mgrwt>
</event>
<event>
 6    1  0.1727544E-002  0.9333547E+02  0.7546771E-02  0.1414312E+00
         -2   -1    0    0    0  501 -0.00000000000E+00  0.00000000000E+00  0.31006762294E+02  0.31006762294E+02  0.00000000000E+00 0.  1.
          2   -1    0    0  501    0  0.00000000000E+00 -0.00000000000E+00 -0.92484589763E+02  0.92484589763E+02  0.00000000000E+00 0. -1.
         23    2    1    2    0    0  0.76612193298E+01  0.96305538619E+01 -0.60320501713E+02  0.11113088070E+03  0.92520634827E+02 0.  0.
         13    1    3    3    0    0 -0.51490517678E+01 -0.28473607506E+02  0.95928102448E+01  0.30484111712E+02  0.00000000000E+00 0. -1.
        -13    1    3    3    0    0  0.12810271098E+02  0.38104161368E+02 -0.69913311957E+02  0.80646768987E+02  0.00000000000E+00 0.  1.
         22    1    1    2    0    0 -0.76612193298E+01 -0.96305538619E+01 -0.11573257564E+01  0.12360471359E+02  0.00000000000E+00 0. -1.
<mgrwt>
<rscale>  0 0.56242650E+02</rscale>
<asrwt>0</asrwt>
<pdfrwt beam="1">  1        2 0.14228398E-01 0.93335469E+02</pdfrwt>
<pdfrwt beam="2">  1       -2 0.47702712E-02 0.93335469E+02</pdfrwt>
<totfact> 0.74863848E+04</totfact>
</mgrwt>
</event>
<event>
 6    1  0.1727544E-002  0.9463021E+02  0.7546771E-02  0.1424414E+00
         -2   -1    0    0    0  501 -0.00000000000E+00  0.00000000000E+00  0.74832132944E+03  0.74832132944E+03  0.00000000000E+00 0.  1.
          2   -1    0    0  501    0  0.00000000000E+00 -0.00000000000E+00 -0.39374904179E+01  0.39374904179E+01  0.00000000000E+00 0. -1.
         23    2    1    2    0    0  0.12947683866E+01  0.10023892227E+02  0.71386703072E+03  0.72011180710E+03  0.94088906517E+02 0.  0.
         11    1    3    3    0    0  0.50628082366E+01 -0.38737773065E+02  0.19050030053E+03  0.19446493666E+03  0.00000000000E+00 0. -1.
        -11    1    3    3    0    0 -0.37680398500E+01  0.48761665293E+02  0.52336673019E+03  0.52564687043E+03  0.00000000000E+00 0.  1.
         22    1    1    2    0    0 -0.12947683866E+01 -0.10023892227E+02  0.30516808304E+02  0.32147012763E+02  0.00000000000E+00 0. -1.
<mgrwt>
<rscale>  0 0.54097816E+02</rscale>
<asrwt>0</asrwt>
<pdfrwt beam="1">  1        2 0.60576835E-03 0.94630213E+02</pdfrwt>
<pdfrwt beam="2">  1       -2 0.11512625E+00 0.94630213E+02</pdfrwt>
<totfact> 0.15847848E+04</totfact>
</mgrwt>
</event>
<event>
 6    1  0.1727544E-002  0.9134613E+02  0.7546771E-02  0.1397824E+00
         -2   -1    0    0    0  501 -0.00000000000E+00  0.00000000000E+00  0.16630932284E+02  0.16630932284E+02  0.00000000000E+00 0.  1.
          2   -1    0    0  501    0  0.00000000000E+00 -0.00000000000E+00 -0.20470266448E+03  0.20470266448E+03  0.00000000000E+00 0. -1.
         23    2    1    2    0    0 -0.16917806561E+02  0.17238046413E+01 -0.11798423677E+03  0.14921258252E+03  0.89749267259E+02 0.  0.
         11    1    3    3    0    0  0.21376889719E+02  0.30181951976E+01  0.34624527884E+01  0.21864800380E+02  0.00000000000E+00 0.  1.
        -11    1    3    3    0    0 -0.38294696280E+02 -0.12943905563E+01 -0.12144668956E+03  0.12734778214E+03  0.00000000000E+00 0. -1.
         22    1    1    2    0    0  0.16917806561E+02 -0.17238046413E+01 -0.70087495423E+02  0.72121014246E+02  0.00000000000E+00 0. -1.
<mgrwt>
<rscale>  0 0.60001806E+02</rscale>
<asrwt>0</asrwt>
<pdfrwt beam="1">  1        2 0.31492720E-01 0.91346126E+02</pdfrwt>
<pdfrwt beam="2">  1       -2 0.25586048E-02 0.91346126E+02</pdfrwt>
<totfact> 0.76784761E+04</totfact>
</mgrwt>
</event>
<event>
 6    1  0.1727544E-002  0.9193478E+02  0.7546771E-02  0.1407655E+00
          3   -1    0    0  501    0  0.00000000000E+00  0.00000000000E+00  0.10781752605E+03  0.10781752605E+03  0.00000000000E+00 0. -1.
         -3   -1    0    0    0  501 -0.00000000000E+00 -0.00000000000E+00 -0.26325838145E+02  0.26325838145E+02  0.00000000000E+00 0.  1.
         23    2    1    2    0    0  0.11959429648E+02 -0.78120978255E+01  0.66715763235E+02  0.11359136235E+03  0.90818212420E+02 0.  0.
         13    1    3    3    0    0 -0.11040067009E+02  0.45328157488E+01 -0.19857822623E+02  0.23168137980E+02  0.00000000000E+00 0.  1.
        -13    1    3    3    0    0  0.22999496657E+02 -0.12344913574E+02  0.86573585858E+02  0.90423224372E+02  0.00000000000E+00 0. -1.
         22    1    1    2    0    0 -0.11959429648E+02  0.78120978255E+01  0.14775924673E+02  0.20552001846E+02  0.00000000000E+00 0.  1.
<mgrwt>
<rscale>  0 0.57720328E+02</rscale>
<asrwt>0</asrwt>
<pdfrwt beam="1">  1        3 0.16587311E-01 0.91934784E+02</pdfrwt>
<pdfrwt beam="2">  1       -3 0.40501290E-02 0.91934784E+02</pdfrwt>
<totfact> 0.20313888E+04</totfact>
</mgrwt>
</event>
<event>
 6    1  0.1727544E-002  0.9295978E+02  0.7546771E-02  0.1422097E+00
         -2   -1    0    0    0  501 -0.00000000000E+00  0.00000000000E+00  0.50449945916E+03  0.50449945916E+03  0.00000000000E+00 0.  1.
          2   -1    0    0  501    0  0.00000000000E+00 -0.00000000000E+00 -0.55467318394E+01  0.55467318394E+01  0.00000000000E+00 0. -1.
         23    2    1    2    0    0 -0.55167155757E+01  0.95707010134E+01  0.46893765246E+03  0.47806280176E+03  0.92301072903E+02 0.  0.
         13    1    3    3    0    0 -0.21761920517E+02 -0.28261772968E+02  0.88712538930E+02  0.95614975602E+02  0.00000000000E+00 0. -1.
        -13    1    3    3    0    0  0.16245204941E+02  0.37832473981E+02  0.38022511353E+03  0.38244782616E+03  0.00000000000E+00 0.  1.
         22    1    1    2    0    0  0.55167155757E+01 -0.95707010134E+01  0.30015074859E+02  0.31983389242E+02  0.00000000000E+00 0. -1.
<mgrwt>
<rscale>  0 0.54579649E+02</rscale>
<asrwt>0</asrwt>
<pdfrwt beam="1">  1        2 0.85334375E-03 0.92959779E+02</pdfrwt>
<pdfrwt beam="2">  1       -2 0.77615265E-01 0.92959779E+02</pdfrwt>
<totfact> 0.24025408E+04</totfact>
</mgrwt>
</event>
<event>
 6    1  0.1727544E-002  0.1073415E+03  0.7546771E-02  0.1303820E+00
          4   -1    0    0  501    0  0.00000000000E+00  0.00000000000E+00  0.48689885056E+02  0.48689885056E+02  0.00000000000E+00 0. -1.
         -4   -1    0    0    0  501 -0.00000000000E+00 -0.00000000000E+00 -0.13249634456E+03  0.13249634456E+03  0.00000000000E+00 0.  1.
         23    2    1    2    0    0  0.29479991402E+02  0.42974116009E+02 -0.45894144140E+02  0.11674099553E+03  0.93842117580E+02 0.  0.
         13    1    3    3    0    0 -0.22161572871E+02  0.21381038306E+02 -0.52000636294E+02  0.60434677844E+02  0.00000000000E+00 0.  1.
        -13    1    3    3    0    0  0.51641564273E+02  0.21593077703E+02  0.61064921543E+01  0.56306317689E+02  0.00000000000E+00 0. -1.
         22    1    1    2    0    0 -0.29479991402E+02 -0.42974116009E+02 -0.37912315366E+02  0.64445234085E+02  0.00000000000E+00 0.  1.
<mgrwt>
<rscale>  0 0.89601177E+02</rscale>
<asrwt>0</asrwt>
<pdfrwt beam="1">  1        4 0.74907516E-02 0.10734145E+03</pdfrwt>
<pdfrwt beam="2">  1       -4 0.20384053E-01 0.10734145E+03</pdfrwt>
<totfact> 0.41382587E+03</totfact>
</mgrwt>
</event>
<event>
 6    1  0.1727544E-002  0.8636147E+02  0.7546771E-02  0.1420993E+00
          1   -1    0    0  501    0  0.00000000000E+00  0.00000000000E+00  0.35487684481E+03  0.35487684481E+03  0.00000000000E+00 0. -1.
         -1   -1    0    0    0  501 -0.00000000000E+00 -0.00000000000E+00 -0.71581524626E+01  0.71581524626E+01  0.00000000000E+00 0.  1.
         23    2    1    2    0    0 -0.13159237151E+02  0.48160343790E+01  0.28651455905E+03  0.29924721468E+03  0.85217036089E+02 0.  0.
         11    1    3    3    0    0 -0.39470581438E+02 -0.22205750997E+02  0.19648680262E+03  0.20163850273E+03  0.00000000000E+00 0. -1.
        -11    1    3    3    0    0  0.26311344287E+02  0.27021785376E+02  0.90027756423E+02  0.97608711956E+02  0.00000000000E+00 0.  1.
         22    1    1    2    0    0  0.13159237151E+02 -0.48160343790E+01  0.61204133304E+02  0.62787782594E+02  0.00000000000E+00 0.  1.
<mgrwt>
<rscale>  0 0.54811483E+02</rscale>
<asrwt>0</asrwt>
<pdfrwt beam="1">  1        1 0.54596424E-01 0.86361467E+02</pdfrwt>
<pdfrwt beam="2">  1       -1 0.11012545E-02 0.86361467E+02</pdfrwt>
<totfact> 0.98747954E+04</totfact>
</mgrwt>
</event>
<event>
 6    1  0.1727544E-002  0.9599430E+02  0.7546771E-02  0.1356087E+00
          1   -1    0    0  501    0  0.00000000000E+00  0.00000000000E+00  0.28876746460E+03  0.28876746460E+03  0.00000000000E+00 0. -1.
         -1   -1    0    0    0  501 -0.00000000000E+00 -0.00000000000E+00 -0.13578526049E+02  0.13578526049E+02  0.00000000000E+00 0.  1.
         23    2    1    2    0    0  0.46344699336E+01 -0.28666664540E+02  0.20376322640E+03  0.22524288875E+03  0.91496724142E+02 0.  0.
         11    1    3    3    0    0 -0.74471439242E+01 -0.21353953804E+02  0.20897080277E+03  0.21019097912E+03  0.00000000000E+00 0. -1.
        -11    1    3    3    0    0  0.12081613858E+02 -0.73127107358E+01 -0.52075763632E+01  0.15051909623E+02  0.00000000000E+00 0.  1.
         22    1    1    2    0    0 -0.46344699336E+01  0.28666664540E+02  0.71425712152E+02  0.77103101908E+02  0.00000000000E+00 0.  1.
<mgrwt>
<rscale>  0 0.71191645E+02</rscale>
<asrwt>0</asrwt>
<pdfrwt beam="1">  1        1 0.44425759E-01 0.95994304E+02</pdfrwt>
<pdfrwt beam="2">  1       -1 0.20890042E-02 0.95994304E+02</pdfrwt>
<totfact> 0.51990553E+04</totfact>
</mgrwt>
</event>
<event>
 6    1  0.1727544E-002  0.9401723E+02  0.7546771E-02  0.1376323E+00
         -4   -1    0    0    0  501 -0.00000000000E+00  0.00000000000E+00  0.87116377898E+03  0.87116377898E+03  0.00000000000E+00 0. -1.
          4   -1    0    0  501    0  0.00000000000E+00 -0.00000000000E+00 -0.62148695799E+01  0.62148695799E+01  0.00000000000E+00 0.  1.
         23    2    1    2    0    0 -0.19977029067E+02 -0.93757540010E+01  0.83446953739E+03  0.83974915785E+03  0.91390660436E+02 0.  0.
         13    1    3    3    0    0 -0.20202243668E+02  0.35650415598E+02  0.57026241520E+03  0.57173272162E+03  0.00000000000E+00 0. -1.
        -13    1    3    3    0    0  0.22521460152E+00 -0.45026169599E+02  0.26420712220E+03  0.26801643623E+03  0.00000000000E+00 0.  1.
         22    1    1    2    0    0  0.19977029067E+02  0.93757540010E+01  0.30479372012E+02  0.37629490717E+02  0.00000000000E+00 0.  1.
<mgrwt>
<rscale>  0 0.65440287E+02</rscale>
<asrwt>0</asrwt>
<pdfrwt beam="1">  1        4 0.95613447E-03 0.94017229E+02</pdfrwt>
<pdfrwt beam="2">  1       -4 0.13402510E+00 0.94017229E+02</pdfrwt>
<totfact> 0.20132415E+03</totfact>
</mgrwt>
</event>
<event>
 6    1  0.1727544E-002  0.9153867E+02  0.7546771E-02  0.1399746E+00
         -2   -1    0    0    0  501 -0.00000000000E+00  0.00000000000E+00  0.76655008693E+02  0.76655008693E+02  0.00000000000E+00 0.  1.
          2   -1    0    0  501    0  0.00000000000E+00 -0.00000000000E+00 -0.85576316853E+02  0.85576316853E+02  0.00000000000E+00 0. -1.
         23    2    1    2    0    0  0.15557237222E+02 -0.51604029747E+01  0.47745066021E+02  0.10324204388E+03  0.90059263298E+02 0.  0.
         11    1    3    3    0    0  0.46170394010E+01 -0.44627449840E+02  0.68868772052E+01  0.45391138008E+02  0.00000000000E+00 0. -1.
        -11    1    3    3    0    0  0.10940197821E+02  0.39467046865E+02  0.40858188816E+02  0.57850905870E+02  0.00000000000E+00 0.  1.
         22    1    1    2    0    0 -0.15557237222E+02  0.51604029747E+01 -0.56666374182E+02  0.58989281668E+02  0.00000000000E+00 0. -1.
<mgrwt>
<rscale>  0 0.59546097E+02</rscale>
<asrwt>0</asrwt>
<pdfrwt beam="1">  1        2 0.13165587E-01 0.91538671E+02</pdfrwt>
<pdfrwt beam="2">  1       -2 0.11793078E-01 0.91538671E+02</pdfrwt>
<totfact> 0.20565680E+04</totfact>
</mgrwt>
</event>
<event>
 6    1  0.1727544E-002  0.1778270E+03  0.7546771E-02  0.1177626E+00
         -1   -1    0    0    0  501 -0.00000000000E+00  0.00000000000E+00  0.63535547698E+02  0.63535547698E+02  0.00000000000E+00 0.  1.
          1   -1    0    0  501    0  0.00000000000E+00 -0.00000000000E+00 -0.43724384468E+03  0.43724384468E+03  0.00000000000E+00 0. -1.
         23    2    1    2    0    0 -0.96870362700E+02  0.11356786911E+03 -0.15446906777E+03  0.23554861044E+03  0.96648470856E+02 0.  0.
         11    1    3    3    0    0 -0.11127485262E+03  0.71955939048E+02 -0.12761860012E+03  0.18397352279E+03  0.00000000000E+00 0. -1.
        -11    1    3    3    0    0  0.14404489924E+02  0.41611930057E+02 -0.26850467653E+02  0.51575087651E+02  0.00000000000E+00 0.  1.
         22    1    1    2    0    0  0.96870362700E+02 -0.11356786911E+03 -0.21923922921E+03  0.26523078194E+03  0.00000000000E+00 0.  1.
<mgrwt>
<rscale>  0 0.17021251E+03</rscale>
<asrwt>0</asrwt>
<pdfrwt beam="1">  1        1 0.67268286E-01 0.17782704E+03</pdfrwt>
<pdfrwt beam="2">  1       -1 0.97746993E-02 0.17782704E+03</pdfrwt>
<totfact> 0.33433019E+03</totfact>
</mgrwt>
</event>
<event>
 6    1  0.1727544E-002  0.1234972E+03  0.7546771E-02  0.1257586E+00
         -3   -1    0    0    0  501 -0.00000000000E+00  0.00000000000E+00  0.84775603108E+02  0.84775603108E+02  0.00000000000E+00 0.  1.
          3   -1    0    0  501    0  0.00000000000E+00 -0.00000000000E+00 -0.14727918574E+03  0.14727918574E+03  0.00000000000E+00 0. -1.
         23    2    1    2    0    0 -0.22197186576E+02  0.79389229310E+02  0.77572923698E+01  0.12374063752E+03  0.91957625929E+02 0.  0.
         11    1    3    3    0    0 -0.12946015876E+02  0.88287944411E+02  0.33228207997E+02  0.95218035382E+02  0.00000000000E+00 0.  1.
        -11    1    3    3    0    0 -0.92511707007E+01 -0.88987151010E+01 -0.25470915627E+02  0.28522602137E+02  0.00000000000E+00 0. -1.
         22    1    1    2    0    0  0.22197186576E+02 -0.79389229310E+02 -0.70260875003E+02  0.10831415133E+03  0.00000000000E+00 0. -1.
<mgrwt>
<rscale>  0 0.11162708E+03</rscale>
<asrwt>0</asrwt>
<pdfrwt beam="1">  1        3 0.22658336E-01 0.12349725E+03</pdfrwt>
<pdfrwt beam="2">  1       -3 0.13042401E-01 0.12349725E+03</pdfrwt>
<totfact> 0.19098466E+03</totfact>
</mgrwt>
</event>
<event>
 6    1  0.1727544E-002  0.9729883E+02  0.7546771E-02  0.1357799E+00
          2   -1    0    0  501    0  0.00000000000E+00  0.00000000000E+00  0.48194075169E+03  0.48194075169E+03  0.00000000000E+00 0. -1.
         -2   -1    0    0    0  501 -0.00000000000E+00 -0.00000000000E+00 -0.84954668286E+01  0.84954668286E+01  0.00000000000E+00 0.  1.
         23    2    1    2    0    0  0.60248058097E+01  0.26413474353E+02  0.41112791206E+03  0.42248458230E+03  0.93451015459E+02 0.  0.
         11    1    3    3    0    0  0.33255103095E+02  0.49952817657E+02  0.22234400062E+03  0.23029989250E+03  0.00000000000E+00 0. -1.
        -11    1    3    3    0    0 -0.27230297285E+02 -0.23539343304E+02  0.18878391144E+03  0.19218468980E+03  0.00000000000E+00 0.  1.
         22    1    1    2    0    0 -0.60248058097E+01 -0.26413474353E+02  0.62317372797E+02  0.67951636218E+02  0.00000000000E+00 0.  1.
<mgrwt>
<rscale>  0 0.70679016E+02</rscale>
<asrwt>0</asrwt>
<pdfrwt beam="1">  1        2 0.74144710E-01 0.97298829E+02</pdfrwt>
<pdfrwt beam="2">  1       -2 0.13069953E-02 0.97298829E+02</pdfrwt>
<totfact> 0.82343417E+04</totfact>
</mgrwt>
</event>
<event>
 6    1  0.1727544E-002  0.8771911E+02  0.7546771E-02  0.1397967E+00
         -1   -1    0    0    0  501 -0.00000000000E+00  0.00000000000E+00  0.81671481847E+03  0.81671481847E+03  0.00000000000E+00 0.  1.
          1   -1    0    0  501    0  0.00000000000E+00 -0.00000000000E+00 -0.36496327904E+01  0.36496327904E+01  0.00000000000E+00 0. -1.
         23    2    1    2    0    0  0.15114337041E+02  0.11775137540E+02  0.72173965341E+03  0.72705073366E+03  0.85601080376E+02 0.  0.
         13    1    3    3    0    0  0.14021461042E+02 -0.93725974019E+01  0.68034564239E+03  0.68055465619E+03  0.00000000000E+00 0.  1.
        -13    1    3    3    0    0  0.10928759993E+01  0.21147734942E+02  0.41394011025E+02  0.46496077467E+02  0.00000000000E+00 0. -1.
         22    1    1    2    0    0 -0.15114337041E+02 -0.11775137540E+02  0.91325532275E+02  0.93313717606E+02  0.00000000000E+00 0. -1.
<mgrwt>
<rscale>  0 0.59967821E+02</rscale>
<asrwt>0</asrwt>
<pdfrwt beam="1">  1        1 0.56148262E-03 0.87719109E+02</pdfrwt>
<pdfrwt beam="2">  1       -1 0.12564829E+00 0.87719109E+02</pdfrwt>
<totfact> 0.19317043E+04</totfact>
</mgrwt>
</event>
<event>
 6    1  0.1727544E-002  0.1011953E+03  0.7546771E-02  0.1337375E+00
          2   -1    0    0  501    0  0.00000000000E+00  0.00000000000E+00  0.17199233302E+03  0.17199233302E+03  0.00000000000E+00 0. -1.
         -2   -1    0    0    0  501 -0.00000000000E+00 -0.00000000000E+00 -0.72206123070E+02  0.72206123070E+02  0.00000000000E+00 0.  1.
         23    2    1    2    0    0  0.84891112782E+01  0.33094464700E+02 -0.33505313400E+02  0.10659780638E+03  0.95253229312E+02 0.  0.
         11    1    3    3    0    0  0.30329154198E+02  0.26390171828E+02 -0.59614814517E+02  0.71904275766E+02  0.00000000000E+00 0.  1.
        -11    1    3    3    0    0 -0.21840042920E+02  0.67042928726E+01  0.26109501118E+02  0.34693530612E+02  0.00000000000E+00 0. -1.
         22    1    1    2    0    0 -0.84891112782E+01 -0.33094464700E+02  0.13329152335E+03  0.13760064971E+03  0.00000000000E+00 0. -1.
<mgrwt>
<rscale>  0 0.77138010E+02</rscale>
<asrwt>0</asrwt>
<pdfrwt beam="1">  1        2 0.26460359E-01 0.10119529E+03</pdfrwt>
<pdfrwt beam="2">  1       -2 0.11108634E-01 0.10119529E+03</pdfrwt>
<totfact> 0.10378507E+04</totfact>
</mgrwt>
</event>
<event>
 6    1  0.1727544E-002  0.9184295E+02  0.7546771E-02  0.1404699E+00
          2   -1    0    0  501    0  0.00000000000E+00  0.00000000000E+00  0.61785886092E+02  0.61785886092E+02  0.00000000000E+00 0. -1.
         -2   -1    0    0    0  501 -0.00000000000E+00 -0.00000000000E+00 -0.48810055722E+02  0.48810055722E+02  0.00000000000E+00 0.  1.
         23    2    1    2    0    0 -0.63602873428E+01 -0.13593685138E+02  0.17597213490E+01  0.91859810082E+02  0.90608424324E+02 0.  0.
         11    1    3    3    0    0 -0.39591931530E+02  0.17886404749E+02 -0.10037473142E+02  0.44589184610E+02  0.00000000000E+00 0.  1.
        -11    1    3    3    0    0  0.33231644187E+02 -0.31480089886E+02  0.11797194491E+02  0.47270625472E+02  0.00000000000E+00 0. -1.
         22    1    1    2    0    0  0.63602873428E+01  0.13593685138E+02  0.11216109020E+02  0.18736131732E+02  0.00000000000E+00 0.  1.
<mgrwt>
<rscale>  0 0.58393625E+02</rscale>
<asrwt>0</asrwt>
<pdfrwt beam="1">  1        2 0.95055210E-02 0.91842953E+02</pdfrwt>
<pdfrwt beam="2">  1       -2 0.75092393E-02 0.91842953E+02</pdfrwt>
<totfact> 0.61129323E+04</totfact>
</mgrwt>
</event>
<event>
 6    1  0.1727544E-002  0.9052281E+02  0.7546771E-02  0.1426899E+00
         -2   -1    0    0    0  501 -0.00000000000E+00  0.00000000000E+00  0.16785321609E+03  0.16785321609E+03  0.00000000000E+00 0. -1.
          2   -1    0    0  501    0  0.00000000000E+00 -0.00000000000E+00 -0.27895337883E+02  0.27895337883E+02  0.00000000000E+00 0.  1.
         23    2    1    2    0    0 -0.40042384897E+01 -0.10370581924E+02  0.15351470976E+03  0.17821656671E+03  0.89837607065E+02 0.  0.
         11    1    3    3    0    0  0.19739295917E+02 -0.86438823419E+00 -0.26823461338E+01  0.19939457141E+02  0.00000000000E+00 0.  1.
        -11    1    3    3    0    0 -0.23743534407E+02 -0.95061936901E+01  0.15619705589E+03  0.15827710957E+03  0.00000000000E+00 0. -1.
         22    1    1    2    0    0  0.40042384897E+01  0.10370581924E+02 -0.13556831556E+02  0.17531987257E+02  0.00000000000E+00 0.  1.
<mgrwt>
<rscale>  0 0.53587476E+02</rscale>
<asrwt>0</asrwt>
<pdfrwt beam="1">  1        2 0.42915905E-02 0.90522807E+02</pdfrwt>
<pdfrwt beam="2">  1       -2 0.25823571E-01 0.90522807E+02</pdfrwt>
<totfact> 0.22723853E+04</totfact>
</mgrwt>
</event>
<event>
 6    1  0.1727544E-002  0.9299891E+02  0.7546771E-02  0.1399856E+00
         -2   -1    0    0    0  501 -0.00000000000E+00  0.00000000000E+00  0.12073583651E+03  0.12073583651E+03  0.00000000000E+00 0. -1.
          2   -1    0    0  501    0  0.00000000000E+00 -0.00000000000E+00 -0.28575366012E+02  0.28575366012E+02  0.00000000000E+00 0.  1.
         23    2    1    2    0    0  0.76835242947E+01  0.13580639096E+02  0.95557905762E+02  0.13334208013E+03  0.91680568687E+02 0.  0.
         11    1    3    3    0    0 -0.21953666925E+02  0.22502307668E+02 -0.14953688066E+01  0.31473059428E+02  0.00000000000E+00 0.  1.
        -11    1    3    3    0    0  0.29637191220E+02 -0.89216685723E+01  0.97053274568E+02  0.10186902070E+03  0.00000000000E+00 0. -1.
         22    1    1    2    0    0 -0.76835242947E+01 -0.13580639096E+02 -0.33974352614E+01  0.15969122399E+02  0.00000000000E+00 0. -1.
<mgrwt>
<rscale>  0 0.59520167E+02</rscale>
<asrwt>0</asrwt>
<pdfrwt beam="1">  1        2 0.43962102E-02 0.92998908E+02</pdfrwt>
<pdfrwt beam="2">  1       -2 0.18574744E-01 0.92998908E+02</pdfrwt>
<totfact> 0.38672536E+04</totfact>
</mgrwt>
</event>
<event>
 6    1  0.1727544E-002  0.9258301E+02  0.7546771E-02  0.1427417E+00
         -2   -1    0    0    0  501 -0.00000000000E+00  0.00000000000E+00  0.44534192764E+02  0.44534192764E+02  0.00000000000E+00 0.  1.
          2   -1    0    0  501    0  0.00000000000E+00 -0.00000000000E+00 -0.96064332515E+02  0.96064332515E+02  0.00000000000E+00 0. -1.
         23    2    1    2    0    0  0.81603001838E+01 -0.63004182489E+01 -0.47596602097E+01  0.92705273921E+02  0.92007215360E+02 0.  0.
         13    1    3    3    0    0  0.31248764094E+02 -0.81035628687E+01 -0.39462416804E+02  0.50984657776E+02  0.00000000000E+00 0. -1.
        -13    1    3    3    0    0 -0.23088463910E+02  0.18031446198E+01  0.34702756594E+02  0.41720616145E+02  0.00000000000E+00 0.  1.
         22    1    1    2    0    0 -0.81603001838E+01  0.63004182489E+01 -0.46770479541E+02  0.47893251359E+02  0.00000000000E+00 0. -1.
<mgrwt>
<rscale>  0 0.53482027E+02</rscale>
<asrwt>0</asrwt>
<pdfrwt beam="1">  1        2 0.14779128E-01 0.92583008E+02</pdfrwt>
<pdfrwt beam="2">  1       -2 0.68514143E-02 0.92583008E+02</pdfrwt>
<totfact> 0.41606813E+04</totfact>
</mgrwt>
</event>
<event>
 6    1  0.1727544E-002  0.9134013E+02  0.7546771E-02  0.1403857E+00
         -4   -1    0    0    0  501 -0.00000000000E+00  0.00000000000E+00  0.18119374627E+03  0.18119374627E+03  0.00000000000E+00 0.  1.
          4   -1    0    0  501    0  0.00000000000E+00 -0.00000000000E+00 -0.17509000884E+02  0.17509000884E+02  0.00000000000E+00 0. -1.
         23    2    1    2    0    0  0.65286197393E+01 -0.14014781893E+02  0.11075283678E+03  0.14355908082E+03  0.90022118650E+02 0.  0.
         11    1    3    3    0    0  0.20853891316E+02 -0.44210888266E+02  0.94501532307E+02  0.10639561566E+03  0.00000000000E+00 0.  1.
        -11    1    3    3    0    0 -0.14325271577E+02  0.30196106372E+02  0.16251304469E+02  0.37163465161E+02  0.00000000000E+00 0. -1.
         22    1    1    2    0    0 -0.65286197393E+01  0.14014781893E+02  0.52931908612E+02  0.55143666332E+02  0.00000000000E+00 0. -1.
<mgrwt>
<rscale>  0 0.58587416E+02</rscale>
<asrwt>0</asrwt>
<pdfrwt beam="1">  1        4 0.26936926E-02 0.91340127E+02</pdfrwt>
<pdfrwt beam="2">  1       -4 0.27875960E-01 0.91340127E+02</pdfrwt>
<totfact> 0.11352590E+04</totfact>
</mgrwt>
</event>
<event>
 6    1  0.1727544E-002  0.9248029E+02  0.7546771E-02  0.1412749E+00
         -1   -1    0    0    0  501 -0.00000000000E+00  0.00000000000E+00  0.47700891028E+01  0.47700891028E+01  0.00000000000E+00 0. -1.
          1   -1    0    0  501    0  0.00000000000E+00 -0.00000000000E+00 -0.58309585413E+03  0.58309585413E+03  0.00000000000E+00 0.  1.
         23    2    1    2    0    0 -0.12808504479E+02  0.19858755669E+01 -0.50200394424E+03  0.51045133339E+03  0.91567473695E+02 0.  0.
         11    1    3    3    0    0 -0.15269108284E+02  0.23290279831E+02 -0.44839391378E+02  0.52784029986E+02  0.00000000000E+00 0. -1.
        -11    1    3    3    0    0  0.24606038049E+01 -0.21304404264E+02 -0.45716455286E+03  0.45766730341E+03  0.00000000000E+00 0.  1.
         22    1    1    2    0    0  0.12808504479E+02 -0.19858755669E+01 -0.76321820789E+02  0.77414609844E+02  0.00000000000E+00 0. -1.
<mgrwt>
<rscale>  0 0.56584961E+02</rscale>
<asrwt>0</asrwt>
<pdfrwt beam="1">  1        1 0.89707019E-01 0.92480288E+02</pdfrwt>
<pdfrwt beam="2">  1       -1 0.73386015E-03 0.92480288E+02</pdfrwt>
<totfact> 0.94094604E+04</totfact>
</mgrwt>
</event>
<event>
 6    1  0.1727544E-002  0.9005357E+02  0.7546771E-02  0.1424000E+00
         -2   -1    0    0    0  501 -0.00000000000E+00  0.00000000000E+00  0.84081483918E+02  0.84081483918E+02  0.00000000000E+00 0.  1.
          2   -1    0    0  501    0  0.00000000000E+00 -0.00000000000E+00 -0.81517629106E+02  0.81517629106E+02  0.00000000000E+00 0. -1.
         23    2    1    2    0    0 -0.28283781542E+01 -0.11458310142E+02  0.59184772101E+02  0.10776122865E+03  0.89276831021E+02 0.  0.
         13    1    3    3    0    0 -0.16662337426E+02  0.30400709027E+01  0.78273602665E+02  0.80085157138E+02  0.00000000000E+00 0.  1.
        -13    1    3    3    0    0  0.13833959271E+02 -0.14498381044E+02 -0.19088830564E+02  0.27676071512E+02  0.00000000000E+00 0. -1.
         22    1    1    2    0    0  0.28283781542E+01  0.11458310142E+02 -0.56620917289E+02  0.57837884375E+02  0.00000000000E+00 0. -1.
<mgrwt>
<rscale>  0 0.54183455E+02</rscale>
<asrwt>0</asrwt>
<pdfrwt beam="1">  1        2 0.12541174E-01 0.90053568E+02</pdfrwt>
<pdfrwt beam="2">  1       -2 0.12935613E-01 0.90053568E+02</pdfrwt>
<totfact> 0.18773263E+04</totfact>
</mgrwt>
</event>
<event>
 6    1  0.1727544E-002  0.1076394E+03  0.7546771E-02  0.1296453E+00
          4   -1    0    0  501    0  0.00000000000E+00  0.00000000000E+00  0.49164788770E+02  0.49164788770E+02  0.00000000000E+00 0. -1.
         -4   -1    0    0    0  501 -0.00000000000E+00 -0.00000000000E+00 -0.17987438917E+03  0.17987438917E+03  0.00000000000E+00 0.  1.
         23    2    1    2    0    0  0.57759361942E+02  0.12975192097E+02 -0.13137065717E+03  0.16983667379E+03  0.89898535574E+02 0.  0.
         13    1    3    3    0    0  0.61240744231E+02 -0.21458608252E+02 -0.51683564892E+02  0.82958372103E+02  0.00000000000E+00 0. -1.
        -13    1    3    3    0    0 -0.34813822892E+01  0.34433800349E+02 -0.79687092275E+02  0.86878301689E+02  0.00000000000E+00 0.  1.
         22    1    1    2    0    0 -0.57759361942E+02 -0.12975192097E+02  0.66105676255E+00  0.59202504152E+02  0.00000000000E+00 0. -1.
<mgrwt>
<rscale>  0 0.92695101E+02</rscale>
<asrwt>0</asrwt>
<pdfrwt beam="1">  1        4 0.75638136E-02 0.10763943E+03</pdfrwt>
<pdfrwt beam="2">  1       -4 0.27672983E-01 0.10763943E+03</pdfrwt>
<totfact> 0.23322346E+03</totfact>
</mgrwt>
</event>
<event>
 6    1  0.1727544E-002  0.1000632E+03  0.7546771E-02  0.1362072E+00
          2   -1    0    0  501    0  0.00000000000E+00  0.00000000000E+00  0.35727321467E+03  0.35727321467E+03  0.00000000000E+00 0. -1.
         -2   -1    0    0    0  501 -0.00000000000E+00 -0.00000000000E+00 -0.11201914318E+02  0.11201914318E+02  0.00000000000E+00 0.  1.
         23    2    1    2    0    0 -0.70488511253E+01 -0.22084346848E+02  0.24235215128E+03  0.26219687833E+03  0.97340809015E+02 0.  0.
         13    1    3    3    0    0  0.38214669378E+01 -0.49530067079E+02  0.21898148902E+03  0.22454559378E+03  0.00000000000E+00 0. -1.
        -13    1    3    3    0    0 -0.10870318063E+02  0.27445720231E+02  0.23370662262E+02  0.37651284551E+02  0.00000000000E+00 0.  1.
         22    1    1    2    0    0  0.70488511253E+01  0.22084346848E+02  0.10371914908E+03  0.10627825066E+03  0.00000000000E+00 0. -1.
<mgrwt>
<rscale>  0 0.69421400E+02</rscale>
<asrwt>0</asrwt>
<pdfrwt beam="1">  1        2 0.54965101E-01 0.10006317E+03</pdfrwt>
<pdfrwt beam="2">  1       -2 0.17233717E-02 0.10006317E+03</pdfrwt>
<totfact> 0.76472149E+04</totfact>
</mgrwt>
</event>
<event>
 6    1  0.1727544E-002  0.1067311E+03  0.7546771E-02  0.1315514E+00
          2   -1    0    0  501    0  0.00000000000E+00  0.00000000000E+00  0.80727213829E+02  0.80727213829E+02  0.00000000000E+00 0. -1.
         -2   -1    0    0    0  501 -0.00000000000E+00 -0.00000000000E+00 -0.17995757694E+03  0.17995757694E+03  0.00000000000E+00 0.  1.
         23    2    1    2    0    0 -0.37068508837E+02 -0.21537918269E+02 -0.15632538595E+03  0.18928592591E+03  0.97742412409E+02 0.  0.
         11    1    3    3    0    0  0.31381297040E+00 -0.53113396009E+02 -0.53382594631E+02  0.75304931603E+02  0.00000000000E+00 0. -1.
        -11    1    3    3    0    0 -0.37382321808E+02  0.31575477739E+02 -0.10294279132E+03  0.11398099430E+03  0.00000000000E+00 0.  1.
         22    1    1    2    0    0  0.37068508837E+02  0.21537918269E+02  0.57095022837E+02  0.71398864862E+02  0.00000000000E+00 0. -1.
<mgrwt>
<rscale>  0 0.84968949E+02</rscale>
<asrwt>0</asrwt>
<pdfrwt beam="1">  1        2 0.12419572E-01 0.10673114E+03</pdfrwt>
<pdfrwt beam="2">  1       -2 0.27685781E-01 0.10673114E+03</pdfrwt>
<totfact> 0.54122356E+03</totfact>
</mgrwt>
</event>
<event>
 6    1  0.1727544E-002  0.9941048E+02  0.7546771E-02  0.1333675E+00
         -3   -1    0    0    0  501 -0.00000000000E+00  0.00000000000E+00  0.49689770211E+03  0.49689770211E+03  0.00000000000E+00 0.  1.
          3   -1    0    0  501    0  0.00000000000E+00 -0.00000000000E+00 -0.21766181078E+02  0.21766181078E+02  0.00000000000E+00 0. -1.
         23    2    1    2    0    0  0.36770527656E+02  0.11214369724E+02  0.46938211830E+03  0.47979372209E+03  0.91676654495E+02 0.  0.
         11    1    3    3    0    0  0.63569599318E+02  0.15924986871E+02  0.39879506107E+03  0.40414378616E+03  0.00000000000E+00 0.  1.
        -11    1    3    3    0    0 -0.26799071662E+02 -0.47106171471E+01  0.70587057235E+02  0.75649935922E+02  0.00000000000E+00 0. -1.
         22    1    1    2    0    0 -0.36770527656E+02 -0.11214369724E+02  0.57494027305E+01  0.38870161103E+02  0.00000000000E+00 0. -1.
<mgrwt>
<rscale>  0 0.78393005E+02</rscale>
<asrwt>0</asrwt>
<pdfrwt beam="1">  1        3 0.33486436E-02 0.99410476E+02</pdfrwt>
<pdfrwt beam="2">  1       -3 0.76445792E-01 0.99410476E+02</pdfrwt>
<totfact> 0.15358806E+03</totfact>
</mgrwt>
</event>
<event>
 6    1  0.1727544E-002  0.9171720E+02  0.7546771E-02  0.1426759E+00
         -1   -1    0    0    0  501 -0.00000000000E+00  0.00000000000E+00  0.10095219751E+03  0.10095219751E+03  0.00000000000E+00 0.  1.
          1   -1    0    0  501    0  0.00000000000E+00 -0.00000000000E+00 -0.28283831884E+02  0.28283831884E+02  0.00000000000E+00 0. -1.
         23    2    1    2    0    0  0.49612560020E+01  0.94926675979E+01  0.74755744549E+02  0.11832356175E+03  0.91089621381E+02 0.  0.
         13    1    3    3    0    0 -0.64933372822E+01  0.37817346721E+02  0.88196701946E+00  0.38380893788E+02  0.00000000000E+00 0. -1.
        -13    1    3    3    0    0  0.11454593284E+02 -0.28324679123E+02  0.73873777529E+02  0.79942667964E+02  0.00000000000E+00 0.  1.
         22    1    1    2    0    0 -0.49612560020E+01 -0.94926675979E+01 -0.20873789247E+01  0.10912467641E+02  0.00000000000E+00 0. -1.
<mgrwt>
<rscale>  0 0.53616102E+02</rscale>
<asrwt>0</asrwt>
<pdfrwt beam="1">  1        1 0.43513588E-02 0.91717195E+02</pdfrwt>
<pdfrwt beam="2">  1       -1 0.15531107E-01 0.91717195E+02</pdfrwt>
<totfact> 0.52738747E+04</totfact>
</mgrwt>
</event>
<event>
 6    1  0.1727544E-002  0.9413464E+02  0.7546771E-02  0.1377420E+00
          2   -1    0    0  501    0  0.00000000000E+00  0.00000000000E+00  0.17396546699E+02  0.17396546699E+02  0.00000000000E+00 0. -1.
         -2   -1    0    0    0  501 -0.00000000000E+00 -0.00000000000E+00 -0.24321800792E+03  0.24321800792E+03  0.00000000000E+00 0.  1.
         23    2    1    2    0    0  0.21523421643E+02  0.17403508716E+01 -0.21832889250E+03  0.23775793443E+03  0.91624470435E+02 0.  0.
         11    1    3    3    0    0 -0.27287550318E+02 -0.23629197319E+02 -0.11723551546E+03  0.12266668437E+03  0.00000000000E+00 0. -1.
        -11    1    3    3    0    0  0.48810971961E+02  0.25369548190E+02 -0.10109337704E+03  0.11509125006E+03  0.00000000000E+00 0.  1.
         22    1    1    2    0    0 -0.21523421643E+02 -0.17403508716E+01 -0.74925687134E+01  0.22856620185E+02  0.00000000000E+00 0. -1.
<mgrwt>
<rscale>  0 0.65146892E+02</rscale>
<asrwt>0</asrwt>
<pdfrwt beam="1">  1        2 0.26763920E-02 0.94134638E+02</pdfrwt>
<pdfrwt beam="2">  1       -2 0.37418153E-01 0.94134638E+02</pdfrwt>
<totfact> 0.21894211E+04</totfact>
</mgrwt>
</event>
<event>
 6    1  0.1727544E-002  0.8931923E+02  0.7546771E-02  0.1427722E+00
         -2   -1    0    0    0  501 -0.00000000000E+00  0.00000000000E+00  0.37810386924E+02  0.37810386924E+02  0.00000000000E+00 0.  1.
          2   -1    0    0  501    0  0.00000000000E+00 -0.00000000000E+00 -0.69030860990E+02  0.69030860990E+02  0.00000000000E+00 0. -1.
         23    2    1    2    0    0  0.69024232099E+01 -0.91084128532E+01 -0.33108420710E+02  0.95258028440E+02  0.88585088076E+02 0.  0.
         11    1    3    3    0    0 -0.34055091630E+02 -0.10222087489E+01 -0.40431519170E+02  0.52872506268E+02  0.00000000000E+00 0. -1.
        -11    1    3    3    0    0  0.40957514840E+02 -0.80862041042E+01  0.73230984601E+01  0.42385522172E+02  0.00000000000E+00 0.  1.
         22    1    1    2    0    0 -0.69024232099E+01  0.91084128532E+01  0.18879466436E+01  0.11583219475E+02  0.00000000000E+00 0.  1.
<mgrwt>
<rscale>  0 0.53420060E+02</rscale>
<asrwt>0</asrwt>
<pdfrwt beam="1">  1        2 0.10620132E-01 0.89319228E+02</pdfrwt>
<pdfrwt beam="2">  1       -2 0.58169827E-02 0.89319228E+02</pdfrwt>
<totfact> 0.78249255E+04</totfact>
</mgrwt>
</event>
<event>
 6    1  0.1727544E-002  0.9616968E+02  0.7546771E-02  0.1364562E+00
         -2   -1    0    0    0  501 -0.00000000000E+00  0.00000000000E+00  0.46257672292E+02  0.46257672292E+02  0.00000000000E+00 0.  1.
          2   -1    0    0  501    0  0.00000000000E+00 -0.00000000000E+00 -0.82246166761E+02  0.82246166761E+02  0.00000000000E+00 0. -1.
         23    2    1    2    0    0  0.12610862968E+01  0.25016229810E+02 -0.18443342954E+02  0.97922236181E+02  0.92850446132E+02 0.  0.
         13    1    3    3    0    0  0.11319601421E+02  0.39548171525E+02 -0.48166311541E+02  0.63341809374E+02  0.00000000000E+00 0. -1.
        -13    1    3    3    0    0 -0.10058515124E+02 -0.14531941715E+02  0.29722968587E+02  0.34580426807E+02  0.00000000000E+00 0.  1.
         22    1    1    2    0    0 -0.12610862968E+01 -0.25016229810E+02 -0.17545151514E+02  0.30581602872E+02  0.00000000000E+00 0.  1.
<mgrwt>
<rscale>  0 0.68702395E+02</rscale>
<asrwt>0</asrwt>
<pdfrwt beam="1">  1        2 0.12653256E-01 0.96169680E+02</pdfrwt>
<pdfrwt beam="2">  1       -2 0.71165650E-02 0.96169680E+02</pdfrwt>
<totfact> 0.47346652E+04</totfact>
</mgrwt>
</event>
<event>
 6    1  0.1727544E-002  0.9357472E+02  0.7546771E-02  0.1407707E+00
         -2   -1    0    0    0  501 -0.00000000000E+00  0.00000000000E+00  0.10250914302E+03  0.10250914302E+03  0.00000000000E+00 0.  1.
          2   -1    0    0  501    0  0.00000000000E+00 -0.00000000000E+00 -0.51302758684E+02  0.51302758684E+02  0.00000000000E+00 0. -1.
         23    2    1    2    0    0 -0.12015258406E+02 -0.62331931185E+01  0.79280956954E+02  0.12264459899E+03  0.92590541602E+02 0.  0.
         13    1    3    3    0    0  0.41238118440E+01  0.21729675411E+02 -0.12461753804E+02  0.25386609176E+02  0.00000000000E+00 0. -1.
        -13    1    3    3    0    0 -0.16139070250E+02 -0.27962868529E+02  0.91742710758E+02  0.97257989811E+02  0.00000000000E+00 0.  1.
         22    1    1    2    0    0  0.12015258406E+02  0.62331931185E+01 -0.28074572617E+02  0.31167302717E+02  0.00000000000E+00 0. -1.
<mgrwt>
<rscale>  0 0.57708561E+02</rscale>
<asrwt>0</asrwt>
<pdfrwt beam="1">  1        2 0.78927321E-02 0.93574716E+02</pdfrwt>
<pdfrwt beam="2">  1       -2 0.15770637E-01 0.93574716E+02</pdfrwt>
<totfact> 0.24032051E+04</totfact>
</mgrwt>
</event>
<event>
 6    1  0.1727544E-002  0.1693851E+03  0.7546771E-02  0.1186227E+00
         -4   -1    0    0    0  501 -0.00000000000E+00  0.00000000000E+00  0.39061787791E+02  0.39061787791E+02  0.00000000000E+00 0.  1.
          4   -1    0    0  501    0  0.00000000000E+00 -0.00000000000E+00 -0.85460509961E+03  0.85460509961E+03  0.00000000000E+00 0. -1.
         23    2    1    2    0    0 -0.13817024497E+03 -0.34652043448E+02 -0.20111583129E+03  0.26294277217E+03  0.91649021421E+02 0.  0.
         13    1    3    3    0    0 -0.12248535746E+02  0.15289073146E+02 -0.76192172732E+02  0.78670385604E+02  0.00000000000E+00 0. -1.
        -13    1    3    3    0    0 -0.12592170923E+03 -0.49941116594E+02 -0.12492365856E+03  0.18427238656E+03  0.00000000000E+00 0.  1.
         22    1    1    2    0    0  0.13817024497E+03  0.34652043448E+02 -0.61442748053E+03  0.63072411524E+03  0.00000000000E+00 0. -1.
<mgrwt>
<rscale>  0 0.16220771E+03</rscale>
<asrwt>0</asrwt>
<pdfrwt beam="1">  1        4 0.13147771E+00 0.16938513E+03</pdfrwt>
<pdfrwt beam="2">  1       -4 0.60095058E-02 0.16938513E+03</pdfrwt>
<totfact> 0.13635543E+02</totfact>
</mgrwt>
</event>
<event>
 6    1  0.1727544E-002  0.8278649E+02  0.7546771E-02  0.1448446E+00
          2   -1    0    0  501    0  0.00000000000E+00  0.00000000000E+00  0.73603156953E+02  0.73603156953E+02  0.00000000000E+00 0.  1.
         -2   -1    0    0    0  501 -0.00000000000E+00 -0.00000000000E+00 -0.10167405750E+03  0.10167405750E+03  0.00000000000E+00 0. -1.
         23    2    1    2    0    0  0.49923518678E+01  0.92607698716E+01 -0.84252549821E+02  0.11811898538E+03  0.82115267275E+02 0.  0.
         13    1    3    3    0    0 -0.26466724763E+02  0.27163370046E+02 -0.16615230235E+02  0.41405338638E+02  0.00000000000E+00 0.  1.
        -13    1    3    3    0    0  0.31459076631E+02 -0.17902600174E+02 -0.67637319585E+02  0.76713646740E+02  0.00000000000E+00 0. -1.
         22    1    1    2    0    0 -0.49923518678E+01 -0.92607698716E+01  0.56181649274E+02  0.57158229075E+02  0.00000000000E+00 0.  1.
<mgrwt>
<rscale>  0 0.49428895E+02</rscale>
<asrwt>0</asrwt>
<pdfrwt beam="1">  1        2 0.11323563E-01 0.82786488E+02</pdfrwt>
<pdfrwt beam="2">  1       -2 0.15642163E-01 0.82786488E+02</pdfrwt>
<totfact> 0.15469633E+04</totfact>
</mgrwt>
</event>
<event>
 6    1  0.1727544E-002  0.9528348E+02  0.7546771E-02  0.1378784E+00
         -2   -1    0    0    0  501 -0.00000000000E+00  0.00000000000E+00  0.15924660561E+02  0.15924660561E+02  0.00000000000E+00 0.  1.
          2   -1    0    0  501    0  0.00000000000E+00 -0.00000000000E+00 -0.25095078419E+03  0.25095078419E+03  0.00000000000E+00 0. -1.
         23    2    1    2    0    0  0.23524139119E+01 -0.20226279050E+02 -0.13776509444E+03  0.16750571085E+03  0.93082252379E+02 0.  0.
         13    1    3    3    0    0  0.79484413658E+01 -0.44751076800E+02 -0.13470350469E+03  0.14216494213E+03  0.00000000000E+00 0. -1.
        -13    1    3    3    0    0 -0.55960274539E+01  0.24524797750E+02 -0.30615897520E+01  0.25340768729E+02  0.00000000000E+00 0.  1.
         22    1    1    2    0    0 -0.23524139119E+01  0.20226279050E+02 -0.97261029190E+02  0.99369733896E+02  0.00000000000E+00 0. -1.
<mgrwt>
<rscale>  0 0.64784576E+02</rscale>
<asrwt>0</asrwt>
<pdfrwt beam="1">  1        2 0.38607812E-01 0.95283482E+02</pdfrwt>
<pdfrwt beam="2">  1       -2 0.24499478E-02 0.95283482E+02</pdfrwt>
<totfact> 0.66290341E+04</totfact>
</mgrwt>
</event>
<event>
 6    1  0.1727544E-002  0.9084070E+02  0.7546771E-02  0.1419671E+00
         -2   -1    0    0    0  501 -0.00000000000E+00  0.00000000000E+00  0.13824456954E+03  0.13824456954E+03  0.00000000000E+00 0.  1.
          2   -1    0    0  501    0  0.00000000000E+00 -0.00000000000E+00 -0.20323167220E+02  0.20323167220E+02  0.00000000000E+00 0. -1.
         23    2    1    2    0    0  0.11184899355E+02 -0.50876826339E+01  0.11379272364E+03  0.14560500264E+03  0.90005812878E+02 0.  0.
         11    1    3    3    0    0  0.14439485154E+02 -0.41400823499E+02  0.27068768334E+02  0.51529070795E+02  0.00000000000E+00 0. -1.
        -11    1    3    3    0    0 -0.32545857990E+01  0.36313140865E+02  0.86723955311E+02  0.94075931847E+02  0.00000000000E+00 0.  1.
         22    1    1    2    0    0 -0.11184899355E+02  0.50876826339E+01  0.41286786720E+01  0.12962734115E+02  0.00000000000E+00 0.  1.
<mgrwt>
<rscale>  0 0.55090614E+02</rscale>
<asrwt>0</asrwt>
<pdfrwt beam="1">  1        2 0.31266412E-02 0.90840700E+02</pdfrwt>
<pdfrwt beam="2">  1       -2 0.21268395E-01 0.90840700E+02</pdfrwt>
<totfact> 0.48074523E+04</totfact>
</mgrwt>
</event>
<event>
 6    1  0.1727544E-002  0.9298503E+02  0.7546771E-02  0.1380726E+00
         -2   -1    0    0    0  501 -0.00000000000E+00  0.00000000000E+00  0.37968109788E+02  0.37968109788E+02  0.00000000000E+00 0.  1.
          2   -1    0    0  501    0  0.00000000000E+00 -0.00000000000E+00 -0.90258436256E+02  0.90258436256E+02  0.00000000000E+00 0. -1.
         23    2    1    2    0    0  0.13916940602E+02 -0.16027793850E+02 -0.30631753486E+02  0.97900563867E+02  0.90529799914E+02 0.  0.
         13    1    3    3    0    0  0.50179347365E+02  0.57845958719E+01 -0.19488416107E+02  0.54140805440E+02  0.00000000000E+00 0.  1.
        -13    1    3    3    0    0 -0.36262406763E+02 -0.21812389722E+02 -0.11143337379E+02  0.43759758427E+02  0.00000000000E+00 0. -1.
         22    1    1    2    0    0 -0.13916940602E+02  0.16027793850E+02 -0.21658572982E+02  0.30325982178E+02  0.00000000000E+00 0. -1.
<mgrwt>
<rscale>  0 0.64273246E+02</rscale>
<asrwt>0</asrwt>
<pdfrwt beam="1">  1        2 0.13885913E-01 0.92985032E+02</pdfrwt>
<pdfrwt beam="2">  1       -2 0.58412477E-02 0.92985032E+02</pdfrwt>
<totfact> 0.56917091E+04</totfact>
</mgrwt>
</event>
<event>
 6    1  0.1727544E-002  0.9106796E+02  0.7546771E-02  0.1399346E+00
         -2   -1    0    0    0  501 -0.00000000000E+00  0.00000000000E+00  0.13288265144E+02  0.13288265144E+02  0.00000000000E+00 0.  1.
          2   -1    0    0  501    0  0.00000000000E+00 -0.00000000000E+00 -0.23591539558E+03  0.23591539558E+03  0.00000000000E+00 0. -1.
         23    2    1    2    0    0 -0.68054588512E+01  0.15307593107E+02 -0.15727205937E+03  0.18173572767E+03  0.89513894871E+02 0.  0.
         11    1    3    3    0    0  0.18069004275E+02 -0.11899939144E+02 -0.15293492475E+01  0.21689545321E+02  0.00000000000E+00 0.  1.
        -11    1    3    3    0    0 -0.24874463126E+02  0.27207532251E+02 -0.15574271012E+03  0.16004618235E+03  0.00000000000E+00 0. -1.
         22    1    1    2    0    0  0.68054588512E+01 -0.15307593107E+02 -0.65355071066E+02  0.67467933057E+02  0.00000000000E+00 0.  1.
<mgrwt>
<rscale>  0 0.59640637E+02</rscale>
<asrwt>0</asrwt>
<pdfrwt beam="1">  1        2 0.36294673E-01 0.91067964E+02</pdfrwt>
<pdfrwt beam="2">  1       -2 0.20443487E-02 0.91067964E+02</pdfrwt>
<totfact> 0.91258108E+04</totfact>
</mgrwt>
</event>
<event>
 6    1  0.1727544E-002  0.9501542E+02  0.7546771E-02  0.1358115E+00
          4   -1    0    0  501    0  0.00000000000E+00  0.00000000000E+00  0.48697489336E+01  0.48697489336E+01  0.00000000000E+00 0. -1.
         -4   -1    0    0    0  501 -0.00000000000E+00 -0.00000000000E+00 -0.80504091909E+03  0.80504091909E+03  0.00000000000E+00 0.  1.
         23    2    1    2    0    0  0.44551330432E+01 -0.28592680666E+02 -0.65796368596E+03  0.66478879455E+03  0.90501600668E+02 0.  0.
         11    1    3    3    0    0  0.27156779990E+01 -0.51541329331E+02 -0.21055551694E+03  0.21678908933E+03  0.00000000000E+00 0.  1.
        -11    1    3    3    0    0  0.17394550442E+01  0.22948648666E+02 -0.44740816901E+03  0.44799970522E+03  0.00000000000E+00 0. -1.
         22    1    1    2    0    0 -0.44551330432E+01  0.28592680666E+02 -0.14220748420E+03  0.14512187347E+03  0.00000000000E+00 0. -1.
<mgrwt>
<rscale>  0 0.70584851E+02</rscale>
<asrwt>0</asrwt>
<pdfrwt beam="1">  1        4 0.74919215E-03 0.95015416E+02</pdfrwt>
<pdfrwt beam="2">  1       -4 0.12385245E+00 0.95015416E+02</pdfrwt>
<totfact> 0.35115962E+03</totfact>
</mgrwt>
</event>
<event>
 6    1  0.1727544E-002  0.9156595E+02  0.7546771E-02  0.1405544E+00
         -2   -1    0    0    0  501 -0.00000000000E+00  0.00000000000E+00  0.90410158112E+01  0.90410158112E+01  0.00000000000E+00 0.  1.
          2   -1    0    0  501    0  0.00000000000E+00 -0.00000000000E+00 -0.31388582861E+03  0.31388582861E+03  0.00000000000E+00 0. -1.
         23    2    1    2    0    0 -0.40974770451E+01  0.14372323912E+02 -0.25925822703E+03  0.27495299931E+03  0.90338090159E+02 0.  0.
         11    1    3    3    0    0  0.24767797984E+02  0.60284001703E+01 -0.16550643705E+02  0.30392585159E+02  0.00000000000E+00 0.  1.
        -11    1    3    3    0    0 -0.28865275029E+02  0.83439237419E+01 -0.24270758333E+03  0.24456041415E+03  0.00000000000E+00 0. -1.
         22    1    1    2    0    0  0.40974770451E+01 -0.14372323912E+02 -0.45586585768E+02  0.47973845111E+02  0.00000000000E+00 0.  1.
<mgrwt>
<rscale>  0 0.58200201E+02</rscale>
<asrwt>0</asrwt>
<pdfrwt beam="1">  1        2 0.48290133E-01 0.91565952E+02</pdfrwt>
<pdfrwt beam="2">  1       -2 0.13909254E-02 0.91565952E+02</pdfrwt>
<totfact> 0.11747229E+05</totfact>
</mgrwt>
</event>
<event>
 6    1  0.1727544E-002  0.9101592E+02  0.7546771E-02  0.1412838E+00
         -1   -1    0    0    0  501 -0.00000000000E+00  0.00000000000E+00  0.85270199519E+02  0.85270199519E+02  0.00000000000E+00 0.  1.
          1   -1    0    0  501    0  0.00000000000E+00 -0.00000000000E+00 -0.32076642946E+02  0.32076642946E+02  0.00000000000E+00 0. -1.
         23    2    1    2    0    0 -0.13360007624E+02 -0.24258858728E+01  0.46611159461E+02  0.10225702213E+03  0.89997353643E+02 0.  0.
         11    1    3    3    0    0  0.19286058732E+02  0.80433739233E+01 -0.18991032058E+02  0.28236629121E+02  0.00000000000E+00 0. -1.
        -11    1    3    3    0    0 -0.32646066356E+02 -0.10469259796E+02  0.65602191519E+02  0.74020393010E+02  0.00000000000E+00 0.  1.
         22    1    1    2    0    0  0.13360007624E+02  0.24258858728E+01  0.65823971121E+01  0.15089820334E+02  0.00000000000E+00 0. -1.
<mgrwt>
<rscale>  0 0.56565380E+02</rscale>
<asrwt>0</asrwt>
<pdfrwt beam="1">  1        1 0.49348682E-02 0.91015924E+02</pdfrwt>
<pdfrwt beam="2">  1       -1 0.13118492E-01 0.91015924E+02</pdfrwt>
<totfact> 0.57666269E+04</totfact>
</mgrwt>
</event>
<event>
 6    1  0.1727544E-002  0.9091271E+02  0.7546771E-02  0.1412939E+00
         -2   -1    0    0    0  501 -0.00000000000E+00  0.00000000000E+00  0.44909467214E+03  0.44909467214E+03  0.00000000000E+00 0.  1.
          2   -1    0    0  501    0  0.00000000000E+00 -0.00000000000E+00 -0.12451016343E+02  0.12451016343E+02  0.00000000000E+00 0. -1.
         23    2    1    2    0    0 -0.13600956564E+02  0.25486385004E+00  0.43849202227E+03  0.44781734431E+03  0.89889205640E+02 0.  0.
         11    1    3    3    0    0 -0.20842159911E+01  0.40257750041E+02  0.11939816290E+03  0.12601964806E+03  0.00000000000E+00 0. -1.
        -11    1    3    3    0    0 -0.11516740573E+02 -0.40002886191E+02  0.31909385938E+03  0.32179769625E+03  0.00000000000E+00 0.  1.
         22    1    1    2    0    0  0.13600956564E+02 -0.25486385004E+00 -0.18483664794E+01  0.13728344172E+02  0.00000000000E+00 0. -1.
<mgrwt>
<rscale>  0 0.56543132E+02</rscale>
<asrwt>0</asrwt>
<pdfrwt beam="1">  1        2 0.19155413E-02 0.90912707E+02</pdfrwt>
<pdfrwt beam="2">  1       -2 0.69091476E-01 0.90912707E+02</pdfrwt>
<totfact> 0.10193891E+04</totfact>
</mgrwt>
</event>
<event>
 6    1  0.1727544E-002  0.9706768E+02  0.7546771E-02  0.1344975E+00
          2   -1    0    0  501    0  0.00000000000E+00  0.00000000000E+00  0.33370881434E+02  0.33370881434E+02  0.00000000000E+00 0. -1.
         -2   -1    0    0    0  501 -0.00000000000E+00 -0.00000000000E+00 -0.14233047087E+03  0.14233047087E+03  0.00000000000E+00 0.  1.
         23    2    1    2    0    0 -0.30364298552E+02  0.15174111327E+02 -0.10246201789E+03  0.14114035236E+03  0.90938933753E+02 0.  0.
         13    1    3    3    0    0  0.56432005296E+01  0.22665757577E+02  0.80210039655E+01  0.24696533833E+02  0.00000000000E+00 0. -1.
        -13    1    3    3    0    0 -0.36007499082E+02 -0.74916462505E+01 -0.11048302186E+03  0.11644381853E+03  0.00000000000E+00 0.  1.
         22    1    1    2    0    0  0.30364298552E+02 -0.15174111327E+02 -0.64975715398E+01  0.34560999943E+02  0.00000000000E+00 0. -1.
<mgrwt>
<rscale>  0 0.74644712E+02</rscale>
<asrwt>0</asrwt>
<pdfrwt beam="1">  1        2 0.51339818E-02 0.97067677E+02</pdfrwt>
<pdfrwt beam="2">  1       -2 0.21896995E-01 0.97067677E+02</pdfrwt>
<totfact> 0.24123197E+04</totfact>
</mgrwt>
</event>
<event>
 6    1  0.1727544E-002  0.9197198E+02  0.7546771E-02  0.1423407E+00
          2   -1    0    0  501    0  0.00000000000E+00  0.00000000000E+00  0.18449811909E+03  0.18449811909E+03  0.00000000000E+00 0. -1.
         -2   -1    0    0    0  501 -0.00000000000E+00 -0.00000000000E+00 -0.14729581496E+02  0.14729581496E+02  0.00000000000E+00 0.  1.
         23    2    1    2    0    0 -0.41129766965E+01  0.10395971623E+02  0.14080327515E+03  0.16817968564E+03  0.91289931358E+02 0.  0.
         11    1    3    3    0    0  0.33148407406E+02 -0.15455036504E+01  0.14972729727E+02  0.36405880440E+02  0.00000000000E+00 0.  1.
        -11    1    3    3    0    0 -0.37261384103E+02  0.11941475273E+02  0.12583054542E+03  0.13177380520E+03  0.00000000000E+00 0. -1.
         22    1    1    2    0    0  0.41129766965E+01 -0.10395971623E+02  0.28965262448E+02  0.31048014944E+02  0.00000000000E+00 0. -1.
<mgrwt>
<rscale>  0 0.54306556E+02</rscale>
<asrwt>0</asrwt>
<pdfrwt beam="1">  1        2 0.28384324E-01 0.91971976E+02</pdfrwt>
<pdfrwt beam="2">  1       -2 0.22660896E-02 0.91971976E+02</pdfrwt>
<totfact> 0.10236241E+05</totfact>
</mgrwt>
</event>
<event>
 6    1  0.1727544E-002  0.9446176E+02  0.7546771E-02  0.1391816E+00
          2   -1    0    0  501    0  0.00000000000E+00  0.00000000000E+00  0.74097364110E+02  0.74097364110E+02  0.00000000000E+00 0. -1.
         -2   -1    0    0    0  501 -0.00000000000E+00 -0.00000000000E+00 -0.43183955925E+02  0.43183955925E+02  0.00000000000E+00 0.  1.
         23    2    1    2    0    0  0.75810022787E+01 -0.15132189501E+02  0.18410715343E+02  0.96239169884E+02  0.92933140622E+02 0.  0.
         13    1    3    3    0    0  0.30178494736E+02 -0.38699391005E+02 -0.13172880762E+02  0.50812490553E+02  0.00000000000E+00 0.  1.
        -13    1    3    3    0    0 -0.22597492457E+02  0.23567201504E+02  0.31583596106E+02  0.45426679331E+02  0.00000000000E+00 0. -1.
         22    1    1    2    0    0 -0.75810022787E+01  0.15132189501E+02  0.12502692842E+02  0.21042150150E+02  0.00000000000E+00 0. -1.
<mgrwt>
<rscale>  0 0.61457376E+02</rscale>
<asrwt>0</asrwt>
<pdfrwt beam="1">  1        2 0.11399594E-01 0.94461756E+02</pdfrwt>
<pdfrwt beam="2">  1       -2 0.66436855E-02 0.94461756E+02</pdfrwt>
<totfact> 0.59339865E+04</totfact>
</mgrwt>
</event>
<event>
 6    1  0.1727544E-002  0.9344399E+02  0.7546771E-02  0.1412334E+00
         -2   -1    0    0    0  501 -0.00000000000E+00  0.00000000000E+00  0.21938146060E+02  0.21938146060E+02  0.00000000000E+00 0.  1.
          2   -1    0    0  501    0  0.00000000000E+00 -0.00000000000E+00 -0.13321376522E+03  0.13321376522E+03  0.00000000000E+00 0. -1.
         23    2    1    2    0    0  0.84037737704E+01 -0.94495763857E+01 -0.86494113946E+02  0.12733032060E+03  0.92584344726E+02 0.  0.
         13    1    3    3    0    0  0.36836057930E+02  0.22497816954E+02 -0.18403090649E+02  0.46922496491E+02  0.00000000000E+00 0. -1.
        -13    1    3    3    0    0 -0.28432284159E+02 -0.31947393340E+02 -0.68091023297E+02  0.80407824105E+02  0.00000000000E+00 0.  1.
         22    1    1    2    0    0 -0.84037737704E+01  0.94495763857E+01 -0.24781505210E+02  0.27821590679E+02  0.00000000000E+00 0.  1.
<mgrwt>
<rscale>  0 0.56676192E+02</rscale>
<asrwt>0</asrwt>
<pdfrwt beam="1">  1        2 0.20494425E-01 0.93443987E+02</pdfrwt>
<pdfrwt beam="2">  1       -2 0.33750994E-02 0.93443987E+02</pdfrwt>
<totfact> 0.82207253E+04</totfact>
</mgrwt>
</event>
<event>
 6    1  0.1727544E-002  0.1225821E+03  0.7546771E-02  0.1263731E+00
         -1   -1    0    0    0  501 -0.00000000000E+00  0.00000000000E+00  0.17656783407E+02  0.17656783407E+02  0.00000000000E+00 0.  1.
          1   -1    0    0  501    0  0.00000000000E+00 -0.00000000000E+00 -0.70035719783E+03  0.70035719783E+03  0.00000000000E+00 0. -1.
         23    2    1    2    0    0 -0.72090093336E+02 -0.19626728572E+02 -0.24469876237E+03  0.27368568231E+03  0.97181162585E+02 0.  0.
         13    1    3    3    0    0 -0.95658525918E+02 -0.10692598788E+02 -0.20767310952E+03  0.22889518489E+03  0.00000000000E+00 0.  1.
        -13    1    3    3    0    0  0.23568432582E+02 -0.89341297842E+01 -0.37025652854E+02  0.44790497414E+02  0.00000000000E+00 0. -1.
         22    1    1    2    0    0  0.72090093336E+02  0.19626728572E+02 -0.43800165205E+03  0.44432829893E+03  0.00000000000E+00 0. -1.
<mgrwt>
<rscale>  0 0.10831057E+03</rscale>
<asrwt>0</asrwt>
<pdfrwt beam="1">  1        1 0.10774726E+00 0.12258209E+03</pdfrwt>
<pdfrwt beam="2">  1       -1 0.27164282E-02 0.12258209E+03</pdfrwt>
<totfact> 0.11672399E+04</totfact>
</mgrwt>
</event>
<event>
 6    1  0.1727544E-002  0.9830062E+02  0.7546771E-02  0.1331343E+00
          2   -1    0    0  501    0  0.00000000000E+00  0.00000000000E+00  0.33386869840E+03  0.33386869840E+03  0.00000000000E+00 0. -1.
         -2   -1    0    0    0  501 -0.00000000000E+00 -0.00000000000E+00 -0.21646354789E+02  0.21646354789E+02  0.00000000000E+00 0.  1.
         23    2    1    2    0    0 -0.31695902998E+02  0.26660513680E+02  0.10357382896E+03  0.14279548210E+03  0.89149304019E+02 0.  0.
         11    1    3    3    0    0 -0.17932932162E+02  0.57513978583E+02  0.85171642060E+02  0.10432476408E+03  0.00000000000E+00 0.  1.
        -11    1    3    3    0    0 -0.13762970835E+02 -0.30853464904E+02  0.18402186899E+02  0.38470718026E+02  0.00000000000E+00 0. -1.
         22    1    1    2    0    0  0.31695902998E+02 -0.26660513680E+02  0.20864851465E+03  0.21271957109E+03  0.00000000000E+00 0. -1.
<mgrwt>
<rscale>  0 0.79197830E+02</rscale>
<asrwt>0</asrwt>
<pdfrwt beam="1">  1        2 0.51364411E-01 0.98300619E+02</pdfrwt>
<pdfrwt beam="2">  1       -2 0.33302087E-02 0.98300619E+02</pdfrwt>
<totfact> 0.31570698E+04</totfact>
</mgrwt>
</event>
<event>
 6    1  0.1727544E-002  0.1004681E+03  0.7546771E-02  0.1326152E+00
          2   -1    0    0  501    0  0.00000000000E+00  0.00000000000E+00  0.36576851462E+03  0.36576851462E+03  0.00000000000E+00 0. -1.
         -2   -1    0    0    0  501 -0.00000000000E+00 -0.00000000000E+00 -0.14175785216E+02  0.14175785216E+02  0.00000000000E+00 0.  1.
         23    2    1    2    0    0 -0.39562584472E+02 -0.15557816197E+02  0.26684540867E+03  0.28513210596E+03  0.91030774957E+02 0.  0.
         13    1    3    3    0    0  0.78041160844E+01  0.16503694277E+02  0.18135922700E+03  0.18227573994E+03  0.00000000000E+00 0. -1.
        -13    1    3    3    0    0 -0.47366700556E+02 -0.32061510475E+02  0.85486181669E+02  0.10285636602E+03  0.00000000000E+00 0.  1.
         22    1    1    2    0    0  0.39562584472E+02  0.15557816197E+02  0.84747320738E+02  0.94812193873E+02  0.00000000000E+00 0. -1.
<mgrwt>
<rscale>  0 0.81030467E+02</rscale>
<asrwt>0</asrwt>
<pdfrwt beam="1">  1        2 0.56272072E-01 0.10046813E+03</pdfrwt>
<pdfrwt beam="2">  1       -2 0.21808903E-02 0.10046813E+03</pdfrwt>
<totfact> 0.53190619E+04</totfact>
</mgrwt>
</event>
<event>
 6    1  0.1727544E-002  0.9294291E+02  0.7546771E-02  0.1396591E+00
         -1   -1    0    0    0  501 -0.00000000000E+00  0.00000000000E+00  0.36780193536E+02  0.36780193536E+02  0.00000000000E+00 0.  1.
          1   -1    0    0  501    0  0.00000000000E+00 -0.00000000000E+00 -0.82337872645E+02  0.82337872645E+02  0.00000000000E+00 0. -1.
         23    2    1    2    0    0  0.12826198070E+02 -0.10321912502E+02 -0.43179732398E+02  0.10248352786E+03  0.91473116038E+02 0.  0.
         13    1    3    3    0    0 -0.79226740412E+01  0.35476223636E+02 -0.36928354538E+02  0.51817319270E+02  0.00000000000E+00 0.  1.
        -13    1    3    3    0    0  0.20748872111E+02 -0.45798136138E+02 -0.62513778597E+01  0.50666208588E+02  0.00000000000E+00 0. -1.
         22    1    1    2    0    0 -0.12826198070E+02  0.10321912502E+02 -0.23779467111E+01  0.16634538322E+02  0.00000000000E+00 0.  1.
<mgrwt>
<rscale>  0 0.60296766E+02</rscale>
<asrwt>0</asrwt>
<pdfrwt beam="1">  1        1 0.12667365E-01 0.92942908E+02</pdfrwt>
<pdfrwt beam="2">  1       -1 0.56584913E-02 0.92942908E+02</pdfrwt>
<totfact> 0.58561993E+04</totfact>
</mgrwt>
</event>
<event>
 6    1  0.1727544E-002  0.9240912E+02  0.7546771E-02  0.1411632E+00
         -2   -1    0    0    0  501 -0.00000000000E+00  0.00000000000E+00  0.78372465530E+01  0.78372465530E+01  0.00000000000E+00 0.  1.
          2   -1    0    0  501    0  0.00000000000E+00 -0.00000000000E+00 -0.36503129099E+03  0.36503129099E+03  0.00000000000E+00 0. -1.
         23    2    1    2    0    0  0.12521424814E+02  0.42381194622E+01 -0.28932954157E+03  0.30372854560E+03  0.91458723223E+02 0.  0.
         11    1    3    3    0    0  0.19266867813E+02  0.19210174671E+02 -0.19678791205E+02  0.33578234461E+02  0.00000000000E+00 0.  1.
        -11    1    3    3    0    0 -0.67454429982E+01 -0.14972055209E+02 -0.26965075036E+03  0.27015031114E+03  0.00000000000E+00 0. -1.
         22    1    1    2    0    0 -0.12521424814E+02 -0.42381194622E+01 -0.67864502864E+02  0.69139991936E+02  0.00000000000E+00 0.  1.
<mgrwt>
<rscale>  0 0.56831298E+02</rscale>
<asrwt>0</asrwt>
<pdfrwt beam="1">  1        2 0.56158658E-01 0.92409122E+02</pdfrwt>
<pdfrwt beam="2">  1       -2 0.12057303E-02 0.92409122E+02</pdfrwt>
<totfact> 0.12307969E+05</totfact>
</mgrwt>
</event>
<event>
 6    1  0.1727544E-002  0.1256889E+03  0.7546771E-02  0.1253733E+00
         -2   -1    0    0    0  501 -0.00000000000E+00  0.00000000000E+00  0.11402156519E+03  0.11402156519E+03  0.00000000000E+00 0.  1.
          2   -1    0    0  501    0  0.00000000000E+00 -0.00000000000E+00 -0.16846411358E+03  0.16846411358E+03  0.00000000000E+00 0. -1.
         23    2    1    2    0    0 -0.84302161979E+02  0.39481146978E+01 -0.12140846746E+03  0.17475046429E+03  0.93141111620E+02 0.  0.
         13    1    3    3    0    0 -0.43073940657E+02  0.47630775289E+02 -0.49671270668E+02  0.81186761532E+02  0.00000000000E+00 0. -1.
        -13    1    3    3    0    0 -0.41228221321E+02 -0.43682660591E+02 -0.71737196791E+02  0.93563702754E+02  0.00000000000E+00 0.  1.
         22    1    1    2    0    0  0.84302161979E+02 -0.39481146978E+01  0.66965919071E+02  0.10773521449E+03  0.00000000000E+00 0.  1.
<mgrwt>
<rscale>  0 0.11377619E+03</rscale>
<asrwt>0</asrwt>
<pdfrwt beam="1">  1        2 0.25917556E-01 0.12568894E+03</pdfrwt>
<pdfrwt beam="2">  1       -2 0.17541779E-01 0.12568894E+03</pdfrwt>
<totfact> 0.51608855E+03</totfact>
</mgrwt>
</event>
<event>
 6    1  0.1727544E-002  0.1016766E+03  0.7546771E-02  0.1386916E+00
          2   -1    0    0  501    0  0.00000000000E+00  0.00000000000E+00  0.26183640436E+02  0.26183640436E+02  0.00000000000E+00 0.  1.
         -2   -1    0    0    0  501 -0.00000000000E+00 -0.00000000000E+00 -0.15992124569E+03  0.15992124569E+03  0.00000000000E+00 0. -1.
         23    2    1    2    0    0  0.12052636082E+02 -0.83887899955E+01 -0.13743912069E+03  0.17096094177E+03  0.10061060520E+03 0.  0.
         13    1    3    3    0    0 -0.16105926170E+02 -0.67123759431E+00 -0.14066556733E+03  0.14158620430E+03  0.00000000000E+00 0. -1.
        -13    1    3    3    0    0  0.28158562252E+02 -0.77175524012E+01  0.32264466320E+01  0.29374737463E+02  0.00000000000E+00 0.  1.
         22    1    1    2    0    0 -0.12052636082E+02  0.83887899955E+01  0.37015154431E+01  0.15143944357E+02  0.00000000000E+00 0. -1.
<mgrwt>
<rscale>  0 0.62680347E+02</rscale>
<asrwt>0</asrwt>
<pdfrwt beam="1">  1        2 0.40282525E-02 0.10167660E+03</pdfrwt>
<pdfrwt beam="2">  1       -2 0.24603268E-01 0.10167660E+03</pdfrwt>
<totfact> 0.27241933E+04</totfact>
</mgrwt>
</event>
<event>
 6    1  0.1727544E-002  0.9572262E+02  0.7546771E-02  0.1350243E+00
          2   -1    0    0  501    0  0.00000000000E+00  0.00000000000E+00  0.23462217972E+03  0.23462217972E+03  0.00000000000E+00 0. -1.
         -2   -1    0    0    0  501 -0.00000000000E+00 -0.00000000000E+00 -0.22508871333E+02  0.22508871333E+02  0.00000000000E+00 0.  1.
         23    2    1    2    0    0  0.17083938638E+02  0.27462154180E+02  0.20151842483E+03  0.22309750247E+03  0.90093224995E+02 0.  0.
         13    1    3    3    0    0  0.38892138339E+02  0.16594335322E+02  0.35241698480E+02  0.55044960724E+02  0.00000000000E+00 0.  1.
        -13    1    3    3    0    0 -0.21808199701E+02  0.10867818858E+02  0.16627672635E+03  0.16805254175E+03  0.00000000000E+00 0. -1.
         22    1    1    2    0    0 -0.17083938638E+02 -0.27462154180E+02  0.10594883554E+02  0.34033548583E+02  0.00000000000E+00 0. -1.
<mgrwt>
<rscale>  0 0.72980023E+02</rscale>
<asrwt>0</asrwt>
<pdfrwt beam="1">  1        2 0.36095718E-01 0.95722620E+02</pdfrwt>
<pdfrwt beam="2">  1       -2 0.34629035E-02 0.95722620E+02</pdfrwt>
<totfact> 0.43044442E+04</totfact>
</mgrwt>
</event>
<event>
 6    1  0.1727544E-002  0.9183175E+02  0.7546771E-02  0.1420068E+00
          2   -1    0    0  501    0  0.00000000000E+00  0.00000000000E+00  0.88877422943E+02  0.88877422943E+02  0.00000000000E+00 0. -1.
         -2   -1    0    0    0  501 -0.00000000000E+00 -0.00000000000E+00 -0.34318311662E+02  0.34318311662E+02  0.00000000000E+00 0.  1.
         23    2    1    2    0    0  0.10561800585E+02 -0.53103174133E+01  0.60495629117E+02  0.10996722953E+03  0.91067663441E+02 0.  0.
         13    1    3    3    0    0 -0.13214914521E+02  0.18357225962E+02  0.71236676209E+02  0.74741459366E+02  0.00000000000E+00 0. -1.
        -13    1    3    3    0    0  0.23776715106E+02 -0.23667543375E+02 -0.10741047093E+02  0.35225770159E+02  0.00000000000E+00 0.  1.
         22    1    1    2    0    0 -0.10561800585E+02  0.53103174133E+01 -0.59365178363E+01  0.13228505080E+02  0.00000000000E+00 0. -1.
<mgrwt>
<rscale>  0 0.55006505E+02</rscale>
<asrwt>0</asrwt>
<pdfrwt beam="1">  1        2 0.13673450E-01 0.91831751E+02</pdfrwt>
<pdfrwt beam="2">  1       -2 0.52797403E-02 0.91831751E+02</pdfrwt>
<totfact> 0.67282423E+04</totfact>
</mgrwt>
</event>
<event>
 6    1  0.1727544E-002  0.9094241E+02  0.7546771E-02  0.1421695E+00
         -2   -1    0    0    0  501 -0.00000000000E+00  0.00000000000E+00  0.87137119072E+03  0.87137119072E+03  0.00000000000E+00 0.  1.
          2   -1    0    0  501    0  0.00000000000E+00 -0.00000000000E+00 -0.37724855994E+01  0.37724855994E+01  0.00000000000E+00 0. -1.
         23    2    1    2    0    0 -0.20486496243E+01  0.11693361787E+02  0.84233168487E+03  0.84722676411E+03  0.90164243506E+02 0.  0.
         13    1    3    3    0    0 -0.35458772497E+02 -0.28273931917E+01  0.15925080233E+03  0.16317517196E+03  0.00000000000E+00 0. -1.
        -13    1    3    3    0    0  0.33410122873E+02  0.14520754978E+02  0.68308088254E+03  0.68405159215E+03  0.00000000000E+00 0.  1.
         22    1    1    2    0    0  0.20486496243E+01 -0.11693361787E+02  0.25267020248E+02  0.27916912211E+02  0.00000000000E+00 0. -1.
<mgrwt>
<rscale>  0 0.54663940E+02</rscale>
<asrwt>0</asrwt>
<pdfrwt beam="1">  1        2 0.58038309E-03 0.90942413E+02</pdfrwt>
<pdfrwt beam="2">  1       -2 0.13405695E+00 0.90942413E+02</pdfrwt>
<totfact> 0.11590687E+04</totfact>
</mgrwt>
</event>
<event>
 6    1  0.1727544E-002  0.9049537E+02  0.7546771E-02  0.1423643E+00
         -4   -1    0    0    0  501 -0.00000000000E+00  0.00000000000E+00  0.15736642058E+03  0.15736642058E+03  0.00000000000E+00 0.  1.
          4   -1    0    0  501    0  0.00000000000E+00 -0.00000000000E+00 -0.16622098358E+02  0.16622098358E+02  0.00000000000E+00 0. -1.
         23    2    1    2    0    0 -0.40873251916E+01 -0.10956288345E+02  0.12208346251E+03  0.15196638991E+03  0.89736644488E+02 0.  0.
         11    1    3    3    0    0 -0.35461634606E+02  0.15200738159E+02  0.23303295369E+02  0.45073645788E+02  0.00000000000E+00 0. -1.
        -11    1    3    3    0    0  0.31374309415E+02 -0.26157026504E+02  0.98780167140E+02  0.10689274413E+03  0.00000000000E+00 0.  1.
         22    1    1    2    0    0  0.40873251916E+01  0.10956288345E+02  0.18660859711E+02  0.22022129022E+02  0.00000000000E+00 0.  1.
<mgrwt>
<rscale>  0 0.54257439E+02</rscale>
<asrwt>0</asrwt>
<pdfrwt beam="1">  1        4 0.25572460E-02 0.90495369E+02</pdfrwt>
<pdfrwt beam="2">  1       -4 0.24210218E-01 0.90495369E+02</pdfrwt>
<totfact> 0.15896246E+04</totfact>
</mgrwt>
</event>
<event>
 6    1  0.1727544E-002  0.9162201E+02  0.7546771E-02  0.1425129E+00
         -2   -1    0    0    0  501 -0.00000000000E+00  0.00000000000E+00  0.18508393207E+03  0.18508393207E+03  0.00000000000E+00 0.  1.
          2   -1    0    0  501    0  0.00000000000E+00 -0.00000000000E+00 -0.29217179727E+02  0.29217179727E+02  0.00000000000E+00 0. -1.
         23    2    1    2    0    0  0.11281076815E+00  0.11014266541E+02  0.17193286235E+03  0.19482172051E+03  0.90957500147E+02 0.  0.
         11    1    3    3    0    0  0.10004591601E+02 -0.23545494488E+02  0.15114812992E+03  0.15329787781E+03  0.00000000000E+00 0.  1.
        -11    1    3    3    0    0 -0.98917808326E+01  0.34559761029E+02  0.20784732437E+02  0.41523842704E+02  0.00000000000E+00 0. -1.
         22    1    1    2    0    0 -0.11281076815E+00 -0.11014266541E+02 -0.16066110013E+02  0.19479391280E+02  0.00000000000E+00 0. -1.
<mgrwt>
<rscale>  0 0.53950375E+02</rscale>
<asrwt>0</asrwt>
<pdfrwt beam="1">  1        2 0.44949508E-02 0.91622015E+02</pdfrwt>
<pdfrwt beam="2">  1       -2 0.28474450E-01 0.91622015E+02</pdfrwt>
<totfact> 0.18054572E+04</totfact>
</mgrwt>
</event>
<event>
 6    1  0.1727544E-002  0.8917761E+02  0.7546771E-02  0.1430212E+00
          2   -1    0    0  501    0  0.00000000000E+00  0.00000000000E+00  0.70712110717E+02  0.70712110717E+02  0.00000000000E+00 0. -1.
         -2   -1    0    0    0  501 -0.00000000000E+00 -0.00000000000E+00 -0.38218952794E+02  0.38218952794E+02  0.00000000000E+00 0.  1.
         23    2    1    2    0    0 -0.55480740115E+01 -0.95640424348E+01  0.18464792609E+02  0.91069174856E+02  0.88489513559E+02 0.  0.
         13    1    3    3    0    0 -0.39173111007E+02 -0.27875788773E+02 -0.10592245494E+01  0.48090687064E+02  0.00000000000E+00 0. -1.
        -13    1    3    3    0    0  0.33625036995E+02  0.18311746338E+02  0.19524017159E+02  0.42978487792E+02  0.00000000000E+00 0.  1.
         22    1    1    2    0    0  0.55480740115E+01  0.95640424348E+01  0.14028365313E+02  0.17861888654E+02  0.00000000000E+00 0.  1.
<mgrwt>
<rscale>  0 0.52917447E+02</rscale>
<asrwt>0</asrwt>
<pdfrwt beam="1">  1        2 0.10878786E-01 0.89177610E+02</pdfrwt>
<pdfrwt beam="2">  1       -2 0.58798389E-02 0.89177610E+02</pdfrwt>
<totfact> 0.74787235E+04</totfact>
</mgrwt>
</event>
<event>
 6    1  0.1727544E-002  0.9282384E+02  0.7546771E-02  0.1391162E+00
         -1   -1    0    0    0  501 -0.00000000000E+00  0.00000000000E+00  0.42714707023E+02  0.42714707023E+02  0.00000000000E+00 0.  1.
          1   -1    0    0  501    0  0.00000000000E+00 -0.00000000000E+00 -0.88601138779E+02  0.88601138779E+02  0.00000000000E+00 0. -1.
         23    2    1    2    0    0  0.64081849712E+00  0.18013237842E+02 -0.12886304669E+02  0.93714040346E+02  0.91056999314E+02 0.  0.
         13    1    3    3    0    0  0.21103549777E+02 -0.29749097460E+02 -0.19456488735E+02  0.41339128761E+02  0.00000000000E+00 0. -1.
        -13    1    3    3    0    0 -0.20462731279E+02  0.47762335301E+02  0.65701840654E+01  0.52374911585E+02  0.00000000000E+00 0.  1.
         22    1    1    2    0    0 -0.64081849712E+00 -0.18013237842E+02 -0.33000127086E+02  0.37601805456E+02  0.00000000000E+00 0. -1.
<mgrwt>
<rscale>  0 0.61618517E+02</rscale>
<asrwt>0</asrwt>
<pdfrwt beam="1">  1        1 0.13630944E-01 0.92823836E+02</pdfrwt>
<pdfrwt beam="2">  1       -1 0.65714934E-02 0.92823836E+02</pdfrwt>
<totfact> 0.42718982E+04</totfact>
</mgrwt>
</event>
<event>
 6    1  0.1727544E-002  0.9266643E+02  0.7546771E-02  0.1391994E+00
         -1   -1    0    0    0  501 -0.00000000000E+00  0.00000000000E+00  0.38013298307E+02  0.38013298307E+02  0.00000000000E+00 0. -1.
          1   -1    0    0  501    0  0.00000000000E+00 -0.00000000000E+00 -0.11708009341E+03  0.11708009341E+03  0.00000000000E+00 0.  1.
         23    2    1    2    0    0  0.14543474601E+02  0.10395462435E+02 -0.21931014747E+02  0.95226241380E+02  0.90925735338E+02 0.  0.
         13    1    3    3    0    0  0.37567967064E+02  0.18134444428E+02 -0.45256651528E+02  0.61549774423E+02  0.00000000000E+00 0.  1.
        -13    1    3    3    0    0 -0.23024492463E+02 -0.77389819932E+01  0.23325636781E+02  0.33676466957E+02  0.00000000000E+00 0. -1.
         22    1    1    2    0    0 -0.14543474601E+02 -0.10395462435E+02 -0.57135780352E+02  0.59867150334E+02  0.00000000000E+00 0.  1.
<mgrwt>
<rscale>  0 0.61413520E+02</rscale>
<asrwt>0</asrwt>
<pdfrwt beam="1">  1        1 0.18012322E-01 0.92666432E+02</pdfrwt>
<pdfrwt beam="2">  1       -1 0.58481998E-02 0.92666432E+02</pdfrwt>
<totfact> 0.35550237E+04</totfact>
</mgrwt>
</event>
<event>
 6    1  0.1727544E-002  0.9232490E+02  0.7546771E-02  0.1422078E+00
         -2   -1    0    0    0  501 -0.00000000000E+00  0.00000000000E+00  0.25022423777E+02  0.25022423777E+02  0.00000000000E+00 0.  1.
          2   -1    0    0  501    0  0.00000000000E+00 -0.00000000000E+00 -0.15349841563E+03  0.15349841563E+03  0.00000000000E+00 0. -1.
         23    2    1    2    0    0 -0.96924414480E+01 -0.57695339734E+01 -0.62272127228E+02  0.11136294609E+03  0.91633274463E+02 0.  0.
         11    1    3    3    0    0  0.14148288894E+02  0.36965763766E+02 -0.12365047708E+02  0.41467290414E+02  0.00000000000E+00 0. -1.
        -11    1    3    3    0    0 -0.23840730342E+02 -0.42735297740E+02 -0.49907079520E+02  0.69895655676E+02  0.00000000000E+00 0.  1.
         22    1    1    2    0    0  0.96924414480E+01  0.57695339734E+01 -0.66203864628E+02  0.67157893320E+02  0.00000000000E+00 0. -1.
<mgrwt>
<rscale>  0 0.54583734E+02</rscale>
<asrwt>0</asrwt>
<pdfrwt beam="1">  1        2 0.23615141E-01 0.92324904E+02</pdfrwt>
<pdfrwt beam="2">  1       -2 0.38496036E-02 0.92324904E+02</pdfrwt>
<totfact> 0.57868645E+04</totfact>
</mgrwt>
</event>
<event>
 6    1  0.1727544E-002  0.9145391E+02  0.7546771E-02  0.1412752E+00
         -2   -1    0    0    0  501 -0.00000000000E+00  0.00000000000E+00  0.21327545000E+02  0.21327545000E+02  0.00000000000E+00 0.  1.
          2   -1    0    0  501    0  0.00000000000E+00 -0.00000000000E+00 -0.13947938866E+03  0.13947938866E+03  0.00000000000E+00 0. -1.
         23    2    1    2    0    0  0.56296398497E+01 -0.12162489506E+02 -0.84225044295E+02  0.12432890313E+03  0.90466563284E+02 0.  0.
         11    1    3    3    0    0  0.10681421129E+01 -0.33173857839E+02 -0.94746371626E+02  0.10039183586E+03  0.00000000000E+00 0. -1.
        -11    1    3    3    0    0  0.45614977368E+01  0.21011368333E+02  0.10521327331E+02  0.23937067273E+02  0.00000000000E+00 0.  1.
         22    1    1    2    0    0 -0.56296398497E+01  0.12162489506E+02 -0.33926799366E+02  0.36478030525E+02  0.00000000000E+00 0.  1.
<mgrwt>
<rscale>  0 0.56584274E+02</rscale>
<asrwt>0</asrwt>
<pdfrwt beam="1">  1        2 0.21458368E-01 0.91453912E+02</pdfrwt>
<pdfrwt beam="2">  1       -2 0.32811608E-02 0.91453912E+02</pdfrwt>
<totfact> 0.81145166E+04</totfact>
</mgrwt>
</event>
<event>
 6    1  0.1727544E-002  0.9142700E+02  0.7546771E-02  0.1413084E+00
         -4   -1    0    0    0  501 -0.00000000000E+00  0.00000000000E+00  0.34730416644E+02  0.34730416644E+02  0.00000000000E+00 0.  1.
          4   -1    0    0  501    0  0.00000000000E+00 -0.00000000000E+00 -0.98319313371E+02  0.98319313371E+02  0.00000000000E+00 0. -1.
         23    2    1    2    0    0 -0.10969175522E+02 -0.76002780993E+01 -0.28905455391E+02  0.95887543027E+02  0.90447822072E+02 0.  0.
         11    1    3    3    0    0 -0.22100458751E+02  0.26518003689E+02 -0.44866984415E+02  0.56609902730E+02  0.00000000000E+00 0. -1.
        -11    1    3    3    0    0  0.11131283228E+02 -0.34118281788E+02  0.15961529024E+02  0.39277640297E+02  0.00000000000E+00 0.  1.
         22    1    1    2    0    0  0.10969175522E+02  0.76002780993E+01 -0.34683441336E+02  0.37162186988E+02  0.00000000000E+00 0. -1.
<mgrwt>
<rscale>  0 0.56511245E+02</rscale>
<asrwt>0</asrwt>
<pdfrwt beam="1">  1        4 0.15126048E-01 0.91426996E+02</pdfrwt>
<pdfrwt beam="2">  1       -4 0.53431411E-02 0.91426996E+02</pdfrwt>
<totfact> 0.11565798E+04</totfact>
</mgrwt>
</event>
<event>
 6    1  0.1727544E-002  0.9219811E+02  0.7546771E-02  0.1392973E+00
          2   -1    0    0  501    0  0.00000000000E+00  0.00000000000E+00  0.55096790682E+02  0.55096790682E+02  0.00000000000E+00 0.  1.
         -2   -1    0    0    0  501 -0.00000000000E+00 -0.00000000000E+00 -0.17718322578E+03  0.17718322578E+03  0.00000000000E+00 0. -1.
         23    2    1    2    0    0 -0.16966634662E+02  0.56040662097E+01 -0.16320496462E+03  0.18744692912E+03  0.90450088491E+02 0.  0.
         13    1    3    3    0    0  0.37418294051E+02  0.48027178618E+01 -0.70752593738E+02  0.80181820566E+02  0.00000000000E+00 0.  1.
        -13    1    3    3    0    0 -0.54384928713E+02  0.80134834785E+00 -0.92452370887E+02  0.10726510855E+03  0.00000000000E+00 0. -1.
         22    1    1    2    0    0  0.16966634662E+02 -0.56040662097E+01  0.41118529529E+02  0.44833087340E+02  0.00000000000E+00 0.  1.
<mgrwt>
<rscale>  0 0.61173263E+02</rscale>
<asrwt>0</asrwt>
<pdfrwt beam="1">  1        2 0.84764293E-02 0.92198106E+02</pdfrwt>
<pdfrwt beam="2">  1       -2 0.27258958E-01 0.92198106E+02</pdfrwt>
<totfact> 0.87257204E+03</totfact>
</mgrwt>
</event>
<event>
 6    1  0.1727544E-002  0.9547467E+02  0.7546771E-02  0.1408202E+00
         -2   -1    0    0    0  501 -0.00000000000E+00  0.00000000000E+00  0.37791536972E+02  0.37791536972E+02  0.00000000000E+00 0.  1.
          2   -1    0    0  501    0  0.00000000000E+00 -0.00000000000E+00 -0.79888379947E+02  0.79888379947E+02  0.00000000000E+00 0. -1.
         23    2    1    2    0    0 -0.12220149520E+02 -0.32523686955E+01 -0.29740054653E+02  0.99999414266E+02  0.94633514393E+02 0.  0.
         13    1    3    3    0    0  0.26093227905E+02  0.17296909086E+02 -0.44215979105E+02  0.54176493192E+02  0.00000000000E+00 0. -1.
        -13    1    3    3    0    0 -0.38313377425E+02 -0.20549277781E+02  0.14475924452E+02  0.45822921074E+02  0.00000000000E+00 0.  1.
         22    1    1    2    0    0  0.12220149520E+02  0.32523686955E+01 -0.12356788322E+02  0.17680502653E+02  0.00000000000E+00 0. -1.
<mgrwt>
<rscale>  0 0.57597091E+02</rscale>
<asrwt>0</asrwt>
<pdfrwt beam="1">  1        2 0.12290520E-01 0.95474667E+02</pdfrwt>
<pdfrwt beam="2">  1       -2 0.58140827E-02 0.95474667E+02</pdfrwt>
<totfact> 0.66416364E+04</totfact>
</mgrwt>
</event>
<event>
 6    1  0.1727544E-002  0.9196139E+02  0.7546771E-02  0.1424746E+00
         -2   -1    0    0    0  501 -0.00000000000E+00  0.00000000000E+00  0.57576092776E+01  0.57576092776E+01  0.00000000000E+00 0.  1.
          2   -1    0    0  501    0  0.00000000000E+00 -0.00000000000E+00 -0.46083411042E+03  0.46083411042E+03  0.00000000000E+00 0. -1.
         23    2    1    2    0    0  0.87792468727E+01 -0.65562379838E+01 -0.41268199875E+03  0.42280412710E+03  0.91306288779E+02 0.  0.
         11    1    3    3    0    0 -0.32847378802E+02  0.18757429302E+02 -0.11236125116E+03  0.11855733723E+03  0.00000000000E+00 0.  1.
        -11    1    3    3    0    0  0.41626625675E+02 -0.25313667285E+02 -0.30032074759E+03  0.30424678988E+03  0.00000000000E+00 0. -1.
         22    1    1    2    0    0 -0.87792468727E+01  0.65562379838E+01 -0.42394502387E+02  0.43787592590E+02  0.00000000000E+00 0. -1.
<mgrwt>
<rscale>  0 0.54029219E+02</rscale>
<asrwt>0</asrwt>
<pdfrwt beam="1">  1        2 0.70897573E-01 0.91961393E+02</pdfrwt>
<pdfrwt beam="2">  1       -2 0.88578582E-03 0.91961393E+02</pdfrwt>
<totfact> 0.14882131E+05</totfact>
</mgrwt>
</event>
<event>
 6    1  0.1727544E-002  0.7028912E+02  0.7546771E-02  0.1451139E+00
          2   -1    0    0  501    0  0.00000000000E+00  0.00000000000E+00  0.35282472205E+03  0.35282472205E+03  0.00000000000E+00 0. -1.
         -2   -1    0    0    0  501 -0.00000000000E+00 -0.00000000000E+00 -0.53400820313E+01  0.53400820313E+01  0.00000000000E+00 0.  1.
         23    2    1    2    0    0 -0.15169710184E+02  0.65425407407E+01  0.28014495190E+03  0.28882824415E+03  0.68320096607E+02 0.  0.
         13    1    3    3    0    0 -0.15410463833E+02  0.99407447791E+01  0.15083065248E+02  0.23744465873E+02  0.00000000000E+00 0.  1.
        -13    1    3    3    0    0  0.24075364856E+00 -0.33982040383E+01  0.26506188665E+03  0.26508377828E+03  0.00000000000E+00 0. -1.
         22    1    1    2    0    0  0.15169710184E+02 -0.65425407407E+01  0.67339688119E+02  0.69336559926E+02  0.00000000000E+00 0. -1.
<mgrwt>
<rscale>  0 0.48940848E+02</rscale>
<asrwt>0</asrwt>
<pdfrwt beam="1">  1        2 0.54280708E-01 0.70289121E+02</pdfrwt>
<pdfrwt beam="2">  1       -2 0.82155136E-03 0.70289121E+02</pdfrwt>
<totfact> 0.20926145E+05</totfact>
</mgrwt>
</event>
<event>
 6    1  0.1727544E-002  0.9251385E+02  0.7546771E-02  0.1399802E+00
          4   -1    0    0  501    0  0.00000000000E+00  0.00000000000E+00  0.34430769123E+02  0.34430769123E+02  0.00000000000E+00 0.  1.
         -4   -1    0    0    0  501 -0.00000000000E+00 -0.00000000000E+00 -0.15081340611E+03  0.15081340611E+03  0.00000000000E+00 0. -1.
         23    2    1    2    0    0 -0.77362878262E+01  0.13849607260E+02 -0.13316721893E+03  0.16214906836E+03  0.91143570258E+02 0.  0.
         11    1    3    3    0    0  0.18883770247E+02  0.15504747582E+02 -0.13325594685E+03  0.13547745697E+03  0.00000000000E+00 0. -1.
        -11    1    3    3    0    0 -0.26620058073E+02 -0.16551403219E+01  0.88727914770E-01  0.26671611386E+02  0.00000000000E+00 0.  1.
         22    1    1    2    0    0  0.77362878262E+01 -0.13849607260E+02  0.16784581946E+02  0.23095106878E+02  0.00000000000E+00 0.  1.
<mgrwt>
<rscale>  0 0.59532924E+02</rscale>
<asrwt>0</asrwt>
<pdfrwt beam="1">  1        4 0.52970414E-02 0.92513849E+02</pdfrwt>
<pdfrwt beam="2">  1       -4 0.23202062E-01 0.92513849E+02</pdfrwt>
<totfact> 0.55144870E+03</totfact>
</mgrwt>
</event>
<event>
 6    1  0.1727544E-002  0.9267463E+02  0.7546771E-02  0.1421083E+00
         -1   -1    0    0    0  501 -0.00000000000E+00  0.00000000000E+00  0.12661881407E+02  0.12661881407E+02  0.00000000000E+00 0.  1.
          1   -1    0    0  501    0  0.00000000000E+00 -0.00000000000E+00 -0.21728240052E+03  0.21728240052E+03  0.00000000000E+00 0. -1.
         23    2    1    2    0    0  0.80677469281E+01 -0.79463196431E+01 -0.17144936548E+03  0.19489349064E+03  0.91980189359E+02 0.  0.
         13    1    3    3    0    0 -0.92218109109E+01 -0.16542709493E+01  0.93053141822E+01  0.13204820365E+02  0.00000000000E+00 0.  1.
        -13    1    3    3    0    0  0.17289557839E+02 -0.62920486938E+01 -0.18075467966E+03  0.18168867027E+03  0.00000000000E+00 0. -1.
         22    1    1    2    0    0 -0.80677469281E+01  0.79463196431E+01 -0.33171153634E+02  0.35050791286E+02  0.00000000000E+00 0.  1.
<mgrwt>
<rscale>  0 0.54792414E+02</rscale>
<asrwt>0</asrwt>
<pdfrwt beam="1">  1        1 0.33428063E-01 0.92674634E+02</pdfrwt>
<pdfrwt beam="2">  1       -1 0.19479817E-02 0.92674634E+02</pdfrwt>
<totfact> 0.80935991E+04</totfact>
</mgrwt>
</event>
<event>
 6    1  0.1727544E-002  0.1005331E+03  0.7546771E-02  0.1324798E+00
          2   -1    0    0  501    0  0.00000000000E+00  0.00000000000E+00  0.40770400421E+02  0.40770400421E+02  0.00000000000E+00 0. -1.
         -2   -1    0    0    0  501 -0.00000000000E+00 -0.00000000000E+00 -0.15404337386E+03  0.15404337386E+03  0.00000000000E+00 0.  1.
         23    2    1    2    0    0 -0.94817366195E+01  0.42412615387E+02 -0.37186525148E+02  0.10719025640E+03  0.90654178835E+02 0.  0.
         13    1    3    3    0    0  0.62284080948E+00 -0.20565669779E+02  0.14435639304E+02  0.25134088132E+02  0.00000000000E+00 0.  1.
        -13    1    3    3    0    0 -0.10104577429E+02  0.62978285166E+02 -0.51622164452E+02  0.82056168264E+02  0.00000000000E+00 0. -1.
         22    1    1    2    0    0  0.94817366195E+01 -0.42412615387E+02 -0.76086448294E+02  0.87623517890E+02  0.00000000000E+00 0.  1.
<mgrwt>
<rscale>  0 0.81517956E+02</rscale>
<asrwt>0</asrwt>
<pdfrwt beam="1">  1        2 0.62723693E-02 0.10053315E+03</pdfrwt>
<pdfrwt beam="2">  1       -2 0.23698981E-01 0.10053315E+03</pdfrwt>
<totfact> 0.16371015E+04</totfact>
</mgrwt>
</event>
<event>
 6    1  0.1727544E-002  0.9505559E+02  0.7546771E-02  0.1406880E+00
          2   -1    0    0  501    0  0.00000000000E+00  0.00000000000E+00  0.35100651034E+01  0.35100651034E+01  0.00000000000E+00 0. -1.
         -2   -1    0    0    0  501 -0.00000000000E+00 -0.00000000000E+00 -0.89836361133E+03  0.89836361133E+03  0.00000000000E+00 0.  1.
         23    2    1    2    0    0 -0.86957367619E+01  0.97728530712E+01 -0.84510343001E+03  0.85043246184E+03  0.94151156376E+02 0.  0.
         11    1    3    3    0    0 -0.66813823142E+01  0.18212441937E+02 -0.32978239703E+02  0.38260922687E+02  0.00000000000E+00 0. -1.
        -11    1    3    3    0    0 -0.20143544478E+01 -0.84395888662E+01 -0.81212519030E+03  0.81217153915E+03  0.00000000000E+00 0.  1.
         22    1    1    2    0    0  0.86957367619E+01 -0.97728530712E+01 -0.49750116223E+02  0.51441214597E+02  0.00000000000E+00 0.  1.
<mgrwt>
<rscale>  0 0.57895827E+02</rscale>
<asrwt>0</asrwt>
<pdfrwt beam="1">  1        2 0.54000925E-03 0.95055588E+02</pdfrwt>
<pdfrwt beam="2">  1       -2 0.13820998E+00 0.95055588E+02</pdfrwt>
<totfact> 0.11948198E+04</totfact>
</mgrwt>
</event>
<event>
 6    1  0.1727544E-002  0.9378217E+02  0.7546771E-02  0.1412138E+00
         -2   -1    0    0    0  501 -0.00000000000E+00  0.00000000000E+00  0.13622305555E+03  0.13622305555E+03  0.00000000000E+00 0.  1.
          2   -1    0    0  501    0  0.00000000000E+00 -0.00000000000E+00 -0.40142969002E+02  0.40142969002E+02  0.00000000000E+00 0. -1.
         23    2    1    2    0    0 -0.71117295373E+01  0.10337929550E+02  0.11823010174E+03  0.15090875334E+03  0.92938933682E+02 0.  0.
         13    1    3    3    0    0  0.25885708109E+02  0.13258113903E+02  0.10134482784E+01  0.29101109016E+02  0.00000000000E+00 0. -1.
        -13    1    3    3    0    0 -0.32997437646E+02 -0.29201843532E+01  0.11721665346E+03  0.12180764433E+03  0.00000000000E+00 0.  1.
         22    1    1    2    0    0  0.71117295373E+01 -0.10337929550E+02 -0.22150015192E+02  0.25457271209E+02  0.00000000000E+00 0. -1.
<mgrwt>
<rscale>  0 0.56719560E+02</rscale>
<asrwt>0</asrwt>
<pdfrwt beam="1">  1        2 0.61758415E-02 0.93782167E+02</pdfrwt>
<pdfrwt beam="2">  1       -2 0.20957393E-01 0.93782167E+02</pdfrwt>
<totfact> 0.20426046E+04</totfact>
</mgrwt>
</event>
<event>
 6    1  0.4723583E-002  0.1509478E+03  0.7546771E-02  0.1208385E+00
          2   -1    0    0  501    0  0.00000000000E+00  0.00000000000E+00  0.22654817190E+04  0.22654817190E+04  0.00000000000E+00 0.  1.
         -2   -1    0    0    0  501 -0.00000000000E+00 -0.00000000000E+00 -0.19352609847E+02  0.19352609847E+02  0.00000000000E+00 0. -1.
         23    2    1    2    0    0 -0.87497331647E+02  0.88023976770E+02  0.20299964218E+04  0.20356008197E+04  0.85914033691E+02 0.  0.
         13    1    3    3    0    0 -0.10209082607E+03  0.73294893110E+02  0.15214341786E+04  0.15266160742E+04  0.00000000000E+00 0.  1.
        -13    1    3    3    0    0  0.14593494423E+02  0.14729083660E+02  0.50856224321E+03  0.50898474555E+03  0.00000000000E+00 0. -1.
         22    1    1    2    0    0  0.87497331647E+02 -0.88023976770E+02  0.21613268737E+03  0.24923350915E+03  0.00000000000E+00 0. -1.
<mgrwt>
<rscale>  0 0.14373886E+03</rscale>
<asrwt>0</asrwt>
<pdfrwt beam="1">  1        2 0.34853544E+00 0.15094775E+03</pdfrwt>
<pdfrwt beam="2">  1       -2 0.29773264E-02 0.15094775E+03</pdfrwt>
<totfact> 0.23214589E+03</totfact>
</mgrwt>
</event>
<event>
 6    1  0.1727544E-002  0.9629068E+02  0.7546771E-02  0.1413909E+00
         -2   -1    0    0    0  501 -0.00000000000E+00  0.00000000000E+00  0.27580601549E+01  0.27580601549E+01  0.00000000000E+00 0.  1.
          2   -1    0    0  501    0  0.00000000000E+00 -0.00000000000E+00 -0.11814465082E+04  0.11814465082E+04  0.00000000000E+00 0. -1.
         23    2    1    2    0    0 -0.91032905730E+01  0.66572264855E+01 -0.11352382981E+04  0.11393146575E+04  0.95627960462E+02 0.  0.
         13    1    3    3    0    0 -0.36841430598E+02  0.30645237084E+02 -0.35560572179E+03  0.35882008157E+03  0.00000000000E+00 0. -1.
        -13    1    3    3    0    0  0.27738140025E+02 -0.23988010598E+02 -0.77963257632E+03  0.78049457598E+03  0.00000000000E+00 0.  1.
         22    1    1    2    0    0  0.91032905730E+01 -0.66572264855E+01 -0.43450149934E+02  0.44889910816E+02  0.00000000000E+00 0.  1.
<mgrwt>
<rscale>  0 0.56330578E+02</rscale>
<asrwt>0</asrwt>
<pdfrwt beam="1">  1        2 0.18176128E+00 0.96290682E+02</pdfrwt>
<pdfrwt beam="2">  1       -2 0.42431629E-03 0.96290682E+02</pdfrwt>
<totfact> 0.13398638E+05</totfact>
</mgrwt>
</event>
<event>
 6    1  0.1727544E-002  0.9456194E+02  0.7546771E-02  0.1416819E+00
          4   -1    0    0  501    0  0.00000000000E+00  0.00000000000E+00  0.18987455945E+02  0.18987455945E+02  0.00000000000E+00 0. -1.
         -4   -1    0    0    0  501 -0.00000000000E+00 -0.00000000000E+00 -0.14836354357E+03  0.14836354357E+03  0.00000000000E+00 0.  1.
         23    2    1    2    0    0 -0.36900694091E+01  0.10768369051E+02 -0.11203529718E+03  0.14660787059E+03  0.93874307033E+02 0.  0.
         11    1    3    3    0    0  0.38028063869E+02 -0.10176791197E+02 -0.21766117355E+02  0.44982936602E+02  0.00000000000E+00 0. -1.
        -11    1    3    3    0    0 -0.41718133278E+02  0.20945160248E+02 -0.90269179825E+02  0.10162493399E+03  0.00000000000E+00 0.  1.
         22    1    1    2    0    0  0.36900694091E+01 -0.10768369051E+02 -0.17340790448E+02  0.20743128926E+02  0.00000000000E+00 0. -1.
<mgrwt>
<rscale>  0 0.55699611E+02</rscale>
<asrwt>0</asrwt>
<pdfrwt beam="1">  1        4 0.29211471E-02 0.94561937E+02</pdfrwt>
<pdfrwt beam="2">  1       -4 0.22825160E-01 0.94561937E+02</pdfrwt>
<totfact> 0.14595022E+04</totfact>
</mgrwt>
</event>
<event>
 6    1  0.1727544E-002  0.2004001E+03  0.7546771E-02  0.1154473E+00
          2   -1    0    0  501    0  0.00000000000E+00  0.00000000000E+00  0.99410596072E+03  0.99410596072E+03  0.00000000000E+00 0. -1.
         -2   -1    0    0    0  501 -0.00000000000E+00 -0.00000000000E+00 -0.38623547060E+02  0.38623547060E+02  0.00000000000E+00 0.  1.
         23    2    1    2    0    0 -0.10787567385E+03 -0.14131350396E+03  0.36916566352E+03  0.42005177935E+03  0.92485365359E+02 0.  0.
         13    1    3    3    0    0 -0.10784633454E+03 -0.13181858323E+03  0.26216019646E+03  0.31262587763E+03  0.00000000000E+00 0.  1.
        -13    1    3    3    0    0 -0.29339315498E-01 -0.94949207390E+01  0.10700546706E+03  0.10742590172E+03  0.00000000000E+00 0. -1.
         22    1    1    2    0    0  0.10787567385E+03  0.14131350396E+03  0.58631675014E+03  0.61267772842E+03  0.00000000000E+00 0. -1.
<mgrwt>
<rscale>  0 0.19448935E+03</rscale>
<asrwt>0</asrwt>
<pdfrwt beam="1">  1        2 0.15293936E+00 0.20040013E+03</pdfrwt>
<pdfrwt beam="2">  1       -2 0.59420849E-02 0.20040013E+03</pdfrwt>
<totfact> 0.39423675E+03</totfact>
</mgrwt>
</event>
<event>
 6    1  0.1727544E-002  0.9007206E+02  0.7546771E-02  0.1420442E+00
         -1   -1    0    0    0  501 -0.00000000000E+00  0.00000000000E+00  0.98590638614E+02  0.98590638614E+02  0.00000000000E+00 0.  1.
          1   -1    0    0  501    0  0.00000000000E+00 -0.00000000000E+00 -0.26870753262E+02  0.26870753262E+02  0.00000000000E+00 0. -1.
         23    2    1    2    0    0 -0.12439265916E+02  0.65015732697E+00  0.66474927900E+02  0.11194593333E+03  0.89206602381E+02 0.  0.
         11    1    3    3    0    0  0.20984781561E+02  0.35684058564E+02  0.34845621970E+02  0.54110354492E+02  0.00000000000E+00 0. -1.
        -11    1    3    3    0    0 -0.33424047477E+02 -0.35033901237E+02  0.31629305930E+02  0.57835578836E+02  0.00000000000E+00 0.  1.
         22    1    1    2    0    0  0.12439265916E+02 -0.65015732697E+00  0.52449574529E+01  0.13515458548E+02  0.00000000000E+00 0.  1.
<mgrwt>
<rscale>  0 0.54927440E+02</rscale>
<asrwt>0</asrwt>
<pdfrwt beam="1">  1        1 0.41339621E-02 0.90072060E+02</pdfrwt>
<pdfrwt beam="2">  1       -1 0.15167790E-01 0.90072060E+02</pdfrwt>
<totfact> 0.58498307E+04</totfact>
</mgrwt>
</event>
<event>
 6    1  0.1727544E-002  0.9059895E+02  0.7546771E-02  0.1433704E+00
          1   -1    0    0  501    0  0.00000000000E+00  0.00000000000E+00  0.26603449301E+02  0.26603449301E+02  0.00000000000E+00 0. -1.
         -1   -1    0    0    0  501 -0.00000000000E+00 -0.00000000000E+00 -0.11570423717E+03  0.11570423717E+03  0.00000000000E+00 0.  1.
         23    2    1    2    0    0 -0.98807116635E+01  0.15543816748E+01 -0.94522921093E+02  0.13093033643E+03  0.90045132126E+02 0.  0.
         11    1    3    3    0    0  0.12218059291E+02 -0.25810250193E+02 -0.91239515699E+02  0.95603866098E+02  0.00000000000E+00 0.  1.
        -11    1    3    3    0    0 -0.22098770954E+02  0.27364631868E+02 -0.32834053947E+01  0.35326470330E+02  0.00000000000E+00 0. -1.
         22    1    1    2    0    0  0.98807116635E+01 -0.15543816748E+01  0.54221332228E+01  0.11377350045E+02  0.00000000000E+00 0. -1.
<mgrwt>
<rscale>  0 0.52223572E+02</rscale>
<asrwt>0</asrwt>
<pdfrwt beam="1">  1        1 0.40928384E-02 0.90598954E+02</pdfrwt>
<pdfrwt beam="2">  1       -1 0.17800652E-01 0.90598954E+02</pdfrwt>
<totfact> 0.46227273E+04</totfact>
</mgrwt>
</event>
<event>
 6    1  0.1727544E-002  0.9120809E+02  0.7546771E-02  0.1395271E+00
         -2   -1    0    0    0  501 -0.00000000000E+00  0.00000000000E+00  0.89088064895E+02  0.89088064895E+02  0.00000000000E+00 0.  1.
          2   -1    0    0  501    0  0.00000000000E+00 -0.00000000000E+00 -0.33738965429E+02  0.33738965429E+02  0.00000000000E+00 0. -1.
         23    2    1    2    0    0 -0.16858168434E+01 -0.17711069273E+02  0.41134935252E+02  0.10005497689E+03  0.89456087269E+02 0.  0.
         13    1    3    3    0    0  0.18973293494E+02 -0.13848798871E+01 -0.23516038677E+02  0.30247443419E+02  0.00000000000E+00 0. -1.
        -13    1    3    3    0    0 -0.20659110338E+02 -0.16326189386E+02  0.64650973928E+02  0.69807533474E+02  0.00000000000E+00 0.  1.
         22    1    1    2    0    0  0.16858168434E+01  0.17711069273E+02  0.14214164215E+02  0.22772053433E+02  0.00000000000E+00 0.  1.
<mgrwt>
<rscale>  0 0.60614404E+02</rscale>
<asrwt>0</asrwt>
<pdfrwt beam="1">  1        2 0.51906101E-02 0.91208089E+02</pdfrwt>
<pdfrwt beam="2">  1       -2 0.13705856E-01 0.91208089E+02</pdfrwt>
<totfact> 0.51060087E+04</totfact>
</mgrwt>
</event>
<event>
 6    1  0.1727544E-002  0.9204508E+02  0.7546771E-02  0.1380881E+00
         -2   -1    0    0    0  501 -0.00000000000E+00  0.00000000000E+00  0.35813001351E+02  0.35813001351E+02  0.00000000000E+00 0.  1.
          2   -1    0    0  501    0  0.00000000000E+00 -0.00000000000E+00 -0.15033056737E+03  0.15033056737E+03  0.00000000000E+00 0. -1.
         23    2    1    2    0    0 -0.96788758666E+00 -0.21807097578E+02 -0.26968872452E+02  0.95914637349E+02  0.89419300296E+02 0.  0.
         13    1    3    3    0    0  0.14112565819E+02  0.94362568823E+01  0.26918965900E+02  0.31825118744E+02  0.00000000000E+00 0.  1.
        -13    1    3    3    0    0 -0.15080453405E+02 -0.31243354460E+02 -0.53887838352E+02  0.64089518606E+02  0.00000000000E+00 0. -1.
         22    1    1    2    0    0  0.96788758666E+00  0.21807097578E+02 -0.87548693567E+02  0.90228931372E+02  0.00000000000E+00 0.  1.
<mgrwt>
<rscale>  0 0.64232785E+02</rscale>
<asrwt>0</asrwt>
<pdfrwt beam="1">  1        2 0.23127780E-01 0.92045084E+02</pdfrwt>
<pdfrwt beam="2">  1       -2 0.55096925E-02 0.92045084E+02</pdfrwt>
<totfact> 0.34808110E+04</totfact>
</mgrwt>
</event>
<event>
 6    1  0.1727544E-002  0.1001609E+03  0.7546771E-02  0.1340385E+00
         -2   -1    0    0    0  501 -0.00000000000E+00  0.00000000000E+00  0.27385773734E+02  0.27385773734E+02  0.00000000000E+00 0.  1.
          2   -1    0    0  501    0  0.00000000000E+00 -0.00000000000E+00 -0.28299396031E+03  0.28299396031E+03  0.00000000000E+00 0. -1.
         23    2    1    2    0    0  0.11422875795E+02  0.31431001910E+02 -0.71015004817E+02  0.12278167242E+03  0.94413019236E+02 0.  0.
         13    1    3    3    0    0 -0.10902283183E+02  0.17448754684E+02  0.19599526832E+02  0.28415845415E+02  0.00000000000E+00 0.  1.
        -13    1    3    3    0    0  0.22325158978E+02  0.13982247226E+02 -0.90614531649E+02  0.94365827007E+02  0.00000000000E+00 0. -1.
         22    1    1    2    0    0 -0.11422875795E+02 -0.31431001910E+02 -0.18459318176E+03  0.18759806162E+03  0.00000000000E+00 0. -1.
<mgrwt>
<rscale>  0 0.76137368E+02</rscale>
<asrwt>0</asrwt>
<pdfrwt beam="1">  1        2 0.43537534E-01 0.10016091E+03</pdfrwt>
<pdfrwt beam="2">  1       -2 0.42131958E-02 0.10016091E+03</pdfrwt>
<totfact> 0.26627230E+04</totfact>
</mgrwt>
</event>
<event>
 6    1  0.1727544E-002  0.9075507E+02  0.7546771E-02  0.1415359E+00
         -4   -1    0    0    0  501 -0.00000000000E+00  0.00000000000E+00  0.45820589278E+02  0.45820589278E+02  0.00000000000E+00 0.  1.
          4   -1    0    0  501    0  0.00000000000E+00 -0.00000000000E+00 -0.11025067300E+03  0.11025067300E+03  0.00000000000E+00 0. -1.
         23    2    1    2    0    0  0.11722138492E+02  0.60046805249E+01 -0.45672645905E+00  0.90756216855E+02  0.89794307056E+02 0.  0.
         13    1    3    3    0    0  0.18788025647E+02  0.17887399607E+01 -0.43245062586E+02  0.47183947868E+02  0.00000000000E+00 0. -1.
        -13    1    3    3    0    0 -0.70658871548E+01  0.42159405642E+01  0.42788336127E+02  0.43572268987E+02  0.00000000000E+00 0.  1.
         22    1    1    2    0    0 -0.11722138492E+02 -0.60046805249E+01 -0.63973357261E+02  0.65315045420E+02  0.00000000000E+00 0. -1.
<mgrwt>
<rscale>  0 0.56015028E+02</rscale>
<asrwt>0</asrwt>
<pdfrwt beam="1">  1        4 0.16961642E-01 0.90755068E+02</pdfrwt>
<pdfrwt beam="2">  1       -4 0.70493215E-02 0.90755068E+02</pdfrwt>
<totfact> 0.60451486E+03</totfact>
</mgrwt>
</event>
<event>
 6    1  0.1727544E-002  0.9677466E+02  0.7546771E-02  0.1349737E+00
         -1   -1    0    0    0  501 -0.00000000000E+00  0.00000000000E+00  0.25862419398E+03  0.25862419398E+03  0.00000000000E+00 0.  1.
          1   -1    0    0  501    0  0.00000000000E+00 -0.00000000000E+00 -0.23257039853E+02  0.23257039853E+02  0.00000000000E+00 0. -1.
         23    2    1    2    0    0 -0.11578364905E+02  0.29370561227E+02  0.23043066887E+03  0.24992724680E+03  0.91480310121E+02 0.  0.
         13    1    3    3    0    0 -0.26827059740E+02  0.32560849394E+02  0.37733591328E+02  0.56601448410E+02  0.00000000000E+00 0. -1.
        -13    1    3    3    0    0  0.15248694836E+02 -0.31902881665E+01  0.19269707754E+03  0.19332579839E+03  0.00000000000E+00 0.  1.
         22    1    1    2    0    0  0.11578364905E+02 -0.29370561227E+02  0.49364852668E+01  0.31953987035E+02  0.00000000000E+00 0. -1.
<mgrwt>
<rscale>  0 0.73137680E+02</rscale>
<asrwt>0</asrwt>
<pdfrwt beam="1">  1        1 0.35780063E-02 0.96774664E+02</pdfrwt>
<pdfrwt beam="2">  1       -1 0.39788335E-01 0.96774664E+02</pdfrwt>
<totfact> 0.14925696E+04</totfact>
</mgrwt>
</event>
<event>
 6    1  0.1727544E-002  0.9177679E+02  0.7546771E-02  0.1421373E+00
         -1   -1    0    0    0  501 -0.00000000000E+00  0.00000000000E+00  0.41709193004E+03  0.41709193004E+03  0.00000000000E+00 0.  1.
          1   -1    0    0  501    0  0.00000000000E+00 -0.00000000000E+00 -0.33745988358E+02  0.33745988358E+02  0.00000000000E+00 0. -1.
         23    2    1    2    0    0 -0.98477371689E+01 -0.61450792343E+01  0.41085465544E+03  0.42098043593E+03  0.91039769394E+02 0.  0.
         13    1    3    3    0    0  0.49941184702E+01 -0.31716877657E+02  0.36506718652E+03  0.36647640063E+03  0.00000000000E+00 0.  1.
        -13    1    3    3    0    0 -0.14841855639E+02  0.25571798422E+02  0.45787468925E+02  0.54504035299E+02  0.00000000000E+00 0. -1.
         22    1    1    2    0    0  0.98477371689E+01  0.61450792343E+01 -0.27508713764E+02  0.29857482464E+02  0.00000000000E+00 0.  1.
<mgrwt>
<rscale>  0 0.54731417E+02</rscale>
<asrwt>0</asrwt>
<pdfrwt beam="1">  1        1 0.51916908E-02 0.91776792E+02</pdfrwt>
<pdfrwt beam="2">  1       -1 0.64167986E-01 0.91776792E+02</pdfrwt>
<totfact> 0.37616390E+03</totfact>
</mgrwt>
</event>
<event>
 6    1  0.1727544E-002  0.9069590E+02  0.7546771E-02  0.1424081E+00
         -3   -1    0    0    0  501 -0.00000000000E+00  0.00000000000E+00  0.27102933104E+02  0.27102933104E+02  0.00000000000E+00 0.  1.
          3   -1    0    0  501    0  0.00000000000E+00 -0.00000000000E+00 -0.96756670839E+02  0.96756670839E+02  0.00000000000E+00 0. -1.
         23    2    1    2    0    0 -0.13410738582E+01 -0.11460851132E+02 -0.59343498707E+02  0.10838541199E+03  0.89958863409E+02 0.  0.
         11    1    3    3    0    0  0.67458253889E+01 -0.42897946679E+02 -0.32119133436E+01  0.43543729477E+02  0.00000000000E+00 0.  1.
        -11    1    3    3    0    0 -0.80868992471E+01  0.31437095546E+02 -0.56131585363E+02  0.64841682513E+02  0.00000000000E+00 0. -1.
         22    1    1    2    0    0  0.13410738582E+01  0.11460851132E+02 -0.10310239029E+02  0.15474191953E+02  0.00000000000E+00 0. -1.
<mgrwt>
<rscale>  0 0.54166806E+02</rscale>
<asrwt>0</asrwt>
<pdfrwt beam="1">  1        3 0.14885642E-01 0.90695902E+02</pdfrwt>
<pdfrwt beam="2">  1       -3 0.41696820E-02 0.90695902E+02</pdfrwt>
<totfact> 0.23262725E+04</totfact>
</mgrwt>
</event>
<event>
 6    1  0.1727544E-002  0.9068975E+02  0.7546771E-02  0.1423948E+00
         -2   -1    0    0    0  501 -0.00000000000E+00  0.00000000000E+00  0.53932376732E+02  0.53932376732E+02  0.00000000000E+00 0.  1.
          2   -1    0    0  501    0  0.00000000000E+00 -0.00000000000E+00 -0.48970984050E+02  0.48970984050E+02  0.00000000000E+00 0. -1.
         23    2    1    2    0    0 -0.94454634269E+01 -0.66730607810E+01  0.77082295085E+01  0.91016745112E+02  0.89949344462E+02 0.  0.
         11    1    3    3    0    0  0.12621675976E+02  0.31071686116E+02 -0.20196044419E+02  0.39148902829E+02  0.00000000000E+00 0. -1.
        -11    1    3    3    0    0 -0.22067139403E+02 -0.37744746897E+02  0.27904273928E+02  0.51867842283E+02  0.00000000000E+00 0.  1.
         22    1    1    2    0    0  0.94454634269E+01  0.66730607810E+01 -0.27468368259E+01  0.11886615670E+02  0.00000000000E+00 0. -1.
<mgrwt>
<rscale>  0 0.54194345E+02</rscale>
<asrwt>0</asrwt>
<pdfrwt beam="1">  1        2 0.75339976E-02 0.90689752E+02</pdfrwt>
<pdfrwt beam="2">  1       -2 0.82972887E-02 0.90689752E+02</pdfrwt>
<totfact> 0.69783437E+04</totfact>
</mgrwt>
</event>
<event>
 6    1  0.1727544E-002  0.8347723E+02  0.7546771E-02  0.1400891E+00
          4   -1    0    0  501    0  0.00000000000E+00  0.00000000000E+00  0.39242117586E+02  0.39242117586E+02  0.00000000000E+00 0. -1.
         -4   -1    0    0    0  501 -0.00000000000E+00 -0.00000000000E+00 -0.70452523272E+02  0.70452523272E+02  0.00000000000E+00 0.  1.
         23    2    1    2    0    0  0.11458222229E+02 -0.17865896664E+02 -0.28929136975E+02  0.88347854046E+02  0.80733928605E+02 0.  0.
         13    1    3    3    0    0 -0.19058723142E+02 -0.16537888135E+02 -0.46647499193E+02  0.53035137906E+02  0.00000000000E+00 0.  1.
        -13    1    3    3    0    0  0.30516945372E+02 -0.13280085285E+01  0.17718362218E+02  0.35312716139E+02  0.00000000000E+00 0. -1.
         22    1    1    2    0    0 -0.11458222229E+02  0.17865896664E+02 -0.22812687106E+01  0.21346786812E+02  0.00000000000E+00 0. -1.
<mgrwt>
<rscale>  0 0.59276917E+02</rscale>
<asrwt>0</asrwt>
<pdfrwt beam="1">  1        4 0.60372489E-02 0.83477233E+02</pdfrwt>
<pdfrwt beam="2">  1       -4 0.10838850E-01 0.83477233E+02</pdfrwt>
<totfact> 0.16304553E+04</totfact>
</mgrwt>
</event>
<event>
 6    1  0.1727544E-002  0.9237930E+02  0.7546771E-02  0.1419522E+00
          4   -1    0    0  501    0  0.00000000000E+00  0.00000000000E+00  0.63295375327E+01  0.63295375327E+01  0.00000000000E+00 0. -1.
         -4   -1    0    0    0  501 -0.00000000000E+00 -0.00000000000E+00 -0.42995526859E+03  0.42995526859E+03  0.00000000000E+00 0.  1.
         23    2    1    2    0    0 -0.74026203649E+01  0.90742332400E+01 -0.38466141653E+03  0.39559871140E+03  0.91634025327E+02 0.  0.
         11    1    3    3    0    0  0.26765483063E+02 -0.17683111548E+02 -0.28626429269E+03  0.28805612090E+03  0.00000000000E+00 0.  1.
        -11    1    3    3    0    0 -0.34168103428E+02  0.26757344787E+02 -0.98397123839E+02  0.10754259050E+03  0.00000000000E+00 0. -1.
         22    1    1    2    0    0  0.74026203649E+01 -0.90742332400E+01 -0.38964314528E+02  0.40686094723E+02  0.00000000000E+00 0. -1.
<mgrwt>
<rscale>  0 0.55122222E+02</rscale>
<asrwt>0</asrwt>
<pdfrwt beam="1">  1        4 0.97377496E-03 0.92379300E+02</pdfrwt>
<pdfrwt beam="2">  1       -4 0.66146967E-01 0.92379300E+02</pdfrwt>
<totfact> 0.96622866E+03</totfact>
</mgrwt>
</event>
<event>
 6    1  0.1727544E-002  0.9228409E+02  0.7546771E-02  0.1374202E+00
          2   -1    0    0  501    0  0.00000000000E+00  0.00000000000E+00  0.19975968776E+02  0.19975968776E+02  0.00000000000E+00 0. -1.
         -2   -1    0    0    0  501 -0.00000000000E+00 -0.00000000000E+00 -0.19869047633E+03  0.19869047633E+03  0.00000000000E+00 0.  1.
         23    2    1    2    0    0  0.17863163418E+02  0.16269768903E+02 -0.16913796358E+03  0.19267590487E+03  0.89064895473E+02 0.  0.
         11    1    3    3    0    0 -0.15454543308E+01 -0.34225886087E+02 -0.94315609728E+02  0.10034557263E+03  0.00000000000E+00 0.  1.
        -11    1    3    3    0    0  0.19408617749E+02  0.50495654991E+02 -0.74822353849E+02  0.92330332239E+02  0.00000000000E+00 0. -1.
         22    1    1    2    0    0 -0.17863163418E+02 -0.16269768903E+02 -0.95765439801E+01  0.25990540242E+02  0.00000000000E+00 0. -1.
<mgrwt>
<rscale>  0 0.66012770E+02</rscale>
<asrwt>0</asrwt>
<pdfrwt beam="1">  1        2 0.30732258E-02 0.92284092E+02</pdfrwt>
<pdfrwt beam="2">  1       -2 0.30567767E-01 0.92284092E+02</pdfrwt>
<totfact> 0.26251524E+04</totfact>
</mgrwt>
</event>
<event>
 6    1  0.1727544E-002  0.9369388E+02  0.7546771E-02  0.1421088E+00
         -2   -1    0    0    0  501 -0.00000000000E+00  0.00000000000E+00  0.27133210718E+02  0.27133210718E+02  0.00000000000E+00 0.  1.
          2   -1    0    0  501    0  0.00000000000E+00 -0.00000000000E+00 -0.10106513886E+03  0.10106513886E+03  0.00000000000E+00 0. -1.
         23    2    1    2    0    0 -0.12861889370E+01  0.10881884567E+02 -0.67690523661E+02  0.11558784509E+03  0.93050917482E+02 0.  0.
         13    1    3    3    0    0 -0.23521503828E+02 -0.34560819384E+02 -0.40257371999E+02  0.58037637607E+02  0.00000000000E+00 0.  1.
        -13    1    3    3    0    0  0.22235314891E+02  0.45442703951E+02 -0.27433151662E+02  0.57550207478E+02  0.00000000000E+00 0. -1.
         22    1    1    2    0    0  0.12861889370E+01 -0.10881884567E+02 -0.62414044852E+01  0.12610504497E+02  0.00000000000E+00 0. -1.
<mgrwt>
<rscale>  0 0.54791424E+02</rscale>
<asrwt>0</asrwt>
<pdfrwt beam="1">  1        2 0.15548483E-01 0.93693879E+02</pdfrwt>
<pdfrwt beam="2">  1       -2 0.41743402E-02 0.93693879E+02</pdfrwt>
<totfact> 0.82332889E+04</totfact>
</mgrwt>
</event>
<event>
 6    1  0.1727544E-002  0.9140247E+02  0.7546771E-02  0.1402060E+00
          1   -1    0    0  501    0  0.00000000000E+00  0.00000000000E+00  0.45461408524E+03  0.45461408524E+03  0.00000000000E+00 0. -1.
         -1   -1    0    0    0  501 -0.00000000000E+00 -0.00000000000E+00 -0.63560339735E+01  0.63560339735E+01  0.00000000000E+00 0.  1.
         23    2    1    2    0    0 -0.14841019875E+02 -0.56290249026E+01  0.39205834067E+03  0.40257192349E+03  0.90013717308E+02 0.  0.
         11    1    3    3    0    0 -0.49718774845E+02  0.99017153332E+01  0.26869864607E+03  0.27343913937E+03  0.00000000000E+00 0. -1.
        -11    1    3    3    0    0  0.34877754970E+02 -0.15530740236E+02  0.12335969460E+03  0.12913278412E+03  0.00000000000E+00 0.  1.
         22    1    1    2    0    0  0.14841019875E+02  0.56290249026E+01  0.56199710598E+02  0.58398195722E+02  0.00000000000E+00 0. -1.
<mgrwt>
<rscale>  0 0.59003934E+02</rscale>
<asrwt>0</asrwt>
<pdfrwt beam="1">  1        1 0.69940603E-01 0.91402468E+02</pdfrwt>
<pdfrwt beam="2">  1       -1 0.97785174E-03 0.91402468E+02</pdfrwt>
<totfact> 0.86543091E+04</totfact>
</mgrwt>
</event>
<event>
 6    1  0.1727544E-002  0.1124069E+03  0.7546771E-02  0.1283472E+00
          2   -1    0    0  501    0  0.00000000000E+00  0.00000000000E+00  0.52632409372E+02  0.52632409372E+02  0.00000000000E+00 0.  1.
         -2   -1    0    0    0  501 -0.00000000000E+00 -0.00000000000E+00 -0.17010986590E+04  0.17010986590E+04  0.00000000000E+00 0. -1.
         23    2    1    2    0    0 -0.56487567145E+02 -0.34692554297E+02 -0.16775710671E+04  0.16813328021E+04  0.90779335201E+02 0.  0.
         11    1    3    3    0    0 -0.81667371921E+02 -0.25584259669E+02 -0.12986101349E+04  0.13014270616E+04  0.00000000000E+00 0. -1.
        -11    1    3    3    0    0  0.25179804776E+02 -0.91082946287E+01 -0.37896093214E+03  0.37990574053E+03  0.00000000000E+00 0.  1.
         22    1    1    2    0    0  0.56487567145E+02  0.34692554297E+02  0.29104817436E+02  0.72398266303E+02  0.00000000000E+00 0.  1.
<mgrwt>
<rscale>  0 0.98504788E+02</rscale>
<asrwt>0</asrwt>
<pdfrwt beam="1">  1        2 0.80972931E-02 0.11240688E+03</pdfrwt>
<pdfrwt beam="2">  1       -2 0.26170751E+00 0.11240688E+03</pdfrwt>
<totfact> 0.52717467E+01</totfact>
</mgrwt>
</event>
<event>
 6    1  0.1727544E-002  0.9803981E+02  0.7546771E-02  0.1338646E+00
         -2   -1    0    0    0  501 -0.00000000000E+00  0.00000000000E+00  0.89289081416E+01  0.89289081416E+01  0.00000000000E+00 0.  1.
          2   -1    0    0  501    0  0.00000000000E+00 -0.00000000000E+00 -0.54696814230E+03  0.54696814230E+03  0.00000000000E+00 0. -1.
         23    2    1    2    0    0  0.35969017854E+00 -0.36749585860E+02 -0.31671179484E+03  0.33153908461E+03  0.90890825686E+02 0.  0.
         11    1    3    3    0    0  0.16169311065E+02 -0.20087240185E+02 -0.30437737751E+03  0.30546772624E+03  0.00000000000E+00 0. -1.
        -11    1    3    3    0    0 -0.15809620886E+02 -0.16662345675E+02 -0.12334417332E+02  0.26071358363E+02  0.00000000000E+00 0.  1.
         22    1    1    2    0    0 -0.35969017854E+00  0.36749585860E+02 -0.22132743932E+03  0.22435796583E+03  0.00000000000E+00 0.  1.
<mgrwt>
<rscale>  0 0.76713208E+02</rscale>
<asrwt>0</asrwt>
<pdfrwt beam="1">  1        2 0.84148949E-01 0.98039806E+02</pdfrwt>
<pdfrwt beam="2">  1       -2 0.13736781E-02 0.98039806E+02</pdfrwt>
<totfact> 0.66895483E+04</totfact>
</mgrwt>
</event>
<event>
 6    1  0.1727544E-002  0.9233628E+02  0.7546771E-02  0.1405528E+00
          4   -1    0    0  501    0  0.00000000000E+00  0.00000000000E+00  0.30205775494E+03  0.30205775494E+03  0.00000000000E+00 0. -1.
         -4   -1    0    0    0  501 -0.00000000000E+00 -0.00000000000E+00 -0.10410716657E+02  0.10410716657E+02  0.00000000000E+00 0.  1.
         23    2    1    2    0    0 -0.38215377971E+01 -0.14067857815E+02  0.20818964487E+03  0.22774748665E+03  0.91178290568E+02 0.  0.
         11    1    3    3    0    0  0.38960816545E+02 -0.14550779822E+02  0.14911756418E+03  0.15480865081E+03  0.00000000000E+00 0. -1.
        -11    1    3    3    0    0 -0.42782354342E+02  0.48292200627E+00  0.59072080686E+02  0.72938835837E+02  0.00000000000E+00 0.  1.
         22    1    1    2    0    0  0.38215377971E+01  0.14067857815E+02  0.83457393418E+02  0.84720984949E+02  0.00000000000E+00 0. -1.
<mgrwt>
<rscale>  0 0.58203809E+02</rscale>
<asrwt>0</asrwt>
<pdfrwt beam="1">  1        4 0.46470417E-01 0.92336285E+02</pdfrwt>
<pdfrwt beam="2">  1       -4 0.16016489E-02 0.92336285E+02</pdfrwt>
<totfact> 0.94445587E+03</totfact>
</mgrwt>
</event>
<event>
 6    1  0.1727544E-002  0.9346491E+02  0.7546771E-02  0.1389095E+00
         -2   -1    0    0    0  501 -0.00000000000E+00  0.00000000000E+00  0.14695603770E+03  0.14695603770E+03  0.00000000000E+00 0.  1.
          2   -1    0    0  501    0  0.00000000000E+00 -0.00000000000E+00 -0.41406432231E+02  0.41406432231E+02  0.00000000000E+00 0. -1.
         23    2    1    2    0    0  0.10684726718E+02  0.14798459918E+02  0.12858968759E+03  0.15896853883E+03  0.91665319411E+02 0.  0.
         13    1    3    3    0    0  0.48647793704E+01  0.21306260256E+01  0.14051964914E+03  0.14061997525E+03  0.00000000000E+00 0.  1.
        -13    1    3    3    0    0  0.58199473479E+01  0.12667833893E+02 -0.11929961553E+02  0.18348563576E+02  0.00000000000E+00 0. -1.
         22    1    1    2    0    0 -0.10684726718E+02 -0.14798459918E+02 -0.23040082124E+02  0.29393931096E+02  0.00000000000E+00 0. -1.
<mgrwt>
<rscale>  0 0.62132335E+02</rscale>
<asrwt>0</asrwt>
<pdfrwt beam="1">  1        2 0.63702204E-02 0.93464906E+02</pdfrwt>
<pdfrwt beam="2">  1       -2 0.22608621E-01 0.93464906E+02</pdfrwt>
<totfact> 0.17260432E+04</totfact>
</mgrwt>
</event>
<event>
 6    1  0.1727544E-002  0.9253715E+02  0.7546771E-02  0.1417130E+00
          1   -1    0    0  501    0  0.00000000000E+00  0.00000000000E+00  0.50347952308E+02  0.50347952308E+02  0.00000000000E+00 0. -1.
         -1   -1    0    0    0  501 -0.00000000000E+00 -0.00000000000E+00 -0.73611880585E+02  0.73611880585E+02  0.00000000000E+00 0.  1.
         23    2    1    2    0    0 -0.10124516244E+02 -0.66049251992E+01 -0.42031929521E+02  0.10163565907E+03  0.91744172730E+02 0.  0.
         11    1    3    3    0    0  0.18251404454E+02  0.33896678944E+02 -0.29623935919E+01  0.38611842532E+02  0.00000000000E+00 0. -1.
        -11    1    3    3    0    0 -0.28375920699E+02 -0.40501604143E+02 -0.39069535929E+02  0.63023816540E+02  0.00000000000E+00 0.  1.
         22    1    1    2    0    0  0.10124516244E+02  0.66049251992E+01  0.18768001244E+02  0.22324173820E+02  0.00000000000E+00 0. -1.
<mgrwt>
<rscale>  0 0.55632661E+02</rscale>
<asrwt>0</asrwt>
<pdfrwt beam="1">  1        1 0.77458388E-02 0.92537150E+02</pdfrwt>
<pdfrwt beam="2">  1       -1 0.11324905E-01 0.92537150E+02</pdfrwt>
<totfact> 0.39548723E+04</totfact>
</mgrwt>
</event>
<event>
 6    1  0.1727544E-002  0.9382878E+02  0.7546771E-02  0.1411997E+00
         -2   -1    0    0    0  501 -0.00000000000E+00  0.00000000000E+00  0.25448908007E+02  0.25448908007E+02  0.00000000000E+00 0.  1.
          2   -1    0    0  501    0  0.00000000000E+00 -0.00000000000E+00 -0.11119734105E+03  0.11119734105E+03  0.00000000000E+00 0. -1.
         23    2    1    2    0    0 -0.87514571617E+00  0.12526097913E+02 -0.76138605492E+02  0.12083429805E+03  0.92984790858E+02 0.  0.
         13    1    3    3    0    0  0.34693727278E+02 -0.22280515316E+02 -0.49379087427E+02  0.64330166720E+02  0.00000000000E+00 0. -1.
        -13    1    3    3    0    0 -0.35568872994E+02  0.34806613230E+02 -0.26759518066E+02  0.56504131333E+02  0.00000000000E+00 0.  1.
         22    1    1    2    0    0  0.87514571617E+00 -0.12526097913E+02 -0.96098275493E+01  0.15811951002E+02  0.00000000000E+00 0.  1.
<mgrwt>
<rscale>  0 0.56750586E+02</rscale>
<asrwt>0</asrwt>
<pdfrwt beam="1">  1        2 0.17107283E-01 0.93828782E+02</pdfrwt>
<pdfrwt beam="2">  1       -2 0.39152166E-02 0.93828782E+02</pdfrwt>
<totfact> 0.81112216E+04</totfact>
</mgrwt>
</event>
<event>
 6    1  0.1727544E-002  0.9241651E+02  0.7546771E-02  0.1380221E+00
         -2   -1    0    0    0  501 -0.00000000000E+00  0.00000000000E+00  0.33343684347E+03  0.33343684347E+03  0.00000000000E+00 0.  1.
          2   -1    0    0  501    0  0.00000000000E+00 -0.00000000000E+00 -0.23562357885E+02  0.23562357885E+02  0.00000000000E+00 0. -1.
         23    2    1    2    0    0 -0.32416542028E+00 -0.21797333206E+02  0.31991661501E+03  0.33299767678E+03  0.89808592914E+02 0.  0.
         13    1    3    3    0    0  0.42135636801E+02 -0.25332986066E+02  0.15164233752E+03  0.15941320711E+03  0.00000000000E+00 0.  1.
        -13    1    3    3    0    0 -0.42459802221E+02  0.35356528592E+01  0.16827427749E+03  0.17358446967E+03  0.00000000000E+00 0. -1.
         22    1    1    2    0    0  0.32416542028E+00  0.21797333206E+02 -0.10042129434E+02  0.24001524570E+02  0.00000000000E+00 0. -1.
<mgrwt>
<rscale>  0 0.64405808E+02</rscale>
<asrwt>0</asrwt>
<pdfrwt beam="1">  1        2 0.36249784E-02 0.92416515E+02</pdfrwt>
<pdfrwt beam="2">  1       -2 0.51297973E-01 0.92416515E+02</pdfrwt>
<totfact> 0.79921816E+03</totfact>
</mgrwt>
</event>
<event>
 6    1  0.1727544E-002  0.9431592E+02  0.7546771E-02  0.1348158E+00
         -2   -1    0    0    0  501 -0.00000000000E+00  0.00000000000E+00  0.39906091304E+02  0.39906091304E+02  0.00000000000E+00 0.  1.
          2   -1    0    0  501    0  0.00000000000E+00 -0.00000000000E+00 -0.10593714336E+03  0.10593714336E+03  0.00000000000E+00 0. -1.
         23    2    1    2    0    0  0.18506915142E+02 -0.29750528021E+02 -0.41328480926E+02  0.10297346856E+03  0.87566500818E+02 0.  0.
         13    1    3    3    0    0  0.30618889401E+02 -0.33327102770E+02 -0.63190745888E+02  0.77725687730E+02  0.00000000000E+00 0. -1.
        -13    1    3    3    0    0 -0.12111974260E+02  0.35765747484E+01  0.21862264963E+02  0.25247780827E+02  0.00000000000E+00 0.  1.
         22    1    1    2    0    0 -0.18506915142E+02  0.29750528021E+02 -0.24702571129E+02  0.42869766106E+02  0.00000000000E+00 0. -1.
<mgrwt>
<rscale>  0 0.73632719E+02</rscale>
<asrwt>0</asrwt>
<pdfrwt beam="1">  1        2 0.16298022E-01 0.94315915E+02</pdfrwt>
<pdfrwt beam="2">  1       -2 0.61393987E-02 0.94315915E+02</pdfrwt>
<totfact> 0.43967037E+04</totfact>
</mgrwt>
</event>
<event>
 6    1  0.1727544E-002  0.9313061E+02  0.7546771E-02  0.1411454E+00
          2   -1    0    0  501    0  0.00000000000E+00  0.00000000000E+00  0.54873419676E+02  0.54873419676E+02  0.00000000000E+00 0. -1.
         -2   -1    0    0    0  501 -0.00000000000E+00 -0.00000000000E+00 -0.51711453154E+02  0.51711453154E+02  0.00000000000E+00 0.  1.
         23    2    1    2    0    0  0.73781785761E+01 -0.10642688749E+02 -0.48208855107E+00  0.93131862747E+02  0.92225848364E+02 0.  0.
         13    1    3    3    0    0  0.55107259989E+01 -0.47483107593E+02 -0.19504841396E+02  0.51628019966E+02  0.00000000000E+00 0.  1.
        -13    1    3    3    0    0  0.18674525771E+01  0.36840418844E+02  0.19022752845E+02  0.41503842781E+02  0.00000000000E+00 0. -1.
         22    1    1    2    0    0 -0.73781785761E+01  0.10642688749E+02  0.36440550727E+01  0.13453010083E+02  0.00000000000E+00 0.  1.
<mgrwt>
<rscale>  0 0.56870545E+02</rscale>
<asrwt>0</asrwt>
<pdfrwt beam="1">  1        2 0.84420646E-02 0.93130615E+02</pdfrwt>
<pdfrwt beam="2">  1       -2 0.79556081E-02 0.93130615E+02</pdfrwt>
<totfact> 0.64874305E+04</totfact>
</mgrwt>
</event>
<event>
 6    1  0.1727544E-002  0.9181301E+02  0.7546771E-02  0.1427118E+00
          4   -1    0    0  501    0  0.00000000000E+00  0.00000000000E+00  0.98886031068E+02  0.98886031068E+02  0.00000000000E+00 0. -1.
         -4   -1    0    0    0  501 -0.00000000000E+00 -0.00000000000E+00 -0.27339141402E+02  0.27339141402E+02  0.00000000000E+00 0.  1.
         23    2    1    2    0    0 -0.16380218294E+01  0.10492191684E+02  0.56487843527E+02  0.10779845077E+03  0.91196821880E+02 0.  0.
         13    1    3    3    0    0 -0.44515081722E+01  0.46473398277E+02  0.54343706785E+02  0.71643779490E+02  0.00000000000E+00 0. -1.
        -13    1    3    3    0    0  0.28134863429E+01 -0.35981206593E+02  0.21441367420E+01  0.36154671284E+02  0.00000000000E+00 0.  1.
         22    1    1    2    0    0  0.16380218294E+01 -0.10492191684E+02  0.15059046139E+02  0.18426721696E+02  0.00000000000E+00 0.  1.
<mgrwt>
<rscale>  0 0.53542913E+02</rscale>
<asrwt>0</asrwt>
<pdfrwt beam="1">  1        4 0.15213235E-01 0.91813014E+02</pdfrwt>
<pdfrwt beam="2">  1       -4 0.42060218E-02 0.91813014E+02</pdfrwt>
<totfact> 0.16771209E+04</totfact>
</mgrwt>
</event>
<event>
 6    1  0.1727544E-002  0.9361709E+02  0.7546771E-02  0.1375059E+00
          2   -1    0    0  501    0  0.00000000000E+00  0.00000000000E+00  0.25634049354E+02  0.25634049354E+02  0.00000000000E+00 0. -1.
         -2   -1    0    0    0  501 -0.00000000000E+00 -0.00000000000E+00 -0.20713016569E+03  0.20713016569E+03  0.00000000000E+00 0.  1.
         23    2    1    2    0    0  0.18757214244E+02 -0.12998107369E+02 -0.18714531807E+03  0.20925469864E+03  0.90793033577E+02 0.  0.
         11    1    3    3    0    0  0.15750460140E+02 -0.36166473216E+02 -0.27928946180E+02  0.48333392331E+02  0.00000000000E+00 0. -1.
        -11    1    3    3    0    0  0.30067541039E+01  0.23168365847E+02 -0.15921637189E+03  0.16092130631E+03  0.00000000000E+00 0.  1.
         22    1    1    2    0    0 -0.18757214244E+02  0.12998107369E+02  0.56492017327E+01  0.23509516405E+02  0.00000000000E+00 0. -1.
<mgrwt>
<rscale>  0 0.65780706E+02</rscale>
<asrwt>0</asrwt>
<pdfrwt beam="1">  1        2 0.39436999E-02 0.93617086E+02</pdfrwt>
<pdfrwt beam="2">  1       -2 0.31866180E-01 0.93617086E+02</pdfrwt>
<totfact> 0.17564279E+04</totfact>
</mgrwt>
</event>
<event>
 6    1  0.1727544E-002  0.9103780E+02  0.7546771E-02  0.1403598E+00
         -2   -1    0    0    0  501 -0.00000000000E+00  0.00000000000E+00  0.45875941481E+02  0.45875941481E+02  0.00000000000E+00 0.  1.
          2   -1    0    0  501    0  0.00000000000E+00 -0.00000000000E+00 -0.69966563141E+02  0.69966563141E+02  0.00000000000E+00 0. -1.
         23    2    1    2    0    0  0.13517933612E+02 -0.79438955188E+01 -0.50510006526E+01  0.91177809747E+02  0.89677424012E+02 0.  0.
         11    1    3    3    0    0 -0.25204868449E+02 -0.32608065645E+02 -0.15606193846E+02  0.44069543054E+02  0.00000000000E+00 0. -1.
        -11    1    3    3    0    0  0.38722802061E+02  0.24664170126E+02  0.10555193193E+02  0.47108266693E+02  0.00000000000E+00 0.  1.
         22    1    1    2    0    0 -0.13517933612E+02  0.79438955188E+01 -0.19039621007E+02  0.24664694874E+02  0.00000000000E+00 0.  1.
<mgrwt>
<rscale>  0 0.58647280E+02</rscale>
<asrwt>0</asrwt>
<pdfrwt beam="1">  1        2 0.10764087E-01 0.91037796E+02</pdfrwt>
<pdfrwt beam="2">  1       -2 0.70578372E-02 0.91037796E+02</pdfrwt>
<totfact> 0.57706766E+04</totfact>
</mgrwt>
</event>
<event>
 6    1  0.1727544E-002  0.1014121E+03  0.7546771E-02  0.1325099E+00
          2   -1    0    0  501    0  0.00000000000E+00  0.00000000000E+00  0.44051463424E+01  0.44051463424E+01  0.00000000000E+00 0. -1.
         -2   -1    0    0    0  501 -0.00000000000E+00 -0.00000000000E+00 -0.13284407341E+04  0.13284407341E+04  0.00000000000E+00 0.  1.
         23    2    1    2    0    0  0.37580631505E+02 -0.19007547405E+02 -0.11155006383E+04  0.11201009254E+04  0.92254097246E+02 0.  0.
         11    1    3    3    0    0 -0.13092696711E+01 -0.31569214036E+02 -0.13115421373E+03  0.13490647590E+03  0.00000000000E+00 0. -1.
        -11    1    3    3    0    0  0.38889901176E+02  0.12561666631E+02 -0.98434642452E+03  0.98519444951E+03  0.00000000000E+00 0.  1.
         22    1    1    2    0    0 -0.37580631505E+02  0.19007547405E+02 -0.20853494946E+03  0.21274495497E+03  0.00000000000E+00 0. -1.
<mgrwt>
<rscale>  0 0.81409283E+02</rscale>
<asrwt>0</asrwt>
<pdfrwt beam="1">  1        2 0.67771386E-03 0.10141208E+03</pdfrwt>
<pdfrwt beam="2">  1       -2 0.20437579E+00 0.10141208E+03</pdfrwt>
<totfact> 0.31249332E+03</totfact>
</mgrwt>
</event>
<event>
 6    1  0.1727544E-002  0.9596771E+02  0.7546771E-02  0.1351834E+00
         -4   -1    0    0    0  501 -0.00000000000E+00  0.00000000000E+00  0.19917581128E+02  0.19917581128E+02  0.00000000000E+00 0.  1.
          4   -1    0    0  501    0  0.00000000000E+00 -0.00000000000E+00 -0.22402086904E+03  0.22402086904E+03  0.00000000000E+00 0. -1.
         23    2    1    2    0    0  0.21989886030E+02 -0.22185352721E+02 -0.11652709026E+03  0.15095815463E+03  0.90741703325E+02 0.  0.
         11    1    3    3    0    0  0.27748722575E+02  0.17318172272E+02 -0.57548321933E+01  0.33211877227E+02  0.00000000000E+00 0.  1.
        -11    1    3    3    0    0 -0.57588365454E+01 -0.39503524993E+02 -0.11077225807E+03  0.11774627741E+03  0.00000000000E+00 0. -1.
         22    1    1    2    0    0 -0.21989886030E+02  0.22185352721E+02 -0.87576197647E+02  0.92980295532E+02  0.00000000000E+00 0. -1.
<mgrwt>
<rscale>  0 0.72487128E+02</rscale>
<asrwt>0</asrwt>
<pdfrwt beam="1">  1        4 0.34464748E-01 0.95967712E+02</pdfrwt>
<pdfrwt beam="2">  1       -4 0.30642433E-02 0.95967712E+02</pdfrwt>
<totfact> 0.63236496E+03</totfact>
</mgrwt>
</event>
<event>
 6    1  0.1727544E-002  0.9210116E+02  0.7546771E-02  0.1399284E+00
         -1   -1    0    0    0  501 -0.00000000000E+00  0.00000000000E+00  0.25852859331E+02  0.25852859331E+02  0.00000000000E+00 0. -1.
          1   -1    0    0  501    0  0.00000000000E+00 -0.00000000000E+00 -0.13563195391E+03  0.13563195391E+03  0.00000000000E+00 0.  1.
         23    2    1    2    0    0  0.15642940123E+02  0.42527264671E+01 -0.61986479271E+02  0.11101778107E+03  0.90663315863E+02 0.  0.
         11    1    3    3    0    0  0.56226454933E+01  0.29199987581E+02  0.12176074442E+02  0.32132696835E+02  0.00000000000E+00 0. -1.
        -11    1    3    3    0    0  0.10020294630E+02 -0.24947261114E+02 -0.74162553714E+02  0.78885084236E+02  0.00000000000E+00 0.  1.
         22    1    1    2    0    0 -0.15642940123E+02 -0.42527264671E+01 -0.47792615305E+02  0.50467032167E+02  0.00000000000E+00 0.  1.
<mgrwt>
<rscale>  0 0.59655346E+02</rscale>
<asrwt>0</asrwt>
<pdfrwt beam="1">  1        1 0.20866455E-01 0.92101162E+02</pdfrwt>
<pdfrwt beam="2">  1       -1 0.39773629E-02 0.92101162E+02</pdfrwt>
<totfact> 0.51870755E+04</totfact>
</mgrwt>
</event>
<event>
 6    1  0.1727544E-002  0.9354867E+02  0.7546771E-02  0.1404162E+00
         -2   -1    0    0    0  501 -0.00000000000E+00  0.00000000000E+00  0.26809576954E+03  0.26809576954E+03  0.00000000000E+00 0. -1.
          2   -1    0    0  501    0  0.00000000000E+00 -0.00000000000E+00 -0.12640525971E+02  0.12640525971E+02  0.00000000000E+00 0.  1.
         23    2    1    2    0    0  0.94428463736E+01  0.10768884553E+02  0.24695849037E+03  0.26408303646E+03  0.92445756843E+02 0.  0.
         13    1    3    3    0    0 -0.31348170693E+02 -0.24233292149E+02  0.11286952704E+03  0.11962228215E+03  0.00000000000E+00 0. -1.
        -13    1    3    3    0    0  0.40791017066E+02  0.35002176701E+02  0.13408896333E+03  0.14446075430E+03  0.00000000000E+00 0.  1.
         22    1    1    2    0    0 -0.94428463736E+01 -0.10768884553E+02  0.84967532054E+01  0.16653259056E+02  0.00000000000E+00 0. -1.
<mgrwt>
<rscale>  0 0.58517197E+02</rscale>
<asrwt>0</asrwt>
<pdfrwt beam="1">  1        2 0.19446965E-02 0.93548673E+02</pdfrwt>
<pdfrwt beam="2">  1       -2 0.41245499E-01 0.93548673E+02</pdfrwt>
<totfact> 0.28002233E+04</totfact>
</mgrwt>
</event>
<event>
 6    1  0.1727544E-002  0.9249105E+02  0.7546771E-02  0.1425358E+00
         -2   -1    0    0    0  501 -0.00000000000E+00  0.00000000000E+00  0.18362887350E+02  0.18362887350E+02  0.00000000000E+00 0.  1.
          2   -1    0    0  501    0  0.00000000000E+00 -0.00000000000E+00 -0.14492938065E+03  0.14492938065E+03  0.00000000000E+00 0. -1.
         23    2    1    2    0    0  0.66177572521E+01  0.83697235752E+01 -0.11431028508E+03  0.14704229496E+03  0.91873544881E+02 0.  0.
         13    1    3    3    0    0  0.33901613971E+01  0.28396112871E+02  0.22913045368E+01  0.28689414371E+02  0.00000000000E+00 0.  1.
        -13    1    3    3    0    0  0.32275958551E+01 -0.20026389295E+02 -0.11660158961E+03  0.11835288059E+03  0.00000000000E+00 0. -1.
         22    1    1    2    0    0 -0.66177572521E+01 -0.83697235752E+01 -0.12256208218E+02  0.16249973036E+02  0.00000000000E+00 0. -1.
<mgrwt>
<rscale>  0 0.53903255E+02</rscale>
<asrwt>0</asrwt>
<pdfrwt beam="1">  1        2 0.22296828E-01 0.92491055E+02</pdfrwt>
<pdfrwt beam="2">  1       -2 0.28250596E-02 0.92491055E+02</pdfrwt>
<totfact> 0.96868411E+04</totfact>
</mgrwt>
</event>
<event>
 6    1  0.1727544E-002  0.9554651E+02  0.7546771E-02  0.1416950E+00
         -1   -1    0    0    0  501 -0.00000000000E+00  0.00000000000E+00  0.23103156863E+02  0.23103156863E+02  0.00000000000E+00 0.  1.
          1   -1    0    0  501    0  0.00000000000E+00 -0.00000000000E+00 -0.12394221502E+03  0.12394221502E+03  0.00000000000E+00 0. -1.
         23    2    1    2    0    0 -0.10980916082E+02  0.83237366463E+00 -0.85879581058E+02  0.12846959952E+03  0.94909758157E+02 0.  0.
         11    1    3    3    0    0 -0.12664512522E+02  0.47112130627E+02 -0.50281551739E+02  0.70058384045E+02  0.00000000000E+00 0. -1.
        -11    1    3    3    0    0  0.16835964396E+01 -0.46279756963E+02 -0.35598029318E+02  0.58411215472E+02  0.00000000000E+00 0.  1.
         22    1    1    2    0    0  0.10980916082E+02 -0.83237366463E+00 -0.14959477095E+02  0.18575772363E+02  0.00000000000E+00 0.  1.
<mgrwt>
<rscale>  0 0.55671356E+02</rscale>
<asrwt>0</asrwt>
<pdfrwt beam="1">  1        1 0.19068033E-01 0.95546510E+02</pdfrwt>
<pdfrwt beam="2">  1       -1 0.35543318E-02 0.95546510E+02</pdfrwt>
<totfact> 0.68739116E+04</totfact>
</mgrwt>
</event>
<event>
 6    1  0.1727544E-002  0.9969094E+02  0.7546771E-02  0.1329296E+00
         -2   -1    0    0    0  501 -0.00000000000E+00  0.00000000000E+00  0.53783334940E+02  0.53783334940E+02  0.00000000000E+00 0.  1.
          2   -1    0    0  501    0  0.00000000000E+00 -0.00000000000E+00 -0.11868721607E+03  0.11868721607E+03  0.00000000000E+00 0. -1.
         23    2    1    2    0    0  0.40681072092E+02  0.62884300526E+01 -0.50384282169E+01  0.99818184005E+02  0.90795319924E+02 0.  0.
         11    1    3    3    0    0  0.28408804350E+02  0.13797486669E+02 -0.46342089279E+02  0.56080478259E+02  0.00000000000E+00 0. -1.
        -11    1    3    3    0    0  0.12272267742E+02 -0.75090566162E+01  0.41303661062E+02  0.43737705746E+02  0.00000000000E+00 0.  1.
         22    1    1    2    0    0 -0.40681072092E+02 -0.62884300526E+01 -0.59865452915E+02  0.72652367007E+02  0.00000000000E+00 0. -1.
<mgrwt>
<rscale>  0 0.79913800E+02</rscale>
<asrwt>0</asrwt>
<pdfrwt beam="1">  1        2 0.18259572E-01 0.99690943E+02</pdfrwt>
<pdfrwt beam="2">  1       -2 0.82743593E-02 0.99690943E+02</pdfrwt>
<totfact> 0.24711800E+04</totfact>
</mgrwt>
</event>
<event>
 6    1  0.1727544E-002  0.9154131E+02  0.7546771E-02  0.1410561E+00
          1   -1    0    0  501    0  0.00000000000E+00  0.00000000000E+00  0.17665756390E+03  0.17665756390E+03  0.00000000000E+00 0. -1.
         -1   -1    0    0    0  501 -0.00000000000E+00 -0.00000000000E+00 -0.18575735748E+02  0.18575735748E+02  0.00000000000E+00 0.  1.
         23    2    1    2    0    0 -0.86515661876E+01 -0.10786699149E+02  0.10018733285E+03  0.13571040437E+03  0.90490937195E+02 0.  0.
         13    1    3    3    0    0 -0.47706135834E+02  0.16944078281E+01  0.37044181987E+02  0.60423652928E+02  0.00000000000E+00 0.  1.
        -13    1    3    3    0    0  0.39054569646E+02 -0.12481106977E+02  0.63143150863E+02  0.75286751441E+02  0.00000000000E+00 0. -1.
         22    1    1    2    0    0  0.86515661876E+01  0.10786699149E+02  0.57894495304E+02  0.59522895280E+02  0.00000000000E+00 0. -1.
<mgrwt>
<rscale>  0 0.57068906E+02</rscale>
<asrwt>0</asrwt>
<pdfrwt beam="1">  1        1 0.27178086E-01 0.91541314E+02</pdfrwt>
<pdfrwt beam="2">  1       -1 0.28578056E-02 0.91541314E+02</pdfrwt>
<totfact> 0.60168969E+04</totfact>
</mgrwt>
</event>
<event>
 6    1  0.1727544E-002  0.9368697E+02  0.7546771E-02  0.1375104E+00
          2   -1    0    0  501    0  0.00000000000E+00  0.00000000000E+00  0.11786885768E+03  0.11786885768E+03  0.00000000000E+00 0. -1.
         -2   -1    0    0    0  501 -0.00000000000E+00 -0.00000000000E+00 -0.31090787258E+02  0.31090787258E+02  0.00000000000E+00 0.  1.
         23    2    1    2    0    0 -0.20583655248E+02 -0.96952370843E+01  0.51300229237E+02  0.10681273876E+03  0.90882138815E+02 0.  0.
         13    1    3    3    0    0 -0.35822020931E+02  0.30289195196E+02  0.11332881988E+02  0.48260612754E+02  0.00000000000E+00 0.  1.
        -13    1    3    3    0    0  0.15238365682E+02 -0.39984432280E+02  0.39967347249E+02  0.58552126004E+02  0.00000000000E+00 0. -1.
         22    1    1    2    0    0  0.20583655248E+02  0.96952370843E+01  0.35477841188E+02  0.42146906184E+02  0.00000000000E+00 0. -1.
<mgrwt>
<rscale>  0 0.65768438E+02</rscale>
<asrwt>0</asrwt>
<pdfrwt beam="1">  1        2 0.18133670E-01 0.93686966E+02</pdfrwt>
<pdfrwt beam="2">  1       -2 0.47831981E-02 0.93686966E+02</pdfrwt>
<totfact> 0.56472603E+04</totfact>
</mgrwt>
</event>
<event>
 6    1  0.1727544E-002  0.8773573E+02  0.7546771E-02  0.1424129E+00
          4   -1    0    0  501    0  0.00000000000E+00  0.00000000000E+00  0.64876316814E+02  0.64876316814E+02  0.00000000000E+00 0. -1.
         -4   -1    0    0    0  501 -0.00000000000E+00 -0.00000000000E+00 -0.52191385407E+02  0.52191385407E+02  0.00000000000E+00 0.  1.
         23    2    1    2    0    0 -0.11790635439E+02  0.48193233625E+01 -0.12715573096E+02  0.88652379054E+02  0.86806183829E+02 0.  0.
         13    1    3    3    0    0 -0.44379252285E+02 -0.12203877101E+02  0.75940872582E+01  0.46648931509E+02  0.00000000000E+00 0. -1.
        -13    1    3    3    0    0  0.32588616846E+02  0.17023200463E+02 -0.20309660354E+02  0.42003447545E+02  0.00000000000E+00 0.  1.
         22    1    1    2    0    0  0.11790635439E+02 -0.48193233625E+01  0.25400504502E+02  0.28415323167E+02  0.00000000000E+00 0. -1.
<mgrwt>
<rscale>  0 0.54156898E+02</rscale>
<asrwt>0</asrwt>
<pdfrwt beam="1">  1        4 0.99809718E-02 0.87735731E+02</pdfrwt>
<pdfrwt beam="2">  1       -4 0.80294439E-02 0.87735731E+02</pdfrwt>
<totfact> 0.11964366E+04</totfact>
</mgrwt>
</event>
<event>
 6    1  0.1727544E-002  0.1016782E+03  0.7546771E-02  0.1324819E+00
         -2   -1    0    0    0  501 -0.00000000000E+00  0.00000000000E+00  0.30138242490E+03  0.30138242490E+03  0.00000000000E+00 0.  1.
          2   -1    0    0  501    0  0.00000000000E+00 -0.00000000000E+00 -0.19056402572E+02  0.19056402572E+02  0.00000000000E+00 0. -1.
         23    2    1    2    0    0 -0.27396659131E+02 -0.31823936470E+02  0.24077601448E+03  0.26136478058E+03  0.92601941203E+02 0.  0.
         11    1    3    3    0    0 -0.28373666201E+02  0.10888923926E+02  0.19744419442E+02  0.36241905263E+02  0.00000000000E+00 0. -1.
        -11    1    3    3    0    0  0.97700707049E+00 -0.42712860396E+02  0.22103159504E+03  0.22512287532E+03  0.00000000000E+00 0.  1.
         22    1    1    2    0    0  0.27396659131E+02  0.31823936470E+02  0.41550007846E+02  0.59074046890E+02  0.00000000000E+00 0. -1.
<mgrwt>
<rscale>  0 0.81510384E+02</rscale>
<asrwt>0</asrwt>
<pdfrwt beam="1">  1        2 0.29317545E-02 0.10167821E+03</pdfrwt>
<pdfrwt beam="2">  1       -2 0.46366523E-01 0.10167821E+03</pdfrwt>
<totfact> 0.13035379E+04</totfact>
</mgrwt>
</event>
<event>
 6    1  0.1727544E-002  0.9491651E+02  0.7546771E-02  0.1368610E+00
         -2   -1    0    0    0  501 -0.00000000000E+00  0.00000000000E+00  0.49559603918E+01  0.49559603918E+01  0.00000000000E+00 0.  1.
          2   -1    0    0  501    0  0.00000000000E+00 -0.00000000000E+00 -0.78613708914E+03  0.78613708914E+03  0.00000000000E+00 0. -1.
         23    2    1    2    0    0  0.21833494541E+02 -0.10794539002E+02 -0.69785234193E+03  0.70427766916E+03  0.91738326707E+02 0.  0.
         13    1    3    3    0    0  0.41382201790E+02  0.49001300566E+01 -0.14531525767E+03  0.15117216017E+03  0.00000000000E+00 0.  1.
        -13    1    3    3    0    0 -0.19548707249E+02 -0.15694669059E+02 -0.55253708426E+03  0.55310550899E+03  0.00000000000E+00 0. -1.
         22    1    1    2    0    0 -0.21833494541E+02  0.10794539002E+02 -0.83328786821E+02  0.86815380373E+02  0.00000000000E+00 0. -1.
<mgrwt>
<rscale>  0 0.67555175E+02</rscale>
<asrwt>0</asrwt>
<pdfrwt beam="1">  1        2 0.12094413E+00 0.94916511E+02</pdfrwt>
<pdfrwt beam="2">  1       -2 0.76245569E-03 0.94916511E+02</pdfrwt>
<totfact> 0.10113238E+05</totfact>
</mgrwt>
</event>
<event>
 6    1  0.1727544E-002  0.9078442E+02  0.7546771E-02  0.1432741E+00
          2   -1    0    0  501    0  0.00000000000E+00  0.00000000000E+00  0.43792411277E+02  0.43792411277E+02  0.00000000000E+00 0. -1.
         -2   -1    0    0    0  501 -0.00000000000E+00 -0.00000000000E+00 -0.80932793344E+02  0.80932793344E+02  0.00000000000E+00 0.  1.
         23    2    1    2    0    0  0.87491923724E+01  0.50191908843E+01 -0.53595737616E+02  0.10542444374E+03  0.90222334282E+02 0.  0.
         11    1    3    3    0    0 -0.97140158382E+01 -0.48311830749E+01  0.23316071203E+02  0.25716562950E+02  0.00000000000E+00 0. -1.
        -11    1    3    3    0    0  0.18463208211E+02  0.98503739592E+01 -0.76911808819E+02  0.79707880792E+02  0.00000000000E+00 0.  1.
         22    1    1    2    0    0 -0.87491923724E+01 -0.50191908843E+01  0.16455355549E+02  0.19300760880E+02  0.00000000000E+00 0. -1.
<mgrwt>
<rscale>  0 0.52413757E+02</rscale>
<asrwt>0</asrwt>
<pdfrwt beam="1">  1        2 0.67372941E-02 0.90784416E+02</pdfrwt>
<pdfrwt beam="2">  1       -2 0.12451199E-01 0.90784416E+02</pdfrwt>
<totfact> 0.42662188E+04</totfact>
</mgrwt>
</event>
<event>
 6    1  0.1727544E-002  0.9096394E+02  0.7546771E-02  0.1408932E+00
          2   -1    0    0  501    0  0.00000000000E+00  0.00000000000E+00  0.96243095690E+01  0.96243095690E+01  0.00000000000E+00 0.  1.
         -2   -1    0    0    0  501 -0.00000000000E+00 -0.00000000000E+00 -0.30834618657E+03  0.30834618657E+03  0.00000000000E+00 0. -1.
         23    2    1    2    0    0 -0.53434941692E+01  0.13431661840E+02 -0.27943332639E+03  0.29386633355E+03  0.89807993094E+02 0.  0.
         13    1    3    3    0    0 -0.54209872507E+00 -0.25805871988E+02 -0.23527482210E+02  0.34925339214E+02  0.00000000000E+00 0.  1.
        -13    1    3    3    0    0 -0.48013954442E+01  0.39237533827E+02 -0.25590584418E+03  0.25894099433E+03  0.00000000000E+00 0. -1.
         22    1    1    2    0    0  0.53434941692E+01 -0.13431661840E+02 -0.19288550608E+02  0.24104162592E+02  0.00000000000E+00 0. -1.
<mgrwt>
<rscale>  0 0.57432865E+02</rscale>
<asrwt>0</asrwt>
<pdfrwt beam="1">  1        2 0.14806629E-02 0.90963938E+02</pdfrwt>
<pdfrwt beam="2">  1       -2 0.47437877E-01 0.90963938E+02</pdfrwt>
<totfact> 0.30876805E+04</totfact>
</mgrwt>
</event>
<event>
 6    1  0.1727544E-002  0.1048728E+03  0.7546771E-02  0.1307870E+00
          2   -1    0    0  501    0  0.00000000000E+00  0.00000000000E+00  0.15607145240E+04  0.15607145240E+04  0.00000000000E+00 0. -1.
         -2   -1    0    0    0  501 -0.00000000000E+00 -0.00000000000E+00 -0.48328328952E+01  0.48328328952E+01  0.00000000000E+00 0.  1.
         23    2    1    2    0    0 -0.40642158747E+02  0.32272423194E+02  0.13130801521E+04  0.13172614698E+04  0.91131771227E+02 0.  0.
         13    1    3    3    0    0  0.26438020924E+02  0.25115431868E+01  0.55572256128E+03  0.55635675777E+03  0.00000000000E+00 0. -1.
        -13    1    3    3    0    0 -0.67080179671E+02  0.29760880007E+02  0.75735759079E+03  0.76090471205E+03  0.00000000000E+00 0.  1.
         22    1    1    2    0    0  0.40642158747E+02 -0.32272423194E+02  0.24280153902E+03  0.24828588707E+03  0.00000000000E+00 0. -1.
<mgrwt>
<rscale>  0 0.87959444E+02</rscale>
<asrwt>0</asrwt>
<pdfrwt beam="1">  1        2 0.24010953E+00 0.10487275E+03</pdfrwt>
<pdfrwt beam="2">  1       -2 0.74351400E-03 0.10487275E+03</pdfrwt>
<totfact> 0.38801598E+04</totfact>
</mgrwt>
</event>
<event>
 6    1  0.1727544E-002  0.9985936E+02  0.7546771E-02  0.1329500E+00
         -2   -1    0    0    0  501 -0.00000000000E+00  0.00000000000E+00  0.40474481757E+02  0.40474481757E+02  0.00000000000E+00 0.  1.
          2   -1    0    0  501    0  0.00000000000E+00 -0.00000000000E+00 -0.14005950925E+03  0.14005950925E+03  0.00000000000E+00 0. -1.
         23    2    1    2    0    0 -0.28661304395E+02 -0.29050500554E+02 -0.97665116635E+02  0.13967951745E+03  0.91139950822E+02 0.  0.
         13    1    3    3    0    0 -0.48195261496E+02  0.14831597017E+02 -0.61636751289E+02  0.79635724460E+02  0.00000000000E+00 0.  1.
        -13    1    3    3    0    0  0.19533957101E+02 -0.43882097571E+02 -0.36028365345E+02  0.60043792991E+02  0.00000000000E+00 0. -1.
         22    1    1    2    0    0  0.28661304395E+02  0.29050500554E+02 -0.19199108607E+01  0.40854473559E+02  0.00000000000E+00 0.  1.
<mgrwt>
<rscale>  0 0.79842013E+02</rscale>
<asrwt>0</asrwt>
<pdfrwt beam="1">  1        2 0.21547617E-01 0.99859364E+02</pdfrwt>
<pdfrwt beam="2">  1       -2 0.62268433E-02 0.99859364E+02</pdfrwt>
<totfact> 0.31635549E+04</totfact>
</mgrwt>
</event>
<event>
 6    1  0.1727544E-002  0.1243618E+03  0.7546771E-02  0.1297833E+00
          1   -1    0    0  501    0  0.00000000000E+00  0.00000000000E+00  0.34960577941E+02  0.34960577941E+02  0.00000000000E+00 0. -1.
         -1   -1    0    0    0  501 -0.00000000000E+00 -0.00000000000E+00 -0.25303866186E+03  0.25303866186E+03  0.00000000000E+00 0.  1.
         23    2    1    2    0    0  0.35309552406E+02 -0.12379610459E+02 -0.21754022743E+03  0.25057854317E+03  0.11859947936E+03 0.  0.
         13    1    3    3    0    0  0.62136570251E+01  0.13405598658E+01  0.14755269830E+02  0.16066257253E+02  0.00000000000E+00 0. -1.
        -13    1    3    3    0    0  0.29095895381E+02 -0.13720170325E+02 -0.23229549726E+03  0.23451228592E+03  0.00000000000E+00 0.  1.
         22    1    1    2    0    0 -0.35309552406E+02  0.12379610459E+02 -0.53785648786E+00  0.37420696624E+02  0.00000000000E+00 0. -1.
<mgrwt>
<rscale>  0 0.92104741E+02</rscale>
<asrwt>0</asrwt>
<pdfrwt beam="1">  1        1 0.53785504E-02 0.12436179E+03</pdfrwt>
<pdfrwt beam="2">  1       -1 0.38929026E-01 0.12436179E+03</pdfrwt>
<totfact> 0.91136034E+03</totfact>
</mgrwt>
</event>
<event>
 6    1  0.1727544E-002  0.9051975E+02  0.7546771E-02  0.1398224E+00
         -2   -1    0    0    0  501 -0.00000000000E+00  0.00000000000E+00  0.25904893784E+03  0.25904893784E+03  0.00000000000E+00 0. -1.
          2   -1    0    0  501    0  0.00000000000E+00 -0.00000000000E+00 -0.28950339338E+02  0.28950339338E+02  0.00000000000E+00 0.  1.
         23    2    1    2    0    0 -0.50443856915E+01  0.16615824284E+02  0.24742839858E+03  0.26346657627E+03  0.88838578012E+02 0.  0.
         13    1    3    3    0    0  0.23858886974E+02  0.42412461653E+02  0.17086735320E+03  0.17766180169E+03  0.00000000000E+00 0. -1.
        -13    1    3    3    0    0 -0.28903272666E+02 -0.25796637369E+02  0.76561045380E+02  0.85804774576E+02  0.00000000000E+00 0.  1.
         22    1    1    2    0    0  0.50443856915E+01 -0.16615824284E+02 -0.17329800072E+02  0.24532700915E+02  0.00000000000E+00 0.  1.
<mgrwt>
<rscale>  0 0.59906517E+02</rscale>
<asrwt>0</asrwt>
<pdfrwt beam="1">  1        2 0.44538985E-02 0.90519746E+02</pdfrwt>
<pdfrwt beam="2">  1       -2 0.39853681E-01 0.90519746E+02</pdfrwt>
<totfact> 0.98982210E+03</totfact>
</mgrwt>
</event>
<event>
 6    1  0.1727544E-002  0.8407574E+02  0.7546771E-02  0.1430235E+00
          1   -1    0    0  501    0  0.00000000000E+00  0.00000000000E+00  0.11515359371E+03  0.11515359371E+03  0.00000000000E+00 0. -1.
         -1   -1    0    0    0  501 -0.00000000000E+00 -0.00000000000E+00 -0.20838800140E+02  0.20838800140E+02  0.00000000000E+00 0.  1.
         23    2    1    2    0    0 -0.10839103806E+02 -0.75152039897E+01  0.86661086116E+02  0.12074301025E+03  0.83034728977E+02 0.  0.
         13    1    3    3    0    0 -0.33146810473E+02  0.59039491653E+01  0.88457507250E+02  0.94648287091E+02  0.00000000000E+00 0. -1.
        -13    1    3    3    0    0  0.22307706666E+02 -0.13419153155E+02 -0.17964211347E+01  0.26094723164E+02  0.00000000000E+00 0.  1.
         22    1    1    2    0    0  0.10839103806E+02  0.75152039897E+01  0.76537074585E+01  0.15249383600E+02  0.00000000000E+00 0.  1.
<mgrwt>
<rscale>  0 0.52912783E+02</rscale>
<asrwt>0</asrwt>
<pdfrwt beam="1">  1        1 0.17715937E-01 0.84075744E+02</pdfrwt>
<pdfrwt beam="2">  1       -1 0.32059693E-02 0.84075744E+02</pdfrwt>
<totfact> 0.85863015E+04</totfact>
</mgrwt>
</event>
<event>
 6    1  0.1727544E-002  0.9114174E+02  0.7546771E-02  0.1369205E+00
         -2   -1    0    0    0  501 -0.00000000000E+00  0.00000000000E+00  0.96764861284E+01  0.96764861284E+01  0.00000000000E+00 0.  1.
          2   -1    0    0  501    0  0.00000000000E+00 -0.00000000000E+00 -0.36797130327E+03  0.36797130327E+03  0.00000000000E+00 0. -1.
         23    2    1    2    0    0  0.26698608719E+02  0.54013875841E+01 -0.25409743414E+03  0.26994873964E+03  0.86976004158E+02 0.  0.
         11    1    3    3    0    0  0.46044419635E+02 -0.21006971402E+02 -0.20339069984E+03  0.20959283912E+03  0.00000000000E+00 0. -1.
        -11    1    3    3    0    0 -0.19345810916E+02  0.26408358986E+02 -0.50706734302E+02  0.60355900523E+02  0.00000000000E+00 0.  1.
         22    1    1    2    0    0 -0.26698608719E+02 -0.54013875841E+01 -0.10419738300E+03  0.10769904976E+03  0.00000000000E+00 0. -1.
<mgrwt>
<rscale>  0 0.67388809E+02</rscale>
<asrwt>0</asrwt>
<pdfrwt beam="1">  1        2 0.56610957E-01 0.91141736E+02</pdfrwt>
<pdfrwt beam="2">  1       -2 0.14886905E-02 0.91141736E+02</pdfrwt>
<totfact> 0.90222051E+04</totfact>
</mgrwt>
</event>
<event>
 6    1  0.1727544E-002  0.9702520E+02  0.7546771E-02  0.1369152E+00
         -2   -1    0    0    0  501 -0.00000000000E+00  0.00000000000E+00  0.49618410130E+03  0.49618410130E+03  0.00000000000E+00 0. -1.
          2   -1    0    0  501    0  0.00000000000E+00 -0.00000000000E+00 -0.82267405098E+01  0.82267405098E+01  0.00000000000E+00 0.  1.
         23    2    1    2    0    0  0.22595265983E+02  0.36109771484E+00  0.44908907558E+03  0.45945063683E+03  0.94356841005E+02 0.  0.
         11    1    3    3    0    0  0.13363023810E+02 -0.21292777683E+02  0.42509458167E+03  0.42583724139E+03  0.00000000000E+00 0. -1.
        -11    1    3    3    0    0  0.92322421730E+01  0.21653875398E+02  0.23994493903E+02  0.33613395439E+02  0.00000000000E+00 0.  1.
         22    1    1    2    0    0 -0.22595265983E+02 -0.36109771484E+00  0.38868285212E+02  0.44960204979E+02  0.00000000000E+00 0.  1.
<mgrwt>
<rscale>  0 0.67403375E+02</rscale>
<asrwt>0</asrwt>
<pdfrwt beam="1">  1        2 0.12656528E-02 0.97025202E+02</pdfrwt>
<pdfrwt beam="2">  1       -2 0.76335992E-01 0.97025202E+02</pdfrwt>
<totfact> 0.14597850E+04</totfact>
</mgrwt>
</event>
<event>
 6    1  0.1727544E-002  0.9231237E+02  0.7546771E-02  0.1402148E+00
          2   -1    0    0  501    0  0.00000000000E+00  0.00000000000E+00  0.17163826814E+03  0.17163826814E+03  0.00000000000E+00 0. -1.
         -2   -1    0    0    0  501 -0.00000000000E+00 -0.00000000000E+00 -0.20938023446E+02  0.20938023446E+02  0.00000000000E+00 0.  1.
         23    2    1    2    0    0  0.56036188677E+01  0.14329792759E+02  0.86320928320E+02  0.12638384578E+03  0.91021043189E+02 0.  0.
         13    1    3    3    0    0  0.13541444818E+02 -0.21868576730E+02  0.85533149900E+02  0.89316992268E+02  0.00000000000E+00 0. -1.
        -13    1    3    3    0    0 -0.79378259506E+01  0.36198369489E+02  0.78777842030E+00  0.37066853512E+02  0.00000000000E+00 0.  1.
         22    1    1    2    0    0 -0.56036188677E+01 -0.14329792759E+02  0.64379316374E+02  0.66192445805E+02  0.00000000000E+00 0.  1.
<mgrwt>
<rscale>  0 0.58983384E+02</rscale>
<asrwt>0</asrwt>
<pdfrwt beam="1">  1        2 0.26405886E-01 0.92312371E+02</pdfrwt>
<pdfrwt beam="2">  1       -2 0.32212345E-02 0.92312371E+02</pdfrwt>
<totfact> 0.66497622E+04</totfact>
</mgrwt>
</event>
<event>
 6    1  0.1727544E-002  0.9728210E+02  0.7546771E-02  0.1346051E+00
          2   -1    0    0  501    0  0.00000000000E+00  0.00000000000E+00  0.23349481411E+03  0.23349481411E+03  0.00000000000E+00 0. -1.
         -2   -1    0    0    0  501 -0.00000000000E+00 -0.00000000000E+00 -0.41834947957E+02  0.41834947957E+02  0.00000000000E+00 0.  1.
         23    2    1    2    0    0  0.29022953085E+02 -0.15921510368E+02  0.18489254044E+02  0.99023530764E+02  0.91476668237E+02 0.  0.
         11    1    3    3    0    0  0.58892616363E+02  0.50398115477E+01  0.24368207706E+01  0.59158076862E+02  0.00000000000E+00 0.  1.
        -11    1    3    3    0    0 -0.29869663279E+02 -0.20961321915E+02  0.16052433273E+02  0.39865453902E+02  0.00000000000E+00 0. -1.
         22    1    1    2    0    0 -0.29022953085E+02  0.15921510368E+02  0.17317061211E+03  0.17630623131E+03  0.00000000000E+00 0. -1.
<mgrwt>
<rscale>  0 0.74300617E+02</rscale>
<asrwt>0</asrwt>
<pdfrwt beam="1">  1        2 0.35922278E-01 0.97282101E+02</pdfrwt>
<pdfrwt beam="2">  1       -2 0.64361460E-02 0.97282101E+02</pdfrwt>
<totfact> 0.17268329E+04</totfact>
</mgrwt>
</event>
<event>
 6    1  0.1727544E-002  0.8912654E+02  0.7546771E-02  0.1400517E+00
         -2   -1    0    0    0  501 -0.00000000000E+00  0.00000000000E+00  0.26206494208E+02  0.26206494208E+02  0.00000000000E+00 0.  1.
          2   -1    0    0  501    0  0.00000000000E+00 -0.00000000000E+00 -0.11943196973E+03  0.11943196973E+03  0.00000000000E+00 0. -1.
         23    2    1    2    0    0 -0.16558553297E+02  0.57930891653E+01 -0.58144620825E+02  0.10641586923E+03  0.87383034530E+02 0.  0.
         13    1    3    3    0    0 -0.32090048184E+02  0.39769458661E+02 -0.39940783680E+02  0.64858671245E+02  0.00000000000E+00 0. -1.
        -13    1    3    3    0    0  0.15531494887E+02 -0.33976369496E+02 -0.18203837144E+02  0.41557197985E+02  0.00000000000E+00 0.  1.
         22    1    1    2    0    0  0.16558553297E+02 -0.57930891653E+01 -0.35080854696E+02  0.39222594707E+02  0.00000000000E+00 0.  1.
<mgrwt>
<rscale>  0 0.59364835E+02</rscale>
<asrwt>0</asrwt>
<pdfrwt beam="1">  1        2 0.18374149E-01 0.89126541E+02</pdfrwt>
<pdfrwt beam="2">  1       -2 0.40317683E-02 0.89126541E+02</pdfrwt>
<totfact> 0.71103248E+04</totfact>
</mgrwt>
</event>
<event>
 6    1  0.1727544E-002  0.9166573E+02  0.7546771E-02  0.1413443E+00
          2   -1    0    0  501    0  0.00000000000E+00  0.00000000000E+00  0.15316568036E+02  0.15316568036E+02  0.00000000000E+00 0. -1.
         -2   -1    0    0    0  501 -0.00000000000E+00 -0.00000000000E+00 -0.28370782298E+03  0.28370782298E+03  0.00000000000E+00 0.  1.
         23    2    1    2    0    0  0.13059989525E+02 -0.16778349743E+01 -0.27057189814E+03  0.28567771872E+03  0.90715094963E+02 0.  0.
         11    1    3    3    0    0 -0.27129482682E+01  0.15416345930E+02 -0.16366866497E+01  0.15738568973E+02  0.00000000000E+00 0. -1.
        -11    1    3    3    0    0  0.15772937793E+02 -0.17094180904E+02 -0.26893521149E+03  0.26993914975E+03  0.00000000000E+00 0.  1.
         22    1    1    2    0    0 -0.13059989525E+02  0.16778349743E+01  0.21806431965E+01  0.13346672295E+02  0.00000000000E+00 0. -1.
<mgrwt>
<rscale>  0 0.56432548E+02</rscale>
<asrwt>0</asrwt>
<pdfrwt beam="1">  1        2 0.23563952E-02 0.91665735E+02</pdfrwt>
<pdfrwt beam="2">  1       -2 0.43647355E-01 0.91665735E+02</pdfrwt>
<totfact> 0.19367564E+04</totfact>
</mgrwt>
</event>
<event>
 6    1  0.1727544E-002  0.9186945E+02  0.7546771E-02  0.1416848E+00
          2   -1    0    0  501    0  0.00000000000E+00  0.00000000000E+00  0.84780529418E+02  0.84780529418E+02  0.00000000000E+00 0. -1.
         -2   -1    0    0    0  501 -0.00000000000E+00 -0.00000000000E+00 -0.41116284882E+02  0.41116284882E+02  0.00000000000E+00 0.  1.
         23    2    1    2    0    0  0.11345873292E+02  0.50226900742E+01  0.12958510532E+02  0.92778868153E+02  0.91027683285E+02 0.  0.
         13    1    3    3    0    0 -0.27019015715E+02 -0.21759255244E+02  0.26965561026E+02  0.43938979055E+02  0.00000000000E+00 0. -1.
        -13    1    3    3    0    0  0.38364889008E+02  0.26781945318E+02 -0.14007050493E+02  0.48839889098E+02  0.00000000000E+00 0.  1.
         22    1    1    2    0    0 -0.11345873292E+02 -0.50226900742E+01  0.30705734003E+02  0.33117946147E+02  0.00000000000E+00 0. -1.
<mgrwt>
<rscale>  0 0.55693306E+02</rscale>
<asrwt>0</asrwt>
<pdfrwt beam="1">  1        2 0.13043158E-01 0.91869447E+02</pdfrwt>
<pdfrwt beam="2">  1       -2 0.63255823E-02 0.91869447E+02</pdfrwt>
<totfact> 0.54252857E+04</totfact>
</mgrwt>
</event>
<event>
 6    1  0.1727544E-002  0.9474855E+02  0.7546771E-02  0.1354795E+00
          2   -1    0    0  501    0  0.00000000000E+00  0.00000000000E+00  0.57616255947E+03  0.57616255947E+03  0.00000000000E+00 0.  1.
         -2   -1    0    0    0  501 -0.00000000000E+00 -0.00000000000E+00 -0.13843147204E+02  0.13843147204E+02  0.00000000000E+00 0. -1.
         23    2    1    2    0    0 -0.30260933781E+02 -0.60869865476E+01  0.54772972466E+03  0.55586431679E+03  0.89579639916E+02 0.  0.
         13    1    3    3    0    0 -0.45223432370E+02  0.14927545832E+02  0.15179918101E+03  0.15909425450E+03  0.00000000000E+00 0. -1.
        -13    1    3    3    0    0  0.14962498589E+02 -0.21014532379E+02  0.39593054365E+03  0.39677006229E+03  0.00000000000E+00 0.  1.
         22    1    1    2    0    0  0.30260933781E+02  0.60869865476E+01  0.14589687602E+02  0.34141389879E+02  0.00000000000E+00 0. -1.
<mgrwt>
<rscale>  0 0.71581904E+02</rscale>
<asrwt>0</asrwt>
<pdfrwt beam="1">  1        2 0.88640375E-01 0.94748548E+02</pdfrwt>
<pdfrwt beam="2">  1       -2 0.21297154E-02 0.94748548E+02</pdfrwt>
<totfact> 0.33552590E+04</totfact>
</mgrwt>
</event>
<event>
 6    1  0.1727544E-002  0.9449631E+02  0.7546771E-02  0.1378825E+00
         -3   -1    0    0    0  501 -0.00000000000E+00  0.00000000000E+00  0.13633903109E+03  0.13633903109E+03  0.00000000000E+00 0.  1.
          3   -1    0    0  501    0  0.00000000000E+00 -0.00000000000E+00 -0.50678537449E+02  0.50678537449E+02  0.00000000000E+00 0. -1.
         23    2    1    2    0    0 -0.89961472084E+01 -0.18822352259E+02  0.11636204022E+03  0.14989888629E+03  0.92164744343E+02 0.  0.
         11    1    3    3    0    0  0.66444355765E+01 -0.32228033272E+02  0.12372267623E+03  0.12802380742E+03  0.00000000000E+00 0.  1.
        -11    1    3    3    0    0 -0.15640582785E+02  0.13405681013E+02 -0.73606360132E+01  0.21875078875E+02  0.00000000000E+00 0. -1.
         22    1    1    2    0    0  0.89961472084E+01  0.18822352259E+02 -0.30701546577E+02  0.37118682242E+02  0.00000000000E+00 0. -1.
<mgrwt>
<rscale>  0 0.64773696E+02</rscale>
<asrwt>0</asrwt>
<pdfrwt beam="1">  1        3 0.77966981E-02 0.94496305E+02</pdfrwt>
<pdfrwt beam="2">  1       -3 0.20975235E-01 0.94496305E+02</pdfrwt>
<totfact> 0.48403727E+03</totfact>
</mgrwt>
</event>
<event>
 6    1  0.1727544E-002  0.9660740E+02  0.7546771E-02  0.1348457E+00
         -2   -1    0    0    0  501 -0.00000000000E+00  0.00000000000E+00  0.29447300264E+02  0.29447300264E+02  0.00000000000E+00 0.  1.
          2   -1    0    0  501    0  0.00000000000E+00 -0.00000000000E+00 -0.14670523611E+03  0.14670523611E+03  0.00000000000E+00 0. -1.
         23    2    1    2    0    0 -0.29288644626E+02  0.13938246729E+02 -0.72069804810E+02  0.12052820166E+03  0.90999402218E+02 0.  0.
         11    1    3    3    0    0  0.12938192414E+02  0.18978387340E+02 -0.74472185179E+02  0.77933833309E+02  0.00000000000E+00 0. -1.
        -11    1    3    3    0    0 -0.42226837040E+02 -0.50401406108E+01  0.24023803686E+01  0.42594368351E+02  0.00000000000E+00 0.  1.
         22    1    1    2    0    0  0.29288644626E+02 -0.13938246729E+02 -0.45188131036E+02  0.55624334714E+02  0.00000000000E+00 0. -1.
<mgrwt>
<rscale>  0 0.73538524E+02</rscale>
<asrwt>0</asrwt>
<pdfrwt beam="1">  1        2 0.22570036E-01 0.96607405E+02</pdfrwt>
<pdfrwt beam="2">  1       -2 0.45303539E-02 0.96607405E+02</pdfrwt>
<totfact> 0.48130179E+04</totfact>
</mgrwt>
</event>
<event>
 6    1  0.2355921E-002  0.1117697E+03  0.7546771E-02  0.1360397E+00
          2   -1    0    0  501    0  0.00000000000E+00  0.00000000000E+00  0.14204964394E+03  0.14204964394E+03  0.00000000000E+00 0. -1.
         -2   -1    0    0    0  501 -0.00000000000E+00 -0.00000000000E+00 -0.29254272529E+02  0.29254272529E+02  0.00000000000E+00 0.  1.
         23    2    1    2    0    0 -0.25384491401E+01  0.16918726773E+02  0.96179414685E+02  0.14745486916E+03  0.11045257620E+03 0.  0.
         13    1    3    3    0    0 -0.58821492886E+01  0.62313706686E+01  0.12043479750E+03  0.12073926498E+03  0.00000000000E+00 0. -1.
        -13    1    3    3    0    0  0.33437001485E+01  0.10687356104E+02 -0.24255382811E+02  0.26715604176E+02  0.00000000000E+00 0.  1.
         22    1    1    2    0    0  0.25384491401E+01 -0.16918726773E+02  0.16615956722E+02  0.23849047307E+02  0.00000000000E+00 0.  1.
<mgrwt>
<rscale>  0 0.69910661E+02</rscale>
<asrwt>0</asrwt>
<pdfrwt beam="1">  1        2 0.21853791E-01 0.11176967E+03</pdfrwt>
<pdfrwt beam="2">  1       -2 0.45006574E-02 0.11176967E+03</pdfrwt>
<totfact> 0.51335189E+04</totfact>
</mgrwt>
</event>
<event>
 6    1  0.1727544E-002  0.1227055E+03  0.7546771E-02  0.1257661E+00
          2   -1    0    0  501    0  0.00000000000E+00  0.00000000000E+00  0.55374164772E+03  0.55374164772E+03  0.00000000000E+00 0. -1.
         -2   -1    0    0    0  501 -0.00000000000E+00 -0.00000000000E+00 -0.19274712926E+02  0.19274712926E+02  0.00000000000E+00 0.  1.
         23    2    1    2    0    0  0.28500970423E+02 -0.78927213411E+02  0.31635398192E+03  0.33931768597E+03  0.89525637708E+02 0.  0.
         11    1    3    3    0    0 -0.12823134589E+02 -0.31500716141E+02  0.27626526712E+02  0.43817266874E+02  0.00000000000E+00 0.  1.
        -11    1    3    3    0    0  0.41324105013E+02 -0.47426497270E+02  0.28872745521E+03  0.29550041910E+03  0.00000000000E+00 0. -1.
         22    1    1    2    0    0 -0.28500970423E+02  0.78927213411E+02  0.21811295288E+03  0.23369867468E+03  0.00000000000E+00 0.  1.
<mgrwt>
<rscale>  0 0.11158573E+03</rscale>
<asrwt>0</asrwt>
<pdfrwt beam="1">  1        2 0.85191011E-01 0.12270554E+03</pdfrwt>
<pdfrwt beam="2">  1       -2 0.29653409E-02 0.12270554E+03</pdfrwt>
<totfact> 0.22249630E+04</totfact>
</mgrwt>
</event>
<event>
 6    1  0.1727544E-002  0.9501624E+02  0.7546771E-02  0.1361140E+00
          2   -1    0    0  501    0  0.00000000000E+00  0.00000000000E+00  0.53825582352E+01  0.53825582352E+01  0.00000000000E+00 0. -1.
         -2   -1    0    0    0  501 -0.00000000000E+00 -0.00000000000E+00 -0.70726759201E+03  0.70726759201E+03  0.00000000000E+00 0.  1.
         23    2    1    2    0    0  0.19375995887E+02  0.19517146155E+02 -0.57717919493E+03  0.58494778358E+03  0.90949096978E+02 0.  0.
         13    1    3    3    0    0  0.40428250057E+02 -0.17763693677E+02 -0.17457078916E+03  0.18006929956E+03  0.00000000000E+00 0. -1.
        -13    1    3    3    0    0 -0.21052254170E+02  0.37280839832E+02 -0.40260840577E+03  0.40487848402E+03  0.00000000000E+00 0.  1.
         22    1    1    2    0    0 -0.19375995887E+02 -0.19517146155E+02 -0.12470583884E+03  0.12770236667E+03  0.00000000000E+00 0. -1.
<mgrwt>
<rscale>  0 0.69692912E+02</rscale>
<asrwt>0</asrwt>
<pdfrwt beam="1">  1        2 0.82808566E-03 0.95016243E+02</pdfrwt>
<pdfrwt beam="2">  1       -2 0.10881043E+00 0.95016243E+02</pdfrwt>
<totfact> 0.11771376E+04</totfact>
</mgrwt>
</event>
<event>
 6    1  0.1727544E-002  0.1733940E+03  0.7546771E-02  0.1181681E+00
         -2   -1    0    0    0  501 -0.00000000000E+00  0.00000000000E+00  0.38715276205E+02  0.38715276205E+02  0.00000000000E+00 0.  1.
          2   -1    0    0  501    0  0.00000000000E+00 -0.00000000000E+00 -0.80668729127E+03  0.80668729127E+03  0.00000000000E+00 0. -1.
         23    2    1    2    0    0 -0.56562616354E+02 -0.13566121350E+03 -0.23196523551E+03  0.28960893478E+03  0.91990054892E+02 0.  0.
         13    1    3    3    0    0 -0.26819373138E+02 -0.11391094420E+02 -0.10693782288E+03  0.11083651822E+03  0.00000000000E+00 0. -1.
        -13    1    3    3    0    0 -0.29743243217E+02 -0.12427011908E+03 -0.12502741263E+03  0.17877241656E+03  0.00000000000E+00 0.  1.
         22    1    1    2    0    0  0.56562616354E+02  0.13566121350E+03 -0.53600677956E+03  0.55579363270E+03  0.00000000000E+00 0. -1.
<mgrwt>
<rscale>  0 0.16637592E+03</rscale>
<asrwt>0</asrwt>
<pdfrwt beam="1">  1        2 0.12410574E+00 0.17339396E+03</pdfrwt>
<pdfrwt beam="2">  1       -2 0.59561962E-02 0.17339396E+03</pdfrwt>
<totfact> 0.51552431E+03</totfact>
</mgrwt>
</event>
<event>
 6    1  0.1727544E-002  0.9295937E+02  0.7546771E-02  0.1407685E+00
          2   -1    0    0  501    0  0.00000000000E+00  0.00000000000E+00  0.28949545863E+02  0.28949545863E+02  0.00000000000E+00 0. -1.
         -2   -1    0    0    0  501 -0.00000000000E+00 -0.00000000000E+00 -0.98897494046E+02  0.98897494046E+02  0.00000000000E+00 0.  1.
         23    2    1    2    0    0  0.47000031603E+01  0.12986920136E+02 -0.63686070567E+02  0.11268256710E+03  0.91927662972E+02 0.  0.
         11    1    3    3    0    0 -0.10926950487E+02 -0.29960002386E+02  0.27899484408E+01  0.32012244567E+02  0.00000000000E+00 0. -1.
        -11    1    3    3    0    0  0.15626953647E+02  0.42946922522E+02 -0.66476019008E+02  0.80670322532E+02  0.00000000000E+00 0.  1.
         22    1    1    2    0    0 -0.47000031603E+01 -0.12986920136E+02 -0.62618776155E+01  0.15164472810E+02  0.00000000000E+00 0.  1.
<mgrwt>
<rscale>  0 0.57713578E+02</rscale>
<asrwt>0</asrwt>
<pdfrwt beam="1">  1        2 0.44537763E-02 0.92959375E+02</pdfrwt>
<pdfrwt beam="2">  1       -2 0.15214999E-01 0.92959375E+02</pdfrwt>
<totfact> 0.52741411E+04</totfact>
</mgrwt>
</event>
<event>
 6    1  0.1727544E-002  0.1020743E+03  0.7546771E-02  0.1340724E+00
         -2   -1    0    0    0  501 -0.00000000000E+00  0.00000000000E+00  0.46393955454E+03  0.46393955454E+03  0.00000000000E+00 0.  1.
          2   -1    0    0  501    0  0.00000000000E+00 -0.00000000000E+00 -0.10285793317E+02  0.10285793317E+02  0.00000000000E+00 0. -1.
         23    2    1    2    0    0 -0.16449415916E+02 -0.26760555283E+02  0.39145844907E+03  0.40454775134E+03  0.97120827631E+02 0.  0.
         13    1    3    3    0    0  0.48268897851E+01  0.13464241286E+02  0.46038245687E+01  0.15025972816E+02  0.00000000000E+00 0. -1.
        -13    1    3    3    0    0 -0.21276305702E+02 -0.40224796569E+02  0.38685462450E+03  0.38952177852E+03  0.00000000000E+00 0.  1.
         22    1    1    2    0    0  0.16449415916E+02  0.26760555283E+02  0.62195312148E+02  0.69677596516E+02  0.00000000000E+00 0. -1.
<mgrwt>
<rscale>  0 0.76025814E+02</rscale>
<asrwt>0</asrwt>
<pdfrwt beam="1">  1        2 0.15824301E-02 0.10207431E+03</pdfrwt>
<pdfrwt beam="2">  1       -2 0.71375300E-01 0.10207431E+03</pdfrwt>
<totfact> 0.12504906E+04</totfact>
</mgrwt>
</event>
<event>
 6    1  0.1727544E-002  0.9259410E+02  0.7546771E-02  0.1365657E+00
         -2   -1    0    0    0  501 -0.00000000000E+00  0.00000000000E+00  0.44108965826E+01  0.44108965826E+01  0.00000000000E+00 0. -1.
          2   -1    0    0  501    0  0.00000000000E+00 -0.00000000000E+00 -0.82280523045E+03  0.82280523045E+03  0.00000000000E+00 0.  1.
         23    2    1    2    0    0 -0.25666627081E+01  0.27435379399E+02 -0.65553028683E+03  0.66203747945E+03  0.88398978746E+02 0.  0.
         11    1    3    3    0    0 -0.29329192199E+02  0.38159704882E+02 -0.56455919414E+03  0.56660696103E+03  0.00000000000E+00 0.  1.
        -11    1    3    3    0    0  0.26762529490E+02 -0.10724325483E+02 -0.90971092689E+02  0.95430518425E+02  0.00000000000E+00 0. -1.
         22    1    1    2    0    0  0.25666627081E+01 -0.27435379399E+02 -0.16286404703E+03  0.16517864758E+03  0.00000000000E+00 0. -1.
<mgrwt>
<rscale>  0 0.68389320E+02</rscale>
<asrwt>0</asrwt>
<pdfrwt beam="1">  1        2 0.12658543E+00 0.92594099E+02</pdfrwt>
<pdfrwt beam="2">  1       -2 0.67859944E-03 0.92594099E+02</pdfrwt>
<totfact> 0.11232660E+05</totfact>
</mgrwt>
</event>
<event>
 6    1  0.1727544E-002  0.9742843E+02  0.7546771E-02  0.1352490E+00
         -2   -1    0    0    0  501 -0.00000000000E+00  0.00000000000E+00  0.65279552936E+03  0.65279552936E+03  0.00000000000E+00 0.  1.
          2   -1    0    0  501    0  0.00000000000E+00 -0.00000000000E+00 -0.63542084968E+01  0.63542084968E+01  0.00000000000E+00 0. -1.
         23    2    1    2    0    0  0.29218717051E+02  0.42200651721E+01  0.53857316488E+03  0.54731467425E+03  0.92848028235E+02 0.  0.
         13    1    3    3    0    0  0.19127573813E+02 -0.19805886287E+02  0.43021062460E+02  0.51077872183E+02  0.00000000000E+00 0. -1.
        -13    1    3    3    0    0  0.10091143238E+02  0.24025951459E+02  0.49555210242E+03  0.49623680207E+03  0.00000000000E+00 0.  1.
         22    1    1    2    0    0 -0.29218717051E+02 -0.42200651721E+01  0.10786815598E+03  0.11183506360E+03  0.00000000000E+00 0. -1.
<mgrwt>
<rscale>  0 0.72285358E+02</rscale>
<asrwt>0</asrwt>
<pdfrwt beam="1">  1        2 0.97757106E-03 0.97428429E+02</pdfrwt>
<pdfrwt beam="2">  1       -2 0.10043003E+00 0.97428429E+02</pdfrwt>
<totfact> 0.11319820E+04</totfact>
</mgrwt>
</event>
<event>
 6    1  0.1727544E-002  0.9308415E+02  0.7546771E-02  0.1399493E+00
         -2   -1    0    0    0  501 -0.00000000000E+00  0.00000000000E+00  0.22099327072E+02  0.22099327072E+02  0.00000000000E+00 0.  1.
          2   -1    0    0  501    0  0.00000000000E+00 -0.00000000000E+00 -0.13527561585E+03  0.13527561585E+03  0.00000000000E+00 0. -1.
         23    2    1    2    0    0 -0.14077699436E+02  0.68380249482E+01 -0.90533996280E+02  0.12985016107E+03  0.91759030293E+02 0.  0.
         11    1    3    3    0    0  0.64204287086E+00 -0.17911807591E+02 -0.98383846467E+02  0.10000313153E+03  0.00000000000E+00 0. -1.
        -11    1    3    3    0    0 -0.14719742307E+02  0.24749832539E+02  0.78498501869E+01  0.29847029538E+02  0.00000000000E+00 0.  1.
         22    1    1    2    0    0  0.14077699436E+02 -0.68380249482E+01 -0.22642292500E+02  0.27524781857E+02  0.00000000000E+00 0.  1.
<mgrwt>
<rscale>  0 0.59605911E+02</rscale>
<asrwt>0</asrwt>
<pdfrwt beam="1">  1        2 0.20811633E-01 0.93084155E+02</pdfrwt>
<pdfrwt beam="2">  1       -2 0.33998965E-02 0.93084155E+02</pdfrwt>
<totfact> 0.79908349E+04</totfact>
</mgrwt>
</event>
<event>
 6    1  0.1727544E-002  0.1026788E+03  0.7546771E-02  0.1318672E+00
         -2   -1    0    0    0  501 -0.00000000000E+00  0.00000000000E+00  0.12262231548E+03  0.12262231548E+03  0.00000000000E+00 0.  1.
          2   -1    0    0  501    0  0.00000000000E+00 -0.00000000000E+00 -0.99356274762E+02  0.99356274762E+02  0.00000000000E+00 0. -1.
         23    2    1    2    0    0 -0.33793114924E+02 -0.30462773369E+02  0.93119467560E+02  0.13861519049E+03  0.92048794769E+02 0.  0.
         11    1    3    3    0    0 -0.54867886744E+02 -0.43740191692E+02  0.89054357221E+02  0.11337710485E+03  0.00000000000E+00 0.  1.
        -11    1    3    3    0    0  0.21074771820E+02  0.13277418322E+02  0.40651103393E+01  0.25238085637E+02  0.00000000000E+00 0. -1.
         22    1    1    2    0    0  0.33793114924E+02  0.30462773369E+02 -0.69853426838E+02  0.83363399755E+02  0.00000000000E+00 0. -1.
<mgrwt>
<rscale>  0 0.83773315E+02</rscale>
<asrwt>0</asrwt>
<pdfrwt beam="1">  1        2 0.15285581E-01 0.10267880E+03</pdfrwt>
<pdfrwt beam="2">  1       -2 0.18864972E-01 0.10267880E+03</pdfrwt>
<totfact> 0.81618876E+03</totfact>
</mgrwt>
</event>
<event>
 6    1  0.1727544E-002  0.9182542E+02  0.7546771E-02  0.1427218E+00
         -2   -1    0    0    0  501 -0.00000000000E+00  0.00000000000E+00  0.71090676472E+02  0.71090676472E+02  0.00000000000E+00 0.  1.
          2   -1    0    0  501    0  0.00000000000E+00 -0.00000000000E+00 -0.43403261549E+02  0.43403261549E+02  0.00000000000E+00 0. -1.
         23    2    1    2    0    0  0.99771992183E+01 -0.35765640410E+01  0.38302253176E+02  0.99493567835E+02  0.91211683065E+02 0.  0.
         13    1    3    3    0    0 -0.35169585910E+02 -0.21585871207E+02  0.27826896459E+02  0.49771334876E+02  0.00000000000E+00 0.  1.
        -13    1    3    3    0    0  0.45146785128E+02  0.18009307166E+02  0.10475356717E+02  0.49722232958E+02  0.00000000000E+00 0. -1.
         22    1    1    2    0    0 -0.99771992183E+01  0.35765640410E+01 -0.10614838254E+02  0.15000370186E+02  0.00000000000E+00 0. -1.
<mgrwt>
<rscale>  0 0.53522601E+02</rscale>
<asrwt>0</asrwt>
<pdfrwt beam="1">  1        2 0.66774249E-02 0.91825418E+02</pdfrwt>
<pdfrwt beam="2">  1       -2 0.10937027E-01 0.91825418E+02</pdfrwt>
<totfact> 0.53015893E+04</totfact>
</mgrwt>
</event>
<event>
 6    1  0.1727544E-002  0.9621535E+02  0.7546771E-02  0.1358794E+00
         -2   -1    0    0    0  501 -0.00000000000E+00  0.00000000000E+00  0.21414075465E+03  0.21414075465E+03  0.00000000000E+00 0.  1.
          2   -1    0    0  501    0  0.00000000000E+00 -0.00000000000E+00 -0.52269899195E+02  0.52269899195E+02  0.00000000000E+00 0. -1.
         23    2    1    2    0    0  0.23383424086E+02 -0.14571002052E+02  0.19849231152E+03  0.22058239109E+03  0.92186196915E+02 0.  0.
         13    1    3    3    0    0  0.46882612354E+02 -0.39004574415E+02  0.14432879085E+03  0.15668483026E+03  0.00000000000E+00 0.  1.
        -13    1    3    3    0    0 -0.23499188268E+02  0.24433572363E+02  0.54163520675E+02  0.63897560826E+02  0.00000000000E+00 0. -1.
         22    1    1    2    0    0 -0.23383424086E+02  0.14571002052E+02 -0.36621456068E+02  0.45828262757E+02  0.00000000000E+00 0. -1.
<mgrwt>
<rscale>  0 0.70383449E+02</rscale>
<asrwt>0</asrwt>
<pdfrwt beam="1">  1        2 0.80415231E-02 0.96215350E+02</pdfrwt>
<pdfrwt beam="2">  1       -2 0.32944731E-01 0.96215350E+02</pdfrwt>
<totfact> 0.66687271E+03</totfact>
</mgrwt>
</event>
<event>
 6    1  0.1727544E-002  0.9684642E+02  0.7546771E-02  0.1373162E+00
          2   -1    0    0  501    0  0.00000000000E+00  0.00000000000E+00  0.69232824062E+02  0.69232824062E+02  0.00000000000E+00 0. -1.
         -2   -1    0    0    0  501 -0.00000000000E+00 -0.00000000000E+00 -0.14801429460E+03  0.14801429460E+03  0.00000000000E+00 0.  1.
         23    2    1    2    0    0 -0.59792972527E+01  0.20408652072E+02 -0.12981467349E+03  0.16196011405E+03  0.94482612239E+02 0.  0.
         13    1    3    3    0    0 -0.39771661254E+01 -0.11718340549E+02  0.11579824227E+02  0.16947851921E+02  0.00000000000E+00 0. -1.
        -13    1    3    3    0    0 -0.20021311272E+01  0.32126992621E+02 -0.14139449772E+03  0.14501226213E+03  0.00000000000E+00 0.  1.
         22    1    1    2    0    0  0.59792972527E+01 -0.20408652072E+02  0.51033202952E+02  0.55287004609E+02  0.00000000000E+00 0. -1.
<mgrwt>
<rscale>  0 0.66295921E+02</rscale>
<asrwt>0</asrwt>
<pdfrwt beam="1">  1        2 0.10651204E-01 0.96846420E+02</pdfrwt>
<pdfrwt beam="2">  1       -2 0.22771430E-01 0.96846420E+02</pdfrwt>
<totfact> 0.90577414E+03</totfact>
</mgrwt>
</event>
<event>
 6    1  0.1727544E-002  0.9493721E+02  0.7546771E-02  0.1355781E+00
          2   -1    0    0  501    0  0.00000000000E+00  0.00000000000E+00  0.26873780956E+03  0.26873780956E+03  0.00000000000E+00 0. -1.
         -2   -1    0    0    0  501 -0.00000000000E+00 -0.00000000000E+00 -0.16371695998E+02  0.16371695998E+02  0.00000000000E+00 0.  1.
         23    2    1    2    0    0 -0.30153411920E+02  0.11520531513E+01  0.14291091931E+03  0.17157098775E+03  0.90013985041E+02 0.  0.
         11    1    3    3    0    0 -0.61172272856E+02  0.27488397065E+01  0.11259352112E+03  0.12816748450E+03  0.00000000000E+00 0. -1.
        -11    1    3    3    0    0  0.31018860936E+02 -0.15967865552E+01  0.30317398193E+02  0.43403503249E+02  0.00000000000E+00 0.  1.
         22    1    1    2    0    0  0.30153411920E+02 -0.11520531513E+01  0.10945519425E+03  0.11353851780E+03  0.00000000000E+00 0. -1.
<mgrwt>
<rscale>  0 0.71283766E+02</rscale>
<asrwt>0</asrwt>
<pdfrwt beam="1">  1        2 0.41344275E-01 0.94937205E+02</pdfrwt>
<pdfrwt beam="2">  1       -2 0.25187227E-02 0.94937205E+02</pdfrwt>
<totfact> 0.59238327E+04</totfact>
</mgrwt>
</event>
<event>
 6    1  0.1727544E-002  0.9057729E+02  0.7546771E-02  0.1431969E+00
         -4   -1    0    0    0  501 -0.00000000000E+00  0.00000000000E+00  0.24697886696E+03  0.24697886696E+03  0.00000000000E+00 0.  1.
          4   -1    0    0  501    0  0.00000000000E+00 -0.00000000000E+00 -0.19629343402E+02  0.19629343402E+02  0.00000000000E+00 0. -1.
         23    2    1    2    0    0 -0.42607135858E+01 -0.93500600244E+01  0.23624738934E+03  0.25301595822E+03  0.89992604370E+02 0.  0.
         13    1    3    3    0    0  0.40456370926E+01 -0.36515204674E+02  0.38416291147E+02  0.53155797213E+02  0.00000000000E+00 0. -1.
        -13    1    3    3    0    0 -0.83063506784E+01  0.27165144649E+02  0.19783109820E+03  0.19986016101E+03  0.00000000000E+00 0.  1.
         22    1    1    2    0    0  0.42607135858E+01  0.93500600244E+01 -0.88978657846E+01  0.13592252140E+02  0.00000000000E+00 0. -1.
<mgrwt>
<rscale>  0 0.52566714E+02</rscale>
<asrwt>0</asrwt>
<pdfrwt beam="1">  1        4 0.30198991E-02 0.90577294E+02</pdfrwt>
<pdfrwt beam="2">  1       -4 0.37996747E-01 0.90577294E+02</pdfrwt>
<totfact> 0.52754601E+03</totfact>
</mgrwt>
</event>
<event>
 6    1  0.1727544E-002  0.9423766E+02  0.7546771E-02  0.1391903E+00
          1   -1    0    0  501    0  0.00000000000E+00  0.00000000000E+00  0.20720981821E+03  0.20720981821E+03  0.00000000000E+00 0. -1.
         -1   -1    0    0    0  501 -0.00000000000E+00 -0.00000000000E+00 -0.14994798364E+02  0.14994798364E+02  0.00000000000E+00 0.  1.
         23    2    1    2    0    0 -0.16971118096E+02  0.13166563319E+01  0.15748188220E+03  0.18352460514E+03  0.92687566802E+02 0.  0.
         13    1    3    3    0    0 -0.40117663442E+02  0.14524183695E+01  0.15515132422E+03  0.16026063099E+03  0.00000000000E+00 0. -1.
        -13    1    3    3    0    0  0.23146545347E+02 -0.13576203756E+00  0.23305579773E+01  0.23263974151E+02  0.00000000000E+00 0.  1.
         22    1    1    2    0    0  0.16971118096E+02 -0.13166563319E+01  0.34733137646E+02  0.38680011428E+02  0.00000000000E+00 0. -1.
<mgrwt>
<rscale>  0 0.61435836E+02</rscale>
<asrwt>0</asrwt>
<pdfrwt beam="1">  1        1 0.31878432E-01 0.94237665E+02</pdfrwt>
<pdfrwt beam="2">  1       -1 0.23068922E-02 0.94237665E+02</pdfrwt>
<totfact> 0.67522242E+04</totfact>
</mgrwt>
</event>
<event>
 6    1  0.1727544E-002  0.1145717E+03  0.7546771E-02  0.1278490E+00
          2   -1    0    0  501    0  0.00000000000E+00  0.00000000000E+00  0.76434104188E+02  0.76434104188E+02  0.00000000000E+00 0. -1.
         -2   -1    0    0    0  501 -0.00000000000E+00 -0.00000000000E+00 -0.41679854067E+03  0.41679854067E+03  0.00000000000E+00 0.  1.
         23    2    1    2    0    0  0.23821832591E+02 -0.64565300838E+02 -0.39122633467E+03  0.40765758735E+03  0.91599704137E+02 0.  0.
         13    1    3    3    0    0  0.53048996686E+02 -0.55563502519E+02 -0.20468980782E+03  0.21863077616E+03  0.00000000000E+00 0.  1.
        -13    1    3    3    0    0 -0.29227164095E+02 -0.90017983187E+01 -0.18653652686E+03  0.18902681118E+03  0.00000000000E+00 0. -1.
         22    1    1    2    0    0 -0.23821832591E+02  0.64565300838E+02  0.50861898192E+02  0.85575057511E+02  0.00000000000E+00 0. -1.
<mgrwt>
<rscale>  0 0.10086399E+03</rscale>
<asrwt>0</asrwt>
<pdfrwt beam="1">  1        2 0.11759093E-01 0.11457165E+03</pdfrwt>
<pdfrwt beam="2">  1       -2 0.64122853E-01 0.11457165E+03</pdfrwt>
<totfact> 0.11671069E+03</totfact>
</mgrwt>
</event>
<event>
 6    1  0.1727544E-002  0.9762526E+02  0.7546771E-02  0.1346704E+00
          2   -1    0    0  501    0  0.00000000000E+00  0.00000000000E+00  0.86328040643E+02  0.86328040643E+02  0.00000000000E+00 0.  1.
         -2   -1    0    0    0  501 -0.00000000000E+00 -0.00000000000E+00 -0.63113165361E+02  0.63113165361E+02  0.00000000000E+00 0. -1.
         23    2    1    2    0    0 -0.18406927946E+02  0.26651876923E+02 -0.15625006722E+02  0.98867754727E+02  0.92095355745E+02 0.  0.
         11    1    3    3    0    0  0.32881692485E+01  0.20320973238E+02 -0.52065971568E+02  0.55987671908E+02  0.00000000000E+00 0. -1.
        -11    1    3    3    0    0 -0.21695097194E+02  0.63309036854E+01  0.36440964845E+02  0.42880082820E+02  0.00000000000E+00 0.  1.
         22    1    1    2    0    0  0.18406927946E+02 -0.26651876923E+02  0.38839882005E+02  0.50573451277E+02  0.00000000000E+00 0.  1.
<mgrwt>
<rscale>  0 0.74092751E+02</rscale>
<asrwt>0</asrwt>
<pdfrwt beam="1">  1        2 0.13281237E-01 0.97625264E+02</pdfrwt>
<pdfrwt beam="2">  1       -2 0.97097178E-02 0.97625264E+02</pdfrwt>
<totfact> 0.27803475E+04</totfact>
</mgrwt>
</event>
<event>
 6    1  0.1727544E-002  0.8594589E+02  0.7546771E-02  0.1387291E+00
         -2   -1    0    0    0  501 -0.00000000000E+00  0.00000000000E+00  0.28826360045E+02  0.28826360045E+02  0.00000000000E+00 0.  1.
          2   -1    0    0  501    0  0.00000000000E+00 -0.00000000000E+00 -0.10521952061E+03  0.10521952061E+03  0.00000000000E+00 0. -1.
         23    2    1    2    0    0  0.12591512922E+02  0.20627277815E+02 -0.58225172650E+02  0.10381168524E+03  0.82478266677E+02 0.  0.
         11    1    3    3    0    0  0.33598769590E+02  0.14609595655E+02 -0.69985808157E+02  0.78995765371E+02  0.00000000000E+00 0. -1.
        -11    1    3    3    0    0 -0.21007256668E+02  0.60176821600E+01  0.11760635507E+02  0.24815919867E+02  0.00000000000E+00 0.  1.
         22    1    1    2    0    0 -0.12591512922E+02 -0.20627277815E+02 -0.18167987916E+02  0.30234195419E+02  0.00000000000E+00 0.  1.
<mgrwt>
<rscale>  0 0.62585437E+02</rscale>
<asrwt>0</asrwt>
<pdfrwt beam="1">  1        2 0.16187619E-01 0.85945886E+02</pdfrwt>
<pdfrwt beam="2">  1       -2 0.44348246E-02 0.85945886E+02</pdfrwt>
<totfact> 0.70974380E+04</totfact>
</mgrwt>
</event>
<event>
 6    1  0.1727544E-002  0.8710697E+02  0.7546771E-02  0.1421420E+00
          2   -1    0    0  501    0  0.00000000000E+00  0.00000000000E+00  0.80787163346E+02  0.80787163346E+02  0.00000000000E+00 0. -1.
         -2   -1    0    0    0  501 -0.00000000000E+00 -0.00000000000E+00 -0.41511490868E+02  0.41511490868E+02  0.00000000000E+00 0.  1.
         23    2    1    2    0    0 -0.10772551591E+02 -0.82468455190E+01  0.71191992988E+01  0.87397406442E+02  0.86043973207E+02 0.  0.
         11    1    3    3    0    0 -0.39415132307E+02 -0.29662653650E+02 -0.51264381636E+01  0.49595423625E+02  0.00000000000E+00 0.  1.
        -11    1    3    3    0    0  0.28642580716E+02  0.21415808131E+02  0.12245637462E+02  0.37801982816E+02  0.00000000000E+00 0. -1.
         22    1    1    2    0    0  0.10772551591E+02  0.82468455190E+01  0.32156473179E+02  0.34901247773E+02  0.00000000000E+00 0.  1.
<mgrwt>
<rscale>  0 0.54721640E+02</rscale>
<asrwt>0</asrwt>
<pdfrwt beam="1">  1        2 0.12428794E-01 0.87106967E+02</pdfrwt>
<pdfrwt beam="2">  1       -2 0.63863832E-02 0.87106967E+02</pdfrwt>
<totfact> 0.56177617E+04</totfact>
</mgrwt>
</event>
<event>
 6    1  0.1727544E-002  0.9203022E+02  0.7546771E-02  0.1400295E+00
          2   -1    0    0  501    0  0.00000000000E+00  0.00000000000E+00  0.10379608160E+03  0.10379608160E+03  0.00000000000E+00 0. -1.
         -2   -1    0    0    0  501 -0.00000000000E+00 -0.00000000000E+00 -0.88793002142E+02  0.88793002142E+02  0.00000000000E+00 0.  1.
         23    2    1    2    0    0  0.14997107650E+02 -0.55471410968E+01 -0.63927679898E+02  0.11205493704E+03  0.90630439954E+02 0.  0.
         13    1    3    3    0    0  0.53988951364E+01 -0.38309061358E+02 -0.67426490531E+02  0.77737146051E+02  0.00000000000E+00 0.  1.
        -13    1    3    3    0    0  0.95982125137E+01  0.32761920261E+02  0.34988106335E+01  0.34317790991E+02  0.00000000000E+00 0. -1.
         22    1    1    2    0    0 -0.14997107650E+02  0.55471410968E+01  0.78930759360E+02  0.80534146704E+02  0.00000000000E+00 0. -1.
<mgrwt>
<rscale>  0 0.59417008E+02</rscale>
<asrwt>0</asrwt>
<pdfrwt beam="1">  1        2 0.15968628E-01 0.92030216E+02</pdfrwt>
<pdfrwt beam="2">  1       -2 0.13660462E-01 0.92030216E+02</pdfrwt>
<totfact> 0.13017551E+04</totfact>
</mgrwt>
</event>
<event>
 6    1  0.1727544E-002  0.9106183E+02  0.7546771E-02  0.1422383E+00
         -2   -1    0    0    0  501 -0.00000000000E+00  0.00000000000E+00  0.16464612839E+02  0.16464612839E+02  0.00000000000E+00 0.  1.
          2   -1    0    0  501    0  0.00000000000E+00 -0.00000000000E+00 -0.19032542807E+03  0.19032542807E+03  0.00000000000E+00 0. -1.
         23    2    1    2    0    0  0.63651801190E+01  0.98179076075E+01 -0.11454493591E+03  0.14633112620E+03  0.90306972741E+02 0.  0.
         13    1    3    3    0    0 -0.80050961516E+01  0.29842236360E+02 -0.11751207931E+03  0.12150608799E+03  0.00000000000E+00 0. -1.
        -13    1    3    3    0    0  0.14370276271E+02 -0.20024328753E+02  0.29671434032E+01  0.24825038209E+02  0.00000000000E+00 0.  1.
         22    1    1    2    0    0 -0.63651801190E+01 -0.98179076075E+01 -0.59315879317E+02  0.60458914702E+02  0.00000000000E+00 0.  1.
<mgrwt>
<rscale>  0 0.54519944E+02</rscale>
<asrwt>0</asrwt>
<pdfrwt beam="1">  1        2 0.29280834E-01 0.91061826E+02</pdfrwt>
<pdfrwt beam="2">  1       -2 0.25330175E-02 0.91061826E+02</pdfrwt>
<totfact> 0.84174043E+04</totfact>
</mgrwt>
</event>
<event>
 6    1  0.1727544E-002  0.9444848E+02  0.7546771E-02  0.1369939E+00
         -2   -1    0    0    0  501 -0.00000000000E+00  0.00000000000E+00  0.31619337226E+02  0.31619337226E+02  0.00000000000E+00 0.  1.
          2   -1    0    0  501    0  0.00000000000E+00 -0.00000000000E+00 -0.12479556334E+03  0.12479556334E+03  0.00000000000E+00 0. -1.
         23    2    1    2    0    0 -0.17626690106E+02  0.16553981265E+02 -0.49848301955E+02  0.10679591718E+03  0.91300494082E+02 0.  0.
         13    1    3    3    0    0  0.87835876788E+01  0.26162561178E+02  0.18277223187E+02  0.33101176827E+02  0.00000000000E+00 0.  1.
        -13    1    3    3    0    0 -0.26410277784E+02 -0.96085799127E+01 -0.68125525142E+02  0.73694740358E+02  0.00000000000E+00 0. -1.
         22    1    1    2    0    0  0.17626690106E+02 -0.16553981265E+02 -0.43327924156E+02  0.49618983378E+02  0.00000000000E+00 0.  1.
<mgrwt>
<rscale>  0 0.67184031E+02</rscale>
<asrwt>0</asrwt>
<pdfrwt beam="1">  1        2 0.19199317E-01 0.94448477E+02</pdfrwt>
<pdfrwt beam="2">  1       -2 0.48645135E-02 0.94448477E+02</pdfrwt>
<totfact> 0.51699250E+04</totfact>
</mgrwt>
</event>
<event>
 6    1  0.1727544E-002  0.9210029E+02  0.7546771E-02  0.1393785E+00
         -2   -1    0    0    0  501 -0.00000000000E+00  0.00000000000E+00  0.74632400439E+02  0.74632400439E+02  0.00000000000E+00 0.  1.
          2   -1    0    0  501    0  0.00000000000E+00 -0.00000000000E+00 -0.40768549628E+02  0.40768549628E+02  0.00000000000E+00 0. -1.
         23    2    1    2    0    0  0.15664179544E+02 -0.82285007101E+01  0.32453654618E+02  0.97650924770E+02  0.90384670524E+02 0.  0.
         11    1    3    3    0    0  0.17932498897E+02  0.66865674464E+01  0.61777302590E+02  0.64673950058E+02  0.00000000000E+00 0.  1.
        -11    1    3    3    0    0 -0.22683193524E+01 -0.14915068157E+02 -0.29323647972E+02  0.32976974712E+02  0.00000000000E+00 0. -1.
         22    1    1    2    0    0 -0.15664179544E+02  0.82285007101E+01  0.14101961933E+01  0.17750025297E+02  0.00000000000E+00 0.  1.
<mgrwt>
<rscale>  0 0.60974992E+02</rscale>
<asrwt>0</asrwt>
<pdfrwt beam="1">  1        2 0.62720846E-02 0.92100290E+02</pdfrwt>
<pdfrwt beam="2">  1       -2 0.11481908E-01 0.92100290E+02</pdfrwt>
<totfact> 0.53187096E+04</totfact>
</mgrwt>
</event>
<event>
 6    1  0.1727544E-002  0.9463834E+02  0.7546771E-02  0.1381657E+00
         -1   -1    0    0    0  501 -0.00000000000E+00  0.00000000000E+00  0.89057852920E+01  0.89057852920E+01  0.00000000000E+00 0.  1.
          1   -1    0    0  501    0  0.00000000000E+00 -0.00000000000E+00 -0.36852324724E+03  0.36852324724E+03  0.00000000000E+00 0. -1.
         23    2    1    2    0    0  0.61518733990E+01  0.18852278811E+02 -0.29088113447E+03  0.30588927661E+03  0.92537350242E+02 0.  0.
         13    1    3    3    0    0  0.48035771073E+02  0.62599982179E+01 -0.18709072095E+03  0.19326034448E+03  0.00000000000E+00 0. -1.
        -13    1    3    3    0    0 -0.41883897674E+02  0.12592280593E+02 -0.10379041352E+03  0.11262893213E+03  0.00000000000E+00 0.  1.
         22    1    1    2    0    0 -0.61518733990E+01 -0.18852278811E+02 -0.68736327475E+02  0.71539755922E+02  0.00000000000E+00 0. -1.
<mgrwt>
<rscale>  0 0.64030143E+02</rscale>
<asrwt>0</asrwt>
<pdfrwt beam="1">  1        1 0.56695895E-01 0.94638339E+02</pdfrwt>
<pdfrwt beam="2">  1       -1 0.13701206E-02 0.94638339E+02</pdfrwt>
<totfact> 0.70134701E+04</totfact>
</mgrwt>
</event>
<event>
 6    1  0.1727544E-002  0.9573869E+02  0.7546771E-02  0.1358696E+00
          2   -1    0    0  501    0  0.00000000000E+00  0.00000000000E+00  0.54477716301E+03  0.54477716301E+03  0.00000000000E+00 0. -1.
         -2   -1    0    0    0  501 -0.00000000000E+00 -0.00000000000E+00 -0.70300416147E+01  0.70300416147E+01  0.00000000000E+00 0.  1.
         23    2    1    2    0    0  0.16509315068E+02  0.22629434308E+02  0.41176495831E+03  0.42274848079E+03  0.91549158055E+02 0.  0.
         13    1    3    3    0    0  0.21396893720E+02  0.12580236188E+02  0.41078131645E+03  0.41153053271E+03  0.00000000000E+00 0. -1.
        -13    1    3    3    0    0 -0.48875786514E+01  0.10049198120E+02  0.98364185436E+00  0.11217948084E+02  0.00000000000E+00 0.  1.
         22    1    1    2    0    0 -0.16509315068E+02 -0.22629434308E+02  0.12598216308E+03  0.12905872383E+03  0.00000000000E+00 0.  1.
<mgrwt>
<rscale>  0 0.70412543E+02</rscale>
<asrwt>0</asrwt>
<pdfrwt beam="1">  1        2 0.83811838E-01 0.95738692E+02</pdfrwt>
<pdfrwt beam="2">  1       -2 0.10815453E-02 0.95738692E+02</pdfrwt>
<totfact> 0.94125817E+04</totfact>
</mgrwt>
</event>
<event>
 6    1  0.1727544E-002  0.9025315E+02  0.7546771E-02  0.1424998E+00
          1   -1    0    0  501    0  0.00000000000E+00  0.00000000000E+00  0.92249405710E+02  0.92249405710E+02  0.00000000000E+00 0. -1.
         -1   -1    0    0    0  501 -0.00000000000E+00 -0.00000000000E+00 -0.41996548180E+02  0.41996548180E+02  0.00000000000E+00 0.  1.
         23    2    1    2    0    0 -0.11526587948E+02 -0.68056950279E+00  0.81864992747E+01  0.90623667138E+02  0.89511478988E+02 0.  0.
         13    1    3    3    0    0 -0.43718982162E+02  0.17565550584E+02 -0.11795017024E+02  0.48569747737E+02  0.00000000000E+00 0.  1.
        -13    1    3    3    0    0  0.32192394214E+02 -0.18246120087E+02  0.19981516299E+02  0.42053919402E+02  0.00000000000E+00 0. -1.
         22    1    1    2    0    0  0.11526587948E+02  0.68056950279E+00  0.42066358256E+02  0.43622286752E+02  0.00000000000E+00 0. -1.
<mgrwt>
<rscale>  0 0.53977265E+02</rscale>
<asrwt>0</asrwt>
<pdfrwt beam="1">  1        1 0.14192216E-01 0.90253146E+02</pdfrwt>
<pdfrwt beam="2">  1       -1 0.64610074E-02 0.90253146E+02</pdfrwt>
<totfact> 0.41434886E+04</totfact>
</mgrwt>
</event>
<event>
 6    1  0.1727544E-002  0.9226077E+02  0.7546771E-02  0.1423090E+00
          2   -1    0    0  501    0  0.00000000000E+00  0.00000000000E+00  0.61480068369E+02  0.61480068369E+02  0.00000000000E+00 0. -1.
         -2   -1    0    0    0  501 -0.00000000000E+00 -0.00000000000E+00 -0.45026659844E+02  0.45026659844E+02  0.00000000000E+00 0.  1.
         23    2    1    2    0    0 -0.27622629026E+01 -0.10780968016E+02  0.81475875574E+01  0.92619826843E+02  0.91587061170E+02 0.  0.
         11    1    3    3    0    0 -0.45217489511E+02  0.62362449869E+01  0.10438099191E+02  0.46823776268E+02  0.00000000000E+00 0.  1.
        -11    1    3    3    0    0  0.42455226609E+02 -0.17017213003E+02 -0.22905116332E+01  0.45796050576E+02  0.00000000000E+00 0. -1.
         22    1    1    2    0    0  0.27622629026E+01  0.10780968016E+02  0.83058209677E+01  0.13886901369E+02  0.00000000000E+00 0. -1.
<mgrwt>
<rscale>  0 0.54372450E+02</rscale>
<asrwt>0</asrwt>
<pdfrwt beam="1">  1        2 0.94584720E-02 0.92260767E+02</pdfrwt>
<pdfrwt beam="2">  1       -2 0.69271784E-02 0.92260767E+02</pdfrwt>
<totfact> 0.69559085E+04</totfact>
</mgrwt>
</event>
<event>
 6    1  0.1727544E-002  0.9492080E+02  0.7546771E-02  0.1378134E+00
         -2   -1    0    0    0  501 -0.00000000000E+00  0.00000000000E+00  0.13545440307E+03  0.13545440307E+03  0.00000000000E+00 0. -1.
          2   -1    0    0  501    0  0.00000000000E+00 -0.00000000000E+00 -0.24862687547E+02  0.24862687547E+02  0.00000000000E+00 0.  1.
         23    2    1    2    0    0  0.16560210361E+02  0.12613430782E+02  0.95130437633E+02  0.13438660051E+03  0.92610037408E+02 0.  0.
         13    1    3    3    0    0 -0.37485620333E+02  0.12663106137E+02  0.51396849806E+02  0.64862640701E+02  0.00000000000E+00 0.  1.
        -13    1    3    3    0    0  0.54045830694E+02 -0.49675354892E-01  0.43733587828E+02  0.69523959808E+02  0.00000000000E+00 0. -1.
         22    1    1    2    0    0 -0.16560210361E+02 -0.12613430782E+02  0.15461277893E+02  0.25930490111E+02  0.00000000000E+00 0. -1.
<mgrwt>
<rscale>  0 0.64956788E+02</rscale>
<asrwt>0</asrwt>
<pdfrwt beam="1">  1        2 0.38250289E-02 0.94920800E+02</pdfrwt>
<pdfrwt beam="2">  1       -2 0.20839139E-01 0.94920800E+02</pdfrwt>
<totfact> 0.38372772E+04</totfact>
</mgrwt>
</event>
<event>
 6    1  0.1727544E-002  0.9633903E+02  0.7546771E-02  0.1312266E+00
          2   -1    0    0  501    0  0.00000000000E+00  0.00000000000E+00  0.23278849450E+03  0.23278849450E+03  0.00000000000E+00 0. -1.
         -2   -1    0    0    0  501 -0.00000000000E+00 -0.00000000000E+00 -0.19484551376E+03  0.19484551376E+03  0.00000000000E+00 0.  1.
         23    2    1    2    0    0 -0.59563560523E+02 -0.16524122418E+02 -0.17833655112E+03  0.20269468251E+03  0.73894143796E+02 0.  0.
         13    1    3    3    0    0 -0.47727102019E+02  0.90858145020E+01 -0.44391405780E+02  0.65810524990E+02  0.00000000000E+00 0.  1.
        -13    1    3    3    0    0 -0.11836458504E+02 -0.25609936920E+02 -0.13394514534E+03  0.13688415752E+03  0.00000000000E+00 0. -1.
         22    1    1    2    0    0  0.59563560523E+02  0.16524122418E+02  0.21627953187E+03  0.22493932575E+03  0.00000000000E+00 0. -1.
<mgrwt>
<rscale>  0 0.86222757E+02</rscale>
<asrwt>0</asrwt>
<pdfrwt beam="1">  1        2 0.35813615E-01 0.96339031E+02</pdfrwt>
<pdfrwt beam="2">  1       -2 0.29976233E-01 0.96339031E+02</pdfrwt>
<totfact> 0.14317943E+03</totfact>
</mgrwt>
</event>
<event>
 6    1  0.1727544E-002  0.9325396E+02  0.7546771E-02  0.1402158E+00
          2   -1    0    0  501    0  0.00000000000E+00  0.00000000000E+00  0.92597161231E+02  0.92597161231E+02  0.00000000000E+00 0. -1.
         -2   -1    0    0    0  501 -0.00000000000E+00 -0.00000000000E+00 -0.31594652344E+02  0.31594652344E+02  0.00000000000E+00 0.  1.
         23    2    1    2    0    0  0.46313322908E+01 -0.14185879565E+02  0.52712049415E+02  0.10712078150E+03  0.92052231141E+02 0.  0.
         11    1    3    3    0    0 -0.14361414912E+02 -0.10680713441E+02 -0.22909517176E+02  0.29071873952E+02  0.00000000000E+00 0.  1.
        -11    1    3    3    0    0  0.18992747203E+02 -0.35051661243E+01  0.75621566591E+02  0.78048907549E+02  0.00000000000E+00 0. -1.
         22    1    1    2    0    0 -0.46313322908E+01  0.14185879565E+02  0.82904594714E+01  0.17071032074E+02  0.00000000000E+00 0.  1.
<mgrwt>
<rscale>  0 0.58981074E+02</rscale>
<asrwt>0</asrwt>
<pdfrwt beam="1">  1        2 0.14245717E-01 0.93253963E+02</pdfrwt>
<pdfrwt beam="2">  1       -2 0.48607158E-02 0.93253963E+02</pdfrwt>
<totfact> 0.72693745E+04</totfact>
</mgrwt>
</event>
<event>
 6    1  0.1727544E-002  0.9274798E+02  0.7546771E-02  0.1404774E+00
         -1   -1    0    0    0  501 -0.00000000000E+00  0.00000000000E+00  0.36044843744E+02  0.36044843744E+02  0.00000000000E+00 0.  1.
          1   -1    0    0  501    0  0.00000000000E+00 -0.00000000000E+00 -0.85804626605E+02  0.85804626605E+02  0.00000000000E+00 0. -1.
         23    2    1    2    0    0 -0.14554403161E+02  0.20360933716E+00 -0.53158815119E+02  0.10690204487E+03  0.91598665190E+02 0.  0.
         11    1    3    3    0    0 -0.14747080764E+01 -0.24952200706E+02  0.17668922588E+02  0.30610094894E+02  0.00000000000E+00 0.  1.
        -11    1    3    3    0    0 -0.13079695085E+02  0.25155810044E+02 -0.70827737707E+02  0.76291949976E+02  0.00000000000E+00 0. -1.
         22    1    1    2    0    0  0.14554403161E+02 -0.20360933716E+00  0.33990322575E+01  0.14947425478E+02  0.00000000000E+00 0.  1.
<mgrwt>
<rscale>  0 0.58376434E+02</rscale>
<asrwt>0</asrwt>
<pdfrwt beam="1">  1        1 0.13200712E-01 0.92747979E+02</pdfrwt>
<pdfrwt beam="2">  1       -1 0.55453606E-02 0.92747979E+02</pdfrwt>
<totfact> 0.57181487E+04</totfact>
</mgrwt>
</event>
<event>
 6    1  0.1727544E-002  0.9264607E+02  0.7546771E-02  0.1414006E+00
         -2   -1    0    0    0  501 -0.00000000000E+00  0.00000000000E+00  0.49718343194E+01  0.49718343194E+01  0.00000000000E+00 0.  1.
          2   -1    0    0  501    0  0.00000000000E+00 -0.00000000000E+00 -0.55869102806E+03  0.55869102806E+03  0.00000000000E+00 0. -1.
         23    2    1    2    0    0 -0.65636484830E+01  0.10805585960E+02 -0.49547893687E+03  0.50406613689E+03  0.91779362072E+02 0.  0.
         11    1    3    3    0    0 -0.32245358829E+02  0.17306137254E+02 -0.44960803262E+03  0.45109494405E+03  0.00000000000E+00 0. -1.
        -11    1    3    3    0    0  0.25681710346E+02 -0.65005512940E+01 -0.45870904253E+02  0.52971192835E+02  0.00000000000E+00 0.  1.
         22    1    1    2    0    0  0.65636484830E+01 -0.10805585960E+02 -0.58240256862E+02  0.59596725486E+02  0.00000000000E+00 0. -1.
<mgrwt>
<rscale>  0 0.56309498E+02</rscale>
<asrwt>0</asrwt>
<pdfrwt beam="1">  1        2 0.85952396E-01 0.92646066E+02</pdfrwt>
<pdfrwt beam="2">  1       -2 0.76489821E-03 0.92646066E+02</pdfrwt>
<totfact> 0.14873659E+05</totfact>
</mgrwt>
</event>
<event>
 6    1  0.1727544E-002  0.1001309E+03  0.7546771E-02  0.1391476E+00
         -2   -1    0    0    0  501 -0.00000000000E+00  0.00000000000E+00  0.75075634026E+03  0.75075634026E+03  0.00000000000E+00 0.  1.
          2   -1    0    0  501    0  0.00000000000E+00 -0.00000000000E+00 -0.60133345074E+01  0.60133345074E+01  0.00000000000E+00 0. -1.
         23    2    1    2    0    0 -0.14205473861E+02  0.15294719582E+01  0.72758103253E+03  0.73443879711E+03  0.99106271391E+02 0.  0.
         13    1    3    3    0    0 -0.38297212500E+01 -0.38916328975E+02  0.13949804140E+03  0.14487529458E+03  0.00000000000E+00 0.  1.
        -13    1    3    3    0    0 -0.10375752611E+02  0.40445800933E+02  0.58808299113E+03  0.58956350253E+03  0.00000000000E+00 0. -1.
         22    1    1    2    0    0  0.14205473861E+02 -0.15294719582E+01  0.17161973219E+02  0.22330877655E+02  0.00000000000E+00 0. -1.
<mgrwt>
<rscale>  0 0.61541144E+02</rscale>
<asrwt>0</asrwt>
<pdfrwt beam="1">  1        2 0.92512898E-03 0.10013085E+03</pdfrwt>
<pdfrwt beam="2">  1       -2 0.11550090E+00 0.10013085E+03</pdfrwt>
<totfact> 0.88479280E+03</totfact>
</mgrwt>
</event>
<event>
 6    1  0.1727544E-002  0.9136238E+02  0.7546771E-02  0.1388840E+00
          1   -1    0    0  501    0  0.00000000000E+00  0.00000000000E+00  0.32590536686E+02  0.32590536686E+02  0.00000000000E+00 0. -1.
         -1   -1    0    0    0  501 -0.00000000000E+00 -0.00000000000E+00 -0.14191609612E+03  0.14191609612E+03  0.00000000000E+00 0.  1.
         23    2    1    2    0    0  0.15482566558E+01 -0.19561191850E+02 -0.12104256251E+03  0.15165219152E+03  0.89230308340E+02 0.  0.
         13    1    3    3    0    0 -0.25546073025E+02  0.27201967127E+02 -0.49283379941E+02  0.61817476501E+02  0.00000000000E+00 0. -1.
        -13    1    3    3    0    0  0.27094329681E+02 -0.46763158976E+02 -0.71759182573E+02  0.89834715015E+02  0.00000000000E+00 0.  1.
         22    1    1    2    0    0 -0.15482566558E+01  0.19561191850E+02  0.11717003084E+02  0.22854441287E+02  0.00000000000E+00 0. -1.
<mgrwt>
<rscale>  0 0.62196139E+02</rscale>
<asrwt>0</asrwt>
<pdfrwt beam="1">  1        1 0.50139287E-02 0.91362384E+02</pdfrwt>
<pdfrwt beam="2">  1       -1 0.21833246E-01 0.91362384E+02</pdfrwt>
<totfact> 0.25424684E+04</totfact>
</mgrwt>
</event>
<event>
 6    1  0.1727544E-002  0.8421986E+02  0.7546771E-02  0.1442122E+00
         -3   -1    0    0    0  501 -0.00000000000E+00  0.00000000000E+00  0.23048050986E+03  0.23048050986E+03  0.00000000000E+00 0.  1.
          3   -1    0    0  501    0  0.00000000000E+00 -0.00000000000E+00 -0.98333361725E+01  0.98333361725E+01  0.00000000000E+00 0. -1.
         23    2    1    2    0    0 -0.15739346165E+01 -0.10861979327E+02  0.19368305014E+03  0.21120158361E+03  0.83501647528E+02 0.  0.
         11    1    3    3    0    0 -0.40802299362E+00 -0.31595861857E+02  0.22565873139E+02  0.38828901604E+02  0.00000000000E+00 0. -1.
        -11    1    3    3    0    0 -0.11659116228E+01  0.20733882530E+02  0.17111717700E+03  0.17237268200E+03  0.00000000000E+00 0.  1.
         22    1    1    2    0    0  0.15739346165E+01  0.10861979327E+02  0.26964123546E+02  0.29112262428E+02  0.00000000000E+00 0. -1.
<mgrwt>
<rscale>  0 0.50601826E+02</rscale>
<asrwt>0</asrwt>
<pdfrwt beam="1">  1        3 0.15128211E-02 0.84219861E+02</pdfrwt>
<pdfrwt beam="2">  1       -3 0.35458536E-01 0.84219861E+02</pdfrwt>
<totfact> 0.22857153E+04</totfact>
</mgrwt>
</event>
<event>
 6    1  0.1727544E-002  0.9507952E+02  0.7546771E-02  0.1362775E+00
         -2   -1    0    0    0  501 -0.00000000000E+00  0.00000000000E+00  0.13362950670E+03  0.13362950670E+03  0.00000000000E+00 0.  1.
          2   -1    0    0  501    0  0.00000000000E+00 -0.00000000000E+00 -0.28037911022E+02  0.28037911022E+02  0.00000000000E+00 0. -1.
         23    2    1    2    0    0  0.22712182342E+02  0.14047857939E+02  0.75307443928E+02  0.12129025355E+03  0.91252007955E+02 0.  0.
         11    1    3    3    0    0  0.49301504753E+02  0.88105573453E+01  0.10676979982E+02  0.51208028601E+02  0.00000000000E+00 0. -1.
        -11    1    3    3    0    0 -0.26589322412E+02  0.52373005934E+01  0.64630463947E+02  0.70082224949E+02  0.00000000000E+00 0.  1.
         22    1    1    2    0    0 -0.22712182342E+02 -0.14047857939E+02  0.30284151746E+02  0.40377164170E+02  0.00000000000E+00 0.  1.
<mgrwt>
<rscale>  0 0.69217441E+02</rscale>
<asrwt>0</asrwt>
<pdfrwt beam="1">  1        2 0.43135249E-02 0.95079517E+02</pdfrwt>
<pdfrwt beam="2">  1       -2 0.20558385E-01 0.95079517E+02</pdfrwt>
<totfact> 0.33553418E+04</totfact>
</mgrwt>
</event>
<event>
 6    1  0.1727544E-002  0.9098414E+02  0.7546771E-02  0.1415836E+00
         -2   -1    0    0    0  501 -0.00000000000E+00  0.00000000000E+00  0.33487450671E+02  0.33487450671E+02  0.00000000000E+00 0. -1.
          2   -1    0    0  501    0  0.00000000000E+00 -0.00000000000E+00 -0.82484340136E+02  0.82484340136E+02  0.00000000000E+00 0.  1.
         23    2    1    2    0    0 -0.11272507632E+02 -0.64255423804E+01 -0.36737856905E+02  0.98121275338E+02  0.90054192133E+02 0.  0.
         13    1    3    3    0    0  0.36640326930E+02  0.97897386642E+01 -0.46258157972E+01  0.38206684133E+02  0.00000000000E+00 0. -1.
        -13    1    3    3    0    0 -0.47912834562E+02 -0.16215281045E+02 -0.32112041108E+02  0.59914591205E+02  0.00000000000E+00 0.  1.
         22    1    1    2    0    0  0.11272507632E+02  0.64255423804E+01 -0.12259032560E+02  0.17850515469E+02  0.00000000000E+00 0. -1.
<mgrwt>
<rscale>  0 0.55911764E+02</rscale>
<asrwt>0</asrwt>
<pdfrwt beam="1">  1        2 0.12689898E-01 0.90984144E+02</pdfrwt>
<pdfrwt beam="2">  1       -2 0.51519155E-02 0.90984144E+02</pdfrwt>
<totfact> 0.76075899E+04</totfact>
</mgrwt>
</event>
<event>
 6    1  0.1727544E-002  0.9286758E+02  0.7546771E-02  0.1396207E+00
         -1   -1    0    0    0  501 -0.00000000000E+00  0.00000000000E+00  0.60597260900E+03  0.60597260900E+03  0.00000000000E+00 0.  1.
          1   -1    0    0  501    0  0.00000000000E+00 -0.00000000000E+00 -0.70479348728E+01  0.70479348728E+01  0.00000000000E+00 0. -1.
         23    2    1    2    0    0  0.16091139364E+02 -0.40988102166E+01  0.58180763134E+03  0.58917273129E+03  0.91371015090E+02 0.  0.
         13    1    3    3    0    0  0.28367871366E+02  0.29850354771E+02  0.14102896401E+03  0.14691816938E+03  0.00000000000E+00 0.  1.
        -13    1    3    3    0    0 -0.12276732002E+02 -0.33949164987E+02  0.44077866733E+03  0.44225456190E+03  0.00000000000E+00 0. -1.
         22    1    1    2    0    0 -0.16091139364E+02  0.40988102166E+01  0.17117042789E+02  0.23847812584E+02  0.00000000000E+00 0. -1.
<mgrwt>
<rscale>  0 0.60388969E+02</rscale>
<asrwt>0</asrwt>
<pdfrwt beam="1">  1        1 0.10842982E-02 0.92867580E+02</pdfrwt>
<pdfrwt beam="2">  1       -1 0.93226514E-01 0.92867580E+02</pdfrwt>
<totfact> 0.15255507E+04</totfact>
</mgrwt>
</event>
<event>
 6    1  0.1727544E-002  0.9676441E+02  0.7546771E-02  0.1389432E+00
         -1   -1    0    0    0  501 -0.00000000000E+00  0.00000000000E+00  0.24315228278E+02  0.24315228278E+02  0.00000000000E+00 0.  1.
          1   -1    0    0  501    0  0.00000000000E+00 -0.00000000000E+00 -0.13788378567E+03  0.13788378567E+03  0.00000000000E+00 0. -1.
         23    2    1    2    0    0 -0.93759900962E+01 -0.13405961856E+02 -0.10778341397E+03  0.14484687033E+03  0.95371497396E+02 0.  0.
         13    1    3    3    0    0  0.12575706943E+02 -0.50864903847E+02 -0.68927576751E+02  0.86581739906E+02  0.00000000000E+00 0. -1.
        -13    1    3    3    0    0 -0.21951697039E+02  0.37458941990E+02 -0.38855837217E+02  0.58265130428E+02  0.00000000000E+00 0.  1.
         22    1    1    2    0    0  0.93759900962E+01  0.13405961856E+02 -0.57851434251E+01  0.17352143615E+02  0.00000000000E+00 0.  1.
<mgrwt>
<rscale>  0 0.62048087E+02</rscale>
<asrwt>0</asrwt>
<pdfrwt beam="1">  1        1 0.21212890E-01 0.96764412E+02</pdfrwt>
<pdfrwt beam="2">  1       -1 0.37408044E-02 0.96764412E+02</pdfrwt>
<totfact> 0.55919454E+04</totfact>
</mgrwt>
</event>
<event>
 6    1  0.1727544E-002  0.1157776E+03  0.7546771E-02  0.1275051E+00
          1   -1    0    0  501    0  0.00000000000E+00  0.00000000000E+00  0.20087982637E+03  0.20087982637E+03  0.00000000000E+00 0. -1.
         -1   -1    0    0    0  501 -0.00000000000E+00 -0.00000000000E+00 -0.43746038870E+02  0.43746038870E+02  0.00000000000E+00 0.  1.
         23    2    1    2    0    0  0.70830413600E+02  0.74900424931E+01  0.10570738578E+03  0.15677529313E+03  0.91276464100E+02 0.  0.
         11    1    3    3    0    0 -0.21219518073E+02 -0.67963334629E+01  0.15820296938E+02  0.27326541877E+02  0.00000000000E+00 0. -1.
        -11    1    3    3    0    0  0.92049931673E+02  0.14286375956E+02  0.89887088844E+02  0.12944875125E+03  0.00000000000E+00 0.  1.
         22    1    1    2    0    0 -0.70830413600E+02 -0.74900424931E+01  0.51426401723E+02  0.87850572118E+02  0.00000000000E+00 0. -1.
<mgrwt>
<rscale>  0 0.10253612E+03</rscale>
<asrwt>0</asrwt>
<pdfrwt beam="1">  1        1 0.30904588E-01 0.11577755E+03</pdfrwt>
<pdfrwt beam="2">  1       -1 0.67301599E-02 0.11577755E+03</pdfrwt>
<totfact> 0.15075130E+04</totfact>
</mgrwt>
</event>
<event>
 6    1  0.1727544E-002  0.9179670E+02  0.7546771E-02  0.1414436E+00
          2   -1    0    0  501    0  0.00000000000E+00  0.00000000000E+00  0.48633230629E+02  0.48633230629E+02  0.00000000000E+00 0.  1.
         -2   -1    0    0    0  501 -0.00000000000E+00 -0.00000000000E+00 -0.61009922262E+02  0.61009922262E+02  0.00000000000E+00 0. -1.
         23    2    1    2    0    0 -0.94399242657E+01  0.88073933206E+01 -0.20934909988E+02  0.94153625828E+02  0.90884280561E+02 0.  0.
         13    1    3    3    0    0  0.40775146193E+01  0.48737775730E+02 -0.17149734579E+02  0.51827698239E+02  0.00000000000E+00 0.  1.
        -13    1    3    3    0    0 -0.13517438885E+02 -0.39930382410E+02 -0.37851754086E+01  0.42325927589E+02  0.00000000000E+00 0. -1.
         22    1    1    2    0    0  0.94399242657E+01 -0.88073933206E+01  0.85582183545E+01  0.15489527064E+02  0.00000000000E+00 0.  1.
<mgrwt>
<rscale>  0 0.56215557E+02</rscale>
<asrwt>0</asrwt>
<pdfrwt beam="1">  1        2 0.74820355E-02 0.91796704E+02</pdfrwt>
<pdfrwt beam="2">  1       -2 0.93861419E-02 0.91796704E+02</pdfrwt>
<totfact> 0.58320568E+04</totfact>
</mgrwt>
</event>
<event>
 6    1  0.1727544E-002  0.9012704E+02  0.7546771E-02  0.1399522E+00
         -2   -1    0    0    0  501 -0.00000000000E+00  0.00000000000E+00  0.26099196844E+02  0.26099196844E+02  0.00000000000E+00 0.  1.
          2   -1    0    0  501    0  0.00000000000E+00 -0.00000000000E+00 -0.13409206659E+03  0.13409206659E+03  0.00000000000E+00 0. -1.
         23    2    1    2    0    0  0.16738358358E+02  0.41047687980E+01 -0.57669066011E+02  0.10699815307E+03  0.88463901220E+02 0.  0.
         11    1    3    3    0    0  0.25277672280E+02 -0.76194394765E+01 -0.77816333296E+02  0.82172977928E+02  0.00000000000E+00 0. -1.
        -11    1    3    3    0    0 -0.85393139214E+01  0.11724208275E+02  0.20147267286E+02  0.24825175145E+02  0.00000000000E+00 0.  1.
         22    1    1    2    0    0 -0.16738358358E+02 -0.41047687980E+01 -0.50323803733E+02  0.53193110358E+02  0.00000000000E+00 0. -1.
<mgrwt>
<rscale>  0 0.59599123E+02</rscale>
<asrwt>0</asrwt>
<pdfrwt beam="1">  1        2 0.20629548E-01 0.90127041E+02</pdfrwt>
<pdfrwt beam="2">  1       -2 0.40152611E-02 0.90127041E+02</pdfrwt>
<totfact> 0.62938362E+04</totfact>
</mgrwt>
</event>
<event>
 6    1  0.1727544E-002  0.8529126E+02  0.7546771E-02  0.1440628E+00
          2   -1    0    0  501    0  0.00000000000E+00  0.00000000000E+00  0.11182578446E+03  0.11182578446E+03  0.00000000000E+00 0. -1.
         -2   -1    0    0    0  501 -0.00000000000E+00 -0.00000000000E+00 -0.33666454241E+02  0.33666454241E+02  0.00000000000E+00 0.  1.
         23    2    1    2    0    0  0.48009892025E+01  0.96800329659E+01  0.21700278479E+02  0.88008527453E+02  0.84604055948E+02 0.  0.
         13    1    3    3    0    0 -0.33936101874E+02  0.25822458546E+02  0.16488847564E+02  0.45720241358E+02  0.00000000000E+00 0. -1.
        -13    1    3    3    0    0  0.38737091077E+02 -0.16142425580E+02  0.52114309147E+01  0.42288286095E+02  0.00000000000E+00 0.  1.
         22    1    1    2    0    0 -0.48009892025E+01 -0.96800329659E+01  0.56459051739E+02  0.57483711248E+02  0.00000000000E+00 0.  1.
<mgrwt>
<rscale>  0 0.50884637E+02</rscale>
<asrwt>0</asrwt>
<pdfrwt beam="1">  1        2 0.17203967E-01 0.85291259E+02</pdfrwt>
<pdfrwt beam="2">  1       -2 0.51794546E-02 0.85291259E+02</pdfrwt>
<totfact> 0.52566622E+04</totfact>
</mgrwt>
</event>
<event>
 6    1  0.1727544E-002  0.9076490E+02  0.7546771E-02  0.1419749E+00
         -2   -1    0    0    0  501 -0.00000000000E+00  0.00000000000E+00  0.12015527373E+03  0.12015527373E+03  0.00000000000E+00 0.  1.
          2   -1    0    0  501    0  0.00000000000E+00 -0.00000000000E+00 -0.22926366358E+02  0.22926366358E+02  0.00000000000E+00 0. -1.
         23    2    1    2    0    0  0.26278813626E+01 -0.12019804778E+02  0.75286325900E+02  0.11792496406E+03  0.89927108330E+02 0.  0.
         13    1    3    3    0    0  0.50472878565E+01  0.38826608263E+02  0.40094383202E+02  0.56040522733E+02  0.00000000000E+00 0. -1.
        -13    1    3    3    0    0 -0.24194064939E+01 -0.50846413040E+02  0.35191942699E+02  0.61884441322E+02  0.00000000000E+00 0.  1.
         22    1    1    2    0    0 -0.26278813626E+01  0.12019804778E+02  0.21942581472E+02  0.25156676033E+02  0.00000000000E+00 0.  1.
<mgrwt>
<rscale>  0 0.55074115E+02</rscale>
<asrwt>0</asrwt>
<pdfrwt beam="1">  1        2 0.35271333E-02 0.90764896E+02</pdfrwt>
<pdfrwt beam="2">  1       -2 0.18485426E-01 0.90764896E+02</pdfrwt>
<totfact> 0.51839928E+04</totfact>
</mgrwt>
</event>
<event>
 6    1  0.1727544E-002  0.9075006E+02  0.7546771E-02  0.1419954E+00
         -2   -1    0    0    0  501 -0.00000000000E+00  0.00000000000E+00  0.74229172289E+02  0.74229172289E+02  0.00000000000E+00 0. -1.
          2   -1    0    0  501    0  0.00000000000E+00 -0.00000000000E+00 -0.39608964747E+02  0.39608964747E+02  0.00000000000E+00 0.  1.
         23    2    1    2    0    0 -0.10355552786E+02  0.65830594250E+01  0.41479376869E+02  0.99780315414E+02  0.89916619675E+02 0.  0.
         13    1    3    3    0    0  0.16566873845E+02 -0.34993735734E+02  0.67881713632E+01  0.39307787016E+02  0.00000000000E+00 0.  1.
        -13    1    3    3    0    0 -0.26922426631E+02  0.41576795159E+02  0.34691205506E+02  0.60472528398E+02  0.00000000000E+00 0. -1.
         22    1    1    2    0    0  0.10355552786E+02 -0.65830594250E+01 -0.68591693267E+01  0.14057821622E+02  0.00000000000E+00 0.  1.
<mgrwt>
<rscale>  0 0.55030566E+02</rscale>
<asrwt>0</asrwt>
<pdfrwt beam="1">  1        2 0.60936869E-02 0.90750056E+02</pdfrwt>
<pdfrwt beam="2">  1       -2 0.11419873E-01 0.90750056E+02</pdfrwt>
<totfact> 0.55525786E+04</totfact>
</mgrwt>
</event>
<event>
 6    1  0.1727544E-002  0.9348934E+02  0.7546771E-02  0.1426610E+00
         -1   -1    0    0    0  501 -0.00000000000E+00  0.00000000000E+00  0.79956099454E+01  0.79956099454E+01  0.00000000000E+00 0.  1.
          1   -1    0    0  501    0  0.00000000000E+00 -0.00000000000E+00 -0.33699516492E+03  0.33699516492E+03  0.00000000000E+00 0. -1.
         23    2    1    2    0    0 -0.90838059919E+01  0.44975973469E+01 -0.29009337584E+03  0.30478586611E+03  0.92938224434E+02 0.  0.
         13    1    3    3    0    0  0.12358839702E+02  0.42822160364E+02 -0.19519579364E+03  0.20021956995E+03  0.00000000000E+00 0. -1.
        -13    1    3    3    0    0 -0.21442645694E+02 -0.38324563017E+02 -0.94897582201E+02  0.10456629616E+03  0.00000000000E+00 0.  1.
         22    1    1    2    0    0  0.90838059919E+01 -0.44975973469E+01 -0.38906179142E+02  0.40204908763E+02  0.00000000000E+00 0. -1.
<mgrwt>
<rscale>  0 0.53646464E+02</rscale>
<asrwt>0</asrwt>
<pdfrwt beam="1">  1        1 0.51845401E-01 0.93489344E+02</pdfrwt>
<pdfrwt beam="2">  1       -1 0.12300941E-02 0.93489344E+02</pdfrwt>
<totfact> 0.91075482E+04</totfact>
</mgrwt>
</event>
<event>
 6    1  0.1727544E-002  0.9161246E+02  0.7546771E-02  0.1384544E+00
         -2   -1    0    0    0  501 -0.00000000000E+00  0.00000000000E+00  0.24577639699E+03  0.24577639699E+03  0.00000000000E+00 0.  1.
          2   -1    0    0  501    0  0.00000000000E+00 -0.00000000000E+00 -0.63978322809E+02  0.63978322809E+02  0.00000000000E+00 0. -1.
         23    2    1    2    0    0 -0.34786504203E+01  0.20568080244E+02  0.23520589826E+03  0.25241762355E+03  0.89205914429E+02 0.  0.
         11    1    3    3    0    0 -0.26227142982E+02 -0.27750836827E+02  0.10085234555E+03  0.10783861821E+03  0.00000000000E+00 0. -1.
        -11    1    3    3    0    0  0.22748492562E+02  0.48318917071E+02  0.13435355270E+03  0.14457900534E+03  0.00000000000E+00 0.  1.
         22    1    1    2    0    0  0.34786504203E+01 -0.20568080244E+02 -0.53407824077E+02  0.57337096250E+02  0.00000000000E+00 0. -1.
<mgrwt>
<rscale>  0 0.63284213E+02</rscale>
<asrwt>0</asrwt>
<pdfrwt beam="1">  1        2 0.98428190E-02 0.91612456E+02</pdfrwt>
<pdfrwt beam="2">  1       -2 0.37811753E-01 0.91612456E+02</pdfrwt>
<totfact> 0.40245796E+03</totfact>
</mgrwt>
</event>
<event>
 6    1  0.1727544E-002  0.9288508E+02  0.7546771E-02  0.1368861E+00
         -2   -1    0    0    0  501 -0.00000000000E+00  0.00000000000E+00  0.12184978199E+02  0.12184978199E+02  0.00000000000E+00 0.  1.
          2   -1    0    0  501    0  0.00000000000E+00 -0.00000000000E+00 -0.32884360170E+03  0.32884360170E+03  0.00000000000E+00 0. -1.
         23    2    1    2    0    0  0.31067755350E+01  0.25694405046E+02 -0.28704311960E+03  0.30169751614E+03  0.89206413625E+02 0.  0.
         13    1    3    3    0    0 -0.29613135087E+02  0.81412930141E+01 -0.33490014902E+02  0.45440065139E+02  0.00000000000E+00 0.  1.
        -13    1    3    3    0    0  0.32719910622E+02  0.17553112032E+02 -0.25355310470E+03  0.25625745100E+03  0.00000000000E+00 0. -1.
         22    1    1    2    0    0 -0.31067755350E+01 -0.25694405046E+02 -0.29615503901E+02  0.39331063756E+02  0.00000000000E+00 0.  1.
<mgrwt>
<rscale>  0 0.67484967E+02</rscale>
<asrwt>0</asrwt>
<pdfrwt beam="1">  1        2 0.50591320E-01 0.92885083E+02</pdfrwt>
<pdfrwt beam="2">  1       -2 0.18746122E-02 0.92885083E+02</pdfrwt>
<totfact> 0.73184456E+04</totfact>
</mgrwt>
</event>
<event>
 6    1  0.1727544E-002  0.9158620E+02  0.7546771E-02  0.1366176E+00
          2   -1    0    0  501    0  0.00000000000E+00  0.00000000000E+00  0.74268709242E+01  0.74268709242E+01  0.00000000000E+00 0. -1.
         -2   -1    0    0    0  501 -0.00000000000E+00 -0.00000000000E+00 -0.48347310741E+03  0.48347310741E+03  0.00000000000E+00 0.  1.
         23    2    1    2    0    0  0.11917772393E+02  0.25591219855E+02 -0.35929074880E+03  0.37078008932E+03  0.87126853662E+02 0.  0.
         13    1    3    3    0    0  0.37301257252E+02  0.13890308257E+02 -0.73155717277E+02  0.83283152116E+02  0.00000000000E+00 0. -1.
        -13    1    3    3    0    0 -0.25383484859E+02  0.11700911598E+02 -0.28613503153E+03  0.28749693720E+03  0.00000000000E+00 0.  1.
         22    1    1    2    0    0 -0.11917772393E+02 -0.25591219855E+02 -0.11675548768E+03  0.12011988901E+03  0.00000000000E+00 0.  1.
<mgrwt>
<rscale>  0 0.68241883E+02</rscale>
<asrwt>0</asrwt>
<pdfrwt beam="1">  1        2 0.11425955E-02 0.91586202E+02</pdfrwt>
<pdfrwt beam="2">  1       -2 0.74380483E-01 0.91586202E+02</pdfrwt>
<totfact> 0.17612487E+04</totfact>
</mgrwt>
</event>
<event>
 6    1  0.1727544E-002  0.9181968E+02  0.7546771E-02  0.1410845E+00
         -2   -1    0    0    0  501 -0.00000000000E+00  0.00000000000E+00  0.68028099012E+01  0.68028099012E+01  0.00000000000E+00 0.  1.
          2   -1    0    0  501    0  0.00000000000E+00 -0.00000000000E+00 -0.43034506693E+03  0.43034506693E+03  0.00000000000E+00 0. -1.
         23    2    1    2    0    0  0.13556490991E+02 -0.15217900252E+01 -0.39474089674E+03  0.40527919868E+03  0.90800655435E+02 0.  0.
         11    1    3    3    0    0 -0.10208417501E+02  0.33173757312E+02 -0.29500243479E+03  0.29703728132E+03  0.00000000000E+00 0. -1.
        -11    1    3    3    0    0  0.23764908492E+02 -0.34695547338E+02 -0.99738461953E+02  0.10824191736E+03  0.00000000000E+00 0.  1.
         22    1    1    2    0    0 -0.13556490991E+02  0.15217900252E+01 -0.28801360286E+02  0.31868678153E+02  0.00000000000E+00 0. -1.
<mgrwt>
<rscale>  0 0.57005723E+02</rscale>
<asrwt>0</asrwt>
<pdfrwt beam="1">  1        2 0.66206938E-01 0.91819678E+02</pdfrwt>
<pdfrwt beam="2">  1       -2 0.10465861E-02 0.91819678E+02</pdfrwt>
<totfact> 0.12638443E+05</totfact>
</mgrwt>
</event>
<event>
 6    1  0.1727544E-002  0.9552437E+02  0.7546771E-02  0.1358295E+00
         -1   -1    0    0    0  501 -0.00000000000E+00  0.00000000000E+00  0.92440665953E+02  0.92440665953E+02  0.00000000000E+00 0.  1.
          1   -1    0    0  501    0  0.00000000000E+00 -0.00000000000E+00 -0.50437697901E+02  0.50437697901E+02  0.00000000000E+00 0. -1.
         23    2    1    2    0    0 -0.21653855016E+02 -0.18362747849E+02  0.56517735509E+02  0.11099171430E+03  0.91207599849E+02 0.  0.
         11    1    3    3    0    0  0.13535893985E+02 -0.34313339502E+01 -0.20619001568E+02  0.24902564212E+02  0.00000000000E+00 0. -1.
        -11    1    3    3    0    0 -0.35189749001E+02 -0.14931413899E+02  0.77136737077E+02  0.86089150086E+02  0.00000000000E+00 0.  1.
         22    1    1    2    0    0  0.21653855016E+02  0.18362747849E+02 -0.14514767457E+02  0.31886649557E+02  0.00000000000E+00 0. -1.
<mgrwt>
<rscale>  0 0.70531467E+02</rscale>
<asrwt>0</asrwt>
<pdfrwt beam="1">  1        1 0.77596458E-02 0.95524375E+02</pdfrwt>
<pdfrwt beam="2">  1       -1 0.14221641E-01 0.95524375E+02</pdfrwt>
<totfact> 0.27936369E+04</totfact>
</mgrwt>
</event>
<event>
 6    1  0.1727544E-002  0.9123279E+02  0.7546771E-02  0.1414613E+00
          2   -1    0    0  501    0  0.00000000000E+00  0.00000000000E+00  0.16669097364E+03  0.16669097364E+03  0.00000000000E+00 0. -1.
         -2   -1    0    0    0  501 -0.00000000000E+00 -0.00000000000E+00 -0.16527362257E+02  0.16527362257E+02  0.00000000000E+00 0.  1.
         23    2    1    2    0    0  0.17282997483E+01 -0.13001023753E+02  0.12394002895E+03  0.15389786670E+03  0.90285153589E+02 0.  0.
         11    1    3    3    0    0  0.11056319603E+02 -0.49086417613E+02  0.91788776456E+02  0.10467520280E+03  0.00000000000E+00 0.  1.
        -11    1    3    3    0    0 -0.93280198548E+01  0.36085393860E+02  0.32151252498E+02  0.49222663902E+02  0.00000000000E+00 0. -1.
         22    1    1    2    0    0 -0.17282997483E+01  0.13001023753E+02  0.26223582430E+02  0.29320469200E+02  0.00000000000E+00 0.  1.
<mgrwt>
<rscale>  0 0.56177006E+02</rscale>
<asrwt>0</asrwt>
<pdfrwt beam="1">  1        2 0.25644764E-01 0.91232793E+02</pdfrwt>
<pdfrwt beam="2">  1       -2 0.25426712E-02 0.91232793E+02</pdfrwt>
<totfact> 0.96612495E+04</totfact>
</mgrwt>
</event>
<event>
 6    1  0.1727544E-002  0.1468003E+03  0.7546771E-02  0.1215748E+00
          1   -1    0    0  501    0  0.00000000000E+00  0.00000000000E+00  0.11292869948E+03  0.11292869948E+03  0.00000000000E+00 0. -1.
         -1   -1    0    0    0  501 -0.00000000000E+00 -0.00000000000E+00 -0.57411735417E+03  0.57411735417E+03  0.00000000000E+00 0.  1.
         23    2    1    2    0    0 -0.61492600033E+02  0.97607563542E+02  0.56021393542E+02  0.15712642738E+03  0.90784036749E+02 0.  0.
         11    1    3    3    0    0 -0.65370630813E+02  0.53427091725E+02 -0.15656520381E+01  0.84440658272E+02  0.00000000000E+00 0. -1.
        -11    1    3    3    0    0  0.38780307800E+01  0.44180471817E+02  0.57587045580E+02  0.72685769112E+02  0.00000000000E+00 0.  1.
         22    1    1    2    0    0  0.61492600033E+02 -0.97607563542E+02 -0.51721004823E+03  0.52991962627E+03  0.00000000000E+00 0.  1.
<mgrwt>
<rscale>  0 0.13821704E+03</rscale>
<asrwt>0</asrwt>
<pdfrwt beam="1">  1        1 0.17373645E-01 0.14680026E+03</pdfrwt>
<pdfrwt beam="2">  1       -1 0.88325750E-01 0.14680026E+03</pdfrwt>
<totfact> 0.40823002E+02</totfact>
</mgrwt>
</event>
<event>
 6    1  0.1727544E-002  0.9823012E+02  0.7546771E-02  0.1329269E+00
          2   -1    0    0  501    0  0.00000000000E+00  0.00000000000E+00  0.47965826044E+03  0.47965826044E+03  0.00000000000E+00 0.  1.
         -2   -1    0    0    0  501 -0.00000000000E+00 -0.00000000000E+00 -0.11275524661E+02  0.11275524661E+02  0.00000000000E+00 0. -1.
         23    2    1    2    0    0  0.42391779559E+02  0.74910976868E+01  0.38187858625E+03  0.39431004369E+03  0.88294826567E+02 0.  0.
         11    1    3    3    0    0  0.60582106182E+02 -0.11437777199E+02  0.17043985672E+03  0.18124778370E+03  0.00000000000E+00 0. -1.
        -11    1    3    3    0    0 -0.18190326623E+02  0.18928874885E+02  0.21143872953E+03  0.21306225999E+03  0.00000000000E+00 0.  1.
         22    1    1    2    0    0 -0.42391779559E+02 -0.74910976868E+01  0.86504149529E+02  0.96623741412E+02  0.00000000000E+00 0.  1.
<mgrwt>
<rscale>  0 0.79923259E+02</rscale>
<asrwt>0</asrwt>
<pdfrwt beam="1">  1        2 0.73793563E-01 0.98230117E+02</pdfrwt>
<pdfrwt beam="2">  1       -2 0.17346965E-02 0.98230117E+02</pdfrwt>
<totfact> 0.55286662E+04</totfact>
</mgrwt>
</event>
<event>
 6    1  0.1727544E-002  0.9385623E+02  0.7546771E-02  0.1410726E+00
         -2   -1    0    0    0  501 -0.00000000000E+00  0.00000000000E+00  0.27190596420E+03  0.27190596420E+03  0.00000000000E+00 0. -1.
          2   -1    0    0  501    0  0.00000000000E+00 -0.00000000000E+00 -0.11164168316E+02  0.11164168316E+02  0.00000000000E+00 0.  1.
         23    2    1    2    0    0  0.76277101521E+01 -0.10274570316E+02  0.24729947010E+03  0.26451090624E+03  0.92979798089E+02 0.  0.
         13    1    3    3    0    0 -0.41325671454E+02 -0.70588743880E+01  0.14691728188E+03  0.15278195752E+03  0.00000000000E+00 0.  1.
        -13    1    3    3    0    0  0.48953381606E+02 -0.32156959284E+01  0.10038218822E+03  0.11172894872E+03  0.00000000000E+00 0. -1.
         22    1    1    2    0    0 -0.76277101521E+01  0.10274570316E+02  0.13442325782E+02  0.18559226271E+02  0.00000000000E+00 0. -1.
<mgrwt>
<rscale>  0 0.57032128E+02</rscale>
<asrwt>0</asrwt>
<pdfrwt beam="1">  1        2 0.17175646E-02 0.93856228E+02</pdfrwt>
<pdfrwt beam="2">  1       -2 0.41831682E-01 0.93856228E+02</pdfrwt>
<totfact> 0.32269343E+04</totfact>
</mgrwt>
</event>
<event>
 6    1  0.1727544E-002  0.9374214E+02  0.7546771E-02  0.1368545E+00
          2   -1    0    0  501    0  0.00000000000E+00  0.00000000000E+00  0.71495746018E+02  0.71495746018E+02  0.00000000000E+00 0. -1.
         -2   -1    0    0    0  501 -0.00000000000E+00 -0.00000000000E+00 -0.80514510786E+02  0.80514510786E+02  0.00000000000E+00 0.  1.
         23    2    1    2    0    0 -0.12994691487E+02 -0.21719801703E+02 -0.48166904163E+02  0.10539278571E+03  0.90260605086E+02 0.  0.
         11    1    3    3    0    0 -0.87958555361E+01 -0.82275567528E+01 -0.74521774247E+02  0.75488771361E+02  0.00000000000E+00 0.  1.
        -11    1    3    3    0    0 -0.41988359514E+01 -0.13492244950E+02  0.26354870084E+02  0.29904014351E+02  0.00000000000E+00 0. -1.
         22    1    1    2    0    0  0.12994691487E+02  0.21719801703E+02  0.39148139396E+02  0.46617471092E+02  0.00000000000E+00 0. -1.
<mgrwt>
<rscale>  0 0.67573359E+02</rscale>
<asrwt>0</asrwt>
<pdfrwt beam="1">  1        2 0.10999346E-01 0.93742139E+02</pdfrwt>
<pdfrwt beam="2">  1       -2 0.12386848E-01 0.93742139E+02</pdfrwt>
<totfact> 0.23620832E+04</totfact>
</mgrwt>
</event>
<event>
 6    1  0.1727544E-002  0.8962632E+02  0.7546771E-02  0.1410071E+00
          4   -1    0    0  501    0  0.00000000000E+00  0.00000000000E+00  0.10441224767E+03  0.10441224767E+03  0.00000000000E+00 0. -1.
         -4   -1    0    0    0  501 -0.00000000000E+00 -0.00000000000E+00 -0.28564632020E+02  0.28564632020E+02  0.00000000000E+00 0.  1.
         23    2    1    2    0    0 -0.88834333441E+01  0.11894960857E+02  0.48619511028E+02  0.10196437958E+03  0.88388191342E+02 0.  0.
         13    1    3    3    0    0 -0.35841230174E+02  0.99589992459E+01  0.61616290352E+02  0.71974597485E+02  0.00000000000E+00 0. -1.
        -13    1    3    3    0    0  0.26957796830E+02  0.19359616111E+01 -0.12996779324E+02  0.29989782095E+02  0.00000000000E+00 0.  1.
         22    1    1    2    0    0  0.88834333441E+01 -0.11894960857E+02  0.27228104624E+02  0.31012500111E+02  0.00000000000E+00 0. -1.
<mgrwt>
<rscale>  0 0.57178069E+02</rscale>
<asrwt>0</asrwt>
<pdfrwt beam="1">  1        4 0.16063423E-01 0.89626323E+02</pdfrwt>
<pdfrwt beam="2">  1       -4 0.43945588E-02 0.89626323E+02</pdfrwt>
<totfact> 0.14130986E+04</totfact>
</mgrwt>
</event>
<event>
 6    1  0.1727544E-002  0.9231119E+02  0.7546771E-02  0.1385964E+00
          1   -1    0    0  501    0  0.00000000000E+00  0.00000000000E+00  0.29484915686E+03  0.29484915686E+03  0.00000000000E+00 0. -1.
         -1   -1    0    0    0  501 -0.00000000000E+00 -0.00000000000E+00 -0.10760135217E+02  0.10760135217E+02  0.00000000000E+00 0.  1.
         23    2    1    2    0    0  0.12717136430E+02  0.15341242528E+02  0.22295156697E+03  0.24130635556E+03  0.90134769851E+02 0.  0.
         13    1    3    3    0    0 -0.25890298778E+02 -0.12234158294E+02  0.15965511325E+03  0.16220276627E+03  0.00000000000E+00 0. -1.
        -13    1    3    3    0    0  0.38607435208E+02  0.27575400822E+02  0.63296453720E+02  0.79103589283E+02  0.00000000000E+00 0.  1.
         22    1    1    2    0    0 -0.12717136430E+02 -0.15341242528E+02  0.61137454678E+02  0.64302936525E+02  0.00000000000E+00 0. -1.
<mgrwt>
<rscale>  0 0.62921696E+02</rscale>
<asrwt>0</asrwt>
<pdfrwt beam="1">  1        1 0.45361403E-01 0.92311191E+02</pdfrwt>
<pdfrwt beam="2">  1       -1 0.16554056E-02 0.92311191E+02</pdfrwt>
<totfact> 0.70251847E+04</totfact>
</mgrwt>
</event>
<event>
 6    1  0.1727544E-002  0.1650656E+03  0.7546771E-02  0.1196376E+00
          2   -1    0    0  501    0  0.00000000000E+00  0.00000000000E+00  0.10480053301E+04  0.10480053301E+04  0.00000000000E+00 0.  1.
         -2   -1    0    0    0  501 -0.00000000000E+00 -0.00000000000E+00 -0.20444577642E+02  0.20444577642E+02  0.00000000000E+00 0. -1.
         23    2    1    2    0    0 -0.98097860653E+02  0.74314566525E+02  0.49278064568E+03  0.51969166620E+03  0.11000371853E+03 0.  0.
         13    1    3    3    0    0 -0.24030613712E+02 -0.28452891172E+02  0.13950525070E+03  0.14439097058E+03  0.00000000000E+00 0. -1.
        -13    1    3    3    0    0 -0.74067246942E+02  0.10276745770E+03  0.35327539498E+03  0.37530069562E+03  0.00000000000E+00 0.  1.
         22    1    1    2    0    0  0.98097860653E+02 -0.74314566525E+02  0.53478010673E+03  0.54875824150E+03  0.00000000000E+00 0. -1.
<mgrwt>
<rscale>  0 0.15338369E+03</rscale>
<asrwt>0</asrwt>
<pdfrwt beam="1">  1        2 0.16123155E+00 0.16506563E+03</pdfrwt>
<pdfrwt beam="2">  1       -2 0.31453205E-02 0.16506563E+03</pdfrwt>
<totfact> 0.94532734E+03</totfact>
</mgrwt>
</event>
<event>
 6    1  0.1727544E-002  0.8834734E+02  0.7546771E-02  0.1413860E+00
          4   -1    0    0  501    0  0.00000000000E+00  0.00000000000E+00  0.29885941657E+03  0.29885941657E+03  0.00000000000E+00 0. -1.
         -4   -1    0    0    0  501 -0.00000000000E+00 -0.00000000000E+00 -0.93415884093E+01  0.93415884093E+01  0.00000000000E+00 0.  1.
         23    2    1    2    0    0  0.13949656509E+02  0.43518759195E+01  0.21830538852E+03  0.23550476505E+03  0.87130476655E+02 0.  0.
         13    1    3    3    0    0 -0.29251673429E+02 -0.11730251077E+02  0.14880858265E+03  0.15210934705E+03  0.00000000000E+00 0. -1.
        -13    1    3    3    0    0  0.43201329939E+02  0.16082126997E+02  0.69496805870E+02  0.83395417999E+02  0.00000000000E+00 0.  1.
         22    1    1    2    0    0 -0.13949656509E+02 -0.43518759195E+01  0.71212439633E+02  0.72696239925E+02  0.00000000000E+00 0.  1.
<mgrwt>
<rscale>  0 0.56341434E+02</rscale>
<asrwt>0</asrwt>
<pdfrwt beam="1">  1        4 0.45978364E-01 0.88347336E+02</pdfrwt>
<pdfrwt beam="2">  1       -4 0.14371677E-02 0.88347336E+02</pdfrwt>
<totfact> 0.11214238E+04</totfact>
</mgrwt>
</event>
<event>
 6    1  0.1727544E-002  0.9180650E+02  0.7546771E-02  0.1428956E+00
          2   -1    0    0  501    0  0.00000000000E+00  0.00000000000E+00  0.38848205077E+02  0.38848205077E+02  0.00000000000E+00 0. -1.
         -2   -1    0    0    0  501 -0.00000000000E+00 -0.00000000000E+00 -0.11056748264E+03  0.11056748264E+03  0.00000000000E+00 0.  1.
         23    2    1    2    0    0 -0.67931078546E+01 -0.77806567129E+01 -0.89908173858E+02  0.12849868789E+03  0.91223616074E+02 0.  0.
         11    1    3    3    0    0 -0.60593498854E+01 -0.72426107590E+01  0.18137876334E+02  0.20448806556E+02  0.00000000000E+00 0. -1.
        -11    1    3    3    0    0 -0.73375796926E+00 -0.53804595390E+00 -0.10804605019E+03  0.10804988133E+03  0.00000000000E+00 0.  1.
         22    1    1    2    0    0  0.67931078546E+01  0.77806567129E+01  0.18188896296E+02  0.20916999825E+02  0.00000000000E+00 0. -1.
<mgrwt>
<rscale>  0 0.53170158E+02</rscale>
<asrwt>0</asrwt>
<pdfrwt beam="1">  1        2 0.59766471E-02 0.91806498E+02</pdfrwt>
<pdfrwt beam="2">  1       -2 0.17010382E-01 0.91806498E+02</pdfrwt>
<totfact> 0.30059986E+04</totfact>
</mgrwt>
</event>
<event>
 6    1  0.1727544E-002  0.9675819E+02  0.7546771E-02  0.1365707E+00
          2   -1    0    0  501    0  0.00000000000E+00  0.00000000000E+00  0.79100652162E+02  0.79100652162E+02  0.00000000000E+00 0. -1.
         -2   -1    0    0    0  501 -0.00000000000E+00 -0.00000000000E+00 -0.10319820571E+03  0.10319820571E+03  0.00000000000E+00 0.  1.
         23    2    1    2    0    0 -0.17998445093E+02 -0.16069799389E+02 -0.77323634504E+02  0.12385916098E+03  0.93701466518E+02 0.  0.
         13    1    3    3    0    0  0.10194246862E+02 -0.43605676758E+02 -0.71005151108E+02  0.83947061881E+02  0.00000000000E+00 0.  1.
        -13    1    3    3    0    0 -0.28192691954E+02  0.27535877369E+02 -0.63184833963E+01  0.39912099099E+02  0.00000000000E+00 0. -1.
         22    1    1    2    0    0  0.17998445093E+02  0.16069799389E+02  0.53226080959E+02  0.58439696888E+02  0.00000000000E+00 0. -1.
<mgrwt>
<rscale>  0 0.68375134E+02</rscale>
<asrwt>0</asrwt>
<pdfrwt beam="1">  1        2 0.12169331E-01 0.96758190E+02</pdfrwt>
<pdfrwt beam="2">  1       -2 0.15876647E-01 0.96758190E+02</pdfrwt>
<totfact> 0.14092950E+04</totfact>
</mgrwt>
</event>
<event>
 6    1  0.1727544E-002  0.9134121E+02  0.7546771E-02  0.1427613E+00
         -1   -1    0    0    0  501 -0.00000000000E+00  0.00000000000E+00  0.21393571297E+03  0.21393571297E+03  0.00000000000E+00 0. -1.
          1   -1    0    0  501    0  0.00000000000E+00 -0.00000000000E+00 -0.13974296727E+02  0.13974296727E+02  0.00000000000E+00 0.  1.
         23    2    1    2    0    0  0.70219267141E+01  0.80784360341E+01  0.19644717451E+03  0.21664419954E+03  0.90711896893E+02 0.  0.
         13    1    3    3    0    0  0.22985515909E+02 -0.29964859163E+02  0.14926390547E+03  0.15396733486E+03  0.00000000000E+00 0. -1.
        -13    1    3    3    0    0 -0.15963589194E+02  0.38043295197E+02  0.47183269037E+02  0.62676864682E+02  0.00000000000E+00 0.  1.
         22    1    1    2    0    0 -0.70219267141E+01 -0.80784360341E+01  0.35142417351E+01  0.11265810158E+02  0.00000000000E+00 0.  1.
<mgrwt>
<rscale>  0 0.53442069E+02</rscale>
<asrwt>0</asrwt>
<pdfrwt beam="1">  1        1 0.21498919E-02 0.91341211E+02</pdfrwt>
<pdfrwt beam="2">  1       -1 0.32913184E-01 0.91341211E+02</pdfrwt>
<totfact> 0.41223574E+04</totfact>
</mgrwt>
</event>
<event>
 6    1  0.1727544E-002  0.9217302E+02  0.7546771E-02  0.1428404E+00
         -2   -1    0    0    0  501 -0.00000000000E+00  0.00000000000E+00  0.27122834774E+02  0.27122834774E+02  0.00000000000E+00 0.  1.
          2   -1    0    0  501    0  0.00000000000E+00 -0.00000000000E+00 -0.97171260970E+02  0.97171260970E+02  0.00000000000E+00 0. -1.
         23    2    1    2    0    0 -0.56074642610E+01 -0.86303217189E+01 -0.60498927505E+02  0.11025418714E+03  0.91596612622E+02 0.  0.
         13    1    3    3    0    0  0.38273040739E+02 -0.84789144750E+01 -0.52707413748E+02  0.65687054296E+02  0.00000000000E+00 0. -1.
        -13    1    3    3    0    0 -0.43880505000E+02 -0.15140724392E+00 -0.77915137564E+01  0.44567132842E+02  0.00000000000E+00 0.  1.
         22    1    1    2    0    0  0.56074642610E+01  0.86303217189E+01 -0.95494986907E+01  0.14039908606E+02  0.00000000000E+00 0. -1.
<mgrwt>
<rscale>  0 0.53281720E+02</rscale>
<asrwt>0</asrwt>
<pdfrwt beam="1">  1        2 0.14949425E-01 0.92173020E+02</pdfrwt>
<pdfrwt beam="2">  1       -2 0.41727437E-02 0.92173020E+02</pdfrwt>
<totfact> 0.85994231E+04</totfact>
</mgrwt>
</event>
<event>
 6    1  0.1727544E-002  0.9354966E+02  0.7546771E-02  0.1425691E+00
          2   -1    0    0  501    0  0.00000000000E+00  0.00000000000E+00  0.21889484815E+03  0.21889484815E+03  0.00000000000E+00 0. -1.
         -2   -1    0    0    0  501 -0.00000000000E+00 -0.00000000000E+00 -0.13735274250E+02  0.13735274250E+02  0.00000000000E+00 0.  1.
         23    2    1    2    0    0  0.30630208299E+01 -0.97915481532E+01  0.15193560651E+03  0.17842636592E+03  0.92985391424E+02 0.  0.
         11    1    3    3    0    0 -0.18229133060E+02  0.31199097554E+02  0.26655179720E+02  0.44901932990E+02  0.00000000000E+00 0.  1.
        -11    1    3    3    0    0  0.21292153890E+02 -0.40990645707E+02  0.12528042679E+03  0.13352443293E+03  0.00000000000E+00 0. -1.
         22    1    1    2    0    0 -0.30630208299E+01  0.97915481532E+01  0.53223967384E+02  0.54203756475E+02  0.00000000000E+00 0. -1.
<mgrwt>
<rscale>  0 0.53834762E+02</rscale>
<asrwt>0</asrwt>
<pdfrwt beam="1">  1        2 0.33676128E-01 0.93549663E+02</pdfrwt>
<pdfrwt beam="2">  1       -2 0.21131193E-02 0.93549663E+02</pdfrwt>
<totfact> 0.94563722E+04</totfact>
</mgrwt>
</event>
<event>
 6    1  0.1727544E-002  0.9718163E+02  0.7546771E-02  0.1348535E+00
         -1   -1    0    0    0  501 -0.00000000000E+00  0.00000000000E+00  0.14773586893E+03  0.14773586893E+03  0.00000000000E+00 0.  1.
          1   -1    0    0  501    0  0.00000000000E+00 -0.00000000000E+00 -0.28837508030E+02  0.28837508030E+02  0.00000000000E+00 0. -1.
         23    2    1    2    0    0 -0.49772539798E+01  0.31430774066E+02  0.77164723841E+02  0.12409135073E+03  0.91823755662E+02 0.  0.
         13    1    3    3    0    0 -0.68684362860E+01 -0.17690519325E+02  0.72236060869E+02  0.74687203595E+02  0.00000000000E+00 0.  1.
        -13    1    3    3    0    0  0.18911823063E+01  0.49121293392E+02  0.49286629720E+01  0.49404147130E+02  0.00000000000E+00 0. -1.
         22    1    1    2    0    0  0.49772539798E+01 -0.31430774066E+02  0.41733637061E+02  0.52482026237E+02  0.00000000000E+00 0.  1.
<mgrwt>
<rscale>  0 0.73514234E+02</rscale>
<asrwt>0</asrwt>
<pdfrwt beam="1">  1        1 0.44365398E-02 0.97181627E+02</pdfrwt>
<pdfrwt beam="2">  1       -1 0.22728595E-01 0.97181627E+02</pdfrwt>
<totfact> 0.28347369E+04</totfact>
</mgrwt>
</event>
<event>
 6    1  0.1727544E-002  0.9906755E+02  0.7546771E-02  0.1333931E+00
         -2   -1    0    0    0  501 -0.00000000000E+00  0.00000000000E+00  0.12796698138E+03  0.12796698138E+03  0.00000000000E+00 0.  1.
          2   -1    0    0  501    0  0.00000000000E+00 -0.00000000000E+00 -0.37583553489E+02  0.37583553489E+02  0.00000000000E+00 0. -1.
         23    2    1    2    0    0  0.48620394687E+01 -0.38362490280E+02  0.73502048512E+02  0.12335692092E+03  0.91208874107E+02 0.  0.
         11    1    3    3    0    0  0.38800672622E+02  0.76116981220E+00  0.76119085510E+01  0.39547600777E+02  0.00000000000E+00 0. -1.
        -11    1    3    3    0    0 -0.33938633153E+02 -0.39123660092E+02  0.65890139961E+02  0.83809320146E+02  0.00000000000E+00 0.  1.
         22    1    1    2    0    0 -0.48620394687E+01  0.38362490280E+02  0.16881379384E+02  0.42193613950E+02  0.00000000000E+00 0. -1.
<mgrwt>
<rscale>  0 0.78305150E+02</rscale>
<asrwt>0</asrwt>
<pdfrwt beam="1">  1        2 0.57820852E-02 0.99067547E+02</pdfrwt>
<pdfrwt beam="2">  1       -2 0.19687228E-01 0.99067547E+02</pdfrwt>
<totfact> 0.24841139E+04</totfact>
</mgrwt>
</event>
<event>
 6    1  0.1727544E-002  0.9592446E+02  0.7546771E-02  0.1352343E+00
          2   -1    0    0  501    0  0.00000000000E+00  0.00000000000E+00  0.24865908237E+03  0.24865908237E+03  0.00000000000E+00 0.  1.
         -2   -1    0    0    0  501 -0.00000000000E+00 -0.00000000000E+00 -0.35797844450E+02  0.35797844450E+02  0.00000000000E+00 0. -1.
         23    2    1    2    0    0  0.21467377761E+02 -0.22377179675E+02  0.32246446254E+02  0.10119948646E+03  0.90773984631E+02 0.  0.
         11    1    3    3    0    0  0.41990484409E+02  0.88530738311E+01 -0.10743051409E+02  0.44237889311E+02  0.00000000000E+00 0. -1.
        -11    1    3    3    0    0 -0.20523106648E+02 -0.31230253506E+02  0.42989497663E+02  0.56961597149E+02  0.00000000000E+00 0.  1.
         22    1    1    2    0    0 -0.21467377761E+02  0.22377179675E+02  0.18061479166E+03  0.18325744035E+03  0.00000000000E+00 0.  1.
<mgrwt>
<rscale>  0 0.72330352E+02</rscale>
<asrwt>0</asrwt>
<pdfrwt beam="1">  1        2 0.38255242E-01 0.95924464E+02</pdfrwt>
<pdfrwt beam="2">  1       -2 0.55073608E-02 0.95924464E+02</pdfrwt>
<totfact> 0.20391208E+04</totfact>
</mgrwt>
</event>
<event>
 6    1  0.1727544E-002  0.8971128E+02  0.7546771E-02  0.1417688E+00
          2   -1    0    0  501    0  0.00000000000E+00  0.00000000000E+00  0.12493291771E+02  0.12493291771E+02  0.00000000000E+00 0. -1.
         -2   -1    0    0    0  501 -0.00000000000E+00 -0.00000000000E+00 -0.22114262440E+03  0.22114262440E+03  0.00000000000E+00 0.  1.
         23    2    1    2    0    0  0.23892633716E+00 -0.13151323927E+02 -0.19517681463E+03  0.21480713108E+03  0.88741761231E+02 0.  0.
         13    1    3    3    0    0 -0.13031518491E+02 -0.48700969027E+02 -0.12933779237E+03  0.13881595512E+03  0.00000000000E+00 0. -1.
        -13    1    3    3    0    0  0.13270444829E+02  0.35549645100E+02 -0.65839022256E+02  0.75991175964E+02  0.00000000000E+00 0.  1.
         22    1    1    2    0    0 -0.23892633716E+00  0.13151323927E+02 -0.13472518002E+02  0.18828785095E+02  0.00000000000E+00 0. -1.
<mgrwt>
<rscale>  0 0.55513114E+02</rscale>
<asrwt>0</asrwt>
<pdfrwt beam="1">  1        2 0.19220449E-02 0.89711285E+02</pdfrwt>
<pdfrwt beam="2">  1       -2 0.34021943E-01 0.89711285E+02</pdfrwt>
<totfact> 0.40409152E+04</totfact>
</mgrwt>
</event>
<event>
 6    1  0.1727544E-002  0.9102416E+02  0.7546771E-02  0.1411252E+00
         -4   -1    0    0    0  501 -0.00000000000E+00  0.00000000000E+00  0.83086368657E+03  0.83086368657E+03  0.00000000000E+00 0.  1.
          4   -1    0    0  501    0  0.00000000000E+00 -0.00000000000E+00 -0.70239225928E+01  0.70239225928E+01  0.00000000000E+00 0. -1.
         23    2    1    2    0    0 -0.42530065180E+01 -0.13248019575E+02  0.81757823410E+03  0.82262966554E+03  0.89954431065E+02 0.  0.
         13    1    3    3    0    0  0.89495599356E+00 -0.92749117806E+01  0.61259638688E+01  0.11151339296E+02  0.00000000000E+00 0. -1.
        -13    1    3    3    0    0 -0.51479625115E+01 -0.39731077939E+01  0.81145227023E+03  0.81147832624E+03  0.00000000000E+00 0.  1.
         22    1    1    2    0    0  0.42530065180E+01  0.13248019575E+02  0.62615298744E+01  0.15257943618E+02  0.00000000000E+00 0.  1.
<mgrwt>
<rscale>  0 0.56915446E+02</rscale>
<asrwt>0</asrwt>
<pdfrwt beam="1">  1        4 0.10806041E-02 0.91024160E+02</pdfrwt>
<pdfrwt beam="2">  1       -4 0.12782510E+00 0.91024160E+02</pdfrwt>
<totfact> 0.18654948E+03</totfact>
</mgrwt>
</event>
<event>
 6    1  0.1727544E-002  0.9092201E+02  0.7546771E-02  0.1402950E+00
         -2   -1    0    0    0  501 -0.00000000000E+00  0.00000000000E+00  0.16538679417E+02  0.16538679417E+02  0.00000000000E+00 0.  1.
          2   -1    0    0  501    0  0.00000000000E+00 -0.00000000000E+00 -0.17745616202E+03  0.17745616202E+03  0.00000000000E+00 0. -1.
         23    2    1    2    0    0  0.15887856135E+02 -0.64339167301E+00 -0.12367783524E+03  0.15350250561E+03  0.89520804130E+02 0.  0.
         13    1    3    3    0    0 -0.87829880681E+01 -0.15935480001E+02 -0.12313446951E+03  0.12447159509E+03  0.00000000000E+00 0. -1.
        -13    1    3    3    0    0  0.24670844203E+02  0.15292088328E+02 -0.54336572983E+00  0.29030910517E+02  0.00000000000E+00 0.  1.
         22    1    1    2    0    0 -0.15887856135E+02  0.64339167301E+00 -0.37239647361E+02  0.40492335830E+02  0.00000000000E+00 0.  1.
<mgrwt>
<rscale>  0 0.58797256E+02</rscale>
<asrwt>0</asrwt>
<pdfrwt beam="1">  1        2 0.27300949E-01 0.90922012E+02</pdfrwt>
<pdfrwt beam="2">  1       -2 0.25444122E-02 0.90922012E+02</pdfrwt>
<totfact> 0.90145054E+04</totfact>
</mgrwt>
</event>
<event>
 6    1  0.1727544E-002  0.1122932E+03  0.7546771E-02  0.1353211E+00
         -2   -1    0    0    0  501 -0.00000000000E+00  0.00000000000E+00  0.11380913306E+02  0.11380913306E+02  0.00000000000E+00 0.  1.
          2   -1    0    0  501    0  0.00000000000E+00 -0.00000000000E+00 -0.38301187913E+03  0.38301187913E+03  0.00000000000E+00 0. -1.
         23    2    1    2    0    0  0.12252181976E+02  0.14582760816E+02 -0.30191120755E+03  0.32211819406E+03  0.11066607803E+03 0.  0.
         13    1    3    3    0    0 -0.27100264289E+02  0.28441276365E+01 -0.12801231437E+02  0.30106227144E+02  0.00000000000E+00 0.  1.
        -13    1    3    3    0    0  0.39352446265E+02  0.11738633179E+02 -0.28910997611E+03  0.29201196692E+03  0.00000000000E+00 0. -1.
         22    1    1    2    0    0 -0.12252181976E+02 -0.14582760816E+02 -0.69719758275E+02  0.72274598374E+02  0.00000000000E+00 0.  1.
<mgrwt>
<rscale>  0 0.72064160E+02</rscale>
<asrwt>0</asrwt>
<pdfrwt beam="1">  1        2 0.58924892E-01 0.11229316E+03</pdfrwt>
<pdfrwt beam="2">  1       -2 0.17509101E-02 0.11229316E+03</pdfrwt>
<totfact> 0.70536072E+04</totfact>
</mgrwt>
</event>
<event>
 6    1  0.1727544E-002  0.9541883E+02  0.7546771E-02  0.1360345E+00
         -2   -1    0    0    0  501 -0.00000000000E+00  0.00000000000E+00  0.91182260387E+01  0.91182260387E+01  0.00000000000E+00 0.  1.
          2   -1    0    0  501    0  0.00000000000E+00 -0.00000000000E+00 -0.45242051422E+03  0.45242051422E+03  0.00000000000E+00 0. -1.
         23    2    1    2    0    0  0.26140989341E+02  0.86025798125E+01 -0.39057496370E+03  0.40206163164E+03  0.91364093938E+02 0.  0.
         11    1    3    3    0    0  0.62714185393E+01 -0.36212298947E+02 -0.26005669132E+03  0.26264071274E+03  0.00000000000E+00 0. -1.
        -11    1    3    3    0    0  0.19869570802E+02  0.44814878759E+02 -0.13051827238E+03  0.13942091890E+03  0.00000000000E+00 0.  1.
         22    1    1    2    0    0 -0.26140989341E+02 -0.86025798125E+01 -0.52727324481E+02  0.59477108623E+02  0.00000000000E+00 0. -1.
<mgrwt>
<rscale>  0 0.69925899E+02</rscale>
<asrwt>0</asrwt>
<pdfrwt beam="1">  1        2 0.69603160E-01 0.95418831E+02</pdfrwt>
<pdfrwt beam="2">  1       -2 0.14028039E-02 0.95418831E+02</pdfrwt>
<totfact> 0.79454829E+04</totfact>
</mgrwt>
</event>
<event>
 6    1  0.1727544E-002  0.9537642E+02  0.7546771E-02  0.1361496E+00
         -1   -1    0    0    0  501 -0.00000000000E+00  0.00000000000E+00  0.81191099880E+02  0.81191099880E+02  0.00000000000E+00 0.  1.
          1   -1    0    0  501    0  0.00000000000E+00 -0.00000000000E+00 -0.52287284994E+02  0.52287284994E+02  0.00000000000E+00 0. -1.
         23    2    1    2    0    0  0.21977627875E+02  0.15734738093E+02  0.41062278702E+02  0.10384012662E+03  0.91466185308E+02 0.  0.
         13    1    3    3    0    0  0.35387738967E+02  0.34325243435E+01 -0.19536475505E+02  0.40567821826E+02  0.00000000000E+00 0. -1.
        -13    1    3    3    0    0 -0.13410111092E+02  0.12302213750E+02  0.60598754207E+02  0.63272304795E+02  0.00000000000E+00 0.  1.
         22    1    1    2    0    0 -0.21977627875E+02 -0.15734738093E+02 -0.12158463817E+02  0.29638258253E+02  0.00000000000E+00 0. -1.
<mgrwt>
<rscale>  0 0.69588997E+02</rscale>
<asrwt>0</asrwt>
<pdfrwt beam="1">  1        1 0.80441977E-02 0.95376418E+02</pdfrwt>
<pdfrwt beam="2">  1       -1 0.12490938E-01 0.95376418E+02</pdfrwt>
<totfact> 0.32513645E+04</totfact>
</mgrwt>
</event>
<event>
 6    1  0.1727544E-002  0.9389104E+02  0.7546771E-02  0.1396008E+00
          2   -1    0    0  501    0  0.00000000000E+00  0.00000000000E+00  0.22118809056E+02  0.22118809056E+02  0.00000000000E+00 0.  1.
         -2   -1    0    0    0  501 -0.00000000000E+00 -0.00000000000E+00 -0.14248068331E+03  0.14248068331E+03  0.00000000000E+00 0. -1.
         23    2    1    2    0    0  0.15626666302E+02  0.39520363457E+01 -0.11289309753E+03  0.14683452919E+03  0.92497114558E+02 0.  0.
         13    1    3    3    0    0 -0.21301486462E+02 -0.15456507291E+02 -0.99647393354E+02  0.10306434857E+03  0.00000000000E+00 0.  1.
        -13    1    3    3    0    0  0.36928152764E+02  0.19408543637E+02 -0.13245704176E+02  0.43770180623E+02  0.00000000000E+00 0. -1.
         22    1    1    2    0    0 -0.15626666302E+02 -0.39520363457E+01 -0.74687767277E+01  0.17764963181E+02  0.00000000000E+00 0.  1.
<mgrwt>
<rscale>  0 0.60436648E+02</rscale>
<asrwt>0</asrwt>
<pdfrwt beam="1">  1        2 0.34028936E-02 0.93891041E+02</pdfrwt>
<pdfrwt beam="2">  1       -2 0.21920106E-01 0.93891041E+02</pdfrwt>
<totfact> 0.41028888E+04</totfact>
</mgrwt>
</event>
<event>
 6    1  0.1727544E-002  0.9810983E+02  0.7546771E-02  0.1339922E+00
         -1   -1    0    0    0  501 -0.00000000000E+00  0.00000000000E+00  0.13321370268E+03  0.13321370268E+03  0.00000000000E+00 0.  1.
          1   -1    0    0  501    0  0.00000000000E+00 -0.00000000000E+00 -0.40921013285E+02  0.40921013285E+02  0.00000000000E+00 0. -1.
         23    2    1    2    0    0  0.25445574389E+02 -0.25281999499E+02  0.96989727610E+02  0.13795849556E+03  0.91317481795E+02 0.  0.
         13    1    3    3    0    0  0.48352404647E+02 -0.30669955959E+02  0.25472668987E+02  0.62669435126E+02  0.00000000000E+00 0. -1.
        -13    1    3    3    0    0 -0.22906830259E+02  0.53879564597E+01  0.71517058623E+02  0.75289060436E+02  0.00000000000E+00 0.  1.
         22    1    1    2    0    0 -0.25445574389E+02  0.25281999499E+02 -0.46970382154E+01  0.36176220403E+02  0.00000000000E+00 0. -1.
<mgrwt>
<rscale>  0 0.76289934E+02</rscale>
<asrwt>0</asrwt>
<pdfrwt beam="1">  1        1 0.62955405E-02 0.98109833E+02</pdfrwt>
<pdfrwt beam="2">  1       -1 0.20494416E-01 0.98109833E+02</pdfrwt>
<totfact> 0.20881802E+04</totfact>
</mgrwt>
</event>
<event>
 6    1  0.1727544E-002  0.1022384E+03  0.7546771E-02  0.1330692E+00
         -2   -1    0    0    0  501 -0.00000000000E+00  0.00000000000E+00  0.30522507318E+03  0.30522507318E+03  0.00000000000E+00 0.  1.
          2   -1    0    0  501    0  0.00000000000E+00 -0.00000000000E+00 -0.21160184305E+02  0.21160184305E+02  0.00000000000E+00 0. -1.
         23    2    1    2    0    0  0.50775791141E+01  0.36889441681E+02  0.26605231027E+03  0.28502022751E+03  0.95215994294E+02 0.  0.
         11    1    3    3    0    0 -0.21328984738E+02  0.28569018332E+02  0.27920416455E+02  0.45284258340E+02  0.00000000000E+00 0. -1.
        -11    1    3    3    0    0  0.26406563852E+02  0.83204233492E+01  0.23813189382E+03  0.23973596917E+03  0.00000000000E+00 0.  1.
         22    1    1    2    0    0 -0.50775791141E+01 -0.36889441681E+02  0.18012578603E+02  0.41365029978E+02  0.00000000000E+00 0. -1.
<mgrwt>
<rscale>  0 0.79424603E+02</rscale>
<asrwt>0</asrwt>
<pdfrwt beam="1">  1        2 0.32554132E-02 0.10223844E+03</pdfrwt>
<pdfrwt beam="2">  1       -2 0.46957700E-01 0.10223844E+03</pdfrwt>
<totfact> 0.11071214E+04</totfact>
</mgrwt>
</event>
<event>
 6    1  0.1727544E-002  0.9365164E+02  0.7546771E-02  0.1388317E+00
          4   -1    0    0  501    0  0.00000000000E+00  0.00000000000E+00  0.49028686296E+02  0.49028686296E+02  0.00000000000E+00 0.  1.
         -4   -1    0    0    0  501 -0.00000000000E+00 -0.00000000000E+00 -0.64563680169E+02  0.64563680169E+02  0.00000000000E+00 0. -1.
         23    2    1    2    0    0 -0.13739228071E+02 -0.12197640520E+02 -0.16919610496E+02  0.95167763744E+02  0.91831809382E+02 0.  0.
         13    1    3    3    0    0 -0.64474276354E+01 -0.31759305530E+02  0.29781303221E+02  0.44013052977E+02  0.00000000000E+00 0.  1.
        -13    1    3    3    0    0 -0.72918004359E+01  0.19561665010E+02 -0.46700913717E+02  0.51154710766E+02  0.00000000000E+00 0. -1.
         22    1    1    2    0    0  0.13739228071E+02  0.12197640520E+02  0.13846166227E+01  0.18424602721E+02  0.00000000000E+00 0. -1.
<mgrwt>
<rscale>  0 0.62327344E+02</rscale>
<asrwt>0</asrwt>
<pdfrwt beam="1">  1        4 0.75428749E-02 0.93651642E+02</pdfrwt>
<pdfrwt beam="2">  1       -4 0.99328738E-02 0.93651642E+02</pdfrwt>
<totfact> 0.13632172E+04</totfact>
</mgrwt>
</event>
<event>
 6    1  0.1727544E-002  0.8676457E+02  0.7546771E-02  0.1396580E+00
          2   -1    0    0  501    0  0.00000000000E+00  0.00000000000E+00  0.70854996033E+02  0.70854996033E+02  0.00000000000E+00 0. -1.
         -2   -1    0    0    0  501 -0.00000000000E+00 -0.00000000000E+00 -0.40801681938E+02  0.40801681938E+02  0.00000000000E+00 0.  1.
         23    2    1    2    0    0 -0.64043710456E+00 -0.20230413832E+02  0.19923000250E+02  0.89022565175E+02  0.84370678366E+02 0.  0.
         11    1    3    3    0    0 -0.39709109830E+02 -0.25719849013E+02  0.11097162471E+02  0.48594969406E+02  0.00000000000E+00 0.  1.
        -11    1    3    3    0    0  0.39068672725E+02  0.54894351811E+01  0.88258377783E+01  0.40427595768E+02  0.00000000000E+00 0. -1.
         22    1    1    2    0    0  0.64043710456E+00  0.20230413832E+02  0.10130313845E+02  0.22634112796E+02  0.00000000000E+00 0. -1.
<mgrwt>
<rscale>  0 0.60299317E+02</rscale>
<asrwt>0</asrwt>
<pdfrwt beam="1">  1        2 0.10900769E-01 0.86764573E+02</pdfrwt>
<pdfrwt beam="2">  1       -2 0.62771818E-02 0.86764573E+02</pdfrwt>
<totfact> 0.67354308E+04</totfact>
</mgrwt>
</event>
<event>
 6    1  0.1727544E-002  0.9533674E+02  0.7546771E-02  0.1359792E+00
          2   -1    0    0  501    0  0.00000000000E+00  0.00000000000E+00  0.46491734333E+03  0.46491734333E+03  0.00000000000E+00 0.  1.
         -2   -1    0    0    0  501 -0.00000000000E+00 -0.00000000000E+00 -0.81699511277E+01  0.81699511277E+01  0.00000000000E+00 0. -1.
         23    2    1    2    0    0 -0.71350160324E+01 -0.26919180685E+02  0.34638170267E+03  0.35926227011E+03  0.91178638041E+02 0.  0.
         11    1    3    3    0    0  0.35300962081E+02  0.11482322253E+02  0.11187930990E+03  0.11787697668E+03  0.00000000000E+00 0. -1.
        -11    1    3    3    0    0 -0.42435978114E+02 -0.38401502939E+02  0.23450239277E+03  0.24138529343E+03  0.00000000000E+00 0.  1.
         22    1    1    2    0    0  0.71350160324E+01  0.26919180685E+02  0.11036568953E+03  0.11382502435E+03  0.00000000000E+00 0. -1.
<mgrwt>
<rscale>  0 0.70088459E+02</rscale>
<asrwt>0</asrwt>
<pdfrwt beam="1">  1        2 0.71525724E-01 0.95336744E+02</pdfrwt>
<pdfrwt beam="2">  1       -2 0.12569159E-02 0.95336744E+02</pdfrwt>
<totfact> 0.90231635E+04</totfact>
</mgrwt>
</event>
<event>
 6    1  0.1727544E-002  0.1062097E+03  0.7546771E-02  0.1295720E+00
         -2   -1    0    0    0  501 -0.00000000000E+00  0.00000000000E+00  0.11085312391E+04  0.11085312391E+04  0.00000000000E+00 0.  1.
          2   -1    0    0  501    0  0.00000000000E+00 -0.00000000000E+00 -0.67730766785E+01  0.67730766785E+01  0.00000000000E+00 0. -1.
         23    2    1    2    0    0 -0.15811842358E+02 -0.60431122588E+02  0.81003952163E+03  0.81697278825E+03  0.85898633241E+02 0.  0.
         11    1    3    3    0    0 -0.17414787188E+02 -0.35223361076E+02  0.11601022154E+03  0.12248400499E+03  0.00000000000E+00 0. -1.
        -11    1    3    3    0    0  0.16029448301E+01 -0.25207761512E+02  0.69402930010E+03  0.69448878325E+03  0.00000000000E+00 0.  1.
         22    1    1    2    0    0  0.15811842358E+02  0.60431122588E+02  0.29171864080E+03  0.29833152754E+03  0.00000000000E+00 0. -1.
<mgrwt>
<rscale>  0 0.93010779E+02</rscale>
<asrwt>0</asrwt>
<pdfrwt beam="1">  1        2 0.10420127E-02 0.10620975E+03</pdfrwt>
<pdfrwt beam="2">  1       -2 0.17054312E+00 0.10620975E+03</pdfrwt>
<totfact> 0.28586105E+03</totfact>
</mgrwt>
</event>
<event>
 6    1  0.1727544E-002  0.9643266E+02  0.7546771E-02  0.1391068E+00
          2   -1    0    0  501    0  0.00000000000E+00  0.00000000000E+00  0.11536321109E+02  0.11536321109E+02  0.00000000000E+00 0. -1.
         -2   -1    0    0    0  501 -0.00000000000E+00 -0.00000000000E+00 -0.27871354017E+03  0.27871354017E+03  0.00000000000E+00 0.  1.
         23    2    1    2    0    0  0.13111107934E+02 -0.93441486040E+01 -0.24018627378E+03  0.25882176252E+03  0.95079147965E+02 0.  0.
         13    1    3    3    0    0 -0.37249677619E+02 -0.20525931559E+02 -0.81025105981E+02  0.91509126038E+02  0.00000000000E+00 0. -1.
        -13    1    3    3    0    0  0.50360785553E+02  0.11181782955E+02 -0.15916116780E+03  0.16731263648E+03  0.00000000000E+00 0.  1.
         22    1    1    2    0    0 -0.13111107934E+02  0.93441486040E+01 -0.26990945284E+02  0.31428098761E+02  0.00000000000E+00 0.  1.
<mgrwt>
<rscale>  0 0.61641825E+02</rscale>
<asrwt>0</asrwt>
<pdfrwt beam="1">  1        2 0.17748187E-02 0.96432664E+02</pdfrwt>
<pdfrwt beam="2">  1       -2 0.42879005E-01 0.96432664E+02</pdfrwt>
<totfact> 0.29562476E+04</totfact>
</mgrwt>
</event>
<event>
 6    1  0.1727544E-002  0.9185863E+02  0.7546771E-02  0.1427730E+00
          1   -1    0    0  501    0  0.00000000000E+00  0.00000000000E+00  0.47755352661E+02  0.47755352661E+02  0.00000000000E+00 0. -1.
         -1   -1    0    0    0  501 -0.00000000000E+00 -0.00000000000E+00 -0.12228025144E+03  0.12228025144E+03  0.00000000000E+00 0.  1.
         23    2    1    2    0    0 -0.93359157399E+01  0.48164554544E+01 -0.10399148402E+03  0.13875242633E+03  0.91255955956E+02 0.  0.
         11    1    3    3    0    0 -0.28486974747E+02  0.38575997890E+02 -0.34220770956E+02  0.58912447821E+02  0.00000000000E+00 0. -1.
        -11    1    3    3    0    0  0.19151059007E+02 -0.33759542435E+02 -0.69770713066E+02  0.79839978509E+02  0.00000000000E+00 0.  1.
         22    1    1    2    0    0  0.93359157399E+01 -0.48164554544E+01  0.29466585241E+02  0.31283177773E+02  0.00000000000E+00 0. -1.
<mgrwt>
<rscale>  0 0.53418319E+02</rscale>
<asrwt>0</asrwt>
<pdfrwt beam="1">  1        1 0.73469774E-02 0.91858625E+02</pdfrwt>
<pdfrwt beam="2">  1       -1 0.18812346E-01 0.91858625E+02</pdfrwt>
<totfact> 0.19315505E+04</totfact>
</mgrwt>
</event>
<event>
 6    1  0.1727544E-002  0.9168988E+02  0.7546771E-02  0.1422358E+00
          4   -1    0    0  501    0  0.00000000000E+00  0.00000000000E+00  0.36268010439E+03  0.36268010439E+03  0.00000000000E+00 0. -1.
         -4   -1    0    0    0  501 -0.00000000000E+00 -0.00000000000E+00 -0.73499419337E+01  0.73499419337E+01  0.00000000000E+00 0.  1.
         23    2    1    2    0    0  0.57207052039E+01 -0.99371739391E+01  0.31031993449E+03  0.32358228517E+03  0.90970103027E+02 0.  0.
         11    1    3    3    0    0 -0.41544260472E+02 -0.13707505906E+02  0.16630523471E+03  0.17196293899E+03  0.00000000000E+00 0. -1.
        -11    1    3    3    0    0  0.47264965676E+02  0.37703319672E+01  0.14401469978E+03  0.15161934618E+03  0.00000000000E+00 0.  1.
         22    1    1    2    0    0 -0.57207052039E+01  0.99371739391E+01  0.45010227967E+02  0.46447761147E+02  0.00000000000E+00 0. -1.
<mgrwt>
<rscale>  0 0.54525039E+02</rscale>
<asrwt>0</asrwt>
<pdfrwt beam="1">  1        4 0.55796925E-01 0.91689877E+02</pdfrwt>
<pdfrwt beam="2">  1       -4 0.11307606E-02 0.91689877E+02</pdfrwt>
<totfact> 0.10995681E+04</totfact>
</mgrwt>
</event>
<event>
 6    1  0.1727544E-002  0.9150594E+02  0.7546771E-02  0.1421525E+00
         -2   -1    0    0    0  501 -0.00000000000E+00  0.00000000000E+00  0.33831053878E+03  0.33831053878E+03  0.00000000000E+00 0.  1.
          2   -1    0    0  501    0  0.00000000000E+00 -0.00000000000E+00 -0.80978549323E+01  0.80978549323E+01  0.00000000000E+00 0. -1.
         23    2    1    2    0    0  0.19022899792E+01 -0.11528043831E+02  0.30806167384E+03  0.32136479680E+03  0.90756945929E+02 0.  0.
         13    1    3    3    0    0 -0.14371189707E+00  0.37182675346E+02  0.80981228913E+02  0.89109659607E+02  0.00000000000E+00 0. -1.
        -13    1    3    3    0    0  0.20460018763E+01 -0.48710719177E+02  0.22708044492E+03  0.23225513719E+03  0.00000000000E+00 0.  1.
         22    1    1    2    0    0 -0.19022899792E+01  0.11528043831E+02  0.22151010010E+02  0.25043596910E+02  0.00000000000E+00 0. -1.
<mgrwt>
<rscale>  0 0.54699622E+02</rscale>
<asrwt>0</asrwt>
<pdfrwt beam="1">  1        2 0.12458241E-02 0.91505944E+02</pdfrwt>
<pdfrwt beam="2">  1       -2 0.52047764E-01 0.91505944E+02</pdfrwt>
<totfact> 0.32600638E+04</totfact>
</mgrwt>
</event>
<event>
 6    1  0.1727544E-002  0.9350345E+02  0.7546771E-02  0.1408527E+00
          1   -1    0    0  501    0  0.00000000000E+00  0.00000000000E+00  0.13084752724E+03  0.13084752724E+03  0.00000000000E+00 0. -1.
         -1   -1    0    0    0  501 -0.00000000000E+00 -0.00000000000E+00 -0.34799026824E+02  0.34799026824E+02  0.00000000000E+00 0.  1.
         23    2    1    2    0    0 -0.17563409103E+01 -0.13278300708E+02  0.29917894291E+02  0.98173188432E+02  0.92539162116E+02 0.  0.
         11    1    3    3    0    0 -0.24968991476E+02 -0.46614677286E+02  0.16729123274E+02  0.55463882296E+02  0.00000000000E+00 0. -1.
        -11    1    3    3    0    0  0.23212650566E+02  0.33336376579E+02  0.13188771016E+02  0.42709306136E+02  0.00000000000E+00 0.  1.
         22    1    1    2    0    0  0.17563409103E+01  0.13278300708E+02  0.66130606129E+02  0.67473365634E+02  0.00000000000E+00 0. -1.
<mgrwt>
<rscale>  0 0.57523846E+02</rscale>
<asrwt>0</asrwt>
<pdfrwt beam="1">  1        1 0.20130389E-01 0.93503447E+02</pdfrwt>
<pdfrwt beam="2">  1       -1 0.53536965E-02 0.93503447E+02</pdfrwt>
<totfact> 0.35228646E+04</totfact>
</mgrwt>
</event>
<event>
 6    1  0.1727544E-002  0.8487114E+02  0.7546771E-02  0.1369944E+00
         -4   -1    0    0    0  501 -0.00000000000E+00  0.00000000000E+00  0.24035366979E+03  0.24035366979E+03  0.00000000000E+00 0.  1.
          4   -1    0    0  501    0  0.00000000000E+00 -0.00000000000E+00 -0.19073360249E+02  0.19073360249E+02  0.00000000000E+00 0. -1.
         23    2    1    2    0    0  0.31638746655E+02  0.10462325378E+02  0.20593813180E+03  0.22274116137E+03  0.78055366875E+02 0.  0.
         13    1    3    3    0    0  0.45134746012E+01 -0.28934541635E+02  0.37137953904E+02  0.47294891614E+02  0.00000000000E+00 0. -1.
        -13    1    3    3    0    0  0.27125272054E+02  0.39396867013E+02  0.16880017790E+03  0.17544626976E+03  0.00000000000E+00 0.  1.
         22    1    1    2    0    0 -0.31638746655E+02 -0.10462325378E+02  0.15342177744E+02  0.36685868671E+02  0.00000000000E+00 0. -1.
<mgrwt>
<rscale>  0 0.67182849E+02</rscale>
<asrwt>0</asrwt>
<pdfrwt beam="1">  1        4 0.29343633E-02 0.84871143E+02</pdfrwt>
<pdfrwt beam="2">  1       -4 0.36977486E-01 0.84871143E+02</pdfrwt>
<totfact> 0.57031496E+03</totfact>
</mgrwt>
</event>
<event>
 6    1  0.1727544E-002  0.8314522E+02  0.7546771E-02  0.1425002E+00
          2   -1    0    0  501    0  0.00000000000E+00  0.00000000000E+00  0.46190691759E+02  0.46190691759E+02  0.00000000000E+00 0. -1.
         -2   -1    0    0    0  501 -0.00000000000E+00 -0.00000000000E+00 -0.54439315293E+02  0.54439315293E+02  0.00000000000E+00 0.  1.
         23    2    1    2    0    0  0.48918873384E+01 -0.13933802867E+02 -0.14838302145E+02  0.84458881913E+02  0.81823261358E+02 0.  0.
         11    1    3    3    0    0 -0.14749962880E+02 -0.44425411320E+01  0.30486613809E+02  0.34157447186E+02  0.00000000000E+00 0. -1.
        -11    1    3    3    0    0  0.19641850219E+02 -0.94912617349E+01 -0.45324915954E+02  0.50301434727E+02  0.00000000000E+00 0.  1.
         22    1    1    2    0    0 -0.48918873384E+01  0.13933802867E+02  0.65896786109E+01  0.16171125139E+02  0.00000000000E+00 0. -1.
<mgrwt>
<rscale>  0 0.53976572E+02</rscale>
<asrwt>0</asrwt>
<pdfrwt beam="1">  1        2 0.71062602E-02 0.83145219E+02</pdfrwt>
<pdfrwt beam="2">  1       -2 0.83752793E-02 0.83145219E+02</pdfrwt>
<totfact> 0.73011082E+04</totfact>
</mgrwt>
</event>
<event>
 6    1  0.1727544E-002  0.9110350E+02  0.7546771E-02  0.1422013E+00
          4   -1    0    0  501    0  0.00000000000E+00  0.00000000000E+00  0.25679551892E+02  0.25679551892E+02  0.00000000000E+00 0. -1.
         -4   -1    0    0    0  501 -0.00000000000E+00 -0.00000000000E+00 -0.10908017384E+03  0.10908017384E+03  0.00000000000E+00 0.  1.
         23    2    1    2    0    0 -0.10901177358E+02  0.43877399411E+01 -0.61540290771E+02  0.10994114381E+03  0.90342458368E+02 0.  0.
         13    1    3    3    0    0  0.25509670599E+02  0.33789648745E+02 -0.40640163439E+02  0.58686510722E+02  0.00000000000E+00 0.  1.
        -13    1    3    3    0    0 -0.36410847957E+02 -0.29401908804E+02 -0.20900127332E+02  0.51254633086E+02  0.00000000000E+00 0. -1.
         22    1    1    2    0    0  0.10901177358E+02 -0.43877399411E+01 -0.21860331178E+02  0.24818581926E+02  0.00000000000E+00 0. -1.
<mgrwt>
<rscale>  0 0.54597249E+02</rscale>
<asrwt>0</asrwt>
<pdfrwt beam="1">  1        4 0.39507003E-02 0.91103500E+02</pdfrwt>
<pdfrwt beam="2">  1       -4 0.16781565E-01 0.91103500E+02</pdfrwt>
<totfact> 0.15566535E+04</totfact>
</mgrwt>
</event>
<event>
 6    1  0.1727544E-002  0.9307085E+02  0.7546771E-02  0.1424238E+00
         -1   -1    0    0    0  501 -0.00000000000E+00  0.00000000000E+00  0.17717842099E+02  0.17717842099E+02  0.00000000000E+00 0.  1.
          1   -1    0    0  501    0  0.00000000000E+00 -0.00000000000E+00 -0.15203631277E+03  0.15203631277E+03  0.00000000000E+00 0. -1.
         23    2    1    2    0    0 -0.38634818891E+01 -0.99271091689E+01 -0.12246174488E+03  0.15381502267E+03  0.92459224804E+02 0.  0.
         13    1    3    3    0    0  0.95886952819E+01 -0.38462394711E+02 -0.11465833086E+03  0.12131707101E+03  0.00000000000E+00 0. -1.
        -13    1    3    3    0    0 -0.13452177171E+02  0.28535285542E+02 -0.78034140240E+01  0.32497951659E+02  0.00000000000E+00 0.  1.
         22    1    1    2    0    0  0.38634818891E+01  0.99271091689E+01 -0.11856725792E+02  0.15939132199E+02  0.00000000000E+00 0. -1.
<mgrwt>
<rscale>  0 0.54134270E+02</rscale>
<asrwt>0</asrwt>
<pdfrwt beam="1">  1        1 0.23390202E-01 0.93070845E+02</pdfrwt>
<pdfrwt beam="2">  1       -1 0.27258218E-02 0.93070845E+02</pdfrwt>
<totfact> 0.77757987E+04</totfact>
</mgrwt>
</event>
<event>
 6    1  0.1727544E-002  0.9710966E+02  0.7546771E-02  0.1345734E+00
         -2   -1    0    0    0  501 -0.00000000000E+00  0.00000000000E+00  0.63525468229E+02  0.63525468229E+02  0.00000000000E+00 0. -1.
          2   -1    0    0  501    0  0.00000000000E+00 -0.00000000000E+00 -0.67094481910E+02  0.67094481910E+02  0.00000000000E+00 0.  1.
         23    2    1    2    0    0  0.33367889132E+02 -0.24952020676E+01 -0.25016237137E+01  0.97141877019E+02  0.91162734114E+02 0.  0.
         11    1    3    3    0    0 -0.26661632411E+01  0.32119837126E+02 -0.26486192837E+02  0.41717032186E+02  0.00000000000E+00 0.  1.
        -11    1    3    3    0    0  0.36034052373E+02 -0.34615039194E+02  0.23984569123E+02  0.55424844833E+02  0.00000000000E+00 0. -1.
         22    1    1    2    0    0 -0.33367889132E+02  0.24952020676E+01 -0.10673899671E+01  0.33478073120E+02  0.00000000000E+00 0. -1.
<mgrwt>
<rscale>  0 0.74401506E+02</rscale>
<asrwt>0</asrwt>
<pdfrwt beam="1">  1        2 0.10322228E-01 0.97109660E+02</pdfrwt>
<pdfrwt beam="2">  1       -2 0.97731489E-02 0.97109660E+02</pdfrwt>
<totfact> 0.37157790E+04</totfact>
</mgrwt>
</event>
<event>
 6    1  0.1727544E-002  0.9286494E+02  0.7546771E-02  0.1411714E+00
         -2   -1    0    0    0  501 -0.00000000000E+00  0.00000000000E+00  0.19765055934E+03  0.19765055934E+03  0.00000000000E+00 0.  1.
          2   -1    0    0  501    0  0.00000000000E+00 -0.00000000000E+00 -0.14390065263E+02  0.14390065263E+02  0.00000000000E+00 0. -1.
         23    2    1    2    0    0 -0.31104560252E+01 -0.12631480625E+02  0.16825494973E+03  0.19218122883E+03  0.91949265170E+02 0.  0.
         11    1    3    3    0    0 -0.37148305230E+02 -0.15976044174E+02  0.31625886144E+02  0.51336412450E+02  0.00000000000E+00 0. -1.
        -11    1    3    3    0    0  0.34037849205E+02  0.33445635487E+01  0.13662906358E+03  0.14084481638E+03  0.00000000000E+00 0.  1.
         22    1    1    2    0    0  0.31104560252E+01  0.12631480625E+02  0.15005544352E+02  0.19859395781E+02  0.00000000000E+00 0.  1.
<mgrwt>
<rscale>  0 0.56813069E+02</rscale>
<asrwt>0</asrwt>
<pdfrwt beam="1">  1        2 0.22138563E-02 0.92864937E+02</pdfrwt>
<pdfrwt beam="2">  1       -2 0.30407776E-01 0.92864937E+02</pdfrwt>
<totfact> 0.41111421E+04</totfact>
</mgrwt>
</event>
<event>
 6    1  0.1727544E-002  0.9938889E+02  0.7546771E-02  0.1411323E+00
          2   -1    0    0  501    0  0.00000000000E+00  0.00000000000E+00  0.37029241086E+01  0.37029241086E+01  0.00000000000E+00 0. -1.
         -2   -1    0    0    0  501 -0.00000000000E+00 -0.00000000000E+00 -0.92471480045E+03  0.92471480045E+03  0.00000000000E+00 0.  1.
         23    2    1    2    0    0  0.10405240085E+02 -0.23907835387E+01 -0.89170349560E+03  0.89722532085E+03  0.98813801919E+02 0.  0.
         11    1    3    3    0    0  0.23787900721E+02  0.15198348347E+02 -0.84587420971E+03  0.84634510258E+03  0.00000000000E+00 0.  1.
        -11    1    3    3    0    0 -0.13382660635E+02 -0.17589131886E+02 -0.45829285889E+02  0.50880218271E+02  0.00000000000E+00 0. -1.
         22    1    1    2    0    0 -0.10405240085E+02  0.23907835387E+01 -0.29308380737E+02  0.31192403700E+02  0.00000000000E+00 0. -1.
<mgrwt>
<rscale>  0 0.56899611E+02</rscale>
<asrwt>0</asrwt>
<pdfrwt beam="1">  1        2 0.56968034E-03 0.99388894E+02</pdfrwt>
<pdfrwt beam="2">  1       -2 0.14226389E+00 0.99388894E+02</pdfrwt>
<totfact> 0.10390399E+04</totfact>
</mgrwt>
</event>
<event>
 6    1  0.1727544E-002  0.9252426E+02  0.7546771E-02  0.1393475E+00
         -1   -1    0    0    0  501 -0.00000000000E+00  0.00000000000E+00  0.34869784182E+02  0.34869784182E+02  0.00000000000E+00 0.  1.
          1   -1    0    0  501    0  0.00000000000E+00 -0.00000000000E+00 -0.12769929782E+03  0.12769929782E+03  0.00000000000E+00 0. -1.
         23    2    1    2    0    0 -0.17538404291E+02  0.29844676261E-01 -0.29891220934E+02  0.97232834756E+02  0.90846808144E+02 0.  0.
         13    1    3    3    0    0  0.45227477084E+01 -0.77740890694E+01 -0.59114590819E+02  0.59794870644E+02  0.00000000000E+00 0. -1.
        -13    1    3    3    0    0 -0.22061151999E+02  0.78039337456E+01  0.29223369885E+02  0.37437964112E+02  0.00000000000E+00 0.  1.
         22    1    1    2    0    0  0.17538404291E+02 -0.29844676261E-01 -0.62938292702E+02  0.65336247244E+02  0.00000000000E+00 0. -1.
<mgrwt>
<rscale>  0 0.61050524E+02</rscale>
<asrwt>0</asrwt>
<pdfrwt beam="1">  1        1 0.19646046E-01 0.92524262E+02</pdfrwt>
<pdfrwt beam="2">  1       -1 0.53645822E-02 0.92524262E+02</pdfrwt>
<totfact> 0.36167628E+04</totfact>
</mgrwt>
</event>
<event>
 6    1  0.1727544E-002  0.9326446E+02  0.7546771E-02  0.1395074E+00
         -2   -1    0    0    0  501 -0.00000000000E+00  0.00000000000E+00  0.48922720913E+01  0.48922720913E+01  0.00000000000E+00 0.  1.
          2   -1    0    0  501    0  0.00000000000E+00 -0.00000000000E+00 -0.61823568031E+03  0.61823568031E+03  0.00000000000E+00 0. -1.
         23    2    1    2    0    0  0.64484548221E+01  0.15396791762E+02 -0.52575487793E+03  0.53396296822E+03  0.91758465525E+02 0.  0.
         13    1    3    3    0    0 -0.28741555074E+02 -0.23689773059E+02 -0.29191270024E+03  0.29427930083E+03  0.00000000000E+00 0. -1.
        -13    1    3    3    0    0  0.35190009896E+02  0.39086564821E+02 -0.23384217769E+03  0.23968366738E+03  0.00000000000E+00 0.  1.
         22    1    1    2    0    0 -0.64484548221E+01 -0.15396791762E+02 -0.87588530287E+02  0.89164984181E+02  0.00000000000E+00 0.  1.
<mgrwt>
<rscale>  0 0.60662221E+02</rscale>
<asrwt>0</asrwt>
<pdfrwt beam="1">  1        2 0.95113162E-01 0.93264461E+02</pdfrwt>
<pdfrwt beam="2">  1       -2 0.75265740E-03 0.93264461E+02</pdfrwt>
<totfact> 0.13604826E+05</totfact>
</mgrwt>
</event>
<event>
 6    1  0.1727544E-002  0.9210192E+02  0.7546771E-02  0.1398267E+00
         -2   -1    0    0    0  501 -0.00000000000E+00  0.00000000000E+00  0.10639340410E+03  0.10639340410E+03  0.00000000000E+00 0.  1.
          2   -1    0    0  501    0  0.00000000000E+00 -0.00000000000E+00 -0.30736744658E+02  0.30736744658E+02  0.00000000000E+00 0. -1.
         23    2    1    2    0    0 -0.15311908440E+02 -0.60775274378E+01  0.77740013182E+02  0.12052499165E+03  0.90616626963E+02 0.  0.
         11    1    3    3    0    0  0.18507407942E+02 -0.39771157236E+02  0.31001267340E+02  0.53715432358E+02  0.00000000000E+00 0. -1.
        -11    1    3    3    0    0 -0.33819316382E+02  0.33693629799E+02  0.46738745841E+02  0.66809559289E+02  0.00000000000E+00 0.  1.
         22    1    1    2    0    0  0.15311908440E+02  0.60775274378E+01 -0.20833537404E+01  0.16605157110E+02  0.00000000000E+00 0.  1.
<mgrwt>
<rscale>  0 0.59896428E+02</rscale>
<asrwt>0</asrwt>
<pdfrwt beam="1">  1        2 0.47287300E-02 0.92101922E+02</pdfrwt>
<pdfrwt beam="2">  1       -2 0.16368216E-01 0.92101922E+02</pdfrwt>
<totfact> 0.43268419E+04</totfact>
</mgrwt>
</event>
<event>
 6    1  0.1727544E-002  0.9378405E+02  0.7546771E-02  0.1388189E+00
         -3   -1    0    0    0  501 -0.00000000000E+00  0.00000000000E+00  0.13054415577E+02  0.13054415577E+02  0.00000000000E+00 0.  1.
          3   -1    0    0  501    0  0.00000000000E+00 -0.00000000000E+00 -0.24109126675E+03  0.24109126675E+03  0.00000000000E+00 0. -1.
         23    2    1    2    0    0 -0.18329223545E+02 -0.33795563369E+00 -0.19430041823E+03  0.21575008939E+03  0.91974854689E+02 0.  0.
         11    1    3    3    0    0 -0.50126124414E+02 -0.83512785554E+01 -0.16175624487E+03  0.16955074449E+03  0.00000000000E+00 0. -1.
        -11    1    3    3    0    0  0.31796900869E+02  0.80133229217E+01 -0.32544173365E+02  0.46199344900E+02  0.00000000000E+00 0.  1.
         22    1    1    2    0    0  0.18329223545E+02  0.33795563369E+00 -0.33736432937E+02  0.38395592938E+02  0.00000000000E+00 0.  1.
<mgrwt>
<rscale>  0 0.62359298E+02</rscale>
<asrwt>0</asrwt>
<pdfrwt beam="1">  1        3 0.37090962E-01 0.93784053E+02</pdfrwt>
<pdfrwt beam="2">  1       -3 0.20083717E-02 0.93784053E+02</pdfrwt>
<totfact> 0.14110309E+04</totfact>
</mgrwt>
</event>
<event>
 6    1  0.1727544E-002  0.9022531E+02  0.7546771E-02  0.1426811E+00
         -2   -1    0    0    0  501 -0.00000000000E+00  0.00000000000E+00  0.33764669554E+02  0.33764669554E+02  0.00000000000E+00 0.  1.
          2   -1    0    0  501    0  0.00000000000E+00 -0.00000000000E+00 -0.77105987683E+02  0.77105987683E+02  0.00000000000E+00 0. -1.
         23    2    1    2    0    0 -0.92248404637E+01  0.64256124322E+01 -0.34608381820E+02  0.96635125870E+02  0.89522183189E+02 0.  0.
         11    1    3    3    0    0  0.72201232988E+01 -0.31944232163E+01 -0.62423439784E+02  0.62920746615E+02  0.00000000000E+00 0. -1.
        -11    1    3    3    0    0 -0.16444963762E+02  0.96200356485E+01  0.27815057964E+02  0.33714379255E+02  0.00000000000E+00 0.  1.
         22    1    1    2    0    0  0.92248404637E+01 -0.64256124322E+01 -0.87329363086E+01  0.14235531366E+02  0.00000000000E+00 0.  1.
<mgrwt>
<rscale>  0 0.53605426E+02</rscale>
<asrwt>0</asrwt>
<pdfrwt beam="1">  1        2 0.11862460E-01 0.90225315E+02</pdfrwt>
<pdfrwt beam="2">  1       -2 0.51945646E-02 0.90225315E+02</pdfrwt>
<totfact> 0.81291170E+04</totfact>
</mgrwt>
</event>
<event>
 6    1  0.1727544E-002  0.8991343E+02  0.7546771E-02  0.1434498E+00
         -2   -1    0    0    0  501 -0.00000000000E+00  0.00000000000E+00  0.24354479223E+03  0.24354479223E+03  0.00000000000E+00 0.  1.
          2   -1    0    0  501    0  0.00000000000E+00 -0.00000000000E+00 -0.21938378167E+02  0.21938378167E+02  0.00000000000E+00 0. -1.
         23    2    1    2    0    0  0.13781597345E+01 -0.10016751336E+02  0.23329866213E+03  0.25002537960E+03  0.89343103035E+02 0.  0.
         11    1    3    3    0    0 -0.19066337837E+02 -0.42669749448E+02  0.87223918701E+02  0.98955771686E+02  0.00000000000E+00 0. -1.
        -11    1    3    3    0    0  0.20444497571E+02  0.32652998112E+02  0.14607474343E+03  0.15106960791E+03  0.00000000000E+00 0.  1.
         22    1    1    2    0    0 -0.13781597345E+01  0.10016751336E+02 -0.11692248066E+02  0.15457790801E+02  0.00000000000E+00 0. -1.
<mgrwt>
<rscale>  0 0.52067674E+02</rscale>
<asrwt>0</asrwt>
<pdfrwt beam="1">  1        2 0.33751353E-02 0.89913429E+02</pdfrwt>
<pdfrwt beam="2">  1       -2 0.37468428E-01 0.89913429E+02</pdfrwt>
<totfact> 0.15957602E+04</totfact>
</mgrwt>
</event>
<event>
 6    1  0.1727544E-002  0.9209053E+02  0.7546771E-02  0.1381874E+00
         -2   -1    0    0    0  501 -0.00000000000E+00  0.00000000000E+00  0.79345555338E+03  0.79345555338E+03  0.00000000000E+00 0.  1.
          2   -1    0    0  501    0  0.00000000000E+00 -0.00000000000E+00 -0.51327457098E+01  0.51327457098E+01  0.00000000000E+00 0. -1.
         23    2    1    2    0    0  0.12190887161E+01 -0.21412185243E+02  0.74015011286E+03  0.74585712824E+03  0.89558351493E+02 0.  0.
         13    1    3    3    0    0 -0.25739175202E+02 -0.10221355659E+01  0.65830708033E+02  0.70691102844E+02  0.00000000000E+00 0. -1.
        -13    1    3    3    0    0  0.26958263918E+02 -0.20390049677E+02  0.67431940483E+03  0.67516602540E+03  0.00000000000E+00 0.  1.
         22    1    1    2    0    0 -0.12190887161E+01  0.21412185243E+02  0.48172694811E+02  0.52731170852E+02  0.00000000000E+00 0. -1.
<mgrwt>
<rscale>  0 0.63973804E+02</rscale>
<asrwt>0</asrwt>
<pdfrwt beam="1">  1        2 0.78965382E-03 0.92090533E+02</pdfrwt>
<pdfrwt beam="2">  1       -2 0.12206999E+00 0.92090533E+02</pdfrwt>
<totfact> 0.95393598E+03</totfact>
</mgrwt>
</event>
<event>
 6    1  0.1727544E-002  0.9186117E+02  0.7546771E-02  0.1409270E+00
          2   -1    0    0  501    0  0.00000000000E+00  0.00000000000E+00  0.40818694231E+02  0.40818694231E+02  0.00000000000E+00 0. -1.
         -2   -1    0    0    0  501 -0.00000000000E+00 -0.00000000000E+00 -0.73458522494E+02  0.73458522494E+02  0.00000000000E+00 0.  1.
         23    2    1    2    0    0 -0.67756243264E+00  0.13945605196E+02 -0.37879125002E+02  0.99364496468E+02  0.90793920789E+02 0.  0.
         13    1    3    3    0    0  0.11132073856E+02  0.76332080166E+01  0.28560202976E+02  0.31589145715E+02  0.00000000000E+00 0. -1.
        -13    1    3    3    0    0 -0.11809636289E+02  0.63123971799E+01 -0.66439327978E+02  0.67775350753E+02  0.00000000000E+00 0.  1.
         22    1    1    2    0    0  0.67756243264E+00 -0.13945605196E+02  0.52392967394E+01  0.14912720257E+02  0.00000000000E+00 0.  1.
<mgrwt>
<rscale>  0 0.57356987E+02</rscale>
<asrwt>0</asrwt>
<pdfrwt beam="1">  1        2 0.62797991E-02 0.91861173E+02</pdfrwt>
<pdfrwt beam="2">  1       -2 0.11301311E-01 0.91861173E+02</pdfrwt>
<totfact> 0.54425580E+04</totfact>
</mgrwt>
</event>
<event>
 6    1  0.1727544E-002  0.9172458E+02  0.7546771E-02  0.1411155E+00
          2   -1    0    0  501    0  0.00000000000E+00  0.00000000000E+00  0.13083587371E+03  0.13083587371E+03  0.00000000000E+00 0.  1.
         -2   -1    0    0    0  501 -0.00000000000E+00 -0.00000000000E+00 -0.22003710200E+02  0.22003710200E+02  0.00000000000E+00 0. -1.
         23    2    1    2    0    0 -0.12005623991E+02  0.64280928486E+01  0.83308144953E+02  0.12390982573E+03  0.90708006878E+02 0.  0.
         13    1    3    3    0    0 -0.37495396460E+02 -0.90103330517E+01  0.35023057138E+01  0.38721531513E+02  0.00000000000E+00 0. -1.
        -13    1    3    3    0    0  0.25489772470E+02  0.15438425900E+02  0.79805839240E+02  0.85188294217E+02  0.00000000000E+00 0.  1.
         22    1    1    2    0    0  0.12005623991E+02 -0.64280928486E+01  0.25524018558E+02  0.28929758182E+02  0.00000000000E+00 0. -1.
<mgrwt>
<rscale>  0 0.56936952E+02</rscale>
<asrwt>0</asrwt>
<pdfrwt beam="1">  1        2 0.20128596E-01 0.91724576E+02</pdfrwt>
<pdfrwt beam="2">  1       -2 0.33851863E-02 0.91724576E+02</pdfrwt>
<totfact> 0.83282770E+04</totfact>
</mgrwt>
</event>
<event>
 6    1  0.1727544E-002  0.8809209E+02  0.7546771E-02  0.1420257E+00
         -3   -1    0    0    0  501 -0.00000000000E+00  0.00000000000E+00  0.14090939697E+03  0.14090939697E+03  0.00000000000E+00 0.  1.
          3   -1    0    0  501    0  0.00000000000E+00 -0.00000000000E+00 -0.30717656735E+02  0.30717656735E+02  0.00000000000E+00 0. -1.
         23    2    1    2    0    0 -0.40480260926E+01  0.12724752928E+02  0.12420328881E+03  0.15227170958E+03  0.87074168021E+02 0.  0.
         13    1    3    3    0    0 -0.27112316180E+02 -0.13381594098E+02  0.11095741146E+03  0.11500300825E+03  0.00000000000E+00 0.  1.
        -13    1    3    3    0    0  0.23064290088E+02  0.26106347026E+02  0.13245877351E+02  0.37268701334E+02  0.00000000000E+00 0. -1.
         22    1    1    2    0    0  0.40480260926E+01 -0.12724752928E+02 -0.14011548578E+02  0.19355344117E+02  0.00000000000E+00 0.  1.
<mgrwt>
<rscale>  0 0.54966539E+02</rscale>
<asrwt>0</asrwt>
<pdfrwt beam="1">  1        3 0.47257934E-02 0.88092092E+02</pdfrwt>
<pdfrwt beam="2">  1       -3 0.21678368E-01 0.88092092E+02</pdfrwt>
<totfact> 0.99358880E+03</totfact>
</mgrwt>
</event>
<event>
 6    1  0.1727544E-002  0.9367983E+02  0.7546771E-02  0.1395777E+00
         -1   -1    0    0    0  501 -0.00000000000E+00  0.00000000000E+00  0.17901486461E+02  0.17901486461E+02  0.00000000000E+00 0.  1.
          1   -1    0    0  501    0  0.00000000000E+00 -0.00000000000E+00 -0.17249867825E+03  0.17249867825E+03  0.00000000000E+00 0. -1.
         23    2    1    2    0    0  0.14637973122E+02  0.71434085341E+01 -0.12066413109E+03  0.15276040978E+03  0.92252976770E+02 0.  0.
         13    1    3    3    0    0  0.42161265788E+02  0.14897800357E+02 -0.21614660469E+02  0.49665987713E+02  0.00000000000E+00 0.  1.
        -13    1    3    3    0    0 -0.27523292666E+02 -0.77543918234E+01 -0.99049470619E+02  0.10309442207E+03  0.00000000000E+00 0. -1.
         22    1    1    2    0    0 -0.14637973122E+02 -0.71434085341E+01 -0.33933060703E+02  0.37639754931E+02  0.00000000000E+00 0.  1.
<mgrwt>
<rscale>  0 0.60492485E+02</rscale>
<asrwt>0</asrwt>
<pdfrwt beam="1">  1        1 0.26538258E-01 0.93679828E+02</pdfrwt>
<pdfrwt beam="2">  1       -1 0.27540748E-02 0.93679828E+02</pdfrwt>
<totfact> 0.65563615E+04</totfact>
</mgrwt>
</event>
<event>
 6    1  0.1727544E-002  0.1003810E+03  0.7546771E-02  0.1350417E+00
          4   -1    0    0  501    0  0.00000000000E+00  0.00000000000E+00  0.13388116084E+02  0.13388116084E+02  0.00000000000E+00 0. -1.
         -4   -1    0    0    0  501 -0.00000000000E+00 -0.00000000000E+00 -0.31035645206E+03  0.31035645206E+03  0.00000000000E+00 0.  1.
         23    2    1    2    0    0 -0.13649430923E+02 -0.24404221715E+02 -0.24417536124E+03  0.26400370120E+03  0.96407853453E+02 0.  0.
         13    1    3    3    0    0  0.73886561804E+01 -0.33804878888E+02 -0.23750827636E+03  0.24001571493E+03  0.00000000000E+00 0.  1.
        -13    1    3    3    0    0 -0.21038087104E+02  0.94006571731E+01 -0.66670848853E+01  0.23987986267E+02  0.00000000000E+00 0. -1.
         22    1    1    2    0    0  0.13649430923E+02  0.24404221715E+02 -0.52792974731E+02  0.59740866942E+02  0.00000000000E+00 0.  1.
<mgrwt>
<rscale>  0 0.72925715E+02</rscale>
<asrwt>0</asrwt>
<pdfrwt beam="1">  1        4 0.20597104E-02 0.10038101E+03</pdfrwt>
<pdfrwt beam="2">  1       -4 0.47747141E-01 0.10038101E+03</pdfrwt>
<totfact> 0.62442525E+03</totfact>
</mgrwt>
</event>
<event>
 6    1  0.1727544E-002  0.8955578E+02  0.7546771E-02  0.1433815E+00
          3   -1    0    0  501    0  0.00000000000E+00  0.00000000000E+00  0.62321799833E+02  0.62321799833E+02  0.00000000000E+00 0. -1.
         -3   -1    0    0    0  501 -0.00000000000E+00 -0.00000000000E+00 -0.22293418047E+03  0.22293418047E+03  0.00000000000E+00 0.  1.
         23    2    1    2    0    0 -0.96027436452E+01  0.38307687033E+01 -0.21341868198E+03  0.23144712475E+03  0.88957013569E+02 0.  0.
         11    1    3    3    0    0  0.28095933536E+02 -0.21575375319E+02 -0.14527180528E+03  0.14952851137E+03  0.00000000000E+00 0.  1.
        -11    1    3    3    0    0 -0.37698677181E+02  0.25406144022E+02 -0.68146876698E+02  0.81918613386E+02  0.00000000000E+00 0. -1.
         22    1    1    2    0    0  0.96027436452E+01 -0.38307687033E+01  0.52806301343E+02  0.53808855553E+02  0.00000000000E+00 0. -1.
<mgrwt>
<rscale>  0 0.52201871E+02</rscale>
<asrwt>0</asrwt>
<pdfrwt beam="1">  1        3 0.95879691E-02 0.89555780E+02</pdfrwt>
<pdfrwt beam="2">  1       -3 0.34297566E-01 0.89555780E+02</pdfrwt>
<totfact> 0.14076625E+03</totfact>
</mgrwt>
</event>
<event>
 6    1  0.1727544E-002  0.9082735E+02  0.7546771E-02  0.1432363E+00
         -2   -1    0    0    0  501 -0.00000000000E+00  0.00000000000E+00  0.14799144578E+02  0.14799144578E+02  0.00000000000E+00 0. -1.
          2   -1    0    0  501    0  0.00000000000E+00 -0.00000000000E+00 -0.17218124497E+03  0.17218124497E+03  0.00000000000E+00 0.  1.
         23    2    1    2    0    0 -0.73661591880E+01  0.69539253508E+01 -0.14137501129E+03  0.16803720395E+03  0.90260682005E+02 0.  0.
         11    1    3    3    0    0 -0.38514284637E+02 -0.74145883040E+01 -0.24528908639E+02  0.46260064849E+02  0.00000000000E+00 0. -1.
        -11    1    3    3    0    0  0.31148125449E+02  0.14368513655E+02 -0.11684610265E+03  0.12177713911E+03  0.00000000000E+00 0.  1.
         22    1    1    2    0    0  0.73661591880E+01 -0.69539253508E+01 -0.16007089101E+02  0.18943185594E+02  0.00000000000E+00 0.  1.
<mgrwt>
<rscale>  0 0.52488614E+02</rscale>
<asrwt>0</asrwt>
<pdfrwt beam="1">  1        2 0.26489420E-01 0.90827353E+02</pdfrwt>
<pdfrwt beam="2">  1       -2 0.22767917E-02 0.90827353E+02</pdfrwt>
<totfact> 0.10932592E+05</totfact>
</mgrwt>
</event>
<event>
 6    1  0.1727544E-002  0.8924225E+02  0.7546771E-02  0.1419684E+00
         -2   -1    0    0    0  501 -0.00000000000E+00  0.00000000000E+00  0.36885854412E+02  0.36885854412E+02  0.00000000000E+00 0.  1.
          2   -1    0    0  501    0  0.00000000000E+00 -0.00000000000E+00 -0.87407619632E+02  0.87407619632E+02  0.00000000000E+00 0. -1.
         23    2    1    2    0    0 -0.36572872281E+01 -0.12430279556E+02 -0.20459098742E+02  0.91557385159E+02  0.88296616334E+02 0.  0.
         11    1    3    3    0    0 -0.47439731281E+01 -0.16749712838E+02  0.33320283800E+02  0.37593875481E+02  0.00000000000E+00 0.  1.
        -11    1    3    3    0    0  0.10866859000E+01  0.43194332820E+01 -0.53779382542E+02  0.53963509678E+02  0.00000000000E+00 0. -1.
         22    1    1    2    0    0  0.36572872281E+01  0.12430279556E+02 -0.30062666478E+02  0.32736088885E+02  0.00000000000E+00 0.  1.
<mgrwt>
<rscale>  0 0.55087775E+02</rscale>
<asrwt>0</asrwt>
<pdfrwt beam="1">  1        2 0.13447326E-01 0.89242255E+02</pdfrwt>
<pdfrwt beam="2">  1       -2 0.56747469E-02 0.89242255E+02</pdfrwt>
<totfact> 0.61347921E+04</totfact>
</mgrwt>
</event>
<event>
 6    1  0.1727544E-002  0.9208928E+02  0.7546771E-02  0.1416078E+00
          2   -1    0    0  501    0  0.00000000000E+00  0.00000000000E+00  0.40635654282E+02  0.40635654282E+02  0.00000000000E+00 0.  1.
         -2   -1    0    0    0  501 -0.00000000000E+00 -0.00000000000E+00 -0.93499889264E+02  0.93499889264E+02  0.00000000000E+00 0. -1.
         23    2    1    2    0    0  0.94587946870E+01  0.81213088507E+01 -0.68037958181E+02  0.11449715435E+03  0.91241493560E+02 0.  0.
         11    1    3    3    0    0  0.16955278237E+02  0.24311048131E-01 -0.89111118657E+02  0.90709831437E+02  0.00000000000E+00 0. -1.
        -11    1    3    3    0    0 -0.74964835495E+01  0.80969978026E+01  0.21073160476E+02  0.23787322915E+02  0.00000000000E+00 0.  1.
         22    1    1    2    0    0 -0.94587946870E+01 -0.81213088507E+01  0.15173723199E+02  0.19638389193E+02  0.00000000000E+00 0.  1.
<mgrwt>
<rscale>  0 0.55859457E+02</rscale>
<asrwt>0</asrwt>
<pdfrwt beam="1">  1        2 0.62516392E-02 0.92089275E+02</pdfrwt>
<pdfrwt beam="2">  1       -2 0.14384598E-01 0.92089275E+02</pdfrwt>
<totfact> 0.37302896E+04</totfact>
</mgrwt>
</event>
<event>
 6    1  0.1727544E-002  0.8555170E+02  0.7546771E-02  0.1343535E+00
          2   -1    0    0  501    0  0.00000000000E+00  0.00000000000E+00  0.56876598559E+02  0.56876598559E+02  0.00000000000E+00 0. -1.
         -2   -1    0    0    0  501 -0.00000000000E+00 -0.00000000000E+00 -0.82574283251E+02  0.82574283251E+02  0.00000000000E+00 0.  1.
         23    2    1    2    0    0 -0.40155253545E+02  0.31155351268E+02 -0.22831760280E+02  0.88545932909E+02  0.68818548789E+02 0.  0.
         13    1    3    3    0    0 -0.57944945842E+02  0.33150226724E+02 -0.12629461892E+02  0.67941574814E+02  0.00000000000E+00 0. -1.
        -13    1    3    3    0    0  0.17789692297E+02 -0.19948754560E+01 -0.10202298388E+02  0.20604358095E+02  0.00000000000E+00 0.  1.
         22    1    1    2    0    0  0.40155253545E+02 -0.31155351268E+02 -0.28659244125E+01  0.50904948901E+02  0.00000000000E+00 0.  1.
<mgrwt>
<rscale>  0 0.75108508E+02</rscale>
<asrwt>0</asrwt>
<pdfrwt beam="1">  1        2 0.87502459E-02 0.85551698E+02</pdfrwt>
<pdfrwt beam="2">  1       -2 0.12703736E-01 0.85551698E+02</pdfrwt>
<totfact> 0.29617072E+04</totfact>
</mgrwt>
</event>
<event>
 6    1  0.1727544E-002  0.9079133E+02  0.7546771E-02  0.1431458E+00
         -1   -1    0    0    0  501 -0.00000000000E+00  0.00000000000E+00  0.10413134663E+03  0.10413134663E+03  0.00000000000E+00 0.  1.
          1   -1    0    0  501    0  0.00000000000E+00 -0.00000000000E+00 -0.24534529267E+02  0.24534529267E+02  0.00000000000E+00 0. -1.
         23    2    1    2    0    0  0.10053159551E+02  0.21559857791E+01  0.72207756267E+02  0.11600441802E+03  0.90207264918E+02 0.  0.
         13    1    3    3    0    0 -0.26019076287E+02 -0.29019718606E+02  0.15570221864E+02  0.41971040107E+02  0.00000000000E+00 0.  1.
        -13    1    3    3    0    0  0.36072235838E+02  0.31175704385E+02  0.56637534403E+02  0.74033377915E+02  0.00000000000E+00 0. -1.
         22    1    1    2    0    0 -0.10053159551E+02 -0.21559857791E+01  0.73890610976E+01  0.12661457876E+02  0.00000000000E+00 0.  1.
<mgrwt>
<rscale>  0 0.52668383E+02</rscale>
<asrwt>0</asrwt>
<pdfrwt beam="1">  1        1 0.37745430E-02 0.90791326E+02</pdfrwt>
<pdfrwt beam="2">  1       -1 0.16020207E-01 0.90791326E+02</pdfrwt>
<totfact> 0.60880305E+04</totfact>
</mgrwt>
</event>
<event>
 6    1  0.1727544E-002  0.9349771E+02  0.7546771E-02  0.1388172E+00
          2   -1    0    0  501    0  0.00000000000E+00  0.00000000000E+00  0.14086077860E+03  0.14086077860E+03  0.00000000000E+00 0.  1.
         -2   -1    0    0    0  501 -0.00000000000E+00 -0.00000000000E+00 -0.22404582468E+02  0.22404582468E+02  0.00000000000E+00 0. -1.
         23    2    1    2    0    0  0.18334931605E+02  0.25146145554E+01  0.10343740702E+03  0.13943141407E+03  0.91647853518E+02 0.  0.
         13    1    3    3    0    0 -0.26548353392E+02  0.24684720870E+02  0.18157944343E+02  0.40544561350E+02  0.00000000000E+00 0. -1.
        -13    1    3    3    0    0  0.44883284997E+02 -0.22170106314E+02  0.85279462674E+02  0.98886852716E+02  0.00000000000E+00 0.  1.
         22    1    1    2    0    0 -0.18334931605E+02 -0.25146145554E+01  0.15018789115E+02  0.23833947004E+02  0.00000000000E+00 0. -1.
<mgrwt>
<rscale>  0 0.62363747E+02</rscale>
<asrwt>0</asrwt>
<pdfrwt beam="1">  1        2 0.21670889E-01 0.93497712E+02</pdfrwt>
<pdfrwt beam="2">  1       -2 0.34468589E-02 0.93497712E+02</pdfrwt>
<totfact> 0.74930607E+04</totfact>
</mgrwt>
</event>
<event>
 6    1  0.1727544E-002  0.9419227E+02  0.7546771E-02  0.1421654E+00
         -2   -1    0    0    0  501 -0.00000000000E+00  0.00000000000E+00  0.42215656561E+02  0.42215656561E+02  0.00000000000E+00 0.  1.
          2   -1    0    0  501    0  0.00000000000E+00 -0.00000000000E+00 -0.67350338275E+02  0.67350338275E+02  0.00000000000E+00 0. -1.
         23    2    1    2    0    0  0.85606804430E+01 -0.64045960754E+01 -0.16078677382E+02  0.95554738112E+02  0.93583545609E+02 0.  0.
         13    1    3    3    0    0 -0.21384849791E+02  0.12132135160E+02  0.29212426138E+02  0.38182015989E+02  0.00000000000E+00 0.  1.
        -13    1    3    3    0    0  0.29945530234E+02 -0.18536731235E+02 -0.45291103519E+02  0.57372722123E+02  0.00000000000E+00 0. -1.
         22    1    1    2    0    0 -0.85606804430E+01  0.64045960754E+01 -0.90560043315E+01  0.14011256724E+02  0.00000000000E+00 0. -1.
<mgrwt>
<rscale>  0 0.54672531E+02</rscale>
<asrwt>0</asrwt>
<pdfrwt beam="1">  1        2 0.10361591E-01 0.94192272E+02</pdfrwt>
<pdfrwt beam="2">  1       -2 0.64947163E-02 0.94192272E+02</pdfrwt>
<totfact> 0.68848335E+04</totfact>
</mgrwt>
</event>
<event>
 6    1  0.1727544E-002  0.7306085E+02  0.7546771E-02  0.1415073E+00
         -2   -1    0    0    0  501 -0.00000000000E+00  0.00000000000E+00  0.65610530158E+01  0.65610530158E+01  0.00000000000E+00 0.  1.
          2   -1    0    0  501    0  0.00000000000E+00 -0.00000000000E+00 -0.38298060182E+03  0.38298060182E+03  0.00000000000E+00 0. -1.
         23    2    1    2    0    0  0.58339145982E+01  0.24676185809E+02 -0.24347655900E+03  0.25420212903E+03  0.68519624330E+02 0.  0.
         13    1    3    3    0    0 -0.52777032981E+01 -0.22387323536E+02 -0.10605460454E+03  0.10852016195E+03  0.00000000000E+00 0. -1.
        -13    1    3    3    0    0  0.11111617896E+02  0.47063509345E+02 -0.13742195446E+03  0.14568196708E+03  0.00000000000E+00 0.  1.
         22    1    1    2    0    0 -0.58339145982E+01 -0.24676185809E+02 -0.13294298981E+03  0.13533952581E+03  0.00000000000E+00 0. -1.
<mgrwt>
<rscale>  0 0.56077104E+02</rscale>
<asrwt>0</asrwt>
<pdfrwt beam="1">  1        2 0.58920095E-01 0.73060849E+02</pdfrwt>
<pdfrwt beam="2">  1       -2 0.10093927E-02 0.73060849E+02</pdfrwt>
<totfact> 0.14491590E+05</totfact>
</mgrwt>
</event>
<event>
 6    1  0.1727544E-002  0.1007700E+03  0.7546771E-02  0.1326161E+00
          2   -1    0    0  501    0  0.00000000000E+00  0.00000000000E+00  0.59947684808E+02  0.59947684808E+02  0.00000000000E+00 0.  1.
         -2   -1    0    0    0  501 -0.00000000000E+00 -0.00000000000E+00 -0.85320976909E+02  0.85320976909E+02  0.00000000000E+00 0. -1.
         23    2    1    2    0    0 -0.24184760978E+02 -0.34489569355E+02 -0.14936576032E+02  0.10187098782E+03  0.91543234578E+02 0.  0.
         13    1    3    3    0    0 -0.10783882298E+02 -0.25730753978E+02 -0.53377883589E+02  0.60229247664E+02  0.00000000000E+00 0. -1.
        -13    1    3    3    0    0 -0.13400878680E+02 -0.87588153765E+01  0.38441307557E+02  0.41641740152E+02  0.00000000000E+00 0.  1.
         22    1    1    2    0    0  0.24184760978E+02  0.34489569355E+02 -0.10436716068E+02  0.43397673902E+02  0.00000000000E+00 0. -1.
<mgrwt>
<rscale>  0 0.81027224E+02</rscale>
<asrwt>0</asrwt>
<pdfrwt beam="1">  1        2 0.92227208E-02 0.10077002E+03</pdfrwt>
<pdfrwt beam="2">  1       -2 0.13126304E-01 0.10077002E+03</pdfrwt>
<totfact> 0.26898430E+04</totfact>
</mgrwt>
</event>
<event>
 6    1  0.1727544E-002  0.9240145E+02  0.7546771E-02  0.1405764E+00
         -2   -1    0    0    0  501 -0.00000000000E+00  0.00000000000E+00  0.19409375948E+02  0.19409375948E+02  0.00000000000E+00 0. -1.
          2   -1    0    0  501    0  0.00000000000E+00 -0.00000000000E+00 -0.14725889980E+03  0.14725889980E+03  0.00000000000E+00 0.  1.
         23    2    1    2    0    0 -0.14009658238E+02  0.37116553162E+01 -0.11183875740E+03  0.14507217537E+03  0.91257775014E+02 0.  0.
         13    1    3    3    0    0  0.71494214766E+01 -0.36035271879E+02 -0.17829514707E+02  0.40835605071E+02  0.00000000000E+00 0.  1.
        -13    1    3    3    0    0 -0.21159079714E+02  0.39746927195E+02 -0.94009242696E+02  0.10423657030E+03  0.00000000000E+00 0. -1.
         22    1    1    2    0    0  0.14009658238E+02 -0.37116553162E+01 -0.16010766444E+02  0.21596100372E+02  0.00000000000E+00 0.  1.
<mgrwt>
<rscale>  0 0.58149855E+02</rscale>
<asrwt>0</asrwt>
<pdfrwt beam="1">  1        2 0.22655214E-01 0.92401452E+02</pdfrwt>
<pdfrwt beam="2">  1       -2 0.29860580E-02 0.92401452E+02</pdfrwt>
<totfact> 0.87802637E+04</totfact>
</mgrwt>
</event>
<event>
 6    1  0.1727544E-002  0.9744091E+02  0.7546771E-02  0.1339795E+00
         -2   -1    0    0    0  501 -0.00000000000E+00  0.00000000000E+00  0.31884004523E+02  0.31884004523E+02  0.00000000000E+00 0.  1.
          2   -1    0    0  501    0  0.00000000000E+00 -0.00000000000E+00 -0.15116960989E+03  0.15116960989E+03  0.00000000000E+00 0. -1.
         23    2    1    2    0    0 -0.36684415148E+02  0.86498255203E+00 -0.63583540062E+02  0.11635118126E+03  0.90267581688E+02 0.  0.
         11    1    3    3    0    0  0.25320333740E+02  0.19338482192E+02 -0.13821551627E+02  0.34729403732E+02  0.00000000000E+00 0. -1.
        -11    1    3    3    0    0 -0.62004748887E+02 -0.18473499640E+02 -0.49761988435E+02  0.81621777526E+02  0.00000000000E+00 0.  1.
         22    1    1    2    0    0  0.36684415148E+02 -0.86498255203E+00 -0.55702065300E+02  0.66702433151E+02  0.00000000000E+00 0. -1.
<mgrwt>
<rscale>  0 0.76331987E+02</rscale>
<asrwt>0</asrwt>
<pdfrwt beam="1">  1        2 0.23256863E-01 0.97440909E+02</pdfrwt>
<pdfrwt beam="2">  1       -2 0.49052315E-02 0.97440909E+02</pdfrwt>
<totfact> 0.41429759E+04</totfact>
</mgrwt>
</event>
<event>
 6    1  0.1727544E-002  0.1055428E+03  0.7546771E-02  0.1306037E+00
          2   -1    0    0  501    0  0.00000000000E+00  0.00000000000E+00  0.20596766489E+03  0.20596766489E+03  0.00000000000E+00 0. -1.
         -2   -1    0    0    0  501 -0.00000000000E+00 -0.00000000000E+00 -0.33927761823E+02  0.33927761823E+02  0.00000000000E+00 0.  1.
         23    2    1    2    0    0 -0.48452339999E+02  0.20588600730E+02  0.74939907696E+02  0.12944213870E+03  0.91475449027E+02 0.  0.
         13    1    3    3    0    0 -0.20398886307E+02 -0.25581020227E+02  0.67363812803E+02  0.74889160990E+02  0.00000000000E+00 0. -1.
        -13    1    3    3    0    0 -0.28053453692E+02  0.46169620957E+02  0.75760948933E+01  0.54552977712E+02  0.00000000000E+00 0.  1.
         22    1    1    2    0    0  0.48452339999E+02 -0.20588600730E+02  0.97099995368E+02  0.11045328801E+03  0.00000000000E+00 0. -1.
<mgrwt>
<rscale>  0 0.88697449E+02</rscale>
<asrwt>0</asrwt>
<pdfrwt beam="1">  1        2 0.31687332E-01 0.10554278E+03</pdfrwt>
<pdfrwt beam="2">  1       -2 0.52196558E-02 0.10554278E+03</pdfrwt>
<totfact> 0.27264695E+04</totfact>
</mgrwt>
</event>
<event>
 6    1  0.1727544E-002  0.9118454E+02  0.7546771E-02  0.1421099E+00
         -3   -1    0    0    0  501 -0.00000000000E+00  0.00000000000E+00  0.24367157049E+02  0.24367157049E+02  0.00000000000E+00 0.  1.
          3   -1    0    0  501    0  0.00000000000E+00 -0.00000000000E+00 -0.11245352262E+03  0.11245352262E+03  0.00000000000E+00 0. -1.
         23    2    1    2    0    0 -0.11697401222E+02 -0.21052487113E+01 -0.84721313909E+02  0.12446815604E+03  0.90406634543E+02 0.  0.
         13    1    3    3    0    0  0.21480675107E+02  0.21474373491E+02 -0.77353442770E+02  0.83103087959E+02  0.00000000000E+00 0. -1.
        -13    1    3    3    0    0 -0.33178076328E+02 -0.23579622202E+02 -0.73678711386E+01  0.41365068079E+02  0.00000000000E+00 0.  1.
         22    1    1    2    0    0  0.11697401222E+02  0.21052487113E+01 -0.33650516665E+01  0.12352523637E+02  0.00000000000E+00 0.  1.
<mgrwt>
<rscale>  0 0.54789054E+02</rscale>
<asrwt>0</asrwt>
<pdfrwt beam="1">  1        3 0.17300542E-01 0.91184543E+02</pdfrwt>
<pdfrwt beam="2">  1       -3 0.37487933E-02 0.91184543E+02</pdfrwt>
<totfact> 0.21259063E+04</totfact>
</mgrwt>
</event>
<event>
 6    1  0.1727544E-002  0.8501370E+02  0.7546771E-02  0.1388947E+00
         -2   -1    0    0    0  501 -0.00000000000E+00  0.00000000000E+00  0.14415310170E+02  0.14415310170E+02  0.00000000000E+00 0. -1.
          2   -1    0    0  501    0  0.00000000000E+00 -0.00000000000E+00 -0.21334886721E+03  0.21334886721E+03  0.00000000000E+00 0.  1.
         23    2    1    2    0    0 -0.24199703368E+02 -0.23452150683E+01 -0.13705529168E+03  0.16128075538E+03  0.81462895860E+02 0.  0.
         13    1    3    3    0    0 -0.41166960010E+02  0.24582181097E+02 -0.10808556948E+03  0.11824336156E+03  0.00000000000E+00 0.  1.
        -13    1    3    3    0    0  0.16967256642E+02 -0.26927396165E+02 -0.28969722197E+02  0.43037393815E+02  0.00000000000E+00 0. -1.
         22    1    1    2    0    0  0.24199703368E+02  0.23452150683E+01 -0.61878265362E+02  0.66483422001E+02  0.00000000000E+00 0.  1.
<mgrwt>
<rscale>  0 0.62169398E+02</rscale>
<asrwt>0</asrwt>
<pdfrwt beam="1">  1        2 0.32822900E-01 0.85013699E+02</pdfrwt>
<pdfrwt beam="2">  1       -2 0.22177402E-02 0.85013699E+02</pdfrwt>
<totfact> 0.89341269E+04</totfact>
</mgrwt>
</event>
<event>
 6    1  0.1727544E-002  0.1023023E+03  0.7546771E-02  0.1316395E+00
         -2   -1    0    0    0  501 -0.00000000000E+00  0.00000000000E+00  0.83739604176E+01  0.83739604176E+01  0.00000000000E+00 0.  1.
          2   -1    0    0  501    0  0.00000000000E+00 -0.00000000000E+00 -0.69707668752E+03  0.69707668752E+03  0.00000000000E+00 0. -1.
         23    2    1    2    0    0 -0.47910741070E+02 -0.85921074328E+00 -0.40447644062E+03  0.41721331642E+03  0.90385745714E+02 0.  0.
         13    1    3    3    0    0  0.62179297393E+01 -0.89588249558E+00  0.24201548423E+01  0.67321917047E+01  0.00000000000E+00 0.  1.
        -13    1    3    3    0    0 -0.54128670809E+02  0.36671752300E-01 -0.40689659546E+03  0.41048112471E+03  0.00000000000E+00 0. -1.
         22    1    1    2    0    0  0.47910741070E+02  0.85921074328E+00 -0.28422628648E+03  0.28823733151E+03  0.00000000000E+00 0.  1.
<mgrwt>
<rscale>  0 0.84632998E+02</rscale>
<asrwt>0</asrwt>
<pdfrwt beam="1">  1        2 0.10724260E+00 0.10230230E+03</pdfrwt>
<pdfrwt beam="2">  1       -2 0.12883013E-02 0.10230230E+03</pdfrwt>
<totfact> 0.55990288E+04</totfact>
</mgrwt>
</event>
<event>
 6    1  0.1727544E-002  0.9152936E+02  0.7546771E-02  0.1423200E+00
         -3   -1    0    0    0  501 -0.00000000000E+00  0.00000000000E+00  0.23048909243E+03  0.23048909243E+03  0.00000000000E+00 0.  1.
          3   -1    0    0  501    0  0.00000000000E+00 -0.00000000000E+00 -0.11756772306E+02  0.11756772306E+02  0.00000000000E+00 0. -1.
         23    2    1    2    0    0 -0.53615731892E+01  0.10036670253E+02  0.20430764292E+03  0.22387326206E+03  0.90819289202E+02 0.  0.
         11    1    3    3    0    0  0.11811926334E+02  0.20766074589E+02  0.20209598987E+03  0.20350317093E+03  0.00000000000E+00 0.  1.
        -11    1    3    3    0    0 -0.17173499523E+02 -0.10729404336E+02  0.22116530521E+01  0.20370091127E+02  0.00000000000E+00 0. -1.
         22    1    1    2    0    0  0.53615731892E+01 -0.10036670253E+02  0.14424677204E+02  0.18372602681E+02  0.00000000000E+00 0.  1.
<mgrwt>
<rscale>  0 0.54349579E+02</rscale>
<asrwt>0</asrwt>
<pdfrwt beam="1">  1        3 0.18087344E-02 0.91529364E+02</pdfrwt>
<pdfrwt beam="2">  1       -3 0.35459857E-01 0.91529364E+02</pdfrwt>
<totfact> 0.17871509E+04</totfact>
</mgrwt>
</event>
<event>
 6    1  0.1727544E-002  0.9188276E+02  0.7546771E-02  0.1401596E+00
          2   -1    0    0  501    0  0.00000000000E+00  0.00000000000E+00  0.24382700162E+03  0.24382700162E+03  0.00000000000E+00 0. -1.
         -2   -1    0    0    0  501 -0.00000000000E+00 -0.00000000000E+00 -0.14304694404E+02  0.14304694404E+02  0.00000000000E+00 0.  1.
         23    2    1    2    0    0 -0.12713662129E+02  0.92794749495E+01  0.14151132593E+03  0.16872432112E+03  0.90524556398E+02 0.  0.
         11    1    3    3    0    0 -0.48919580781E+02  0.19996376502E+02  0.96031704583E+02  0.10961326901E+03  0.00000000000E+00 0. -1.
        -11    1    3    3    0    0  0.36205918651E+02 -0.10716901552E+02  0.45479621343E+02  0.59111052112E+02  0.00000000000E+00 0.  1.
         22    1    1    2    0    0  0.12713662129E+02 -0.92794749495E+01  0.88010981287E+02  0.89407374904E+02  0.00000000000E+00 0. -1.
<mgrwt>
<rscale>  0 0.59112090E+02</rscale>
<asrwt>0</asrwt>
<pdfrwt beam="1">  1        2 0.37511843E-01 0.91882758E+02</pdfrwt>
<pdfrwt beam="2">  1       -2 0.22007224E-02 0.91882758E+02</pdfrwt>
<totfact> 0.79372609E+04</totfact>
</mgrwt>
</event>
<event>
 6    1  0.1727544E-002  0.9877122E+02  0.7546771E-02  0.1339205E+00
          2   -1    0    0  501    0  0.00000000000E+00  0.00000000000E+00  0.26012258102E+02  0.26012258102E+02  0.00000000000E+00 0. -1.
         -2   -1    0    0    0  501 -0.00000000000E+00 -0.00000000000E+00 -0.17357357850E+03  0.17357357850E+03  0.00000000000E+00 0.  1.
         23    2    1    2    0    0 -0.35481398536E+02  0.28304396838E+01 -0.11008116321E+03  0.14789731550E+03  0.92134751357E+02 0.  0.
         11    1    3    3    0    0 -0.53944435538E+02  0.21340981377E+02 -0.33531033737E+02  0.67005744792E+02  0.00000000000E+00 0. -1.
        -11    1    3    3    0    0  0.18463037002E+02 -0.18510541694E+02 -0.76550129477E+02  0.80891570711E+02  0.00000000000E+00 0.  1.
         22    1    1    2    0    0  0.35481398536E+02 -0.28304396838E+01 -0.37480157189E+02  0.51688521103E+02  0.00000000000E+00 0.  1.
<mgrwt>
<rscale>  0 0.76527470E+02</rscale>
<asrwt>0</asrwt>
<pdfrwt beam="1">  1        2 0.40018858E-02 0.98771218E+02</pdfrwt>
<pdfrwt beam="2">  1       -2 0.26703628E-01 0.98771218E+02</pdfrwt>
<totfact> 0.23739159E+04</totfact>
</mgrwt>
</event>
<event>
 6    1  0.1727544E-002  0.1191671E+03  0.7546771E-02  0.1334859E+00
         -1   -1    0    0    0  501 -0.00000000000E+00  0.00000000000E+00  0.11175193883E+04  0.11175193883E+04  0.00000000000E+00 0.  1.
          1   -1    0    0  501    0  0.00000000000E+00 -0.00000000000E+00 -0.50827024684E+01  0.50827024684E+01  0.00000000000E+00 0. -1.
         23    2    1    2    0    0  0.21727933494E+02 -0.23995155301E+01  0.10435025787E+04  0.10502849290E+04  0.11714495051E+03 0.  0.
         11    1    3    3    0    0 -0.27396384121E+02  0.35595617316E+02  0.22561284024E+03  0.23004078664E+03  0.00000000000E+00 0. -1.
        -11    1    3    3    0    0  0.49124317615E+02 -0.37995132846E+02  0.81788973851E+03  0.82024414235E+03  0.00000000000E+00 0.  1.
         22    1    1    2    0    0 -0.21727933494E+02  0.23995155301E+01  0.68934107046E+02  0.72317161746E+02  0.00000000000E+00 0. -1.
<mgrwt>
<rscale>  0 0.77988394E+02</rscale>
<asrwt>0</asrwt>
<pdfrwt beam="1">  1        1 0.78195511E-03 0.11916711E+03</pdfrwt>
<pdfrwt beam="2">  1       -1 0.17192586E+00 0.11916711E+03</pdfrwt>
<totfact> 0.56546927E+03</totfact>
</mgrwt>
</event>
<event>
 6    1  0.1727544E-002  0.1000202E+03  0.7546771E-02  0.1356780E+00
         -4   -1    0    0    0  501 -0.00000000000E+00  0.00000000000E+00  0.73263884621E+02  0.73263884621E+02  0.00000000000E+00 0.  1.
          4   -1    0    0  501    0  0.00000000000E+00 -0.00000000000E+00 -0.10382559796E+03  0.10382559796E+03  0.00000000000E+00 0. -1.
         23    2    1    2    0    0  0.22338759073E+02 -0.12031217987E+02  0.35649324931E+02  0.10618340420E+03  0.96748491436E+02 0.  0.
         11    1    3    3    0    0 -0.26477952381E+01 -0.19968200670E+02 -0.29634486424E+02  0.35832145390E+02  0.00000000000E+00 0. -1.
        -11    1    3    3    0    0  0.24986554311E+02  0.79369826835E+01  0.65283811355E+02  0.70351258806E+02  0.00000000000E+00 0.  1.
         22    1    1    2    0    0 -0.22338759073E+02  0.12031217987E+02 -0.66211038267E+02  0.70906078382E+02  0.00000000000E+00 0. -1.
<mgrwt>
<rscale>  0 0.70983461E+02</rscale>
<asrwt>0</asrwt>
<pdfrwt beam="1">  1        4 0.15973169E-01 0.10002020E+03</pdfrwt>
<pdfrwt beam="2">  1       -4 0.11271367E-01 0.10002020E+03</pdfrwt>
<totfact> 0.31670137E+03</totfact>
</mgrwt>
</event>
<event>
 6    1  0.1727544E-002  0.9306695E+02  0.7546771E-02  0.1414448E+00
          2   -1    0    0  501    0  0.00000000000E+00  0.00000000000E+00  0.32686391049E+02  0.32686391049E+02  0.00000000000E+00 0. -1.
         -2   -1    0    0    0  501 -0.00000000000E+00 -0.00000000000E+00 -0.10271639649E+03  0.10271639649E+03  0.00000000000E+00 0.  1.
         23    2    1    2    0    0  0.12285228258E+02 -0.15831974264E+01 -0.77350321764E+02  0.12101458478E+03  0.92238951126E+02 0.  0.
         11    1    3    3    0    0  0.12551748527E+02 -0.58926386647E+01 -0.98478417352E+02  0.99449827882E+02  0.00000000000E+00 0.  1.
        -11    1    3    3    0    0 -0.26652026895E+00  0.43094412383E+01  0.21128095588E+02  0.21564756897E+02  0.00000000000E+00 0. -1.
         22    1    1    2    0    0 -0.12285228258E+02  0.15831974264E+01  0.73203163262E+01  0.14388202756E+02  0.00000000000E+00 0. -1.
<mgrwt>
<rscale>  0 0.56212977E+02</rscale>
<asrwt>0</asrwt>
<pdfrwt beam="1">  1        2 0.50286756E-02 0.93066951E+02</pdfrwt>
<pdfrwt beam="2">  1       -2 0.15802522E-01 0.93066951E+02</pdfrwt>
<totfact> 0.42382695E+04</totfact>
</mgrwt>
</event>
<event>
 6    1  0.1727544E-002  0.9177932E+02  0.7546771E-02  0.1410088E+00
         -1   -1    0    0    0  501 -0.00000000000E+00  0.00000000000E+00  0.52687264984E+02  0.52687264984E+02  0.00000000000E+00 0.  1.
          1   -1    0    0  501    0  0.00000000000E+00 -0.00000000000E+00 -0.54054065184E+02  0.54054065184E+02  0.00000000000E+00 0. -1.
         23    2    1    2    0    0 -0.15195336503E+01  0.13737970019E+02  0.41166443743E+01  0.91871596911E+02  0.90732589268E+02 0.  0.
         13    1    3    3    0    0  0.10363030416E+02 -0.88787535184E+01 -0.39241308017E+02  0.41546418839E+02  0.00000000000E+00 0. -1.
        -13    1    3    3    0    0 -0.11882564066E+02  0.22616723538E+02  0.43357952392E+02  0.50325178072E+02  0.00000000000E+00 0.  1.
         22    1    1    2    0    0  0.15195336503E+01 -0.13737970019E+02 -0.54834445745E+01  0.14869733258E+02  0.00000000000E+00 0. -1.
<mgrwt>
<rscale>  0 0.57174107E+02</rscale>
<asrwt>0</asrwt>
<pdfrwt beam="1">  1        1 0.83160101E-02 0.91779320E+02</pdfrwt>
<pdfrwt beam="2">  1       -1 0.81057330E-02 0.91779320E+02</pdfrwt>
<totfact> 0.59518678E+04</totfact>
</mgrwt>
</event>
<event>
 6    1  0.1727544E-002  0.9592849E+02  0.7546771E-02  0.1384787E+00
          2   -1    0    0  501    0  0.00000000000E+00  0.00000000000E+00  0.10922986463E+03  0.10922986463E+03  0.00000000000E+00 0. -1.
         -2   -1    0    0    0  501 -0.00000000000E+00 -0.00000000000E+00 -0.61611421498E+02  0.61611421498E+02  0.00000000000E+00 0.  1.
         23    2    1    2    0    0 -0.28885988585E+01  0.17865928078E+02 -0.22410597354E+02  0.98511472767E+02  0.94205838479E+02 0.  0.
         13    1    3    3    0    0  0.24071405500E+01  0.34201216075E+01 -0.58828410610E+02  0.58976889138E+02  0.00000000000E+00 0.  1.
        -13    1    3    3    0    0 -0.52957394085E+01  0.14445806470E+02  0.36417813256E+02  0.39534583630E+02  0.00000000000E+00 0. -1.
         22    1    1    2    0    0  0.28885988585E+01 -0.17865928078E+02  0.70029040481E+02  0.72329813356E+02  0.00000000000E+00 0. -1.
<mgrwt>
<rscale>  0 0.63221965E+02</rscale>
<asrwt>0</asrwt>
<pdfrwt beam="1">  1        2 0.16804594E-01 0.95928491E+02</pdfrwt>
<pdfrwt beam="2">  1       -2 0.94786803E-02 0.95928491E+02</pdfrwt>
<totfact> 0.21927922E+04</totfact>
</mgrwt>
</event>
<event>
 6    1  0.1727544E-002  0.7369509E+02  0.7546771E-02  0.1441387E+00
          4   -1    0    0  501    0  0.00000000000E+00  0.00000000000E+00  0.19217788888E+02  0.19217788888E+02  0.00000000000E+00 0. -1.
         -4   -1    0    0    0  501 -0.00000000000E+00 -0.00000000000E+00 -0.10674346467E+03  0.10674346467E+03  0.00000000000E+00 0.  1.
         23    2    1    2    0    0 -0.71763911315E+01  0.14926388410E+02 -0.75415195548E+02  0.10544390987E+03  0.71809948808E+02 0.  0.
         11    1    3    3    0    0  0.92784647283E+01  0.35555442929E+02 -0.15322624095E+02  0.39812840125E+02  0.00000000000E+00 0. -1.
        -11    1    3    3    0    0 -0.16454855860E+02 -0.20629054519E+02 -0.60092571453E+02  0.65631069742E+02  0.00000000000E+00 0.  1.
         22    1    1    2    0    0  0.71763911315E+01 -0.14926388410E+02 -0.12110480236E+02  0.20517343693E+02  0.00000000000E+00 0. -1.
<mgrwt>
<rscale>  0 0.50740727E+02</rscale>
<asrwt>0</asrwt>
<pdfrwt beam="1">  1        4 0.29565829E-02 0.73695091E+02</pdfrwt>
<pdfrwt beam="2">  1       -4 0.16422072E-01 0.73695091E+02</pdfrwt>
<totfact> 0.23689789E+04</totfact>
</mgrwt>
</event>
<event>
 6    1  0.1727544E-002  0.9122252E+02  0.7546771E-02  0.1412991E+00
         -3   -1    0    0    0  501 -0.00000000000E+00  0.00000000000E+00  0.28555801631E+03  0.28555801631E+03  0.00000000000E+00 0.  1.
          3   -1    0    0  501    0  0.00000000000E+00 -0.00000000000E+00 -0.96647805129E+01  0.96647805129E+01  0.00000000000E+00 0. -1.
         23    2    1    2    0    0 -0.13100286293E+02 -0.30658993831E+01  0.23110455049E+03  0.24845695917E+03  0.90224886046E+02 0.  0.
         11    1    3    3    0    0 -0.14359936725E+02 -0.28247190118E+02  0.23813674855E+02  0.39638398585E+02  0.00000000000E+00 0. -1.
        -11    1    3    3    0    0  0.12596504316E+01  0.25181290735E+02  0.20729087564E+03  0.20881856058E+03  0.00000000000E+00 0.  1.
         22    1    1    2    0    0  0.13100286293E+02  0.30658993831E+01  0.44788685301E+02  0.46765837648E+02  0.00000000000E+00 0. -1.
<mgrwt>
<rscale>  0 0.56531632E+02</rscale>
<asrwt>0</asrwt>
<pdfrwt beam="1">  1        3 0.14868895E-02 0.91222515E+02</pdfrwt>
<pdfrwt beam="2">  1       -3 0.43931996E-01 0.91222515E+02</pdfrwt>
<totfact> 0.15928563E+04</totfact>
</mgrwt>
</event>
<event>
 6    1  0.1727544E-002  0.9267638E+02  0.7546771E-02  0.1427739E+00
          4   -1    0    0  501    0  0.00000000000E+00  0.00000000000E+00  0.12229064940E+02  0.12229064940E+02  0.00000000000E+00 0. -1.
         -4   -1    0    0    0  501 -0.00000000000E+00 -0.00000000000E+00 -0.22293018108E+03  0.22293018108E+03  0.00000000000E+00 0.  1.
         23    2    1    2    0    0 -0.70926090734E+01 -0.73695438798E+01 -0.17504075497E+03  0.19806104338E+03  0.92110236799E+02 0.  0.
         11    1    3    3    0    0  0.35010789510E+02  0.14930670504E+02 -0.11662865837E+03  0.12268220840E+03  0.00000000000E+00 0.  1.
        -11    1    3    3    0    0 -0.42103398584E+02 -0.22300214384E+02 -0.58412096593E+02  0.75378834976E+02  0.00000000000E+00 0. -1.
         22    1    1    2    0    0  0.70926090734E+01  0.73695438798E+01 -0.35660361168E+02  0.37098202640E+02  0.00000000000E+00 0.  1.
<mgrwt>
<rscale>  0 0.53416592E+02</rscale>
<asrwt>0</asrwt>
<pdfrwt beam="1">  1        4 0.18813946E-02 0.92676378E+02</pdfrwt>
<pdfrwt beam="2">  1       -4 0.34296950E-01 0.92676378E+02</pdfrwt>
<totfact> 0.13390675E+04</totfact>
</mgrwt>
</event>
<event>
 6    1  0.1727544E-002  0.9020337E+02  0.7546771E-02  0.1367028E+00
         -2   -1    0    0    0  501 -0.00000000000E+00  0.00000000000E+00  0.11164958313E+02  0.11164958313E+02  0.00000000000E+00 0.  1.
          2   -1    0    0  501    0  0.00000000000E+00 -0.00000000000E+00 -0.34772306445E+03  0.34772306445E+03  0.00000000000E+00 0. -1.
         23    2    1    2    0    0  0.16383488350E+02 -0.24089242157E+02 -0.20220256335E+03  0.22141030763E+03  0.85369417387E+02 0.  0.
         13    1    3    3    0    0  0.27266154073E+02 -0.15544229107E+02 -0.20491987007E+03  0.20730947727E+03  0.00000000000E+00 0. -1.
        -13    1    3    3    0    0 -0.10882665722E+02 -0.85450130497E+01  0.27173067209E+01  0.14100830368E+02  0.00000000000E+00 0.  1.
         22    1    1    2    0    0 -0.16383488350E+02  0.24089242157E+02 -0.13435554279E+03  0.13747771512E+03  0.00000000000E+00 0.  1.
<mgrwt>
<rscale>  0 0.68000483E+02</rscale>
<asrwt>0</asrwt>
<pdfrwt beam="1">  1        2 0.53495860E-01 0.90203369E+02</pdfrwt>
<pdfrwt beam="2">  1       -2 0.17176858E-02 0.90203369E+02</pdfrwt>
<totfact> 0.77922019E+04</totfact>
</mgrwt>
</event>
<event>
 6    1  0.1727544E-002  0.9458885E+02  0.7546771E-02  0.1372585E+00
         -2   -1    0    0    0  501 -0.00000000000E+00  0.00000000000E+00  0.53591669539E+03  0.53591669539E+03  0.00000000000E+00 0.  1.
          2   -1    0    0  501    0  0.00000000000E+00 -0.00000000000E+00 -0.96240197618E+01  0.96240197618E+01  0.00000000000E+00 0. -1.
         23    2    1    2    0    0  0.28627529920E+01 -0.22865443322E+02  0.50621707401E+03  0.51497842412E+03  0.91738909042E+02 0.  0.
         13    1    3    3    0    0 -0.16530362634E+02 -0.21040608619E+02  0.48659371675E+03  0.48732884716E+03  0.00000000000E+00 0.  1.
        -13    1    3    3    0    0  0.19393115626E+02 -0.18248347030E+01  0.19623357264E+02  0.27649576953E+02  0.00000000000E+00 0. -1.
         22    1    1    2    0    0 -0.28627529920E+01  0.22865443322E+02  0.20075601617E+02  0.30562291035E+02  0.00000000000E+00 0.  1.
<mgrwt>
<rscale>  0 0.66453709E+02</rscale>
<asrwt>0</asrwt>
<pdfrwt beam="1">  1        2 0.14806188E-02 0.94588854E+02</pdfrwt>
<pdfrwt beam="2">  1       -2 0.82448699E-01 0.94588854E+02</pdfrwt>
<totfact> 0.99401298E+03</totfact>
</mgrwt>
</event>
<event>
 6    1  0.1727544E-002  0.9608283E+02  0.7546771E-02  0.1335978E+00
         -2   -1    0    0    0  501 -0.00000000000E+00  0.00000000000E+00  0.42825685447E+02  0.42825685447E+02  0.00000000000E+00 0. -1.
          2   -1    0    0  501    0  0.00000000000E+00 -0.00000000000E+00 -0.11511665518E+03  0.11511665518E+03  0.00000000000E+00 0.  1.
         23    2    1    2    0    0 -0.20115771982E+02 -0.35609218386E+02 -0.34012233897E+02  0.10192517956E+03  0.86943944341E+02 0.  0.
         13    1    3    3    0    0  0.33588019013E+02 -0.18749028826E+02 -0.22192625311E+02  0.44409387762E+02  0.00000000000E+00 0. -1.
        -13    1    3    3    0    0 -0.53703790995E+02 -0.16860189560E+02 -0.11819608586E+02  0.57515791800E+02  0.00000000000E+00 0.  1.
         22    1    1    2    0    0  0.20115771982E+02  0.35609218386E+02 -0.38278735830E+02  0.56017161060E+02  0.00000000000E+00 0. -1.
<mgrwt>
<rscale>  0 0.77608684E+02</rscale>
<asrwt>0</asrwt>
<pdfrwt beam="1">  1        2 0.17710255E-01 0.96082830E+02</pdfrwt>
<pdfrwt beam="2">  1       -2 0.65885670E-02 0.96082830E+02</pdfrwt>
<totfact> 0.36036866E+04</totfact>
</mgrwt>
</event>
<event>
 6    1  0.1727544E-002  0.9193329E+02  0.7546771E-02  0.1429196E+00
          3   -1    0    0  501    0  0.00000000000E+00  0.00000000000E+00  0.67148438834E+01  0.67148438834E+01  0.00000000000E+00 0.  1.
         -3   -1    0    0    0  501 -0.00000000000E+00 -0.00000000000E+00 -0.55502325306E+03  0.55502325306E+03  0.00000000000E+00 0. -1.
         23    2    1    2    0    0  0.10022028856E+02  0.21434111422E+01 -0.54191724949E+03  0.54965992672E+03  0.91360245606E+02 0.  0.
         13    1    3    3    0    0 -0.32728270139E+02 -0.13704736139E+02 -0.11589309694E+03  0.12120300895E+03  0.00000000000E+00 0.  1.
        -13    1    3    3    0    0  0.42750298995E+02  0.15848147281E+02 -0.42602415255E+03  0.42845691778E+03  0.00000000000E+00 0. -1.
         22    1    1    2    0    0 -0.10022028856E+02 -0.21434111422E+01 -0.63911596858E+01  0.12078170219E+02  0.00000000000E+00 0.  1.
<mgrwt>
<rscale>  0 0.53121643E+02</rscale>
<asrwt>0</asrwt>
<pdfrwt beam="1">  1        3 0.10330524E-02 0.91933290E+02</pdfrwt>
<pdfrwt beam="2">  1       -3 0.85388231E-01 0.91933290E+02</pdfrwt>
<totfact> 0.70202701E+03</totfact>
</mgrwt>
</event>
<event>
 6    1  0.1727544E-002  0.9254971E+02  0.7546771E-02  0.1400464E+00
          3   -1    0    0  501    0  0.00000000000E+00  0.00000000000E+00  0.53227125390E+02  0.53227125390E+02  0.00000000000E+00 0. -1.
         -3   -1    0    0    0  501 -0.00000000000E+00 -0.00000000000E+00 -0.92969207776E+02  0.92969207776E+02  0.00000000000E+00 0.  1.
         23    2    1    2    0    0 -0.15620995697E+02  0.13624318227E+01 -0.67339417615E+02  0.11445543465E+03  0.91211718701E+02 0.  0.
         11    1    3    3    0    0 -0.52672992589E+02  0.10060910627E+02 -0.31584367454E+02  0.62235346374E+02  0.00000000000E+00 0. -1.
        -11    1    3    3    0    0  0.37051996892E+02 -0.86984788042E+01 -0.35755050162E+02  0.52220088273E+02  0.00000000000E+00 0.  1.
         22    1    1    2    0    0  0.15620995697E+02 -0.13624318227E+01  0.27597335230E+02  0.31740898519E+02  0.00000000000E+00 0.  1.
<mgrwt>
<rscale>  0 0.59377223E+02</rscale>
<asrwt>0</asrwt>
<pdfrwt beam="1">  1        3 0.81887886E-02 0.92549713E+02</pdfrwt>
<pdfrwt beam="2">  1       -3 0.14302955E-01 0.92549713E+02</pdfrwt>
<totfact> 0.85998061E+03</totfact>
</mgrwt>
</event>
<event>
 6    1  0.1727544E-002  0.9279849E+02  0.7546771E-02  0.1392870E+00
          2   -1    0    0  501    0  0.00000000000E+00  0.00000000000E+00  0.20007156899E+03  0.20007156899E+03  0.00000000000E+00 0. -1.
         -2   -1    0    0    0  501 -0.00000000000E+00 -0.00000000000E+00 -0.18501082402E+02  0.18501082402E+02  0.00000000000E+00 0.  1.
         23    2    1    2    0    0  0.16962913865E+02 -0.45115920096E+01  0.10550977611E+03  0.14051288847E+03  0.91123345319E+02 0.  0.
         11    1    3    3    0    0  0.42859291445E+02  0.27102576445E+02  0.69577907677E+02  0.86096188939E+02  0.00000000000E+00 0. -1.
        -11    1    3    3    0    0 -0.25896377580E+02 -0.31614168454E+02  0.35931868435E+02  0.54416699533E+02  0.00000000000E+00 0.  1.
         22    1    1    2    0    0 -0.16962913865E+02  0.45115920096E+01  0.76060710480E+02  0.78059762925E+02  0.00000000000E+00 0. -1.
<mgrwt>
<rscale>  0 0.61198564E+02</rscale>
<asrwt>0</asrwt>
<pdfrwt beam="1">  1        2 0.30780240E-01 0.92798486E+02</pdfrwt>
<pdfrwt beam="2">  1       -2 0.28463205E-02 0.92798486E+02</pdfrwt>
<totfact> 0.67571320E+04</totfact>
</mgrwt>
</event>
<event>
 6    1  0.1727544E-002  0.9604625E+02  0.7546771E-02  0.1363261E+00
         -2   -1    0    0    0  501 -0.00000000000E+00  0.00000000000E+00  0.90130849047E+03  0.90130849047E+03  0.00000000000E+00 0.  1.
          2   -1    0    0  501    0  0.00000000000E+00 -0.00000000000E+00 -0.71002283062E+01  0.71002283062E+01  0.00000000000E+00 0. -1.
         23    2    1    2    0    0 -0.23315712195E+02 -0.10804209757E+02  0.86138311921E+03  0.86672126991E+03  0.92544736519E+02 0.  0.
         13    1    3    3    0    0 -0.31420988879E+02  0.75590445872E+00  0.92224741956E+02  0.97433325729E+02  0.00000000000E+00 0. -1.
        -13    1    3    3    0    0  0.81052766840E+01 -0.11560114216E+02  0.76915837726E+03  0.76928794418E+03  0.00000000000E+00 0.  1.
         22    1    1    2    0    0  0.23315712195E+02  0.10804209757E+02  0.32825142953E+02  0.41687448873E+02  0.00000000000E+00 0. -1.
<mgrwt>
<rscale>  0 0.69076822E+02</rscale>
<asrwt>0</asrwt>
<pdfrwt beam="1">  1        2 0.10923435E-02 0.96046247E+02</pdfrwt>
<pdfrwt beam="2">  1       -2 0.13866275E+00 0.96046247E+02</pdfrwt>
<totfact> 0.45048678E+03</totfact>
</mgrwt>
</event>
<event>
 6    1  0.1727544E-002  0.1020025E+03  0.7546771E-02  0.1322782E+00
          2   -1    0    0  501    0  0.00000000000E+00  0.00000000000E+00  0.17822935588E+04  0.17822935588E+04  0.00000000000E+00 0. -1.
         -2   -1    0    0    0  501 -0.00000000000E+00 -0.00000000000E+00 -0.34872538381E+01  0.34872538381E+01  0.00000000000E+00 0.  1.
         23    2    1    2    0    0  0.40592023838E+02 -0.14563950804E+02  0.15188797578E+04  0.15223009634E+04  0.92437456123E+02 0.  0.
         13    1    3    3    0    0  0.52653045580E+02 -0.15054987882E+02  0.44548959194E+03  0.44884292619E+03  0.00000000000E+00 0. -1.
        -13    1    3    3    0    0 -0.12061021742E+02  0.49103707779E+00  0.10733901659E+04  0.10734580372E+04  0.00000000000E+00 0.  1.
         22    1    1    2    0    0 -0.40592023838E+02  0.14563950804E+02  0.25992654717E+03  0.26347984930E+03  0.00000000000E+00 0.  1.
<mgrwt>
<rscale>  0 0.82251139E+02</rscale>
<asrwt>0</asrwt>
<pdfrwt beam="1">  1        2 0.27419828E+00 0.10200247E+03</pdfrwt>
<pdfrwt beam="2">  1       -2 0.53650201E-03 0.10200247E+03</pdfrwt>
<totfact> 0.47359422E+04</totfact>
</mgrwt>
</event>
<event>
 6    1  0.1727544E-002  0.9078157E+02  0.7546771E-02  0.1431446E+00
          2   -1    0    0  501    0  0.00000000000E+00  0.00000000000E+00  0.47630978962E+03  0.47630978962E+03  0.00000000000E+00 0. -1.
         -2   -1    0    0    0  501 -0.00000000000E+00 -0.00000000000E+00 -0.53630551191E+01  0.53630551191E+01  0.00000000000E+00 0.  1.
         23    2    1    2    0    0  0.93485279773E+01 -0.42926702358E+01  0.42043973576E+03  0.43012889344E+03  0.90196849047E+02 0.  0.
         13    1    3    3    0    0  0.33152742674E+02  0.29066598404E+02  0.29198953371E+03  0.29529960936E+03  0.00000000000E+00 0. -1.
        -13    1    3    3    0    0 -0.23804214697E+02 -0.33359268640E+02  0.12845020205E+03  0.13482928409E+03  0.00000000000E+00 0.  1.
         22    1    1    2    0    0 -0.93485279773E+01  0.42926702358E+01  0.50506998742E+02  0.51543951295E+02  0.00000000000E+00 0. -1.
<mgrwt>
<rscale>  0 0.52670842E+02</rscale>
<asrwt>0</asrwt>
<pdfrwt beam="1">  1        2 0.73278396E-01 0.90781571E+02</pdfrwt>
<pdfrwt beam="2">  1       -2 0.82508578E-03 0.90781571E+02</pdfrwt>
<totfact> 0.15847512E+05</totfact>
</mgrwt>
</event>
<event>
 6    1  0.1727544E-002  0.9608828E+02  0.7546771E-02  0.1353337E+00
          2   -1    0    0  501    0  0.00000000000E+00  0.00000000000E+00  0.13648305857E+03  0.13648305857E+03  0.00000000000E+00 0. -1.
         -2   -1    0    0    0  501 -0.00000000000E+00 -0.00000000000E+00 -0.40162152399E+02  0.40162152399E+02  0.00000000000E+00 0.  1.
         23    2    1    2    0    0 -0.28679776649E+02 -0.98819208006E+01  0.25218728835E+02  0.99342548859E+02  0.91174425045E+02 0.  0.
         13    1    3    3    0    0 -0.51681656735E+01  0.55965269590E+01  0.56643673447E+02  0.57153624487E+02  0.00000000000E+00 0. -1.
        -13    1    3    3    0    0 -0.23511610976E+02 -0.15478447760E+02 -0.31424944612E+02  0.42188924371E+02  0.00000000000E+00 0.  1.
         22    1    1    2    0    0  0.28679776649E+02  0.98819208006E+01  0.71102177334E+02  0.77302662108E+02  0.00000000000E+00 0. -1.
<mgrwt>
<rscale>  0 0.72025624E+02</rscale>
<asrwt>0</asrwt>
<pdfrwt beam="1">  1        2 0.20997393E-01 0.96088281E+02</pdfrwt>
<pdfrwt beam="2">  1       -2 0.61787928E-02 0.96088281E+02</pdfrwt>
<totfact> 0.32788526E+04</totfact>
</mgrwt>
</event>
<event>
 6    1  0.1727544E-002  0.9203071E+02  0.7546771E-02  0.1425047E+00
         -2   -1    0    0    0  501 -0.00000000000E+00  0.00000000000E+00  0.16956675770E+03  0.16956675770E+03  0.00000000000E+00 0.  1.
          2   -1    0    0  501    0  0.00000000000E+00 -0.00000000000E+00 -0.25829242436E+02  0.25829242436E+02  0.00000000000E+00 0. -1.
         23    2    1    2    0    0  0.15031635127E+01 -0.10777966422E+02  0.15466460082E+03  0.17997441593E+03  0.91385051195E+02 0.  0.
         13    1    3    3    0    0 -0.63942926970E+01  0.11252698687E+02 -0.82755361282E+01  0.15362119159E+02  0.00000000000E+00 0. -1.
        -13    1    3    3    0    0  0.78974562097E+01 -0.22030665110E+02  0.16294013695E+03  0.16461229677E+03  0.00000000000E+00 0.  1.
         22    1    1    2    0    0 -0.15031635127E+01  0.10777966422E+02 -0.10927085555E+02  0.15421584208E+02  0.00000000000E+00 0. -1.
<mgrwt>
<rscale>  0 0.53967161E+02</rscale>
<asrwt>0</asrwt>
<pdfrwt beam="1">  1        2 0.39737297E-02 0.92030710E+02</pdfrwt>
<pdfrwt beam="2">  1       -2 0.26087193E-01 0.92030710E+02</pdfrwt>
<totfact> 0.24737467E+04</totfact>
</mgrwt>
</event>
<event>
 6    1  0.1727544E-002  0.1109301E+03  0.7546771E-02  0.1319562E+00
         -2   -1    0    0    0  501 -0.00000000000E+00  0.00000000000E+00  0.17081701152E+02  0.17081701152E+02  0.00000000000E+00 0.  1.
          2   -1    0    0  501    0  0.00000000000E+00 -0.00000000000E+00 -0.37973452691E+03  0.37973452691E+03  0.00000000000E+00 0. -1.
         23    2    1    2    0    0 -0.29432351227E+02  0.19868149295E+02 -0.18549081092E+03  0.21613035103E+03  0.10509272595E+03 0.  0.
         13    1    3    3    0    0  0.28749775167E+02  0.14204670451E+02 -0.14073975025E+02  0.35019980122E+02  0.00000000000E+00 0.  1.
        -13    1    3    3    0    0 -0.58182126393E+02  0.56634788446E+01 -0.17141683589E+03  0.18111037091E+03  0.00000000000E+00 0. -1.
         22    1    1    2    0    0  0.29432351227E+02 -0.19868149295E+02 -0.17716201485E+03  0.18068587703E+03  0.00000000000E+00 0. -1.
<mgrwt>
<rscale>  0 0.83440468E+02</rscale>
<asrwt>0</asrwt>
<pdfrwt beam="1">  1        2 0.58420687E-01 0.11093010E+03</pdfrwt>
<pdfrwt beam="2">  1       -2 0.26279544E-02 0.11093010E+03</pdfrwt>
<totfact> 0.39489435E+04</totfact>
</mgrwt>
</event>
<event>
 6    1  0.1727544E-002  0.9395400E+02  0.7546771E-02  0.1377377E+00
         -2   -1    0    0    0  501 -0.00000000000E+00  0.00000000000E+00  0.47605158485E+02  0.47605158485E+02  0.00000000000E+00 0.  1.
          2   -1    0    0  501    0  0.00000000000E+00 -0.00000000000E+00 -0.98105393776E+02  0.98105393776E+02  0.00000000000E+00 0. -1.
         23    2    1    2    0    0 -0.86538090027E+01  0.19936420622E+02 -0.36041467857E+01  0.94023103160E+02  0.91405715228E+02 0.  0.
         11    1    3    3    0    0  0.17807613875E+02  0.38401349875E+02  0.26461484171E+02  0.49919784942E+02  0.00000000000E+00 0.  1.
        -11    1    3    3    0    0 -0.26461422877E+02 -0.18464929254E+02 -0.30065630956E+02  0.44103318218E+02  0.00000000000E+00 0. -1.
         22    1    1    2    0    0  0.86538090027E+01 -0.19936420622E+02 -0.46896088506E+02  0.51687449101E+02  0.00000000000E+00 0. -1.
<mgrwt>
<rscale>  0 0.65158242E+02</rscale>
<asrwt>0</asrwt>
<pdfrwt beam="1">  1        2 0.15093137E-01 0.93954000E+02</pdfrwt>
<pdfrwt beam="2">  1       -2 0.73238705E-02 0.93954000E+02</pdfrwt>
<totfact> 0.36768748E+04</totfact>
</mgrwt>
</event>
<event>
 6    1  0.1727544E-002  0.9853260E+02  0.7546771E-02  0.1338505E+00
         -4   -1    0    0    0  501 -0.00000000000E+00  0.00000000000E+00  0.54691503084E+03  0.54691503084E+03  0.00000000000E+00 0.  1.
          4   -1    0    0  501    0  0.00000000000E+00 -0.00000000000E+00 -0.89922413568E+01  0.89922413568E+01  0.00000000000E+00 0. -1.
         23    2    1    2    0    0  0.89677670648E+01 -0.35166299224E+02  0.45234607810E+03  0.46295318149E+03  0.91605591726E+02 0.  0.
         11    1    3    3    0    0  0.14756913786E+02 -0.18154029370E+02  0.44117244890E+03  0.44179233239E+03  0.00000000000E+00 0.  1.
        -11    1    3    3    0    0 -0.57891467216E+01 -0.17012269854E+02  0.11173629195E+02  0.21160849103E+02  0.00000000000E+00 0. -1.
         22    1    1    2    0    0 -0.89677670648E+01  0.35166299224E+02  0.85576711386E+02  0.92954090705E+02  0.00000000000E+00 0. -1.
<mgrwt>
<rscale>  0 0.76760338E+02</rscale>
<asrwt>0</asrwt>
<pdfrwt beam="1">  1        4 0.13834222E-02 0.98532603E+02</pdfrwt>
<pdfrwt beam="2">  1       -4 0.84140748E-01 0.98532603E+02</pdfrwt>
<totfact> 0.34486756E+03</totfact>
</mgrwt>
</event>
<event>
 6    1  0.1727544E-002  0.1071202E+03  0.7546771E-02  0.1300328E+00
         -4   -1    0    0    0  501 -0.00000000000E+00  0.00000000000E+00  0.48427445433E+02  0.48427445433E+02  0.00000000000E+00 0.  1.
          4   -1    0    0  501    0  0.00000000000E+00 -0.00000000000E+00 -0.17676625378E+03  0.17676625378E+03  0.00000000000E+00 0. -1.
         23    2    1    2    0    0  0.55089609603E+02 -0.95568202011E+01 -0.28633330979E+02  0.11088105724E+03  0.91370363423E+02 0.  0.
         11    1    3    3    0    0 -0.80774837993E+01  0.27294663495E+01 -0.43919568421E+02  0.44739515212E+02  0.00000000000E+00 0. -1.
        -11    1    3    3    0    0  0.63167093402E+02 -0.12286286551E+02  0.15286237442E+02  0.66141542024E+02  0.00000000000E+00 0.  1.
         22    1    1    2    0    0 -0.55089609603E+02  0.95568202011E+01 -0.99705477369E+02  0.11431264198E+03  0.00000000000E+00 0. -1.
<mgrwt>
<rscale>  0 0.91050146E+02</rscale>
<asrwt>0</asrwt>
<pdfrwt beam="1">  1        4 0.27194809E-01 0.10712022E+03</pdfrwt>
<pdfrwt beam="2">  1       -4 0.74503761E-02 0.10712022E+03</pdfrwt>
<totfact> 0.24664820E+03</totfact>
</mgrwt>
</event>
<event>
 6    1  0.1727544E-002  0.9592743E+02  0.7546771E-02  0.1367100E+00
          4   -1    0    0  501    0  0.00000000000E+00  0.00000000000E+00  0.12814921553E+03  0.12814921553E+03  0.00000000000E+00 0. -1.
         -4   -1    0    0    0  501 -0.00000000000E+00 -0.00000000000E+00 -0.40019575620E+02  0.40019575620E+02  0.00000000000E+00 0.  1.
         23    2    1    2    0    0  0.16055955921E+02 -0.18097581584E+02  0.22936642097E+02  0.98631440442E+02  0.92826479591E+02 0.  0.
         13    1    3    3    0    0  0.17878017410E+02 -0.38214680432E+02  0.49641239408E+02  0.65147816210E+02  0.00000000000E+00 0. -1.
        -13    1    3    3    0    0 -0.18220614888E+01  0.20117098848E+02 -0.26704597311E+02  0.33483624231E+02  0.00000000000E+00 0.  1.
         22    1    1    2    0    0 -0.16055955921E+02  0.18097581584E+02  0.65192997812E+02  0.69537350707E+02  0.00000000000E+00 0. -1.
<mgrwt>
<rscale>  0 0.67979962E+02</rscale>
<asrwt>0</asrwt>
<pdfrwt beam="1">  1        4 0.19715264E-01 0.95927428E+02</pdfrwt>
<pdfrwt beam="2">  1       -4 0.61568579E-02 0.95927428E+02</pdfrwt>
<totfact> 0.58624101E+03</totfact>
</mgrwt>
</event>
<event>
 6    1  0.1727544E-002  0.9293004E+02  0.7546771E-02  0.1389174E+00
         -2   -1    0    0    0  501 -0.00000000000E+00  0.00000000000E+00  0.31486079284E+02  0.31486079284E+02  0.00000000000E+00 0.  1.
          2   -1    0    0  501    0  0.00000000000E+00 -0.00000000000E+00 -0.13121975519E+03  0.13121975519E+03  0.00000000000E+00 0. -1.
         23    2    1    2    0    0  0.13437861415E+02 -0.12781841832E+02 -0.41840758833E+02  0.10191486930E+03  0.91060638500E+02 0.  0.
         13    1    3    3    0    0  0.31146005543E+00 -0.25649975641E+02  0.23040355042E+02  0.34480084370E+02  0.00000000000E+00 0.  1.
        -13    1    3    3    0    0  0.13126401359E+02  0.12868133808E+02 -0.64881113875E+02  0.67434784926E+02  0.00000000000E+00 0. -1.
         22    1    1    2    0    0 -0.13437861415E+02  0.12781841832E+02 -0.57892917068E+02  0.60790965173E+02  0.00000000000E+00 0.  1.
<mgrwt>
<rscale>  0 0.62112533E+02</rscale>
<asrwt>0</asrwt>
<pdfrwt beam="1">  1        2 0.20187655E-01 0.92930035E+02</pdfrwt>
<pdfrwt beam="2">  1       -2 0.48440121E-02 0.92930035E+02</pdfrwt>
<totfact> 0.49074903E+04</totfact>
</mgrwt>
</event>
<event>
 6    1  0.1727544E-002  0.9359110E+02  0.7546771E-02  0.1387975E+00
          4   -1    0    0  501    0  0.00000000000E+00  0.00000000000E+00  0.10979545347E+02  0.10979545347E+02  0.00000000000E+00 0. -1.
         -4   -1    0    0    0  501 -0.00000000000E+00 -0.00000000000E+00 -0.35587665831E+03  0.35587665831E+03  0.00000000000E+00 0.  1.
         23    2    1    2    0    0 -0.14127022188E+01  0.18455696824E+02 -0.33024041493E+03  0.34324630594E+03  0.91742500600E+02 0.  0.
         11    1    3    3    0    0 -0.23418192213E+02  0.13009472763E+02 -0.31452149459E+03  0.31566030581E+03  0.00000000000E+00 0.  1.
        -11    1    3    3    0    0  0.22005489994E+02  0.54462240605E+01 -0.15718920344E+02  0.27586000130E+02  0.00000000000E+00 0. -1.
         22    1    1    2    0    0  0.14127022188E+01 -0.18455696824E+02 -0.14656698025E+02  0.23609897709E+02  0.00000000000E+00 0. -1.
<mgrwt>
<rscale>  0 0.62413091E+02</rscale>
<asrwt>0</asrwt>
<pdfrwt beam="1">  1        4 0.16891608E-02 0.93591105E+02</pdfrwt>
<pdfrwt beam="2">  1       -4 0.54750257E-01 0.93591105E+02</pdfrwt>
<totfact> 0.62768232E+03</totfact>
</mgrwt>
</event>
<event>
 6    1  0.1727544E-002  0.9909419E+02  0.7546771E-02  0.1333931E+00
          2   -1    0    0  501    0  0.00000000000E+00  0.00000000000E+00  0.43740362241E+03  0.43740362241E+03  0.00000000000E+00 0.  1.
         -2   -1    0    0    0  501 -0.00000000000E+00 -0.00000000000E+00 -0.11132244705E+02  0.11132244705E+02  0.00000000000E+00 0. -1.
         23    2    1    2    0    0  0.13826098886E+02  0.36079924295E+02  0.27164557982E+03  0.28915563209E+03  0.91250953867E+02 0.  0.
         13    1    3    3    0    0  0.32033290923E+02  0.42681830679E+02  0.77791848549E+02  0.94336854400E+02  0.00000000000E+00 0. -1.
        -13    1    3    3    0    0 -0.18207192037E+02 -0.66019063834E+01  0.19385373128E+03  0.19481877769E+03  0.00000000000E+00 0.  1.
         22    1    1    2    0    0 -0.13826098886E+02 -0.36079924295E+02  0.15462579788E+03  0.15938023503E+03  0.00000000000E+00 0. -1.
<mgrwt>
<rscale>  0 0.78305232E+02</rscale>
<asrwt>0</asrwt>
<pdfrwt beam="1">  1        2 0.67292852E-01 0.99094190E+02</pdfrwt>
<pdfrwt beam="2">  1       -2 0.17126534E-02 0.99094190E+02</pdfrwt>
<totfact> 0.62225177E+04</totfact>
</mgrwt>
</event>
<event>
 6    1  0.1727544E-002  0.9370274E+02  0.7546771E-02  0.1380774E+00
         -2   -1    0    0    0  501 -0.00000000000E+00  0.00000000000E+00  0.97203241633E+01  0.97203241633E+01  0.00000000000E+00 0.  1.
          2   -1    0    0  501    0  0.00000000000E+00 -0.00000000000E+00 -0.33677073948E+03  0.33677073948E+03  0.00000000000E+00 0. -1.
         23    2    1    2    0    0 -0.87704942284E+01 -0.18779425080E+02 -0.26761707845E+03  0.28354735938E+03  0.91381704720E+02 0.  0.
         11    1    3    3    0    0 -0.13317373486E+02 -0.31000711540E+01 -0.26685413666E+03  0.26720421615E+03  0.00000000000E+00 0. -1.
        -11    1    3    3    0    0  0.45468792572E+01 -0.15679353926E+02 -0.76294179607E+00  0.16343143232E+02  0.00000000000E+00 0.  1.
         22    1    1    2    0    0  0.87704942284E+01  0.18779425080E+02 -0.59433336858E+02  0.62943704256E+02  0.00000000000E+00 0. -1.
<mgrwt>
<rscale>  0 0.64260751E+02</rscale>
<asrwt>0</asrwt>
<pdfrwt beam="1">  1        2 0.51810884E-01 0.93702745E+02</pdfrwt>
<pdfrwt beam="2">  1       -2 0.14954345E-02 0.93702745E+02</pdfrwt>
<totfact> 0.98761423E+04</totfact>
</mgrwt>
</event>
<event>
 6    1  0.1727544E-002  0.1241938E+03  0.7546771E-02  0.1255237E+00
          2   -1    0    0  501    0  0.00000000000E+00  0.00000000000E+00  0.32173104708E+03  0.32173104708E+03  0.00000000000E+00 0. -1.
         -2   -1    0    0    0  501 -0.00000000000E+00 -0.00000000000E+00 -0.88117669592E+02  0.88117669592E+02  0.00000000000E+00 0.  1.
         23    2    1    2    0    0 -0.54833326939E+02  0.64826947689E+02 -0.34266805047E+02  0.12883444820E+03  0.90635943339E+02 0.  0.
         13    1    3    3    0    0 -0.14505992841E+02  0.93183428869E+01  0.30144315591E+02  0.34726576349E+02  0.00000000000E+00 0. -1.
        -13    1    3    3    0    0 -0.40327334098E+02  0.55508604802E+02 -0.64411120638E+02  0.94107871851E+02  0.00000000000E+00 0.  1.
         22    1    1    2    0    0  0.54833326939E+02 -0.64826947689E+02  0.26788018253E+03  0.28101426847E+03  0.00000000000E+00 0. -1.
<mgrwt>
<rscale>  0 0.11293044E+03</rscale>
<asrwt>0</asrwt>
<pdfrwt beam="1">  1        2 0.49497084E-01 0.12419380E+03</pdfrwt>
<pdfrwt beam="2">  1       -2 0.13556565E-01 0.12419380E+03</pdfrwt>
<totfact> 0.39354341E+03</totfact>
</mgrwt>
</event>
<event>
 6    1  0.1727544E-002  0.9251000E+02  0.7546771E-02  0.1422562E+00
         -4   -1    0    0    0  501 -0.00000000000E+00  0.00000000000E+00  0.54365899146E+02  0.54365899146E+02  0.00000000000E+00 0.  1.
          4   -1    0    0  501    0  0.00000000000E+00 -0.00000000000E+00 -0.51921335849E+02  0.51921335849E+02  0.00000000000E+00 0. -1.
         23    2    1    2    0    0 -0.84979087834E+01 -0.71863272395E+01  0.96765859086E+01  0.93014710596E+02  0.91838131076E+02 0.  0.
         13    1    3    3    0    0  0.99320899980E+01  0.45340814087E+01  0.47825520159E+02  0.49055934243E+02  0.00000000000E+00 0.  1.
        -13    1    3    3    0    0 -0.18429998781E+02 -0.11720408648E+02 -0.38148934251E+02  0.43958776353E+02  0.00000000000E+00 0. -1.
         22    1    1    2    0    0  0.84979087834E+01  0.71863272395E+01 -0.72320226109E+01  0.13272524399E+02  0.00000000000E+00 0. -1.
<mgrwt>
<rscale>  0 0.54482485E+02</rscale>
<asrwt>0</asrwt>
<pdfrwt beam="1">  1        4 0.79878978E-02 0.92510000E+02</pdfrwt>
<pdfrwt beam="2">  1       -4 0.83639845E-02 0.92510000E+02</pdfrwt>
<totfact> 0.16443887E+04</totfact>
</mgrwt>
</event>
<event>
 6    1  0.1727544E-002  0.9380341E+02  0.7546771E-02  0.1376278E+00
          4   -1    0    0  501    0  0.00000000000E+00  0.00000000000E+00  0.90139658919E+02  0.90139658919E+02  0.00000000000E+00 0. -1.
         -4   -1    0    0    0  501 -0.00000000000E+00 -0.00000000000E+00 -0.37745006509E+02  0.37745006509E+02  0.00000000000E+00 0.  1.
         23    2    1    2    0    0  0.21912565281E+02  0.37754193420E+01  0.36984270641E+02  0.10083112269E+03  0.91129933172E+02 0.  0.
         13    1    3    3    0    0 -0.11233123096E+02 -0.23188306490E+02 -0.17828056697E+02  0.31332414812E+02  0.00000000000E+00 0.  1.
        -13    1    3    3    0    0  0.33145688377E+02  0.26963725832E+02  0.54812327337E+02  0.69498707879E+02  0.00000000000E+00 0. -1.
         22    1    1    2    0    0 -0.21912565281E+02 -0.37754193420E+01  0.15410381768E+02  0.27053542737E+02  0.00000000000E+00 0.  1.
<mgrwt>
<rscale>  0 0.65452364E+02</rscale>
<asrwt>0</asrwt>
<pdfrwt beam="1">  1        4 0.13867640E-01 0.93803406E+02</pdfrwt>
<pdfrwt beam="2">  1       -4 0.58069241E-02 0.93803406E+02</pdfrwt>
<totfact> 0.11846310E+04</totfact>
</mgrwt>
</event>
<event>
 6    1  0.1727544E-002  0.9958809E+02  0.7546771E-02  0.1330579E+00
          2   -1    0    0  501    0  0.00000000000E+00  0.00000000000E+00  0.28228480326E+03  0.28228480326E+03  0.00000000000E+00 0. -1.
         -2   -1    0    0    0  501 -0.00000000000E+00 -0.00000000000E+00 -0.21820832242E+02  0.21820832242E+02  0.00000000000E+00 0.  1.
         23    2    1    2    0    0  0.12849807546E+02  0.38270588391E+02  0.23779404105E+03  0.25780573038E+03  0.91038635584E+02 0.  0.
         11    1    3    3    0    0 -0.28691895219E+02  0.61177577598E+01  0.24755000923E+02  0.38385698925E+02  0.00000000000E+00 0.  1.
        -11    1    3    3    0    0  0.41541702765E+02  0.32152830631E+02  0.21303904012E+03  0.21942003145E+03  0.00000000000E+00 0. -1.
         22    1    1    2    0    0 -0.12849807546E+02 -0.38270588391E+02  0.22669929977E+02  0.46299905128E+02  0.00000000000E+00 0.  1.
<mgrwt>
<rscale>  0 0.79464083E+02</rscale>
<asrwt>0</asrwt>
<pdfrwt beam="1">  1        2 0.43428429E-01 0.99588095E+02</pdfrwt>
<pdfrwt beam="2">  1       -2 0.33570513E-02 0.99588095E+02</pdfrwt>
<totfact> 0.37259645E+04</totfact>
</mgrwt>
</event>
<event>
 6    1  0.1727544E-002  0.9082545E+02  0.7546771E-02  0.1420898E+00
         -1   -1    0    0    0  501 -0.00000000000E+00  0.00000000000E+00  0.23976954662E+03  0.23976954662E+03  0.00000000000E+00 0.  1.
          1   -1    0    0  501    0  0.00000000000E+00 -0.00000000000E+00 -0.16825046569E+02  0.16825046569E+02  0.00000000000E+00 0. -1.
         23    2    1    2    0    0 -0.12062095599E+02 -0.21570624917E+00  0.22648823020E+03  0.24402086252E+03  0.90020676793E+02 0.  0.
         11    1    3    3    0    0 -0.20544393122E+02 -0.31607458466E+02  0.40970364763E+02  0.55674718754E+02  0.00000000000E+00 0. -1.
        -11    1    3    3    0    0  0.84822975232E+01  0.31391752217E+02  0.18551786543E+03  0.18834614377E+03  0.00000000000E+00 0.  1.
         22    1    1    2    0    0  0.12062095599E+02  0.21570624917E+00 -0.35437301471E+01  0.12573730663E+02  0.00000000000E+00 0.  1.
<mgrwt>
<rscale>  0 0.54831324E+02</rscale>
<asrwt>0</asrwt>
<pdfrwt beam="1">  1        1 0.25884689E-02 0.90825453E+02</pdfrwt>
<pdfrwt beam="2">  1       -1 0.36887620E-01 0.90825453E+02</pdfrwt>
<totfact> 0.26298289E+04</totfact>
</mgrwt>
</event>
<event>
 6    1  0.1727544E-002  0.1093105E+03  0.7546771E-02  0.1294422E+00
         -2   -1    0    0    0  501 -0.00000000000E+00  0.00000000000E+00  0.17383802130E+02  0.17383802130E+02  0.00000000000E+00 0. -1.
          2   -1    0    0  501    0  0.00000000000E+00 -0.00000000000E+00 -0.51953265274E+03  0.51953265274E+03  0.00000000000E+00 0.  1.
         23    2    1    2    0    0 -0.52910346938E+02  0.25414717563E+02 -0.18917305502E+03  0.21848394820E+03  0.92213763570E+02 0.  0.
         11    1    3    3    0    0 -0.15636914777E+02  0.57106452527E+02 -0.87473986713E+02  0.10562839758E+03  0.00000000000E+00 0.  1.
        -11    1    3    3    0    0 -0.37273432162E+02 -0.31691734964E+02 -0.10169906831E+03  0.11285555062E+03  0.00000000000E+00 0. -1.
         22    1    1    2    0    0  0.52910346938E+02 -0.25414717563E+02 -0.31297579559E+03  0.31843250667E+03  0.00000000000E+00 0.  1.
<mgrwt>
<rscale>  0 0.93573234E+02</rscale>
<asrwt>0</asrwt>
<pdfrwt beam="1">  1        2 0.79928095E-01 0.10931052E+03</pdfrwt>
<pdfrwt beam="2">  1       -2 0.26744313E-02 0.10931052E+03</pdfrwt>
<totfact> 0.27454683E+04</totfact>
</mgrwt>
</event>
<event>
 6    1  0.1727544E-002  0.1192724E+03  0.7546771E-02  0.1372319E+00
          2   -1    0    0  501    0  0.00000000000E+00  0.00000000000E+00  0.24250423730E+03  0.24250423730E+03  0.00000000000E+00 0. -1.
         -2   -1    0    0    0  501 -0.00000000000E+00 -0.00000000000E+00 -0.20655819617E+02  0.20655819617E+02  0.00000000000E+00 0.  1.
         23    2    1    2    0    0 -0.34157650654E+01  0.11027258140E+02  0.15633916118E+03  0.19664140870E+03  0.11871243584E+03 0.  0.
         11    1    3    3    0    0 -0.54135730251E+02 -0.22088591633E+02  0.82895460603E+02  0.10144082294E+03  0.00000000000E+00 0. -1.
        -11    1    3    3    0    0  0.50719965186E+02  0.33115849772E+02  0.73443700575E+02  0.95200585759E+02  0.00000000000E+00 0.  1.
         22    1    1    2    0    0  0.34157650654E+01 -0.11027258140E+02  0.65509256502E+02  0.66518648216E+02  0.00000000000E+00 0.  1.
<mgrwt>
<rscale>  0 0.66526658E+02</rscale>
<asrwt>0</asrwt>
<pdfrwt beam="1">  1        2 0.37308342E-01 0.11927242E+03</pdfrwt>
<pdfrwt beam="2">  1       -2 0.31778186E-02 0.11927242E+03</pdfrwt>
<totfact> 0.48437761E+04</totfact>
</mgrwt>
</event>
<event>
 6    1  0.1727544E-002  0.9495189E+02  0.7546771E-02  0.1366293E+00
          2   -1    0    0  501    0  0.00000000000E+00  0.00000000000E+00  0.17499017881E+03  0.17499017881E+03  0.00000000000E+00 0. -1.
         -2   -1    0    0    0  501 -0.00000000000E+00 -0.00000000000E+00 -0.24460231586E+02  0.24460231586E+02  0.00000000000E+00 0.  1.
         23    2    1    2    0    0 -0.18144750010E+02 -0.17607987090E+02  0.78787072287E+02  0.12338259022E+03  0.91523699921E+02 0.  0.
         13    1    3    3    0    0  0.23102348410E+02 -0.21470678770E+02  0.75502480274E+02  0.81825014980E+02  0.00000000000E+00 0. -1.
        -13    1    3    3    0    0 -0.41247098419E+02  0.38626916794E+01  0.32845920125E+01  0.41557575239E+02  0.00000000000E+00 0.  1.
         22    1    1    2    0    0  0.18144750010E+02  0.17607987090E+02  0.71742874938E+02  0.76067820178E+02  0.00000000000E+00 0. -1.
<mgrwt>
<rscale>  0 0.68208501E+02</rscale>
<asrwt>0</asrwt>
<pdfrwt beam="1">  1        2 0.26921565E-01 0.94951887E+02</pdfrwt>
<pdfrwt beam="2">  1       -2 0.37631127E-02 0.94951887E+02</pdfrwt>
<totfact> 0.52067453E+04</totfact>
</mgrwt>
</event>
<event>
 6    1  0.1727544E-002  0.9018413E+02  0.7546771E-02  0.1434029E+00
          2   -1    0    0  501    0  0.00000000000E+00  0.00000000000E+00  0.11695233665E+02  0.11695233665E+02  0.00000000000E+00 0. -1.
         -2   -1    0    0    0  501 -0.00000000000E+00 -0.00000000000E+00 -0.30185075328E+03  0.30185075328E+03  0.00000000000E+00 0.  1.
         23    2    1    2    0    0  0.96602433397E+01 -0.29183801687E+01 -0.28973463359E+03  0.30344576965E+03  0.89617743632E+02 0.  0.
         11    1    3    3    0    0  0.26274246740E+02 -0.40672225336E+02 -0.17247392554E+03  0.17914190171E+03  0.00000000000E+00 0.  1.
        -11    1    3    3    0    0 -0.16614003400E+02  0.37753845168E+02 -0.11726070805E+03  0.12430386795E+03  0.00000000000E+00 0. -1.
         22    1    1    2    0    0 -0.96602433397E+01  0.29183801687E+01 -0.42088601809E+00  0.10100217286E+02  0.00000000000E+00 0. -1.
<mgrwt>
<rscale>  0 0.52159800E+02</rscale>
<asrwt>0</asrwt>
<pdfrwt beam="1">  1        2 0.17992665E-02 0.90184130E+02</pdfrwt>
<pdfrwt beam="2">  1       -2 0.46438584E-01 0.90184130E+02</pdfrwt>
<totfact> 0.24673706E+04</totfact>
</mgrwt>
</event>
<event>
 6    1  0.1727544E-002  0.8057028E+02  0.7546771E-02  0.1379324E+00
          2   -1    0    0  501    0  0.00000000000E+00  0.00000000000E+00  0.12204855805E+03  0.12204855805E+03  0.00000000000E+00 0. -1.
         -2   -1    0    0    0  501 -0.00000000000E+00 -0.00000000000E+00 -0.26879867491E+02  0.26879867491E+02  0.00000000000E+00 0.  1.
         23    2    1    2    0    0 -0.24654983537E+02  0.22507140840E+02  0.74020487266E+02  0.10941025119E+03  0.73328922857E+02 0.  0.
         11    1    3    3    0    0  0.15609346989E+02  0.14565710302E+02  0.63571741723E+02  0.67061001899E+02  0.00000000000E+00 0. -1.
        -11    1    3    3    0    0 -0.40264330526E+02  0.79414305382E+01  0.10448745543E+02  0.42349249287E+02  0.00000000000E+00 0.  1.
         22    1    1    2    0    0  0.24654983537E+02 -0.22507140840E+02  0.21148203296E+02  0.39518174359E+02  0.00000000000E+00 0.  1.
<mgrwt>
<rscale>  0 0.64641769E+02</rscale>
<asrwt>0</asrwt>
<pdfrwt beam="1">  1        2 0.18776701E-01 0.80570283E+02</pdfrwt>
<pdfrwt beam="2">  1       -2 0.41353643E-02 0.80570283E+02</pdfrwt>
<totfact> 0.65856853E+04</totfact>
</mgrwt>
</event>
<event>
 6    1  0.1727544E-002  0.8886379E+02  0.7546771E-02  0.1379789E+00
         -4   -1    0    0    0  501 -0.00000000000E+00  0.00000000000E+00  0.51032974145E+02  0.51032974145E+02  0.00000000000E+00 0.  1.
          4   -1    0    0  501    0  0.00000000000E+00 -0.00000000000E+00 -0.81782102329E+02  0.81782102329E+02  0.00000000000E+00 0. -1.
         23    2    1    2    0    0 -0.23984727316E+02  0.58735037237E+01  0.54104218418E+01  0.89028340486E+02  0.85363971057E+02 0.  0.
         11    1    3    3    0    0 -0.34431318033E+02 -0.14705140150E+02 -0.29164507248E+02  0.47458669296E+02  0.00000000000E+00 0. -1.
        -11    1    3    3    0    0  0.10446590717E+02  0.20578643874E+02  0.34574929089E+02  0.41569671190E+02  0.00000000000E+00 0.  1.
         22    1    1    2    0    0  0.23984727316E+02 -0.58735037237E+01 -0.36159550027E+02  0.43786735989E+02  0.00000000000E+00 0. -1.
<mgrwt>
<rscale>  0 0.64519196E+02</rscale>
<asrwt>0</asrwt>
<pdfrwt beam="1">  1        4 0.12581862E-01 0.88863788E+02</pdfrwt>
<pdfrwt beam="2">  1       -4 0.78512269E-02 0.88863788E+02</pdfrwt>
<totfact> 0.84365025E+03</totfact>
</mgrwt>
</event>
<event>
 6    1  0.1727544E-002  0.8039899E+02  0.7546771E-02  0.1425391E+00
         -2   -1    0    0    0  501 -0.00000000000E+00  0.00000000000E+00  0.66978997344E+01  0.66978997344E+01  0.00000000000E+00 0. -1.
          2   -1    0    0  501    0  0.00000000000E+00 -0.00000000000E+00 -0.35039611513E+03  0.35039611513E+03  0.00000000000E+00 0.  1.
         23    2    1    2    0    0 -0.16225482463E+02  0.59504096874E+00 -0.27565926355E+03  0.28714460941E+03  0.78742471249E+02 0.  0.
         13    1    3    3    0    0 -0.83900370810E+01 -0.37967771651E+02 -0.17013965432E+03  0.17452634867E+03  0.00000000000E+00 0.  1.
        -13    1    3    3    0    0 -0.78354453822E+01  0.38562812620E+02 -0.10551960923E+03  0.11261826075E+03  0.00000000000E+00 0. -1.
         22    1    1    2    0    0  0.16225482463E+02 -0.59504096874E+00 -0.68038951845E+02  0.69949405452E+02  0.00000000000E+00 0. -1.
<mgrwt>
<rscale>  0 0.53896467E+02</rscale>
<asrwt>0</asrwt>
<pdfrwt beam="1">  1        2 0.53907105E-01 0.80398987E+02</pdfrwt>
<pdfrwt beam="2">  1       -2 0.10304459E-02 0.80398987E+02</pdfrwt>
<totfact> 0.15692246E+05</totfact>
</mgrwt>
</event>
<event>
 6    1  0.1727544E-002  0.9264283E+02  0.7546771E-02  0.1370984E+00
          2   -1    0    0  501    0  0.00000000000E+00  0.00000000000E+00  0.34673894864E+03  0.34673894864E+03  0.00000000000E+00 0. -1.
         -2   -1    0    0    0  501 -0.00000000000E+00 -0.00000000000E+00 -0.10098135087E+02  0.10098135087E+02  0.00000000000E+00 0.  1.
         23    2    1    2    0    0  0.21214944968E+02 -0.13570423835E+02  0.25013402452E+03  0.26673905466E+03  0.89154151697E+02 0.  0.
         13    1    3    3    0    0  0.27227854552E+01  0.37572958538E+02  0.87898764974E+02  0.95631237877E+02  0.00000000000E+00 0.  1.
        -13    1    3    3    0    0  0.18492159513E+02 -0.51143382373E+02  0.16223525954E+03  0.17110781678E+03  0.00000000000E+00 0. -1.
         22    1    1    2    0    0 -0.21214944968E+02  0.13570423835E+02  0.86506789036E+02  0.90098029070E+02  0.00000000000E+00 0. -1.
<mgrwt>
<rscale>  0 0.66894393E+02</rscale>
<asrwt>0</asrwt>
<pdfrwt beam="1">  1        2 0.53344444E-01 0.92642825E+02</pdfrwt>
<pdfrwt beam="2">  1       -2 0.15535595E-02 0.92642825E+02</pdfrwt>
<totfact> 0.90563730E+04</totfact>
</mgrwt>
</event>
<event>
 6    1  0.1727544E-002  0.9306549E+02  0.7546771E-02  0.1387958E+00
          1   -1    0    0  501    0  0.00000000000E+00  0.00000000000E+00  0.12390325383E+02  0.12390325383E+02  0.00000000000E+00 0.  1.
         -1   -1    0    0    0  501 -0.00000000000E+00 -0.00000000000E+00 -0.25439998733E+03  0.25439998733E+03  0.00000000000E+00 0. -1.
         23    2    1    2    0    0  0.17915604258E+02 -0.57974892415E+01 -0.20907311158E+03  0.22885093861E+03  0.91140585682E+02 0.  0.
         13    1    3    3    0    0  0.24362791849E+02  0.27604810486E+02 -0.18110972144E+03  0.18481423752E+03  0.00000000000E+00 0. -1.
        -13    1    3    3    0    0 -0.64471875908E+01 -0.33402299728E+02 -0.27963390140E+02  0.44036701092E+02  0.00000000000E+00 0.  1.
         22    1    1    2    0    0 -0.17915604258E+02  0.57974892415E+01 -0.32936550362E+02  0.37939374101E+02  0.00000000000E+00 0. -1.
<mgrwt>
<rscale>  0 0.62417412E+02</rscale>
<asrwt>0</asrwt>
<pdfrwt beam="1">  1        1 0.19062038E-02 0.93065494E+02</pdfrwt>
<pdfrwt beam="2">  1       -1 0.39138462E-01 0.93065494E+02</pdfrwt>
<totfact> 0.36308348E+04</totfact>
</mgrwt>
</event>
<event>
 6    1  0.1727544E-002  0.9445930E+02  0.7546771E-02  0.1420017E+00
          4   -1    0    0  501    0  0.00000000000E+00  0.00000000000E+00  0.17620890295E+03  0.17620890295E+03  0.00000000000E+00 0. -1.
         -4   -1    0    0    0  501 -0.00000000000E+00 -0.00000000000E+00 -0.15872773508E+02  0.15872773508E+02  0.00000000000E+00 0.  1.
         23    2    1    2    0    0  0.11337880876E+01 -0.10811570006E+02  0.13788501866E+03  0.16713718013E+03  0.93831674245E+02 0.  0.
         13    1    3    3    0    0  0.42838533933E+02 -0.66426588970E+00  0.33870790220E+02  0.54615123078E+02  0.00000000000E+00 0.  1.
        -13    1    3    3    0    0 -0.41704745845E+02 -0.10147304116E+02  0.10401422843E+03  0.11252205705E+03  0.00000000000E+00 0. -1.
         22    1    1    2    0    0 -0.11337880876E+01  0.10811570006E+02  0.22451110791E+02  0.24944496330E+02  0.00000000000E+00 0. -1.
<mgrwt>
<rscale>  0 0.55017325E+02</rscale>
<asrwt>0</asrwt>
<pdfrwt beam="1">  1        4 0.27109061E-01 0.94459296E+02</pdfrwt>
<pdfrwt beam="2">  1       -4 0.24419653E-02 0.94459296E+02</pdfrwt>
<totfact> 0.14048851E+04</totfact>
</mgrwt>
</event>
<event>
 6    1  0.1727544E-002  0.9252530E+02  0.7546771E-02  0.1419883E+00
          4   -1    0    0  501    0  0.00000000000E+00  0.00000000000E+00  0.55711935368E+02  0.55711935368E+02  0.00000000000E+00 0. -1.
         -4   -1    0    0    0  501 -0.00000000000E+00 -0.00000000000E+00 -0.64131210064E+02  0.64131210064E+02  0.00000000000E+00 0.  1.
         23    2    1    2    0    0  0.10769340357E+02 -0.42857670360E+01 -0.28363802722E+02  0.96775187374E+02  0.91796432913E+02 0.  0.
         13    1    3    3    0    0 -0.13972134480E+02  0.59895516043E+01  0.29401957111E+02  0.33099401087E+02  0.00000000000E+00 0. -1.
        -13    1    3    3    0    0  0.24741474837E+02 -0.10275318640E+02 -0.57765759833E+02  0.63675786287E+02  0.00000000000E+00 0.  1.
         22    1    1    2    0    0 -0.10769340357E+02  0.42857670360E+01  0.19944528026E+02  0.23067958059E+02  0.00000000000E+00 0. -1.
<mgrwt>
<rscale>  0 0.55045735E+02</rscale>
<asrwt>0</asrwt>
<pdfrwt beam="1">  1        4 0.85710670E-02 0.92525302E+02</pdfrwt>
<pdfrwt beam="2">  1       -4 0.98663400E-02 0.92525302E+02</pdfrwt>
<totfact> 0.11134290E+04</totfact>
</mgrwt>
</event>
<event>
 6    1  0.1727544E-002  0.9144261E+02  0.7546771E-02  0.1402166E+00
          2   -1    0    0  501    0  0.00000000000E+00  0.00000000000E+00  0.15274168514E+03  0.15274168514E+03  0.00000000000E+00 0. -1.
         -2   -1    0    0    0  501 -0.00000000000E+00 -0.00000000000E+00 -0.22960303154E+02  0.22960303154E+02  0.00000000000E+00 0.  1.
         23    2    1    2    0    0 -0.23118827566E+01  0.15655414742E+02  0.73744540969E+02  0.11747343547E+03  0.90062833100E+02 0.  0.
         11    1    3    3    0    0 -0.14438528989E+02 -0.31614643618E+02  0.81181688504E+01  0.35691196056E+02  0.00000000000E+00 0.  1.
        -11    1    3    3    0    0  0.12126646232E+02  0.47270058360E+02  0.65626372119E+02  0.81782239415E+02  0.00000000000E+00 0. -1.
         22    1    1    2    0    0  0.23118827566E+01 -0.15655414742E+02  0.56036841017E+02  0.58228552822E+02  0.00000000000E+00 0.  1.
<mgrwt>
<rscale>  0 0.58979180E+02</rscale>
<asrwt>0</asrwt>
<pdfrwt beam="1">  1        2 0.23498720E-01 0.91442609E+02</pdfrwt>
<pdfrwt beam="2">  1       -2 0.35323544E-02 0.91442609E+02</pdfrwt>
<totfact> 0.65912561E+04</totfact>
</mgrwt>
</event>
<event>
 6    1  0.1727544E-002  0.9345243E+02  0.7546771E-02  0.1397138E+00
         -2   -1    0    0    0  501 -0.00000000000E+00  0.00000000000E+00  0.84986491771E+01  0.84986491771E+01  0.00000000000E+00 0. -1.
          2   -1    0    0  501    0  0.00000000000E+00 -0.00000000000E+00 -0.35276305421E+03  0.35276305421E+03  0.00000000000E+00 0.  1.
         23    2    1    2    0    0  0.12332760978E+02 -0.10279884603E+02 -0.29414247793E+03  0.30863109825E+03  0.92062937507E+02 0.  0.
         13    1    3    3    0    0 -0.22578882411E+02 -0.10440198688E+02 -0.19050168459E+02  0.31332293212E+02  0.00000000000E+00 0. -1.
        -13    1    3    3    0    0  0.34911643389E+02  0.16031408486E+00 -0.27509230947E+03  0.27729880503E+03  0.00000000000E+00 0.  1.
         22    1    1    2    0    0 -0.12332760978E+02  0.10279884603E+02 -0.50121927107E+02  0.52630605143E+02  0.00000000000E+00 0.  1.
<mgrwt>
<rscale>  0 0.60165516E+02</rscale>
<asrwt>0</asrwt>
<pdfrwt beam="1">  1        2 0.54271244E-01 0.93452434E+02</pdfrwt>
<pdfrwt beam="2">  1       -2 0.13074844E-02 0.93452434E+02</pdfrwt>
<totfact> 0.11388255E+05</totfact>
</mgrwt>
</event>
<event>
 6    1  0.1727544E-002  0.8758124E+02  0.7546771E-02  0.1361610E+00
          1   -1    0    0  501    0  0.00000000000E+00  0.00000000000E+00  0.11485970482E+02  0.11485970482E+02  0.00000000000E+00 0. -1.
         -1   -1    0    0    0  501 -0.00000000000E+00 -0.00000000000E+00 -0.34076634824E+03  0.34076634824E+03  0.00000000000E+00 0.  1.
         23    2    1    2    0    0 -0.26960167091E+02 -0.22070630987E+02 -0.26554496327E+03  0.27961509395E+03  0.80352410592E+02 0.  0.
         11    1    3    3    0    0  0.85151401622E+01 -0.10687102701E+02 -0.22152056000E+03  0.22194161457E+03  0.00000000000E+00 0.  1.
        -11    1    3    3    0    0 -0.35475307253E+02 -0.11383528286E+02 -0.44024403269E+02  0.57673479383E+02  0.00000000000E+00 0. -1.
         22    1    1    2    0    0  0.26960167091E+02  0.22070630987E+02 -0.63735414488E+02  0.72637224765E+02  0.00000000000E+00 0. -1.
<mgrwt>
<rscale>  0 0.69555905E+02</rscale>
<asrwt>0</asrwt>
<pdfrwt beam="1">  1        1 0.17670724E-02 0.87581238E+02</pdfrwt>
<pdfrwt beam="2">  1       -1 0.52425591E-01 0.87581238E+02</pdfrwt>
<totfact> 0.23808575E+04</totfact>
</mgrwt>
</event>
<event>
 6    1  0.1727544E-002  0.9989526E+02  0.7546771E-02  0.1345726E+00
          2   -1    0    0  501    0  0.00000000000E+00  0.00000000000E+00  0.10706658652E+03  0.10706658652E+03  0.00000000000E+00 0. -1.
         -2   -1    0    0    0  501 -0.00000000000E+00 -0.00000000000E+00 -0.43120630870E+02  0.43120630870E+02  0.00000000000E+00 0.  1.
         23    2    1    2    0    0  0.29282470201E+02 -0.93659435611E+01  0.29811418861E+02  0.10424866537E+03  0.95046723126E+02 0.  0.
         11    1    3    3    0    0 -0.28809833033E+02  0.49751633613E+01 -0.11628232971E+02  0.31463860728E+02  0.00000000000E+00 0.  1.
        -11    1    3    3    0    0  0.58092303234E+02 -0.14341106922E+02  0.41439651833E+02  0.72784804642E+02  0.00000000000E+00 0. -1.
         22    1    1    2    0    0 -0.29282470201E+02  0.93659435611E+01  0.34134536787E+02  0.45938552018E+02  0.00000000000E+00 0. -1.
<mgrwt>
<rscale>  0 0.74404331E+02</rscale>
<asrwt>0</asrwt>
<pdfrwt beam="1">  1        2 0.16471782E-01 0.99895263E+02</pdfrwt>
<pdfrwt beam="2">  1       -2 0.66339432E-02 0.99895263E+02</pdfrwt>
<totfact> 0.38930290E+04</totfact>
</mgrwt>
</event>
<event>
 6    1  0.1727544E-002  0.1307356E+03  0.7546771E-02  0.1243115E+00
          1   -1    0    0  501    0  0.00000000000E+00  0.00000000000E+00  0.18123385819E+03  0.18123385819E+03  0.00000000000E+00 0. -1.
         -1   -1    0    0    0  501 -0.00000000000E+00 -0.00000000000E+00 -0.79628803970E+02  0.79628803970E+02  0.00000000000E+00 0.  1.
         23    2    1    2    0    0  0.27436771389E+02 -0.88615205534E+02  0.10553169575E+03  0.16801413180E+03  0.92121542541E+02 0.  0.
         13    1    3    3    0    0  0.19017528589E+02 -0.10105241105E+03  0.11165974851E+03  0.15179313426E+03  0.00000000000E+00 0. -1.
        -13    1    3    3    0    0  0.84192428002E+01  0.12437205517E+02 -0.61280527588E+01  0.16220997534E+02  0.00000000000E+00 0.  1.
         22    1    1    2    0    0 -0.27436771389E+02  0.88615205534E+02 -0.39266415320E+01  0.92848530359E+02  0.00000000000E+00 0.  1.
<mgrwt>
<rscale>  0 0.11998918E+03</rscale>
<asrwt>0</asrwt>
<pdfrwt beam="1">  1        1 0.27882132E-01 0.13073565E+03</pdfrwt>
<pdfrwt beam="2">  1       -1 0.12250585E-01 0.13073565E+03</pdfrwt>
<totfact> 0.69812367E+03</totfact>
</mgrwt>
</event>
<event>
 6    1  0.1727544E-002  0.9805300E+02  0.7546771E-02  0.1346979E+00
         -1   -1    0    0    0  501 -0.00000000000E+00  0.00000000000E+00  0.60998826698E+02  0.60998826698E+02  0.00000000000E+00 0.  1.
          1   -1    0    0  501    0  0.00000000000E+00 -0.00000000000E+00 -0.95407234320E+02  0.95407234320E+02  0.00000000000E+00 0. -1.
         23    2    1    2    0    0 -0.28532141397E+02  0.14081948157E+02  0.13413643317E+02  0.98966241097E+02  0.92747003688E+02 0.  0.
         11    1    3    3    0    0  0.30204299455E+02  0.34060857206E+01 -0.13770526605E+02  0.33369574892E+02  0.00000000000E+00 0. -1.
        -11    1    3    3    0    0 -0.58736440852E+02  0.10675862436E+02  0.27184169922E+02  0.65596666204E+02  0.00000000000E+00 0.  1.
         22    1    1    2    0    0  0.28532141397E+02 -0.14081948157E+02 -0.47822050939E+02  0.57439819921E+02  0.00000000000E+00 0. -1.
<mgrwt>
<rscale>  0 0.74005474E+02</rscale>
<asrwt>0</asrwt>
<pdfrwt beam="1">  1        1 0.14678036E-01 0.98053001E+02</pdfrwt>
<pdfrwt beam="2">  1       -1 0.93844349E-02 0.98053001E+02</pdfrwt>
<totfact> 0.22970209E+04</totfact>
</mgrwt>
</event>
<event>
 6    1  0.1727544E-002  0.9486044E+02  0.7546771E-02  0.1371787E+00
          2   -1    0    0  501    0  0.00000000000E+00  0.00000000000E+00  0.72716252551E+01  0.72716252551E+01  0.00000000000E+00 0. -1.
         -2   -1    0    0    0  501 -0.00000000000E+00 -0.00000000000E+00 -0.49169218183E+03  0.49169218183E+03  0.00000000000E+00 0.  1.
         23    2    1    2    0    0 -0.12709005080E+02  0.19348847105E+02 -0.41787306119E+03  0.42850484146E+03  0.91992430097E+02 0.  0.
         11    1    3    3    0    0 -0.13993729797E+02  0.35772776698E+02 -0.66886199300E+02  0.77131573840E+02  0.00000000000E+00 0. -1.
        -11    1    3    3    0    0  0.12847247163E+01 -0.16423929593E+02 -0.35098686189E+03  0.35137326762E+03  0.00000000000E+00 0.  1.
         22    1    1    2    0    0  0.12709005080E+02 -0.19348847105E+02 -0.66547495385E+02  0.70458965622E+02  0.00000000000E+00 0. -1.
<mgrwt>
<rscale>  0 0.66672847E+02</rscale>
<asrwt>0</asrwt>
<pdfrwt beam="1">  1        2 0.11187109E-02 0.94860444E+02</pdfrwt>
<pdfrwt beam="2">  1       -2 0.75644998E-01 0.94860444E+02</pdfrwt>
<totfact> 0.17569665E+04</totfact>
</mgrwt>
</event>
<event>
 6    1  0.1727544E-002  0.9743361E+02  0.7546771E-02  0.1336723E+00
          2   -1    0    0  501    0  0.00000000000E+00  0.00000000000E+00  0.27495575576E+02  0.27495575576E+02  0.00000000000E+00 0.  1.
         -2   -1    0    0    0  501 -0.00000000000E+00 -0.00000000000E+00 -0.21669776611E+03  0.21669776611E+03  0.00000000000E+00 0. -1.
         23    2    1    2    0    0  0.42972279096E+01  0.38475404711E+02 -0.17956679572E+03  0.20429768066E+03  0.89411885470E+02 0.  0.
         11    1    3    3    0    0 -0.29318348838E+02 -0.15975314916E+02 -0.58369551239E+02  0.67244187683E+02  0.00000000000E+00 0. -1.
        -11    1    3    3    0    0  0.33615576747E+02  0.54450719627E+02 -0.12119724448E+03  0.13705349297E+03  0.00000000000E+00 0.  1.
         22    1    1    2    0    0 -0.42972279096E+01 -0.38475404711E+02 -0.96353948147E+01  0.39895661025E+02  0.00000000000E+00 0. -1.
<mgrwt>
<rscale>  0 0.77357136E+02</rscale>
<asrwt>0</asrwt>
<pdfrwt beam="1">  1        2 0.42300885E-02 0.97433609E+02</pdfrwt>
<pdfrwt beam="2">  1       -2 0.33338118E-01 0.97433609E+02</pdfrwt>
<totfact> 0.14835726E+04</totfact>
</mgrwt>
</event>
<event>
 6    1  0.1727544E-002  0.9525831E+02  0.7546771E-02  0.1398450E+00
         -2   -1    0    0    0  501 -0.00000000000E+00  0.00000000000E+00  0.53201933688E+03  0.53201933688E+03  0.00000000000E+00 0. -1.
          2   -1    0    0  501    0  0.00000000000E+00 -0.00000000000E+00 -0.57443222686E+01  0.57443222686E+01  0.00000000000E+00 0.  1.
         23    2    1    2    0    0 -0.12493610849E+02  0.80211948630E+01  0.43692782928E+03  0.44719131566E+03  0.94094181115E+02 0.  0.
         13    1    3    3    0    0  0.36510091272E+02  0.19625544615E+02  0.13941423430E+03  0.14544578884E+03  0.00000000000E+00 0.  1.
        -13    1    3    3    0    0 -0.49003702122E+02 -0.11604349752E+02  0.29751359498E+03  0.30174552682E+03  0.00000000000E+00 0. -1.
         22    1    1    2    0    0  0.12493610849E+02 -0.80211948630E+01  0.89347185327E+02  0.90572343489E+02  0.00000000000E+00 0. -1.
<mgrwt>
<rscale>  0 0.59853003E+02</rscale>
<asrwt>0</asrwt>
<pdfrwt beam="1">  1        2 0.88374231E-03 0.95258306E+02</pdfrwt>
<pdfrwt beam="2">  1       -2 0.81849090E-01 0.95258306E+02</pdfrwt>
<totfact> 0.20475725E+04</totfact>
</mgrwt>
</event>
<event>
 6    1  0.1727544E-002  0.9231367E+02  0.7546771E-02  0.1427983E+00
         -2   -1    0    0    0  501 -0.00000000000E+00  0.00000000000E+00  0.18277776245E+02  0.18277776245E+02  0.00000000000E+00 0.  1.
          2   -1    0    0  501    0  0.00000000000E+00 -0.00000000000E+00 -0.15166759229E+03  0.15166759229E+03  0.00000000000E+00 0. -1.
         23    2    1    2    0    0 -0.88067125024E+01  0.53624569093E+01 -0.10536662064E+03  0.14008546884E+03  0.91736032756E+02 0.  0.
         11    1    3    3    0    0  0.14825923122E+02  0.42401135936E+02 -0.72216695149E+02  0.85046548333E+02  0.00000000000E+00 0. -1.
        -11    1    3    3    0    0 -0.23632635624E+02 -0.37038679027E+02 -0.33149925496E+02  0.55038920511E+02  0.00000000000E+00 0.  1.
         22    1    1    2    0    0  0.88067125024E+01 -0.53624569093E+01 -0.28023195404E+02  0.29859899696E+02  0.00000000000E+00 0.  1.
<mgrwt>
<rscale>  0 0.53367074E+02</rscale>
<asrwt>0</asrwt>
<pdfrwt beam="1">  1        2 0.23333476E-01 0.92313671E+02</pdfrwt>
<pdfrwt beam="2">  1       -2 0.28119655E-02 0.92313671E+02</pdfrwt>
<totfact> 0.92738892E+04</totfact>
</mgrwt>
</event>
<event>
 6    1  0.1727544E-002  0.8919152E+02  0.7546771E-02  0.1423731E+00
         -1   -1    0    0    0  501 -0.00000000000E+00  0.00000000000E+00  0.55176072452E+02  0.55176072452E+02  0.00000000000E+00 0.  1.
          1   -1    0    0  501    0  0.00000000000E+00 -0.00000000000E+00 -0.50137054612E+02  0.50137054612E+02  0.00000000000E+00 0. -1.
         23    2    1    2    0    0 -0.24520074809E+01  0.11948826892E+02  0.13857320067E+02  0.90261573690E+02  0.88353492069E+02 0.  0.
         11    1    3    3    0    0  0.41963931597E+02 -0.10767524550E+01  0.13080590253E+02  0.43968543213E+02  0.00000000000E+00 0. -1.
        -11    1    3    3    0    0 -0.44415939078E+02  0.13025579347E+02  0.77672981396E+00  0.46293030477E+02  0.00000000000E+00 0.  1.
         22    1    1    2    0    0  0.24520074809E+01 -0.11948826892E+02 -0.88183022277E+01  0.15051553374E+02  0.00000000000E+00 0. -1.
<mgrwt>
<rscale>  0 0.54239192E+02</rscale>
<asrwt>0</asrwt>
<pdfrwt beam="1">  1        1 0.77133930E-02 0.89191515E+02</pdfrwt>
<pdfrwt beam="2">  1       -1 0.84886266E-02 0.89191515E+02</pdfrwt>
<totfact> 0.61110865E+04</totfact>
</mgrwt>
</event>
<event>
 6    1  0.1727544E-002  0.9268664E+02  0.7546771E-02  0.1408120E+00
         -2   -1    0    0    0  501 -0.00000000000E+00  0.00000000000E+00  0.50043486503E+02  0.50043486503E+02  0.00000000000E+00 0.  1.
          2   -1    0    0  501    0  0.00000000000E+00 -0.00000000000E+00 -0.62241773472E+02  0.62241773472E+02  0.00000000000E+00 0. -1.
         23    2    1    2    0    0 -0.13774177810E+01  0.13770216888E+02  0.16584226638E+01  0.92701477023E+02  0.91647680405E+02 0.  0.
         11    1    3    3    0    0  0.25920588253E+01 -0.55921765296E+01 -0.43223209417E+02  0.43660474569E+02  0.00000000000E+00 0. -1.
        -11    1    3    3    0    0 -0.39694766063E+01  0.19362393417E+02  0.44881632081E+02  0.49041002453E+02  0.00000000000E+00 0.  1.
         22    1    1    2    0    0  0.13774177810E+01 -0.13770216888E+02 -0.13856709633E+02  0.19583782953E+02  0.00000000000E+00 0.  1.
<mgrwt>
<rscale>  0 0.57615394E+02</rscale>
<asrwt>0</asrwt>
<pdfrwt beam="1">  1        2 0.95756574E-02 0.92686641E+02</pdfrwt>
<pdfrwt beam="2">  1       -2 0.76989979E-02 0.92686641E+02</pdfrwt>
<totfact> 0.58399582E+04</totfact>
</mgrwt>
</event>
<event>
 6    1  0.1727544E-002  0.9409028E+02  0.7546771E-02  0.1404341E+00
          2   -1    0    0  501    0  0.00000000000E+00  0.00000000000E+00  0.22479559222E+03  0.22479559222E+03  0.00000000000E+00 0. -1.
         -2   -1    0    0    0  501 -0.00000000000E+00 -0.00000000000E+00 -0.16093058177E+02  0.16093058177E+02  0.00000000000E+00 0.  1.
         23    2    1    2    0    0 -0.61663761126E+01 -0.12610167977E+02  0.12737365731E+03  0.15835728229E+03  0.93037302990E+02 0.  0.
         11    1    3    3    0    0 -0.24783318594E+02 -0.13996427408E+02  0.13516420159E+03  0.13812847010E+03  0.00000000000E+00 0. -1.
        -11    1    3    3    0    0  0.18616942482E+02  0.13862594306E+01 -0.77905442789E+01  0.20228812193E+02  0.00000000000E+00 0.  1.
         22    1    1    2    0    0  0.61663761126E+01  0.12610167977E+02  0.81328876731E+02  0.82531368103E+02  0.00000000000E+00 0.  1.
<mgrwt>
<rscale>  0 0.58476047E+02</rscale>
<asrwt>0</asrwt>
<pdfrwt beam="1">  1        2 0.34583935E-01 0.94090277E+02</pdfrwt>
<pdfrwt beam="2">  1       -2 0.24758553E-02 0.94090277E+02</pdfrwt>
<totfact> 0.73208724E+04</totfact>
</mgrwt>
</event>
<event>
 6    1  0.1727544E-002  0.9528755E+02  0.7546771E-02  0.1411367E+00
          2   -1    0    0  501    0  0.00000000000E+00  0.00000000000E+00  0.13044176171E+02  0.13044176171E+02  0.00000000000E+00 0. -1.
         -2   -1    0    0    0  501 -0.00000000000E+00 -0.00000000000E+00 -0.23863058383E+03  0.23863058383E+03  0.00000000000E+00 0.  1.
         23    2    1    2    0    0 -0.25913137867E+01  0.11826289583E+02 -0.21648648639E+03  0.23652931185E+03  0.94515292656E+02 0.  0.
         13    1    3    3    0    0  0.11286095134E+01 -0.27662995455E+02 -0.18162320009E+03  0.18372126139E+03  0.00000000000E+00 0.  1.
        -13    1    3    3    0    0 -0.37199233001E+01  0.39489285037E+02 -0.34863286296E+02  0.52808050461E+02  0.00000000000E+00 0. -1.
         22    1    1    2    0    0  0.25913137867E+01 -0.11826289583E+02 -0.90999212759E+01  0.15145448150E+02  0.00000000000E+00 0.  1.
<mgrwt>
<rscale>  0 0.56889875E+02</rscale>
<asrwt>0</asrwt>
<pdfrwt beam="1">  1        2 0.20067962E-02 0.95287547E+02</pdfrwt>
<pdfrwt beam="2">  1       -2 0.36712400E-01 0.95287547E+02</pdfrwt>
<totfact> 0.33445422E+04</totfact>
</mgrwt>
</event>
<event>
 6    1  0.1727544E-002  0.1048171E+03  0.7546771E-02  0.1305239E+00
         -2   -1    0    0    0  501 -0.00000000000E+00  0.00000000000E+00  0.16862614388E+03  0.16862614388E+03  0.00000000000E+00 0.  1.
          2   -1    0    0  501    0  0.00000000000E+00 -0.00000000000E+00 -0.42138650469E+02  0.42138650469E+02  0.00000000000E+00 0. -1.
         23    2    1    2    0    0  0.37357643015E+02  0.39731590647E+02  0.11391018230E+03  0.15479711134E+03  0.89512140295E+02 0.  0.
         11    1    3    3    0    0  0.30295190942E+02 -0.24965138472E+02  0.35818374193E+02  0.53141440167E+02  0.00000000000E+00 0. -1.
        -11    1    3    3    0    0  0.70624520724E+01  0.64696729119E+02  0.78091808104E+02  0.10165567117E+03  0.00000000000E+00 0.  1.
         22    1    1    2    0    0 -0.37357643015E+02 -0.39731590647E+02  0.12577311114E+02  0.55967683013E+02  0.00000000000E+00 0. -1.
<mgrwt>
<rscale>  0 0.89021543E+02</rscale>
<asrwt>0</asrwt>
<pdfrwt beam="1">  1        2 0.64828694E-02 0.10481706E+03</pdfrwt>
<pdfrwt beam="2">  1       -2 0.25942483E-01 0.10481706E+03</pdfrwt>
<totfact> 0.13481725E+04</totfact>
</mgrwt>
</event>
<event>
 6    1  0.1727544E-002  0.1090845E+03  0.7546771E-02  0.1312133E+00
         -2   -1    0    0    0  501 -0.00000000000E+00  0.00000000000E+00  0.50991851015E+02  0.50991851015E+02  0.00000000000E+00 0.  1.
          2   -1    0    0  501    0  0.00000000000E+00 -0.00000000000E+00 -0.11812842341E+03  0.11812842341E+03  0.00000000000E+00 0. -1.
         23    2    1    2    0    0  0.37711869360E+02  0.19987809903E+02 -0.63651067037E+02  0.12629684179E+03  0.10038792894E+03 0.  0.
         11    1    3    3    0    0  0.39104285674E+02  0.29873371952E+02 -0.87530332948E+02  0.10041475338E+03  0.00000000000E+00 0. -1.
        -11    1    3    3    0    0 -0.13924163135E+01 -0.98855620483E+01  0.23879265911E+02  0.25882088414E+02  0.00000000000E+00 0.  1.
         22    1    1    2    0    0 -0.37711869360E+02 -0.19987809903E+02 -0.34855053625E+01  0.42823432639E+02  0.00000000000E+00 0.  1.
<mgrwt>
<rscale>  0 0.86274390E+02</rscale>
<asrwt>0</asrwt>
<pdfrwt beam="1">  1        2 0.18173603E-01 0.10908453E+03</pdfrwt>
<pdfrwt beam="2">  1       -2 0.78449003E-02 0.10908453E+03</pdfrwt>
<totfact> 0.27241264E+04</totfact>
</mgrwt>
</event>
<event>
 6    1  0.1727544E-002  0.7948991E+02  0.7546771E-02  0.1458389E+00
         -2   -1    0    0    0  501 -0.00000000000E+00  0.00000000000E+00  0.10370045145E+02  0.10370045145E+02  0.00000000000E+00 0. -1.
          2   -1    0    0  501    0  0.00000000000E+00 -0.00000000000E+00 -0.19872483238E+03  0.19872483238E+03  0.00000000000E+00 0.  1.
         23    2    1    2    0    0 -0.25159092991E+01  0.99595941964E+01 -0.15500287058E+03  0.17419683087E+03  0.78823363789E+02 0.  0.
         11    1    3    3    0    0  0.15048845119E+02 -0.14645011886E+02 -0.13784697428E+03  0.13943719887E+03  0.00000000000E+00 0.  1.
        -11    1    3    3    0    0 -0.17564754418E+02  0.24604606082E+02 -0.17155896306E+02  0.34759631993E+02  0.00000000000E+00 0. -1.
         22    1    1    2    0    0  0.25159092991E+01 -0.99595941964E+01 -0.33351916650E+02  0.34898046655E+02  0.00000000000E+00 0. -1.
<mgrwt>
<rscale>  0 0.47659838E+02</rscale>
<asrwt>0</asrwt>
<pdfrwt beam="1">  1        2 0.30573046E-01 0.79489911E+02</pdfrwt>
<pdfrwt beam="2">  1       -2 0.15953918E-02 0.79489911E+02</pdfrwt>
<totfact> 0.15262113E+05</totfact>
</mgrwt>
</event>
<event>
 6    1  0.1727544E-002  0.8915254E+02  0.7546771E-02  0.1419745E+00
         -1   -1    0    0    0  501 -0.00000000000E+00  0.00000000000E+00  0.11224081856E+02  0.11224081856E+02  0.00000000000E+00 0.  1.
          1   -1    0    0  501    0  0.00000000000E+00 -0.00000000000E+00 -0.23280935453E+03  0.23280935453E+03  0.00000000000E+00 0. -1.
         23    2    1    2    0    0 -0.60506806133E+01 -0.11488195539E+02 -0.19684828967E+03  0.21609586848E+03  0.88201960599E+02 0.  0.
         11    1    3    3    0    0  0.38999592103E+02 -0.15061765220E+02 -0.11836669273E+03  0.12553285986E+03  0.00000000000E+00 0. -1.
        -11    1    3    3    0    0 -0.45050272716E+02  0.35735696812E+01 -0.78481596943E+02  0.90563008623E+02  0.00000000000E+00 0.  1.
         22    1    1    2    0    0  0.60506806133E+01  0.11488195539E+02 -0.24736983005E+02  0.27937567912E+02  0.00000000000E+00 0. -1.
<mgrwt>
<rscale>  0 0.55074944E+02</rscale>
<asrwt>0</asrwt>
<pdfrwt beam="1">  1        1 0.35816821E-01 0.89152539E+02</pdfrwt>
<pdfrwt beam="2">  1       -1 0.17267820E-02 0.89152539E+02</pdfrwt>
<totfact> 0.87806629E+04</totfact>
</mgrwt>
</event>
<event>
 6    1  0.1727544E-002  0.1045820E+03  0.7546771E-02  0.1320011E+00
         -1   -1    0    0    0  501 -0.00000000000E+00  0.00000000000E+00  0.56063655515E+03  0.56063655515E+03  0.00000000000E+00 0.  1.
          1   -1    0    0  501    0  0.00000000000E+00 -0.00000000000E+00 -0.14475790604E+02  0.14475790604E+02  0.00000000000E+00 0. -1.
         23    2    1    2    0    0 -0.40472745115E+02  0.11367266680E+02  0.50695135062E+03  0.51762638234E+03  0.95760858148E+02 0.  0.
         13    1    3    3    0    0 -0.21868859063E+02 -0.17787674808E+02  0.45078799627E+03  0.45166853549E+03  0.00000000000E+00 0.  1.
        -13    1    3    3    0    0 -0.18603886052E+02  0.29154941488E+02  0.56163354345E+02  0.65957846847E+02  0.00000000000E+00 0. -1.
         22    1    1    2    0    0  0.40472745115E+02 -0.11367266680E+02  0.39209413926E+02  0.57485963411E+02  0.00000000000E+00 0. -1.
<mgrwt>
<rscale>  0 0.83273204E+02</rscale>
<asrwt>0</asrwt>
<pdfrwt beam="1">  1        1 0.22270451E-02 0.10458202E+03</pdfrwt>
<pdfrwt beam="2">  1       -1 0.86251761E-01 0.10458202E+03</pdfrwt>
<totfact> 0.67124943E+03</totfact>
</mgrwt>
</event>
<event>
 6    1  0.1727544E-002  0.9593468E+02  0.7546771E-02  0.1348516E+00
          2   -1    0    0  501    0  0.00000000000E+00  0.00000000000E+00  0.55383365449E+03  0.55383365449E+03  0.00000000000E+00 0. -1.
         -2   -1    0    0    0  501 -0.00000000000E+00 -0.00000000000E+00 -0.76887026891E+01  0.76887026891E+01  0.00000000000E+00 0.  1.
         23    2    1    2    0    0  0.12294246272E+02  0.30721618700E+02  0.44009122010E+03  0.45042618104E+03  0.90047188753E+02 0.  0.
         11    1    3    3    0    0  0.16689665817E+02  0.20179793629E+02  0.43803989827E+03  0.43882197016E+03  0.00000000000E+00 0. -1.
        -11    1    3    3    0    0 -0.43954195450E+01  0.10541825071E+02  0.20513218323E+01  0.11604210877E+02  0.00000000000E+00 0.  1.
         22    1    1    2    0    0 -0.12294246272E+02 -0.30721618700E+02  0.10605373170E+03  0.11109617614E+03  0.00000000000E+00 0. -1.
<mgrwt>
<rscale>  0 0.73520223E+02</rscale>
<asrwt>0</asrwt>
<pdfrwt beam="1">  1        2 0.85205147E-01 0.95934679E+02</pdfrwt>
<pdfrwt beam="2">  1       -2 0.11828778E-02 0.95934679E+02</pdfrwt>
<totfact> 0.81413438E+04</totfact>
</mgrwt>
</event>
<event>
 6    1  0.1727544E-002  0.8905746E+02  0.7546771E-02  0.1413453E+00
         -2   -1    0    0    0  501 -0.00000000000E+00  0.00000000000E+00  0.46225299996E+02  0.46225299996E+02  0.00000000000E+00 0.  1.
          2   -1    0    0  501    0  0.00000000000E+00 -0.00000000000E+00 -0.88876068971E+02  0.88876068971E+02  0.00000000000E+00 0. -1.
         23    2    1    2    0    0 -0.13761439035E+02 -0.40897015546E+01  0.10907905453E+01  0.89064135205E+02  0.87892704434E+02 0.  0.
         11    1    3    3    0    0  0.31589161162E+02 -0.21289122027E+02 -0.98430300585E+01  0.39344466705E+02  0.00000000000E+00 0. -1.
        -11    1    3    3    0    0 -0.45350600196E+02  0.17199420473E+02  0.10933820604E+02  0.49719668500E+02  0.00000000000E+00 0.  1.
         22    1    1    2    0    0  0.13761439035E+02  0.40897015546E+01 -0.43741559520E+02  0.46037233761E+02  0.00000000000E+00 0. -1.
<mgrwt>
<rscale>  0 0.56430411E+02</rscale>
<asrwt>0</asrwt>
<pdfrwt beam="1">  1        2 0.13673241E-01 0.89057455E+02</pdfrwt>
<pdfrwt beam="2">  1       -2 0.71115847E-02 0.89057455E+02</pdfrwt>
<totfact> 0.42826562E+04</totfact>
</mgrwt>
</event>
<event>
 6    1  0.1727544E-002  0.9181455E+02  0.7546771E-02  0.1398787E+00
          2   -1    0    0  501    0  0.00000000000E+00  0.00000000000E+00  0.71698315659E+02  0.71698315659E+02  0.00000000000E+00 0. -1.
         -2   -1    0    0    0  501 -0.00000000000E+00 -0.00000000000E+00 -0.10487618877E+03  0.10487618877E+03  0.00000000000E+00 0.  1.
         23    2    1    2    0    0  0.11161987276E+02 -0.12141355534E+02 -0.83199926722E+02  0.12390375048E+03  0.90321144268E+02 0.  0.
         13    1    3    3    0    0 -0.21446013082E+02 -0.45863509107E+01  0.10565389740E+02  0.24343244486E+02  0.00000000000E+00 0. -1.
        -13    1    3    3    0    0  0.32608000357E+02 -0.75550046235E+01 -0.93765316462E+02  0.99560505992E+02  0.00000000000E+00 0.  1.
         22    1    1    2    0    0 -0.11161987276E+02  0.12141355534E+02  0.50022053612E+02  0.52670753950E+02  0.00000000000E+00 0. -1.
<mgrwt>
<rscale>  0 0.59773026E+02</rscale>
<asrwt>0</asrwt>
<pdfrwt beam="1">  1        2 0.11030510E-01 0.91814550E+02</pdfrwt>
<pdfrwt beam="2">  1       -2 0.16134798E-01 0.91814550E+02</pdfrwt>
<totfact> 0.15351614E+04</totfact>
</mgrwt>
</event>
<event>
 6    1  0.1727544E-002  0.9308383E+02  0.7546771E-02  0.1419516E+00
          1   -1    0    0  501    0  0.00000000000E+00  0.00000000000E+00  0.15450391983E+03  0.15450391983E+03  0.00000000000E+00 0. -1.
         -1   -1    0    0    0  501 -0.00000000000E+00 -0.00000000000E+00 -0.20123555875E+02  0.20123555875E+02  0.00000000000E+00 0.  1.
         23    2    1    2    0    0 -0.21779708081E+01  0.11238687046E+02  0.92567551354E+02  0.13127585589E+03  0.92377200280E+02 0.  0.
         11    1    3    3    0    0 -0.40878998237E+02 -0.10723634440E+02  0.21474959548E+02  0.47405302658E+02  0.00000000000E+00 0.  1.
        -11    1    3    3    0    0  0.38701027429E+02  0.21962321486E+02  0.71092591806E+02  0.83870553228E+02  0.00000000000E+00 0. -1.
         22    1    1    2    0    0  0.21779708081E+01 -0.11238687046E+02  0.41812812604E+02  0.43351619822E+02  0.00000000000E+00 0. -1.
<mgrwt>
<rscale>  0 0.55123398E+02</rscale>
<asrwt>0</asrwt>
<pdfrwt beam="1">  1        1 0.23769833E-01 0.93083827E+02</pdfrwt>
<pdfrwt beam="2">  1       -1 0.30959318E-02 0.93083827E+02</pdfrwt>
<totfact> 0.63448881E+04</totfact>
</mgrwt>
</event>
<event>
 6    1  0.1727544E-002  0.9409879E+02  0.7546771E-02  0.1386231E+00
          2   -1    0    0  501    0  0.00000000000E+00  0.00000000000E+00  0.19532319017E+03  0.19532319017E+03  0.00000000000E+00 0. -1.
         -2   -1    0    0    0  501 -0.00000000000E+00 -0.00000000000E+00 -0.16998667346E+02  0.16998667346E+02  0.00000000000E+00 0.  1.
         23    2    1    2    0    0 -0.55164566471E+00 -0.18723529028E+02  0.12990546740E+03  0.16040577349E+03  0.92215545636E+02 0.  0.
         11    1    3    3    0    0 -0.25369445058E+02  0.21831625926E+02  0.96924112572E+02  0.10254029564E+03  0.00000000000E+00 0. -1.
        -11    1    3    3    0    0  0.24817799393E+02 -0.40555154954E+02  0.32981354824E+02  0.57865477844E+02  0.00000000000E+00 0.  1.
         22    1    1    2    0    0  0.55164566471E+00  0.18723529028E+02  0.48419055424E+02  0.51916084024E+02  0.00000000000E+00 0. -1.
<mgrwt>
<rscale>  0 0.62853874E+02</rscale>
<asrwt>0</asrwt>
<pdfrwt beam="1">  1        2 0.30049720E-01 0.94098787E+02</pdfrwt>
<pdfrwt beam="2">  1       -2 0.26151797E-02 0.94098787E+02</pdfrwt>
<totfact> 0.78544908E+04</totfact>
</mgrwt>
</event>
<event>
 6    1  0.1727544E-002  0.9527964E+02  0.7546771E-02  0.1383709E+00
         -1   -1    0    0    0  501 -0.00000000000E+00  0.00000000000E+00  0.16212488689E+04  0.16212488689E+04  0.00000000000E+00 0.  1.
          1   -1    0    0  501    0  0.00000000000E+00 -0.00000000000E+00 -0.31422339976E+01  0.31422339976E+01  0.00000000000E+00 0. -1.
         23    2    1    2    0    0  0.18772350787E+02  0.93692088044E+00  0.15677239761E+04  0.15706166547E+04  0.93407342827E+02 0.  0.
         13    1    3    3    0    0 -0.38198585913E+02  0.39637957770E+00  0.59336796820E+03  0.59459636289E+03  0.00000000000E+00 0.  1.
        -13    1    3    3    0    0  0.56970936699E+02  0.54054130274E+00  0.97435600795E+03  0.97602029182E+03  0.00000000000E+00 0. -1.
         22    1    1    2    0    0 -0.18772350787E+02 -0.93692088044E+00  0.50382658793E+02  0.53774448225E+02  0.00000000000E+00 0.  1.
<mgrwt>
<rscale>  0 0.63498698E+02</rscale>
<asrwt>0</asrwt>
<pdfrwt beam="1">  1        1 0.48342191E-03 0.95279645E+02</pdfrwt>
<pdfrwt beam="2">  1       -1 0.24942223E+00 0.95279645E+02</pdfrwt>
<totfact> 0.34202441E+03</totfact>
</mgrwt>
</event>
<event>
 6    1  0.1727544E-002  0.9555278E+02  0.7546771E-02  0.1348757E+00
         -4   -1    0    0    0  501 -0.00000000000E+00  0.00000000000E+00  0.29464672012E+03  0.29464672012E+03  0.00000000000E+00 0.  1.
          4   -1    0    0  501    0  0.00000000000E+00 -0.00000000000E+00 -0.14157695639E+02  0.14157695639E+02  0.00000000000E+00 0. -1.
         23    2    1    2    0    0 -0.30028325983E+02 -0.14511003105E+02  0.19887268890E+03  0.22063698523E+03  0.89543639015E+02 0.  0.
         13    1    3    3    0    0  0.32056037087E+02 -0.41295856366E+01  0.59589474965E+02  0.67790475126E+02  0.00000000000E+00 0. -1.
        -13    1    3    3    0    0 -0.62084363070E+02 -0.10381417468E+02  0.13928321393E+03  0.15284651010E+03  0.00000000000E+00 0.  1.
         22    1    1    2    0    0  0.30028325983E+02  0.14511003105E+02  0.81616335581E+02  0.88167430529E+02  0.00000000000E+00 0. -1.
<mgrwt>
<rscale>  0 0.73444408E+02</rscale>
<asrwt>0</asrwt>
<pdfrwt beam="1">  1        4 0.21781072E-02 0.95552775E+02</pdfrwt>
<pdfrwt beam="2">  1       -4 0.45330260E-01 0.95552775E+02</pdfrwt>
<totfact> 0.62717730E+03</totfact>
</mgrwt>
</event>
<event>
 6    1  0.1727544E-002  0.9538067E+02  0.7546771E-02  0.1364977E+00
          4   -1    0    0  501    0  0.00000000000E+00  0.00000000000E+00  0.53171172641E+02  0.53171172641E+02  0.00000000000E+00 0.  1.
         -4   -1    0    0    0  501 -0.00000000000E+00 -0.00000000000E+00 -0.15004425500E+03  0.15004425500E+03  0.00000000000E+00 0. -1.
         23    2    1    2    0    0 -0.11721390532E+02 -0.22643457906E+02 -0.13010935027E+03  0.16132549226E+03  0.91909489401E+02 0.  0.
         11    1    3    3    0    0  0.20798635810E+02 -0.37795785850E+02 -0.24112966168E+02  0.49422058000E+02  0.00000000000E+00 0.  1.
        -11    1    3    3    0    0 -0.32520026342E+02  0.15152327944E+02 -0.10599638410E+03  0.11190343426E+03  0.00000000000E+00 0. -1.
         22    1    1    2    0    0  0.11721390532E+02  0.22643457906E+02  0.33236267912E+02  0.41889935386E+02  0.00000000000E+00 0.  1.
<mgrwt>
<rscale>  0 0.68583433E+02</rscale>
<asrwt>0</asrwt>
<pdfrwt beam="1">  1        4 0.81801805E-02 0.95380666E+02</pdfrwt>
<pdfrwt beam="2">  1       -4 0.23083731E-01 0.95380666E+02</pdfrwt>
<totfact> 0.27731895E+03</totfact>
</mgrwt>
</event>
<event>
 6    1  0.1727544E-002  0.9410068E+02  0.7546771E-02  0.1364301E+00
         -1   -1    0    0    0  501 -0.00000000000E+00  0.00000000000E+00  0.25073079940E+02  0.25073079940E+02  0.00000000000E+00 0.  1.
          1   -1    0    0  501    0  0.00000000000E+00 -0.00000000000E+00 -0.14591280213E+03  0.14591280213E+03  0.00000000000E+00 0. -1.
         23    2    1    2    0    0  0.23628108502E+02  0.12760548696E+02 -0.95174430782E+02  0.13383986886E+03  0.90187688224E+02 0.  0.
         13    1    3    3    0    0 -0.97178630308E+01  0.42946896728E+02 -0.25427658560E+02  0.50847208579E+02  0.00000000000E+00 0. -1.
        -13    1    3    3    0    0  0.33345971533E+02 -0.30186348032E+02 -0.69746772222E+02  0.82992660280E+02  0.00000000000E+00 0.  1.
         22    1    1    2    0    0 -0.23628108502E+02 -0.12760548696E+02 -0.25665291411E+02  0.37146013213E+02  0.00000000000E+00 0. -1.
<mgrwt>
<rscale>  0 0.68777352E+02</rscale>
<asrwt>0</asrwt>
<pdfrwt beam="1">  1        1 0.22448124E-01 0.94100681E+02</pdfrwt>
<pdfrwt beam="2">  1       -1 0.38573969E-02 0.94100681E+02</pdfrwt>
<totfact> 0.49638540E+04</totfact>
</mgrwt>
</event>
<event>
 6    1  0.1727544E-002  0.9375740E+02  0.7546771E-02  0.1367455E+00
          2   -1    0    0  501    0  0.00000000000E+00  0.00000000000E+00  0.46640612294E+02  0.46640612294E+02  0.00000000000E+00 0. -1.
         -2   -1    0    0    0  501 -0.00000000000E+00 -0.00000000000E+00 -0.76729778198E+02  0.76729778198E+02  0.00000000000E+00 0.  1.
         23    2    1    2    0    0 -0.14212257776E+02  0.21484769854E+02 -0.21244488332E+02  0.96134165935E+02  0.90149131825E+02 0.  0.
         11    1    3    3    0    0  0.28232716702E+02  0.36992704209E+02 -0.20725102552E+02  0.50941891728E+02  0.00000000000E+00 0.  1.
        -11    1    3    3    0    0 -0.42444974478E+02 -0.15507934355E+02 -0.51938578050E+00  0.45192274207E+02  0.00000000000E+00 0. -1.
         22    1    1    2    0    0  0.14212257776E+02 -0.21484769854E+02 -0.88446775717E+01  0.27236224557E+02  0.00000000000E+00 0.  1.
<mgrwt>
<rscale>  0 0.67879887E+02</rscale>
<asrwt>0</asrwt>
<pdfrwt beam="1">  1        2 0.71754788E-02 0.93757397E+02</pdfrwt>
<pdfrwt beam="2">  1       -2 0.11804581E-01 0.93757397E+02</pdfrwt>
<totfact> 0.43072708E+04</totfact>
</mgrwt>
</event>
<event>
 6    1  0.1727544E-002  0.9015653E+02  0.7546771E-02  0.1417700E+00
         -4   -1    0    0    0  501 -0.00000000000E+00  0.00000000000E+00  0.70920586913E+02  0.70920586913E+02  0.00000000000E+00 0.  1.
          4   -1    0    0  501    0  0.00000000000E+00 -0.00000000000E+00 -0.98774289918E+02  0.98774289918E+02  0.00000000000E+00 0. -1.
         23    2    1    2    0    0  0.74147145879E+01  0.10625768335E+02  0.41422732630E+02  0.99217153546E+02  0.89220602072E+02 0.  0.
         13    1    3    3    0    0 -0.39555697986E+02  0.16241685925E+02  0.17439723177E+02  0.46179969136E+02  0.00000000000E+00 0.  1.
        -13    1    3    3    0    0  0.46970412574E+02 -0.56159175899E+01  0.23983009453E+02  0.53037184410E+02  0.00000000000E+00 0. -1.
         22    1    1    2    0    0 -0.74147145879E+01 -0.10625768335E+02 -0.69276435635E+02  0.70477723285E+02  0.00000000000E+00 0. -1.
<mgrwt>
<rscale>  0 0.55510403E+02</rscale>
<asrwt>0</asrwt>
<pdfrwt beam="1">  1        4 0.15196045E-01 0.90156535E+02</pdfrwt>
<pdfrwt beam="2">  1       -4 0.10910859E-01 0.90156535E+02</pdfrwt>
<totfact> 0.35484951E+03</totfact>
</mgrwt>
</event>
<event>
 6    1  0.1727544E-002  0.1013661E+03  0.7546771E-02  0.1336634E+00
          2   -1    0    0  501    0  0.00000000000E+00  0.00000000000E+00  0.20873029274E+03  0.20873029274E+03  0.00000000000E+00 0. -1.
         -2   -1    0    0    0  501 -0.00000000000E+00 -0.00000000000E+00 -0.22261236481E+02  0.22261236481E+02  0.00000000000E+00 0.  1.
         23    2    1    2    0    0 -0.32204656890E+02  0.12191311884E+02  0.14769932637E+03  0.17913731081E+03  0.95337910115E+02 0.  0.
         13    1    3    3    0    0 -0.14961690222E+02 -0.40977589732E+02  0.48174685723E+02  0.64990886892E+02  0.00000000000E+00 0. -1.
        -13    1    3    3    0    0 -0.17242966668E+02  0.53168901615E+02  0.99524640644E+02  0.11414642392E+03  0.00000000000E+00 0.  1.
         22    1    1    2    0    0  0.32204656890E+02 -0.12191311884E+02  0.38769729895E+02  0.51854218411E+02  0.00000000000E+00 0.  1.
<mgrwt>
<rscale>  0 0.77387266E+02</rscale>
<asrwt>0</asrwt>
<pdfrwt beam="1">  1        2 0.32112351E-01 0.10136609E+03</pdfrwt>
<pdfrwt beam="2">  1       -2 0.34248058E-02 0.10136609E+03</pdfrwt>
<totfact> 0.49893963E+04</totfact>
</mgrwt>
</event>
<event>
 6    1  0.1727544E-002  0.9107773E+02  0.7546771E-02  0.1409303E+00
          2   -1    0    0  501    0  0.00000000000E+00  0.00000000000E+00  0.52060744487E+02  0.52060744487E+02  0.00000000000E+00 0. -1.
         -2   -1    0    0    0  501 -0.00000000000E+00 -0.00000000000E+00 -0.53442617517E+02  0.53442617517E+02  0.00000000000E+00 0.  1.
         23    2    1    2    0    0  0.13773545706E+02  0.39113556002E+01  0.36966879716E+00  0.91078482015E+02  0.89945227596E+02 0.  0.
         13    1    3    3    0    0  0.14021408059E+02 -0.26695300914E+02  0.34107608177E+02  0.45525464417E+02  0.00000000000E+00 0. -1.
        -13    1    3    3    0    0 -0.24786235387E+00  0.30606656514E+02 -0.33737939380E+02  0.45553017598E+02  0.00000000000E+00 0.  1.
         22    1    1    2    0    0 -0.13773545706E+02 -0.39113556002E+01 -0.17515418275E+01  0.14424879989E+02  0.00000000000E+00 0. -1.
<mgrwt>
<rscale>  0 0.57349659E+02</rscale>
<asrwt>0</asrwt>
<pdfrwt beam="1">  1        2 0.80093453E-02 0.91077732E+02</pdfrwt>
<pdfrwt beam="2">  1       -2 0.82219411E-02 0.91077732E+02</pdfrwt>
<totfact> 0.65623732E+04</totfact>
</mgrwt>
</event>
<event>
 6    1  0.1727544E-002  0.9204047E+02  0.7546771E-02  0.1413147E+00
          2   -1    0    0  501    0  0.00000000000E+00  0.00000000000E+00  0.67595753618E+02  0.67595753618E+02  0.00000000000E+00 0. -1.
         -2   -1    0    0    0  501 -0.00000000000E+00 -0.00000000000E+00 -0.49695756974E+02  0.49695756974E+02  0.00000000000E+00 0.  1.
         23    2    1    2    0    0  0.12953326669E+02 -0.17203958060E+01 -0.36237191226E+01  0.92111781166E+02  0.91108179961E+02 0.  0.
         13    1    3    3    0    0  0.10502243465E+02 -0.45131463419E+02  0.81893354247E+01  0.47055406946E+02  0.00000000000E+00 0.  1.
        -13    1    3    3    0    0  0.24510832039E+01  0.43411067613E+02 -0.11813054547E+02  0.45056374220E+02  0.00000000000E+00 0. -1.
         22    1    1    2    0    0 -0.12953326669E+02  0.17203958060E+01  0.21523715767E+02  0.25179729426E+02  0.00000000000E+00 0.  1.
<mgrwt>
<rscale>  0 0.56497434E+02</rscale>
<asrwt>0</asrwt>
<pdfrwt beam="1">  1        2 0.10399347E-01 0.92040474E+02</pdfrwt>
<pdfrwt beam="2">  1       -2 0.76455010E-02 0.92040474E+02</pdfrwt>
<totfact> 0.53350718E+04</totfact>
</mgrwt>
</event>
<event>
 6    1  0.1727544E-002  0.9288272E+02  0.7546771E-02  0.1384435E+00
         -2   -1    0    0    0  501 -0.00000000000E+00  0.00000000000E+00  0.66307561187E+01  0.66307561187E+01  0.00000000000E+00 0. -1.
          2   -1    0    0  501    0  0.00000000000E+00 -0.00000000000E+00 -0.48090794479E+03  0.48090794479E+03  0.00000000000E+00 0.  1.
         23    2    1    2    0    0 -0.94527082031E+01  0.17683650283E+02 -0.39169026445E+03  0.40255243595E+03  0.90692531351E+02 0.  0.
         11    1    3    3    0    0  0.37313680408E+00  0.16021230866E+02 -0.39224432676E+03  0.39257156156E+03  0.00000000000E+00 0.  1.
        -11    1    3    3    0    0 -0.98258450072E+01  0.16624194165E+01  0.55406231468E+00  0.99808743841E+01  0.00000000000E+00 0. -1.
         22    1    1    2    0    0  0.94527082031E+01 -0.17683650283E+02 -0.82586924226E+02  0.84986264966E+02  0.00000000000E+00 0.  1.
<mgrwt>
<rscale>  0 0.63312325E+02</rscale>
<asrwt>0</asrwt>
<pdfrwt beam="1">  1        2 0.73985856E-01 0.92882724E+02</pdfrwt>
<pdfrwt beam="2">  1       -2 0.10201161E-02 0.92882724E+02</pdfrwt>
<totfact> 0.11660085E+05</totfact>
</mgrwt>
</event>
<event>
 6    1  0.1727544E-002  0.9450977E+02  0.7546771E-02  0.1371079E+00
          1   -1    0    0  501    0  0.00000000000E+00  0.00000000000E+00  0.21968554739E+03  0.21968554739E+03  0.00000000000E+00 0. -1.
         -1   -1    0    0    0  501 -0.00000000000E+00 -0.00000000000E+00 -0.15901613399E+02  0.15901613399E+02  0.00000000000E+00 0.  1.
         23    2    1    2    0    0  0.14042089327E+02 -0.19071681004E+02  0.16138545864E+03  0.18702235871E+03  0.91494191661E+02 0.  0.
         13    1    3    3    0    0  0.45226332937E+01 -0.21637705521E+02  0.17148762097E+03  0.17290647373E+03  0.00000000000E+00 0. -1.
        -13    1    3    3    0    0  0.95194560332E+01  0.25660245173E+01 -0.10102162330E+02  0.14115884978E+02  0.00000000000E+00 0.  1.
         22    1    1    2    0    0 -0.14042089327E+02  0.19071681004E+02  0.42398475352E+02  0.48564802081E+02  0.00000000000E+00 0. -1.
<mgrwt>
<rscale>  0 0.66868119E+02</rscale>
<asrwt>0</asrwt>
<pdfrwt beam="1">  1        1 0.33797774E-01 0.94509769E+02</pdfrwt>
<pdfrwt beam="2">  1       -1 0.24464022E-02 0.94509769E+02</pdfrwt>
<totfact> 0.57800881E+04</totfact>
</mgrwt>
</event>
<event>
 6    1  0.1727544E-002  0.1002634E+03  0.7546771E-02  0.1329654E+00
         -2   -1    0    0    0  501 -0.00000000000E+00  0.00000000000E+00  0.16483087066E+03  0.16483087066E+03  0.00000000000E+00 0.  1.
          2   -1    0    0  501    0  0.00000000000E+00 -0.00000000000E+00 -0.29977705590E+02  0.29977705590E+02  0.00000000000E+00 0. -1.
         23    2    1    2    0    0  0.20976971983E+02 -0.34303194525E+02  0.92629721234E+02  0.13650281566E+03  0.91847759473E+02 0.  0.
         11    1    3    3    0    0  0.17283858703E+02 -0.66064196578E+02  0.62846692675E+02  0.92805800580E+02  0.00000000000E+00 0. -1.
        -11    1    3    3    0    0  0.36931132805E+01  0.31761002053E+02  0.29783028559E+02  0.43697015084E+02  0.00000000000E+00 0.  1.
         22    1    1    2    0    0 -0.20976971983E+02  0.34303194525E+02  0.42223443837E+02  0.58305760588E+02  0.00000000000E+00 0.  1.
<mgrwt>
<rscale>  0 0.79787892E+02</rscale>
<asrwt>0</asrwt>
<pdfrwt beam="1">  1        2 0.46119548E-02 0.10026342E+03</pdfrwt>
<pdfrwt beam="2">  1       -2 0.25358595E-01 0.10026342E+03</pdfrwt>
<totfact> 0.21623499E+04</totfact>
</mgrwt>
</event>
<event>
 6    1  0.1727544E-002  0.9164016E+02  0.7546771E-02  0.1394772E+00
         -2   -1    0    0    0  501 -0.00000000000E+00  0.00000000000E+00  0.50656280304E+03  0.50656280304E+03  0.00000000000E+00 0.  1.
          2   -1    0    0  501    0  0.00000000000E+00 -0.00000000000E+00 -0.59053824771E+01  0.59053824771E+01  0.00000000000E+00 0. -1.
         23    2    1    2    0    0  0.13959197293E+02 -0.10851711809E+02  0.41286650172E+03  0.42291449062E+03  0.89918292335E+02 0.  0.
         13    1    3    3    0    0 -0.17962657298E+02 -0.22166225099E+02  0.35284915149E+03  0.35400073771E+03  0.00000000000E+00 0. -1.
        -13    1    3    3    0    0  0.31921854592E+02  0.11314513291E+02  0.60017350230E+02  0.68913752910E+02  0.00000000000E+00 0.  1.
         22    1    1    2    0    0 -0.13959197293E+02  0.10851711809E+02  0.87790918840E+02  0.89553694893E+02  0.00000000000E+00 0. -1.
<mgrwt>
<rscale>  0 0.60735311E+02</rscale>
<asrwt>0</asrwt>
<pdfrwt beam="1">  1        2 0.90852078E-03 0.91640156E+02</pdfrwt>
<pdfrwt beam="2">  1       -2 0.77932705E-01 0.91640156E+02</pdfrwt>
<totfact> 0.21807776E+04</totfact>
</mgrwt>
</event>
<event>
 6    1  0.1727544E-002  0.1151165E+03  0.7546771E-02  0.1368113E+00
         -2   -1    0    0    0  501 -0.00000000000E+00  0.00000000000E+00  0.14603138202E+03  0.14603138202E+03  0.00000000000E+00 0.  1.
          2   -1    0    0  501    0  0.00000000000E+00 -0.00000000000E+00 -0.71119666218E+02  0.71119666218E+02  0.00000000000E+00 0. -1.
         23    2    1    2    0    0 -0.85067010405E+01 -0.10822856667E+02  0.12221009782E+03  0.16789015980E+03  0.11429041763E+03 0.  0.
         13    1    3    3    0    0  0.28676440035E+02  0.34732112538E+02  0.18546414658E+02  0.48709622778E+02  0.00000000000E+00 0. -1.
        -13    1    3    3    0    0 -0.37183141076E+02 -0.45554969205E+02  0.10366368316E+03  0.11918053702E+03  0.00000000000E+00 0.  1.
         22    1    1    2    0    0  0.85067010405E+01  0.10822856667E+02 -0.47298382010E+02  0.49260888439E+02  0.00000000000E+00 0. -1.
<mgrwt>
<rscale>  0 0.67694546E+02</rscale>
<asrwt>0</asrwt>
<pdfrwt beam="1">  1        2 0.10941487E-01 0.11511645E+03</pdfrwt>
<pdfrwt beam="2">  1       -2 0.22466367E-01 0.11511645E+03</pdfrwt>
<totfact> 0.91140492E+03</totfact>
</mgrwt>
</event>
<event>
 6    1  0.1727544E-002  0.9238270E+02  0.7546771E-02  0.1418635E+00
         -2   -1    0    0    0  501 -0.00000000000E+00  0.00000000000E+00  0.69929967448E+03  0.69929967448E+03  0.00000000000E+00 0.  1.
          2   -1    0    0  501    0  0.00000000000E+00 -0.00000000000E+00 -0.52461114913E+01  0.52461114913E+01  0.00000000000E+00 0. -1.
         23    2    1    2    0    0  0.11376989954E+02  0.33866746095E+01  0.67956411719E+03  0.68581480882E+03  0.91616904371E+02 0.  0.
         13    1    3    3    0    0  0.13449209405E+01 -0.37282150458E+02  0.50168763730E+03  0.50307281081E+03  0.00000000000E+00 0.  1.
        -13    1    3    3    0    0  0.10032069013E+02  0.40668825068E+02  0.17787647988E+03  0.18274199801E+03  0.00000000000E+00 0. -1.
         22    1    1    2    0    0 -0.11376989954E+02 -0.33866746095E+01  0.14489445802E+02  0.18730977149E+02  0.00000000000E+00 0. -1.
<mgrwt>
<rscale>  0 0.55310675E+02</rscale>
<asrwt>0</asrwt>
<pdfrwt beam="1">  1        2 0.80709463E-03 0.92382697E+02</pdfrwt>
<pdfrwt beam="2">  1       -2 0.10758449E+00 0.92382697E+02</pdfrwt>
<totfact> 0.12472839E+04</totfact>
</mgrwt>
</event>
<event>
 6    1  0.1727544E-002  0.9545099E+02  0.7546771E-02  0.1365106E+00
          2   -1    0    0  501    0  0.00000000000E+00  0.00000000000E+00  0.44411397035E+02  0.44411397035E+02  0.00000000000E+00 0. -1.
         -2   -1    0    0    0  501 -0.00000000000E+00 -0.00000000000E+00 -0.93327156426E+02  0.93327156426E+02  0.00000000000E+00 0.  1.
         23    2    1    2    0    0 -0.10301847244E+02 -0.23202545964E+02 -0.16992803973E+02  0.96951775230E+02  0.92013070471E+02 0.  0.
         11    1    3    3    0    0 -0.41374074432E+02  0.54593597264E+01  0.14562200369E+02  0.44200410895E+02  0.00000000000E+00 0. -1.
        -11    1    3    3    0    0  0.31072227188E+02 -0.28661905690E+02 -0.31555004341E+02  0.52751364335E+02  0.00000000000E+00 0.  1.
         22    1    1    2    0    0  0.10301847244E+02  0.23202545964E+02 -0.31922955418E+02  0.40786778231E+02  0.00000000000E+00 0. -1.
<mgrwt>
<rscale>  0 0.68546775E+02</rscale>
<asrwt>0</asrwt>
<pdfrwt beam="1">  1        2 0.68325227E-02 0.95450989E+02</pdfrwt>
<pdfrwt beam="2">  1       -2 0.14358024E-01 0.95450989E+02</pdfrwt>
<totfact> 0.33595598E+04</totfact>
</mgrwt>
</event>
<event>
 6    1  0.1727544E-002  0.9008963E+02  0.7546771E-02  0.1432271E+00
          1   -1    0    0  501    0  0.00000000000E+00  0.00000000000E+00  0.33848420239E+02  0.33848420239E+02  0.00000000000E+00 0. -1.
         -1   -1    0    0    0  501 -0.00000000000E+00 -0.00000000000E+00 -0.83237823215E+02  0.83237823215E+02  0.00000000000E+00 0.  1.
         23    2    1    2    0    0 -0.48306003142E+00  0.10384084250E+02 -0.54717837686E+02  0.10540485787E+03  0.89487874871E+02 0.  0.
         11    1    3    3    0    0 -0.11045976629E+02  0.36482967993E+01 -0.78055331039E+02  0.78917414890E+02  0.00000000000E+00 0.  1.
        -11    1    3    3    0    0  0.10562916598E+02  0.67357874505E+01  0.23337493354E+02  0.26487442981E+02  0.00000000000E+00 0. -1.
         22    1    1    2    0    0  0.48306003142E+00 -0.10384084250E+02  0.53284347098E+01  0.11681385584E+02  0.00000000000E+00 0. -1.
<mgrwt>
<rscale>  0 0.52506797E+02</rscale>
<asrwt>0</asrwt>
<pdfrwt beam="1">  1        1 0.52074493E-02 0.90089635E+02</pdfrwt>
<pdfrwt beam="2">  1       -1 0.12805819E-01 0.90089635E+02</pdfrwt>
<totfact> 0.55565952E+04</totfact>
</mgrwt>
</event>
<event>
 6    1  0.1727544E-002  0.9532130E+02  0.7546771E-02  0.1361937E+00
          2   -1    0    0  501    0  0.00000000000E+00  0.00000000000E+00  0.74693377675E+02  0.74693377675E+02  0.00000000000E+00 0. -1.
         -2   -1    0    0    0  501 -0.00000000000E+00 -0.00000000000E+00 -0.56669403400E+02  0.56669403400E+02  0.00000000000E+00 0.  1.
         23    2    1    2    0    0  0.26716883262E+02 -0.29317323517E+01 -0.57295501032E+01  0.95493339677E+02  0.91453612682E+02 0.  0.
         13    1    3    3    0    0  0.49017155950E+02 -0.32108243544E+02 -0.37647838430E+01  0.58717922973E+02  0.00000000000E+00 0. -1.
        -13    1    3    3    0    0 -0.22300272688E+02  0.29176511192E+02 -0.19647662603E+01  0.36775416704E+02  0.00000000000E+00 0.  1.
         22    1    1    2    0    0 -0.26716883262E+02  0.29317323517E+01  0.23753524378E+02  0.35869441398E+02  0.00000000000E+00 0.  1.
<mgrwt>
<rscale>  0 0.69460627E+02</rscale>
<asrwt>0</asrwt>
<pdfrwt beam="1">  1        2 0.11491289E-01 0.95321300E+02</pdfrwt>
<pdfrwt beam="2">  1       -2 0.87183697E-02 0.95321300E+02</pdfrwt>
<totfact> 0.38879768E+04</totfact>
</mgrwt>
</event>
<event>
 6    1  0.1727544E-002  0.9278377E+02  0.7546771E-02  0.1387219E+00
         -2   -1    0    0    0  501 -0.00000000000E+00  0.00000000000E+00  0.12330994156E+03  0.12330994156E+03  0.00000000000E+00 0.  1.
          2   -1    0    0  501    0  0.00000000000E+00 -0.00000000000E+00 -0.26473996904E+02  0.26473996904E+02  0.00000000000E+00 0. -1.
         23    2    1    2    0    0 -0.12005262263E+02  0.15022423100E+02  0.90304550788E+02  0.12947486109E+03  0.90769093000E+02 0.  0.
         11    1    3    3    0    0  0.38316482896E+02  0.64321801133E+01  0.23531731363E+02  0.45423211945E+02  0.00000000000E+00 0. -1.
        -11    1    3    3    0    0 -0.50321745158E+02  0.85902429872E+01  0.66772819425E+02  0.84051649147E+02  0.00000000000E+00 0.  1.
         22    1    1    2    0    0  0.12005262263E+02 -0.15022423100E+02  0.65313938670E+01  0.20309077371E+02  0.00000000000E+00 0. -1.
<mgrwt>
<rscale>  0 0.62603671E+02</rscale>
<asrwt>0</asrwt>
<pdfrwt beam="1">  1        2 0.40729227E-02 0.92783769E+02</pdfrwt>
<pdfrwt beam="2">  1       -2 0.18970760E-01 0.92783769E+02</pdfrwt>
<totfact> 0.41239038E+04</totfact>
</mgrwt>
</event>
<event>
 6    1  0.1727544E-002  0.9898788E+02  0.7546771E-02  0.1358215E+00
         -2   -1    0    0    0  501 -0.00000000000E+00  0.00000000000E+00  0.30286594069E+03  0.30286594069E+03  0.00000000000E+00 0.  1.
          2   -1    0    0  501    0  0.00000000000E+00 -0.00000000000E+00 -0.72837164448E+02  0.72837164448E+02  0.00000000000E+00 0. -1.
         23    2    1    2    0    0  0.22456576186E+02 -0.12184256427E+02  0.29218679107E+03  0.30849914151E+03  0.95633914047E+02 0.  0.
         13    1    3    3    0    0  0.23122284229E+02  0.37432053647E+02  0.18827547366E+03  0.19334800917E+03  0.00000000000E+00 0.  1.
        -13    1    3    3    0    0 -0.66570804309E+00 -0.49616310074E+02  0.10391131741E+03  0.11515113234E+03  0.00000000000E+00 0. -1.
         22    1    1    2    0    0 -0.22456576186E+02  0.12184256427E+02 -0.62158014835E+02  0.67203963625E+02  0.00000000000E+00 0. -1.
<mgrwt>
<rscale>  0 0.70555388E+02</rscale>
<asrwt>0</asrwt>
<pdfrwt beam="1">  1        2 0.11205718E-01 0.98987875E+02</pdfrwt>
<pdfrwt beam="2">  1       -2 0.46594759E-01 0.98987875E+02</pdfrwt>
<totfact> 0.23280775E+03</totfact>
</mgrwt>
</event>
<event>
 6    1  0.1727544E-002  0.1044650E+03  0.7546771E-02  0.1318364E+00
         -2   -1    0    0    0  501 -0.00000000000E+00  0.00000000000E+00  0.58990906462E+01  0.58990906462E+01  0.00000000000E+00 0.  1.
          2   -1    0    0  501    0  0.00000000000E+00 -0.00000000000E+00 -0.97698580607E+03  0.97698580607E+03  0.00000000000E+00 0. -1.
         23    2    1    2    0    0 -0.43120583021E+02  0.52739913556E+01 -0.77731534139E+03  0.78430356562E+03  0.95003912653E+02 0.  0.
         11    1    3    3    0    0 -0.25521323648E+02 -0.88523367975E+01 -0.74136494529E+03  0.74185691608E+03  0.00000000000E+00 0. -1.
        -11    1    3    3    0    0 -0.17599259372E+02  0.14126328153E+02 -0.35950396093E+02  0.42446649535E+02  0.00000000000E+00 0.  1.
         22    1    1    2    0    0  0.43120583021E+02 -0.52739913556E+01 -0.19377137403E+03  0.19858133110E+03  0.00000000000E+00 0.  1.
<mgrwt>
<rscale>  0 0.83889082E+02</rscale>
<asrwt>0</asrwt>
<pdfrwt beam="1">  1        2 0.15030552E+00 0.10446503E+03</pdfrwt>
<pdfrwt beam="2">  1       -2 0.90755232E-03 0.10446503E+03</pdfrwt>
<totfact> 0.60615269E+04</totfact>
</mgrwt>
</event>
<event>
 6    1  0.1727544E-002  0.9316907E+02  0.7546771E-02  0.1414129E+00
          2   -1    0    0  501    0  0.00000000000E+00  0.00000000000E+00  0.54727208316E+01  0.54727208316E+01  0.00000000000E+00 0. -1.
         -2   -1    0    0    0  501 -0.00000000000E+00 -0.00000000000E+00 -0.10554030930E+04  0.10554030930E+04  0.00000000000E+00 0.  1.
         23    2    1    2    0    0 -0.11054127403E+01 -0.12358130257E+02 -0.10419856802E+04  0.10461427405E+04  0.92339213539E+02 0.  0.
         13    1    3    3    0    0  0.23241522209E+02  0.33771445471E+02 -0.45004745705E+03  0.45191082359E+03  0.00000000000E+00 0. -1.
        -13    1    3    3    0    0 -0.24346934950E+02 -0.46129575728E+02 -0.59193822317E+03  0.59423191689E+03  0.00000000000E+00 0.  1.
         22    1    1    2    0    0  0.11054127403E+01  0.12358130257E+02 -0.79446919909E+01  0.14733073393E+02  0.00000000000E+00 0. -1.
<mgrwt>
<rscale>  0 0.56282662E+02</rscale>
<asrwt>0</asrwt>
<pdfrwt beam="1">  1        2 0.84195764E-03 0.93169070E+02</pdfrwt>
<pdfrwt beam="2">  1       -2 0.16236959E+00 0.93169070E+02</pdfrwt>
<totfact> 0.42998322E+03</totfact>
</mgrwt>
</event>
<event>
 6    1  0.1727544E-002  0.9160397E+02  0.7546771E-02  0.1421191E+00
         -1   -1    0    0    0  501 -0.00000000000E+00  0.00000000000E+00  0.13160773975E+02  0.13160773975E+02  0.00000000000E+00 0.  1.
          1   -1    0    0  501    0  0.00000000000E+00 -0.00000000000E+00 -0.20277993864E+03  0.20277993864E+03  0.00000000000E+00 0. -1.
         23    2    1    2    0    0 -0.96917917734E+01  0.65654224253E+01 -0.16719010966E+03  0.19064055238E+03  0.90852913243E+02 0.  0.
         13    1    3    3    0    0 -0.18130778437E+02 -0.82795375389E+01 -0.17180072207E+03  0.17295306870E+03  0.00000000000E+00 0. -1.
        -13    1    3    3    0    0  0.84389866636E+01  0.14844959964E+02  0.46106124098E+01  0.17687483683E+02  0.00000000000E+00 0.  1.
         22    1    1    2    0    0  0.96917917734E+01 -0.65654224253E+01 -0.22429055005E+02  0.25300160233E+02  0.00000000000E+00 0.  1.
<mgrwt>
<rscale>  0 0.54769642E+02</rscale>
<asrwt>0</asrwt>
<pdfrwt beam="1">  1        1 0.31196913E-01 0.91603971E+02</pdfrwt>
<pdfrwt beam="2">  1       -1 0.20247345E-02 0.91603971E+02</pdfrwt>
<totfact> 0.83217180E+04</totfact>
</mgrwt>
</event>
<event>
 6    1  0.1727544E-002  0.9173955E+02  0.7546771E-02  0.1431154E+00
          2   -1    0    0  501    0  0.00000000000E+00  0.00000000000E+00  0.21350444482E+03  0.21350444482E+03  0.00000000000E+00 0. -1.
         -2   -1    0    0    0  501 -0.00000000000E+00 -0.00000000000E+00 -0.12238365232E+02  0.12238365232E+02  0.00000000000E+00 0.  1.
         23    2    1    2    0    0 -0.68618356323E+01  0.72911676902E+01  0.18727892562E+03  0.20854146154E+03  0.91191552703E+02 0.  0.
         11    1    3    3    0    0 -0.16047999087E+02  0.29899343398E+02  0.17986337286E+03  0.18303644967E+03  0.00000000000E+00 0. -1.
        -11    1    3    3    0    0  0.91861634546E+01 -0.22608175708E+02  0.74155527634E+01  0.25505011873E+02  0.00000000000E+00 0.  1.
         22    1    1    2    0    0  0.68618356323E+01 -0.72911676902E+01  0.13987153960E+02  0.17201348506E+02  0.00000000000E+00 0.  1.
<mgrwt>
<rscale>  0 0.52729153E+02</rscale>
<asrwt>0</asrwt>
<pdfrwt beam="1">  1        2 0.32846835E-01 0.91739551E+02</pdfrwt>
<pdfrwt beam="2">  1       -2 0.18828256E-02 0.91739551E+02</pdfrwt>
<totfact> 0.11427497E+05</totfact>
</mgrwt>
</event>
<event>
 6    1  0.1727544E-002  0.9960959E+02  0.7546771E-02  0.1345826E+00
         -3   -1    0    0    0  501 -0.00000000000E+00  0.00000000000E+00  0.12831686722E+03  0.12831686722E+03  0.00000000000E+00 0.  1.
          3   -1    0    0  501    0  0.00000000000E+00 -0.00000000000E+00 -0.49517245632E+02  0.49517245632E+02  0.00000000000E+00 0. -1.
         23    2    1    2    0    0 -0.30932952478E+02  0.11825323398E+01  0.99343944072E+02  0.14068152051E+03  0.94677479144E+02 0.  0.
         13    1    3    3    0    0 -0.12848688974E+02 -0.24652414675E+02 -0.78972505727E+01  0.28899773776E+02  0.00000000000E+00 0. -1.
        -13    1    3    3    0    0 -0.18084263504E+02  0.25834947015E+02  0.10724119464E+03  0.11178174673E+03  0.00000000000E+00 0.  1.
         22    1    1    2    0    0  0.30932952478E+02 -0.11825323398E+01 -0.20544322482E+02  0.37152592346E+02  0.00000000000E+00 0.  1.
<mgrwt>
<rscale>  0 0.74372177E+02</rscale>
<asrwt>0</asrwt>
<pdfrwt beam="1">  1        3 0.76180378E-02 0.99609593E+02</pdfrwt>
<pdfrwt beam="2">  1       -3 0.19741056E-01 0.99609593E+02</pdfrwt>
<totfact> 0.56518909E+03</totfact>
</mgrwt>
</event>
<event>
 6    1  0.1727544E-002  0.7936257E+02  0.7546771E-02  0.1454274E+00
          2   -1    0    0  501    0  0.00000000000E+00  0.00000000000E+00  0.28431459929E+02  0.28431459929E+02  0.00000000000E+00 0. -1.
         -2   -1    0    0    0  501 -0.00000000000E+00 -0.00000000000E+00 -0.78535417971E+02  0.78535417971E+02  0.00000000000E+00 0.  1.
         23    2    1    2    0    0  0.82123189512E+01 -0.72598482618E+01 -0.53239528473E+02  0.95566027876E+02  0.78601976518E+02 0.  0.
         11    1    3    3    0    0 -0.18621453027E+02 -0.21738284174E+02 -0.58026174280E+02  0.64701996980E+02  0.00000000000E+00 0.  1.
        -11    1    3    3    0    0  0.26833771978E+02  0.14478435912E+02  0.47866458070E+01  0.30864030895E+02  0.00000000000E+00 0. -1.
         22    1    1    2    0    0 -0.82123189512E+01  0.72598482618E+01  0.31355704312E+01  0.11400850024E+02  0.00000000000E+00 0. -1.
<mgrwt>
<rscale>  0 0.48381150E+02</rscale>
<asrwt>0</asrwt>
<pdfrwt beam="1">  1        2 0.43740709E-02 0.79362575E+02</pdfrwt>
<pdfrwt beam="2">  1       -2 0.12082372E-01 0.79362575E+02</pdfrwt>
<totfact> 0.76158791E+04</totfact>
</mgrwt>
</event>
<event>
 6    1  0.2474799E-002  0.1236292E+03  0.7546771E-02  0.1323235E+00
         -2   -1    0    0    0  501 -0.00000000000E+00  0.00000000000E+00  0.28756871733E+02  0.28756871733E+02  0.00000000000E+00 0.  1.
          2   -1    0    0  501    0  0.00000000000E+00 -0.00000000000E+00 -0.19246384263E+03  0.19246384263E+03  0.00000000000E+00 0. -1.
         23    2    1    2    0    0 -0.19040395819E+02 -0.14654790982E+02 -0.12610258647E+03  0.17659572922E+03  0.12127196580E+03 0.  0.
         11    1    3    3    0    0  0.29276908411E+01  0.76325600108E+01  0.22914043586E+02  0.24328599209E+02  0.00000000000E+00 0.  1.
        -11    1    3    3    0    0 -0.21968086660E+02 -0.22287350993E+02 -0.14901663006E+03  0.15226713001E+03  0.00000000000E+00 0. -1.
         22    1    1    2    0    0  0.19040395819E+02  0.14654790982E+02 -0.37604384421E+02  0.44624985147E+02  0.00000000000E+00 0. -1.
<mgrwt>
<rscale>  0 0.82085426E+02</rscale>
<asrwt>0</asrwt>
<pdfrwt beam="1">  1        2 0.29609822E-01 0.12362924E+03</pdfrwt>
<pdfrwt beam="2">  1       -2 0.44241342E-02 0.12362924E+03</pdfrwt>
<totfact> 0.38208163E+04</totfact>
</mgrwt>
</event>
<event>
 6    1  0.1727544E-002  0.7978372E+02  0.7546771E-02  0.1423189E+00
         -2   -1    0    0    0  501 -0.00000000000E+00  0.00000000000E+00  0.28982404788E+02  0.28982404788E+02  0.00000000000E+00 0.  1.
          2   -1    0    0  501    0  0.00000000000E+00 -0.00000000000E+00 -0.95710974444E+02  0.95710974444E+02  0.00000000000E+00 0. -1.
         23    2    1    2    0    0 -0.13511327786E+02  0.10617257515E+02 -0.32030190486E+02  0.85973104792E+02  0.77911228391E+02 0.  0.
         11    1    3    3    0    0  0.28081677071E+02  0.19078442814E+02 -0.26707876102E+02  0.43195812450E+02  0.00000000000E+00 0. -1.
        -11    1    3    3    0    0 -0.41593004857E+02 -0.84611852995E+01 -0.53223143843E+01  0.42777292342E+02  0.00000000000E+00 0.  1.
         22    1    1    2    0    0  0.13511327786E+02 -0.10617257515E+02 -0.34698379170E+02  0.38720274440E+02  0.00000000000E+00 0. -1.
<mgrwt>
<rscale>  0 0.54351977E+02</rscale>
<asrwt>0</asrwt>
<pdfrwt beam="1">  1        2 0.14724765E-01 0.79783718E+02</pdfrwt>
<pdfrwt beam="2">  1       -2 0.44588316E-02 0.79783718E+02</pdfrwt>
<totfact> 0.77621371E+04</totfact>
</mgrwt>
</event>
<event>
 6    1  0.1727544E-002  0.9154145E+02  0.7546771E-02  0.1386931E+00
         -2   -1    0    0    0  501 -0.00000000000E+00  0.00000000000E+00  0.41264755684E+02  0.41264755684E+02  0.00000000000E+00 0. -1.
          2   -1    0    0  501    0  0.00000000000E+00 -0.00000000000E+00 -0.76526069329E+02  0.76526069329E+02  0.00000000000E+00 0.  1.
         23    2    1    2    0    0  0.34895069139E+01  0.19812143769E+02 -0.33938738904E+02  0.97630296667E+02  0.89303634470E+02 0.  0.
         13    1    3    3    0    0 -0.10608384568E+02  0.48117142443E+02 -0.42281109694E+02  0.64926800760E+02  0.00000000000E+00 0. -1.
        -13    1    3    3    0    0  0.14097891482E+02 -0.28304998673E+02  0.83423707894E+01  0.32703495907E+02  0.00000000000E+00 0.  1.
         22    1    1    2    0    0 -0.34895069139E+01 -0.19812143769E+02 -0.13225747410E+01  0.20160528346E+02  0.00000000000E+00 0.  1.
<mgrwt>
<rscale>  0 0.62676492E+02</rscale>
<asrwt>0</asrwt>
<pdfrwt beam="1">  1        2 0.11773241E-01 0.91541449E+02</pdfrwt>
<pdfrwt beam="2">  1       -2 0.63484239E-02 0.91541449E+02</pdfrwt>
<totfact> 0.60883119E+04</totfact>
</mgrwt>
</event>
<event>
 6    1  0.1727544E-002  0.9024726E+02  0.7546771E-02  0.1405083E+00
          1   -1    0    0  501    0  0.00000000000E+00  0.00000000000E+00  0.16738372839E+02  0.16738372839E+02  0.00000000000E+00 0. -1.
         -1   -1    0    0    0  501 -0.00000000000E+00 -0.00000000000E+00 -0.17016255298E+03  0.17016255298E+03  0.00000000000E+00 0.  1.
         23    2    1    2    0    0 -0.78118558364E+01  0.13645226274E+02 -0.13789553350E+03  0.16480214399E+03  0.88867042336E+02 0.  0.
         11    1    3    3    0    0  0.21763414388E+02  0.33818815046E+02 -0.27430022759E+02  0.48680228076E+02  0.00000000000E+00 0. -1.
        -11    1    3    3    0    0 -0.29575270225E+02 -0.20173588772E+02 -0.11046551074E+03  0.11612191591E+03  0.00000000000E+00 0.  1.
         22    1    1    2    0    0  0.78118558364E+01 -0.13645226274E+02 -0.15528646641E+02  0.22098781826E+02  0.00000000000E+00 0. -1.
<mgrwt>
<rscale>  0 0.58305616E+02</rscale>
<asrwt>0</asrwt>
<pdfrwt beam="1">  1        1 0.25751341E-02 0.90247263E+02</pdfrwt>
<pdfrwt beam="2">  1       -1 0.26178856E-01 0.90247263E+02</pdfrwt>
<totfact> 0.46925877E+04</totfact>
</mgrwt>
</event>
<event>
 6    1  0.1727544E-002  0.1513032E+03  0.7546771E-02  0.1210596E+00
         -2   -1    0    0    0  501 -0.00000000000E+00  0.00000000000E+00  0.44816958043E+02  0.44816958043E+02  0.00000000000E+00 0.  1.
          2   -1    0    0  501    0  0.00000000000E+00 -0.00000000000E+00 -0.51395251070E+03  0.51395251070E+03  0.00000000000E+00 0. -1.
         23    2    1    2    0    0 -0.41993160959E+02  0.10979598349E+03 -0.38655039138E+03  0.41510704352E+03  0.95257907512E+02 0.  0.
         13    1    3    3    0    0  0.18840928985E+02 -0.49688562740E+01 -0.76614179012E+02  0.79053162893E+02  0.00000000000E+00 0. -1.
        -13    1    3    3    0    0 -0.60834089944E+02  0.11476483977E+03 -0.30993621237E+03  0.33605388063E+03  0.00000000000E+00 0.  1.
         22    1    1    2    0    0  0.41993160959E+02 -0.10979598349E+03 -0.82585161277E+02  0.14366242523E+03  0.00000000000E+00 0. -1.
<mgrwt>
<rscale>  0 0.14205090E+03</rscale>
<asrwt>0</asrwt>
<pdfrwt beam="1">  1        2 0.79069617E-01 0.15130318E+03</pdfrwt>
<pdfrwt beam="2">  1       -2 0.68949166E-02 0.15130318E+03</pdfrwt>
<totfact> 0.69467683E+03</totfact>
</mgrwt>
</event>
<event>
 6    1  0.1727544E-002  0.1069138E+03  0.7546771E-02  0.1304146E+00
          2   -1    0    0  501    0  0.00000000000E+00  0.00000000000E+00  0.18036887983E+02  0.18036887983E+02  0.00000000000E+00 0. -1.
         -2   -1    0    0    0  501 -0.00000000000E+00 -0.00000000000E+00 -0.38627321214E+03  0.38627321214E+03  0.00000000000E+00 0.  1.
         23    2    1    2    0    0  0.39202756749E+02 -0.34810809188E+02 -0.29846718844E+03  0.31703822108E+03  0.93176834440E+02 0.  0.
         13    1    3    3    0    0  0.65586074558E+02 -0.26567184793E+02 -0.26134458517E+03  0.27075513048E+03  0.00000000000E+00 0.  1.
        -13    1    3    3    0    0 -0.26383317809E+02 -0.82436243947E+01 -0.37122603272E+02  0.46283090600E+02  0.00000000000E+00 0. -1.
         22    1    1    2    0    0 -0.39202756749E+02  0.34810809188E+02 -0.69769135711E+02  0.87271879038E+02  0.00000000000E+00 0. -1.
<mgrwt>
<rscale>  0 0.89467515E+02</rscale>
<asrwt>0</asrwt>
<pdfrwt beam="1">  1        2 0.27749058E-02 0.10691385E+03</pdfrwt>
<pdfrwt beam="2">  1       -2 0.59426650E-01 0.10691385E+03</pdfrwt>
<totfact> 0.86143866E+03</totfact>
</mgrwt>
</event>
<event>
 6    1  0.1727544E-002  0.1007756E+03  0.7546771E-02  0.1299184E+00
          2   -1    0    0  501    0  0.00000000000E+00  0.00000000000E+00  0.38825771125E+03  0.38825771125E+03  0.00000000000E+00 0. -1.
         -2   -1    0    0    0  501 -0.00000000000E+00 -0.00000000000E+00 -0.18741348906E+02  0.18741348906E+02  0.00000000000E+00 0.  1.
         23    2    1    2    0    0  0.54355655198E+02  0.41824167928E+02  0.19526998814E+03  0.21974095700E+03  0.73837129142E+02 0.  0.
         13    1    3    3    0    0  0.67337656670E+02  0.14178034365E+02  0.11719503899E+03  0.13590457618E+03  0.00000000000E+00 0. -1.
        -13    1    3    3    0    0 -0.12982001472E+02  0.27646133563E+02  0.78074949152E+02  0.83836380816E+02  0.00000000000E+00 0.  1.
         22    1    1    2    0    0 -0.54355655198E+02 -0.41824167928E+02  0.17424637420E+03  0.18725810316E+03  0.00000000000E+00 0.  1.
<mgrwt>
<rscale>  0 0.91531927E+02</rscale>
<asrwt>0</asrwt>
<pdfrwt beam="1">  1        2 0.59731950E-01 0.10077559E+03</pdfrwt>
<pdfrwt beam="2">  1       -2 0.28832847E-02 0.10077559E+03</pdfrwt>
<totfact> 0.33336083E+04</totfact>
</mgrwt>
</event>
<event>
 6    1  0.1727544E-002  0.9241331E+02  0.7546771E-02  0.1387796E+00
         -4   -1    0    0    0  501 -0.00000000000E+00  0.00000000000E+00  0.93028266248E+02  0.93028266248E+02  0.00000000000E+00 0.  1.
          4   -1    0    0  501    0  0.00000000000E+00 -0.00000000000E+00 -0.47783332376E+02  0.47783332376E+02  0.00000000000E+00 0. -1.
         23    2    1    2    0    0  0.17462050575E+02 -0.81778633195E+01  0.65172344244E+02  0.11308251023E+03  0.90379306304E+02 0.  0.
         11    1    3    3    0    0  0.48726255536E+02 -0.10900870669E+02  0.12020225922E+02  0.51357207781E+02  0.00000000000E+00 0. -1.
        -11    1    3    3    0    0 -0.31264204960E+02  0.27230073496E+01  0.53152118323E+02  0.61725302454E+02  0.00000000000E+00 0.  1.
         22    1    1    2    0    0 -0.17462050575E+02  0.81778633195E+01 -0.19927410372E+02  0.27729088389E+02  0.00000000000E+00 0.  1.
<mgrwt>
<rscale>  0 0.62458228E+02</rscale>
<asrwt>0</asrwt>
<pdfrwt beam="1">  1        4 0.73512819E-02 0.92413309E+02</pdfrwt>
<pdfrwt beam="2">  1       -4 0.14312041E-01 0.92413309E+02</pdfrwt>
<totfact> 0.76229420E+03</totfact>
</mgrwt>
</event>
<event>
 6    1  0.1727544E-002  0.9286658E+02  0.7546771E-02  0.1376804E+00
         -3   -1    0    0    0  501 -0.00000000000E+00  0.00000000000E+00  0.30535972875E+03  0.30535972875E+03  0.00000000000E+00 0.  1.
          3   -1    0    0  501    0  0.00000000000E+00 -0.00000000000E+00 -0.11877553770E+02  0.11877553770E+02  0.00000000000E+00 0. -1.
         23    2    1    2    0    0 -0.63293115998E+00  0.22709638630E+02  0.26502032721E+03  0.28082018397E+03  0.90044842157E+02 0.  0.
         13    1    3    3    0    0 -0.18946975423E+02 -0.30801394282E+02  0.95774801332E+02  0.10237444182E+03  0.00000000000E+00 0.  1.
        -13    1    3    3    0    0  0.18314044263E+02  0.53511032912E+02  0.16924552588E+03  0.17844574215E+03  0.00000000000E+00 0. -1.
         22    1    1    2    0    0  0.63293115998E+00 -0.22709638630E+02  0.28461847761E+02  0.36417098546E+02  0.00000000000E+00 0.  1.
<mgrwt>
<rscale>  0 0.65311446E+02</rscale>
<asrwt>0</asrwt>
<pdfrwt beam="1">  1        3 0.18273162E-02 0.92866581E+02</pdfrwt>
<pdfrwt beam="2">  1       -3 0.46978414E-01 0.92866581E+02</pdfrwt>
<totfact> 0.10302940E+04</totfact>
</mgrwt>
</event>
<event>
 6    1  0.1727544E-002  0.9746698E+02  0.7546771E-02  0.1343642E+00
         -1   -1    0    0    0  501 -0.00000000000E+00  0.00000000000E+00  0.95743781319E+02  0.95743781319E+02  0.00000000000E+00 0.  1.
          1   -1    0    0  501    0  0.00000000000E+00 -0.00000000000E+00 -0.45598078313E+02  0.45598078313E+02  0.00000000000E+00 0. -1.
         23    2    1    2    0    0  0.76782371375E+01 -0.33436719461E+02  0.41685928905E+02  0.10600721216E+03  0.91229615960E+02 0.  0.
         13    1    3    3    0    0  0.22435844171E+01 -0.60468482743E+02  0.58511058955E+01  0.60792322841E+02  0.00000000000E+00 0. -1.
        -13    1    3    3    0    0  0.54346527204E+01  0.27031763282E+02  0.35834823010E+02  0.45214889323E+02  0.00000000000E+00 0.  1.
         22    1    1    2    0    0 -0.76782371375E+01  0.33436719461E+02  0.84597741002E+01  0.35334647468E+02  0.00000000000E+00 0.  1.
<mgrwt>
<rscale>  0 0.75073867E+02</rscale>
<asrwt>0</asrwt>
<pdfrwt beam="1">  1        1 0.70150890E-02 0.97466981E+02</pdfrwt>
<pdfrwt beam="2">  1       -1 0.14729812E-01 0.97466981E+02</pdfrwt>
<totfact> 0.30339491E+04</totfact>
</mgrwt>
</event>
<event>
 6    1  0.1727544E-002  0.9872171E+02  0.7546771E-02  0.1359437E+00
          4   -1    0    0  501    0  0.00000000000E+00  0.00000000000E+00  0.18597090338E+03  0.18597090338E+03  0.00000000000E+00 0. -1.
         -4   -1    0    0    0  501 -0.00000000000E+00 -0.00000000000E+00 -0.22200136628E+02  0.22200136628E+02  0.00000000000E+00 0.  1.
         23    2    1    2    0    0  0.24814202731E+02  0.45712619986E+01  0.10452267585E+03  0.14377401082E+03  0.95442838000E+02 0.  0.
         13    1    3    3    0    0  0.16449495666E+02  0.14395708816E+02  0.12093628492E+03  0.12289592081E+03  0.00000000000E+00 0. -1.
        -13    1    3    3    0    0  0.83647070647E+01 -0.98244468170E+01 -0.16413609073E+02  0.20878090007E+02  0.00000000000E+00 0.  1.
         22    1    1    2    0    0 -0.24814202731E+02 -0.45712619986E+01  0.59248090902E+02  0.64397029194E+02  0.00000000000E+00 0.  1.
<mgrwt>
<rscale>  0 0.70193410E+02</rscale>
<asrwt>0</asrwt>
<pdfrwt beam="1">  1        4 0.28610907E-01 0.98721712E+02</pdfrwt>
<pdfrwt beam="2">  1       -4 0.34154058E-02 0.98721712E+02</pdfrwt>
<totfact> 0.76474831E+03</totfact>
</mgrwt>
</event>
<event>
 6    1  0.1727544E-002  0.1006368E+03  0.7546771E-02  0.1326239E+00
         -2   -1    0    0    0  501 -0.00000000000E+00  0.00000000000E+00  0.35173040407E+03  0.35173040407E+03  0.00000000000E+00 0.  1.
          2   -1    0    0  501    0  0.00000000000E+00 -0.00000000000E+00 -0.17707552865E+02  0.17707552865E+02  0.00000000000E+00 0. -1.
         23    2    1    2    0    0 -0.42095615823E+02 -0.34117121304E+01  0.29589173861E+03  0.31253749649E+03  0.91345963694E+02 0.  0.
         11    1    3    3    0    0 -0.14502295177E+02  0.43510343859E+02  0.12261701466E+03  0.13091370773E+03  0.00000000000E+00 0. -1.
        -11    1    3    3    0    0 -0.27593320646E+02 -0.46922055989E+02  0.17327472395E+03  0.18162378875E+03  0.00000000000E+00 0.  1.
         22    1    1    2    0    0  0.42095615823E+02  0.34117121304E+01  0.38131112592E+02  0.56900460444E+02  0.00000000000E+00 0. -1.
<mgrwt>
<rscale>  0 0.80999485E+02</rscale>
<asrwt>0</asrwt>
<pdfrwt beam="1">  1        2 0.27242392E-02 0.10063680E+03</pdfrwt>
<pdfrwt beam="2">  1       -2 0.54112365E-01 0.10063680E+03</pdfrwt>
<totfact> 0.10598228E+04</totfact>
</mgrwt>
</event>
<event>
 6    1  0.1727544E-002  0.1107740E+03  0.7546771E-02  0.1287888E+00
         -2   -1    0    0    0  501 -0.00000000000E+00  0.00000000000E+00  0.22367330169E+02  0.22367330169E+02  0.00000000000E+00 0. -1.
          2   -1    0    0  501    0  0.00000000000E+00 -0.00000000000E+00 -0.38255719548E+03  0.38255719548E+03  0.00000000000E+00 0.  1.
         23    2    1    2    0    0  0.63613141821E+02 -0.38735627358E+01 -0.15826026394E+03  0.19317656176E+03  0.90604837458E+02 0.  0.
         11    1    3    3    0    0  0.37197916989E+02 -0.42748748411E+02 -0.11950098034E+03  0.13225590657E+03  0.00000000000E+00 0. -1.
        -11    1    3    3    0    0  0.26415224832E+02  0.38875185675E+02 -0.38759283593E+02  0.60920655190E+02  0.00000000000E+00 0.  1.
         22    1    1    2    0    0 -0.63613141821E+02  0.38735627358E+01 -0.20192960137E+03  0.21174796389E+03  0.00000000000E+00 0.  1.
<mgrwt>
<rscale>  0 0.96475253E+02</rscale>
<asrwt>0</asrwt>
<pdfrwt beam="1">  1        2 0.58854951E-01 0.11077397E+03</pdfrwt>
<pdfrwt beam="2">  1       -2 0.34411278E-02 0.11077397E+03</pdfrwt>
<totfact> 0.26413023E+04</totfact>
</mgrwt>
</event>
<event>
 6    1  0.1727544E-002  0.8807785E+02  0.7546771E-02  0.1403464E+00
         -2   -1    0    0    0  501 -0.00000000000E+00  0.00000000000E+00  0.31757542784E+02  0.31757542784E+02  0.00000000000E+00 0.  1.
          2   -1    0    0  501    0  0.00000000000E+00 -0.00000000000E+00 -0.12502759766E+03  0.12502759766E+03  0.00000000000E+00 0. -1.
         23    2    1    2    0    0 -0.14945395105E+02  0.88131670520E+01 -0.32982869842E+02  0.94050927866E+02  0.86352015501E+02 0.  0.
         13    1    3    3    0    0  0.19038501687E+02  0.37616100234E+02 -0.77914172626E+01  0.42873555092E+02  0.00000000000E+00 0. -1.
        -13    1    3    3    0    0 -0.33983896791E+02 -0.28802933182E+02 -0.25191452579E+02  0.51177372774E+02  0.00000000000E+00 0.  1.
         22    1    1    2    0    0  0.14945395105E+02 -0.88131670520E+01 -0.60287185030E+02  0.62734212573E+02  0.00000000000E+00 0. -1.
<mgrwt>
<rscale>  0 0.58678292E+02</rscale>
<asrwt>0</asrwt>
<pdfrwt beam="1">  1        2 0.19235015E-01 0.88077848E+02</pdfrwt>
<pdfrwt beam="2">  1       -2 0.48857758E-02 0.88077848E+02</pdfrwt>
<totfact> 0.50772133E+04</totfact>
</mgrwt>
</event>
<event>
 6    1  0.1727544E-002  0.9203825E+02  0.7546771E-02  0.1418326E+00
         -1   -1    0    0    0  501 -0.00000000000E+00  0.00000000000E+00  0.14274663374E+02  0.14274663374E+02  0.00000000000E+00 0.  1.
          1   -1    0    0  501    0  0.00000000000E+00 -0.00000000000E+00 -0.22609970784E+03  0.22609970784E+03  0.00000000000E+00 0. -1.
         23    2    1    2    0    0  0.42148742139E+01  0.11301135984E+02 -0.14000345102E+03  0.16754702660E+03  0.91244501120E+02 0.  0.
         11    1    3    3    0    0  0.18901905332E+02 -0.38783194609E+01  0.58571626533E+01  0.20165062394E+02  0.00000000000E+00 0.  1.
        -11    1    3    3    0    0 -0.14687031118E+02  0.15179455445E+02 -0.14586061368E+03  0.14738196421E+03  0.00000000000E+00 0. -1.
         22    1    1    2    0    0 -0.42148742139E+01 -0.11301135984E+02 -0.71821593445E+02  0.72827344619E+02  0.00000000000E+00 0. -1.
<mgrwt>
<rscale>  0 0.55376690E+02</rscale>
<asrwt>0</asrwt>
<pdfrwt beam="1">  1        1 0.34784567E-01 0.92038252E+02</pdfrwt>
<pdfrwt beam="2">  1       -1 0.21961023E-02 0.92038252E+02</pdfrwt>
<totfact> 0.64892210E+04</totfact>
</mgrwt>
</event>
<event>
 6    1  0.1727544E-002  0.1000033E+03  0.7546771E-02  0.1326642E+00
         -2   -1    0    0    0  501 -0.00000000000E+00  0.00000000000E+00  0.72020960616E+01  0.72020960616E+01  0.00000000000E+00 0.  1.
          2   -1    0    0  501    0  0.00000000000E+00 -0.00000000000E+00 -0.70739502161E+03  0.70739502161E+03  0.00000000000E+00 0. -1.
         23    2    1    2    0    0 -0.42272647420E+02  0.62721886425E+01 -0.49542467101E+03  0.50541691990E+03  0.90412063422E+02 0.  0.
         11    1    3    3    0    0 -0.20074699781E+02 -0.16610735556E+02 -0.33725178507E+02  0.42618045149E+02  0.00000000000E+00 0.  1.
        -11    1    3    3    0    0 -0.22197947639E+02  0.22882924198E+02 -0.46169949250E+03  0.46279887475E+03  0.00000000000E+00 0. -1.
         22    1    1    2    0    0  0.42272647420E+02 -0.62721886425E+01 -0.20476825454E+03  0.20918019777E+03  0.00000000000E+00 0.  1.
<mgrwt>
<rscale>  0 0.80855160E+02</rscale>
<asrwt>0</asrwt>
<pdfrwt beam="1">  1        2 0.10883004E+00 0.10000329E+03</pdfrwt>
<pdfrwt beam="2">  1       -2 0.11080144E-02 0.10000329E+03</pdfrwt>
<totfact> 0.68026262E+04</totfact>
</mgrwt>
</event>
<event>
 6    1  0.1727544E-002  0.9450032E+02  0.7546771E-02  0.1372953E+00
          2   -1    0    0  501    0  0.00000000000E+00  0.00000000000E+00  0.21329298849E+03  0.21329298849E+03  0.00000000000E+00 0. -1.
         -2   -1    0    0    0  501 -0.00000000000E+00 -0.00000000000E+00 -0.21728005869E+02  0.21728005869E+02  0.00000000000E+00 0.  1.
         23    2    1    2    0    0 -0.19120672484E+02 -0.12726767335E+02  0.88646110186E+02  0.12957022373E+03  0.91666456805E+02 0.  0.
         11    1    3    3    0    0  0.22025056416E+02 -0.38954178131E+02  0.33258486507E+02  0.55755340809E+02  0.00000000000E+00 0. -1.
        -11    1    3    3    0    0 -0.41145728900E+02  0.26227410796E+02  0.55387623678E+02  0.73814882920E+02  0.00000000000E+00 0.  1.
         22    1    1    2    0    0  0.19120672484E+02  0.12726767335E+02  0.10291887244E+03  0.10545077063E+03  0.00000000000E+00 0. -1.
<mgrwt>
<rscale>  0 0.66352920E+02</rscale>
<asrwt>0</asrwt>
<pdfrwt beam="1">  1        2 0.32814304E-01 0.94500318E+02</pdfrwt>
<pdfrwt beam="2">  1       -2 0.33427703E-02 0.94500318E+02</pdfrwt>
<totfact> 0.50061632E+04</totfact>
</mgrwt>
</event>
<event>
 6    1  0.1727544E-002  0.9147744E+02  0.7546771E-02  0.1407921E+00
          1   -1    0    0  501    0  0.00000000000E+00  0.00000000000E+00  0.72342974875E+02  0.72342974875E+02  0.00000000000E+00 0. -1.
         -1   -1    0    0    0  501 -0.00000000000E+00 -0.00000000000E+00 -0.95292081380E+02  0.95292081380E+02  0.00000000000E+00 0.  1.
         23    2    1    2    0    0  0.39420524999E+01  0.13891518352E+02 -0.72056562604E+02  0.11644857069E+03  0.90330544896E+02 0.  0.
         11    1    3    3    0    0  0.42006557629E+01  0.21149511589E+02  0.16775775172E+02  0.27319845935E+02  0.00000000000E+00 0. -1.
        -11    1    3    3    0    0 -0.25860326295E+00 -0.72579932368E+01 -0.88832337776E+02  0.89128724754E+02  0.00000000000E+00 0.  1.
         22    1    1    2    0    0 -0.39420524999E+01 -0.13891518352E+02  0.49107456099E+02  0.51186485565E+02  0.00000000000E+00 0.  1.
<mgrwt>
<rscale>  0 0.57660368E+02</rscale>
<asrwt>0</asrwt>
<pdfrwt beam="1">  1        1 0.11129688E-01 0.91477437E+02</pdfrwt>
<pdfrwt beam="2">  1       -1 0.14660320E-01 0.91477437E+02</pdfrwt>
<totfact> 0.16499747E+04</totfact>
</mgrwt>
</event>
<event>
 6    1  0.1727544E-002  0.9335192E+02  0.7546771E-02  0.1400988E+00
          1   -1    0    0  501    0  0.00000000000E+00  0.00000000000E+00  0.10678331256E+03  0.10678331256E+03  0.00000000000E+00 0. -1.
         -1   -1    0    0    0  501 -0.00000000000E+00 -0.00000000000E+00 -0.33020599312E+02  0.33020599312E+02  0.00000000000E+00 0.  1.
         23    2    1    2    0    0  0.13532446609E+01 -0.15092915870E+02  0.37682167584E+02  0.10067038205E+03  0.92113802921E+02 0.  0.
         11    1    3    3    0    0  0.33328157470E+02  0.21955099904E+02  0.32480393913E+02  0.51456471711E+02  0.00000000000E+00 0. -1.
        -11    1    3    3    0    0 -0.31974912809E+02 -0.37048015775E+02  0.52017736704E+01  0.49213910344E+02  0.00000000000E+00 0.  1.
         22    1    1    2    0    0 -0.13532446609E+01  0.15092915870E+02  0.36080545666E+02  0.39133529820E+02  0.00000000000E+00 0. -1.
<mgrwt>
<rscale>  0 0.59254370E+02</rscale>
<asrwt>0</asrwt>
<pdfrwt beam="1">  1        1 0.16428202E-01 0.93351915E+02</pdfrwt>
<pdfrwt beam="2">  1       -1 0.50800923E-02 0.93351915E+02</pdfrwt>
<totfact> 0.49182101E+04</totfact>
</mgrwt>
</event>
<event>
 6    1  0.1727544E-002  0.9290942E+02  0.7546771E-02  0.1400531E+00
          2   -1    0    0  501    0  0.00000000000E+00  0.00000000000E+00  0.58600020846E+03  0.58600020846E+03  0.00000000000E+00 0. -1.
         -2   -1    0    0    0  501 -0.00000000000E+00 -0.00000000000E+00 -0.51429961864E+01  0.51429961864E+01  0.00000000000E+00 0.  1.
         23    2    1    2    0    0  0.73235358425E+01 -0.13640947339E+02  0.52602444008E+03  0.53416652057E+03  0.91610318841E+02 0.  0.
         13    1    3    3    0    0  0.92230262906E+01 -0.49062574311E+02  0.40455523480E+03  0.40762377067E+03  0.00000000000E+00 0. -1.
        -13    1    3    3    0    0 -0.18994904481E+01  0.35421626973E+02  0.12146920527E+03  0.12654274989E+03  0.00000000000E+00 0.  1.
         22    1    1    2    0    0 -0.73235358425E+01  0.13640947339E+02  0.54832772194E+02  0.56976684073E+02  0.00000000000E+00 0. -1.
<mgrwt>
<rscale>  0 0.59361585E+02</rscale>
<asrwt>0</asrwt>
<pdfrwt beam="1">  1        2 0.90153825E-01 0.92909419E+02</pdfrwt>
<pdfrwt beam="2">  1       -2 0.79123065E-03 0.92909419E+02</pdfrwt>
<totfact> 0.13455570E+05</totfact>
</mgrwt>
</event>
<event>
 6    1  0.1727544E-002  0.9537790E+02  0.7546771E-02  0.1404320E+00
          1   -1    0    0  501    0  0.00000000000E+00  0.00000000000E+00  0.31524430097E+02  0.31524430097E+02  0.00000000000E+00 0. -1.
         -1   -1    0    0    0  501 -0.00000000000E+00 -0.00000000000E+00 -0.10452745348E+03  0.10452745348E+03  0.00000000000E+00 0.  1.
         23    2    1    2    0    0 -0.43310773211E+01 -0.12765835791E+02 -0.76337253845E+02  0.12216513136E+03  0.94420433181E+02 0.  0.
         13    1    3    3    0    0 -0.41071758649E+02  0.19290279490E+02 -0.27011946929E+02  0.52807665336E+02  0.00000000000E+00 0. -1.
        -13    1    3    3    0    0  0.36740681328E+02 -0.32056115281E+02 -0.49325306915E+02  0.69357466027E+02  0.00000000000E+00 0.  1.
         22    1    1    2    0    0  0.43310773211E+01  0.12765835791E+02  0.33342304647E+01  0.13886752212E+02  0.00000000000E+00 0. -1.
<mgrwt>
<rscale>  0 0.58480702E+02</rscale>
<asrwt>0</asrwt>
<pdfrwt beam="1">  1        1 0.48499123E-02 0.95377896E+02</pdfrwt>
<pdfrwt beam="2">  1       -1 0.16081147E-01 0.95377896E+02</pdfrwt>
<totfact> 0.43362568E+04</totfact>
</mgrwt>
</event>
<event>
 6    1  0.1727544E-002  0.1443447E+03  0.7546771E-02  0.1219589E+00
          1   -1    0    0  501    0  0.00000000000E+00  0.00000000000E+00  0.47753973781E+03  0.47753973781E+03  0.00000000000E+00 0. -1.
         -1   -1    0    0    0  501 -0.00000000000E+00 -0.00000000000E+00 -0.35459052973E+02  0.35459052973E+02  0.00000000000E+00 0.  1.
         23    2    1    2    0    0  0.11177128296E+03 -0.56717547681E+01  0.29258066865E+03  0.32624964531E+03  0.91161367340E+02 0.  0.
         11    1    3    3    0    0  0.41150301577E+02 -0.23356209324E+02  0.21383390744E+03  0.21900639215E+03  0.00000000000E+00 0.  1.
        -11    1    3    3    0    0  0.70620981386E+02  0.17684454556E+02  0.78746761217E+02  0.10724325315E+03  0.00000000000E+00 0. -1.
         22    1    1    2    0    0 -0.11177128296E+03  0.56717547681E+01  0.14950001618E+03  0.18674914548E+03  0.00000000000E+00 0.  1.
<mgrwt>
<rscale>  0 0.13544804E+03</rscale>
<asrwt>0</asrwt>
<pdfrwt beam="1">  1        1 0.73467647E-01 0.14434467E+03</pdfrwt>
<pdfrwt beam="2">  1       -1 0.54552393E-02 0.14434467E+03</pdfrwt>
<totfact> 0.71210629E+03</totfact>
</mgrwt>
</event>
<event>
 6    1  0.1727544E-002  0.9327896E+02  0.7546771E-02  0.1388232E+00
         -2   -1    0    0    0  501 -0.00000000000E+00  0.00000000000E+00  0.11411000508E+02  0.11411000508E+02  0.00000000000E+00 0.  1.
          2   -1    0    0  501    0  0.00000000000E+00 -0.00000000000E+00 -0.29642761260E+03  0.29642761260E+03  0.00000000000E+00 0. -1.
         23    2    1    2    0    0  0.14795904253E+02  0.11302329316E+02 -0.19826914010E+03  0.21911553083E+03  0.91401873652E+02 0.  0.
         13    1    3    3    0    0  0.51598874835E+02 -0.35628755513E+01 -0.13328325714E+03  0.14296700529E+03  0.00000000000E+00 0.  1.
        -13    1    3    3    0    0 -0.36802970583E+02  0.14865204867E+02 -0.64985882956E+02  0.76148525547E+02  0.00000000000E+00 0. -1.
         22    1    1    2    0    0 -0.14795904253E+02 -0.11302329316E+02 -0.86747471994E+02  0.88723082273E+02  0.00000000000E+00 0.  1.
<mgrwt>
<rscale>  0 0.62348492E+02</rscale>
<asrwt>0</asrwt>
<pdfrwt beam="1">  1        2 0.45604247E-01 0.93278958E+02</pdfrwt>
<pdfrwt beam="2">  1       -2 0.17555386E-02 0.93278958E+02</pdfrwt>
<totfact> 0.89675351E+04</totfact>
</mgrwt>
</event>
<event>
 6    1  0.1727544E-002  0.9420299E+02  0.7546771E-02  0.1386080E+00
          2   -1    0    0  501    0  0.00000000000E+00  0.00000000000E+00  0.12622408063E+03  0.12622408063E+03  0.00000000000E+00 0. -1.
         -2   -1    0    0    0  501 -0.00000000000E+00 -0.00000000000E+00 -0.25705367852E+02  0.25705367852E+02  0.00000000000E+00 0.  1.
         23    2    1    2    0    0  0.65663116239E+01 -0.17525448286E+02  0.75726817937E+02  0.12086667598E+03  0.92325211186E+02 0.  0.
         11    1    3    3    0    0  0.36749122424E+02  0.49157599173E+01  0.74522378810E+02  0.83236095764E+02  0.00000000000E+00 0. -1.
        -11    1    3    3    0    0 -0.30182810800E+02 -0.22441208203E+02  0.12044391262E+01  0.37630580211E+02  0.00000000000E+00 0.  1.
         22    1    1    2    0    0 -0.65663116239E+01  0.17525448286E+02  0.24791894840E+02  0.31062772505E+02  0.00000000000E+00 0.  1.
<mgrwt>
<rscale>  0 0.62892227E+02</rscale>
<asrwt>0</asrwt>
<pdfrwt beam="1">  1        2 0.19419089E-01 0.94202985E+02</pdfrwt>
<pdfrwt beam="2">  1       -2 0.39546721E-02 0.94202985E+02</pdfrwt>
<totfact> 0.69292544E+04</totfact>
</mgrwt>
</event>
<event>
 6    1  0.1727544E-002  0.1334275E+03  0.7546771E-02  0.1268977E+00
         -2   -1    0    0    0  501 -0.00000000000E+00  0.00000000000E+00  0.45267298733E+02  0.45267298733E+02  0.00000000000E+00 0.  1.
          2   -1    0    0  501    0  0.00000000000E+00 -0.00000000000E+00 -0.28728188014E+03  0.28728188014E+03  0.00000000000E+00 0. -1.
         23    2    1    2    0    0 -0.46592773390E+02 -0.23788947586E+02 -0.65871782970E+02  0.14880183603E+03  0.12274401841E+03 0.  0.
         11    1    3    3    0    0 -0.69957747993E+02 -0.42995549605E+02 -0.67480733207E+01  0.82390777904E+02  0.00000000000E+00 0.  1.
        -11    1    3    3    0    0  0.23364974603E+02  0.19206602018E+02 -0.59123709649E+02  0.66411058130E+02  0.00000000000E+00 0. -1.
         22    1    1    2    0    0  0.46592773390E+02  0.23788947586E+02 -0.17614279844E+03  0.18374734284E+03  0.00000000000E+00 0. -1.
<mgrwt>
<rscale>  0 0.10558188E+03</rscale>
<asrwt>0</asrwt>
<pdfrwt beam="1">  1        2 0.44197212E-01 0.13342749E+03</pdfrwt>
<pdfrwt beam="2">  1       -2 0.69641999E-02 0.13342749E+03</pdfrwt>
<totfact> 0.12661913E+04</totfact>
</mgrwt>
</event>
<event>
 6    1  0.1727544E-002  0.9318111E+02  0.7546771E-02  0.1378321E+00
          2   -1    0    0  501    0  0.00000000000E+00  0.00000000000E+00  0.36055023345E+03  0.36055023345E+03  0.00000000000E+00 0. -1.
         -2   -1    0    0    0  501 -0.00000000000E+00 -0.00000000000E+00 -0.94893126953E+01  0.94893126953E+01  0.00000000000E+00 0.  1.
         23    2    1    2    0    0  0.10634668425E+01 -0.21911559073E+02  0.25461214848E+03  0.27112739797E+03  0.90561980960E+02 0.  0.
         11    1    3    3    0    0  0.20840255012E+02 -0.22909583329E+02  0.22767348868E+02  0.38438488677E+02  0.00000000000E+00 0.  1.
        -11    1    3    3    0    0 -0.19776788169E+02  0.99802425630E+00  0.23184479961E+03  0.23268890929E+03  0.00000000000E+00 0. -1.
         22    1    1    2    0    0 -0.10634668425E+01  0.21911559073E+02  0.96448772282E+02  0.98912148180E+02  0.00000000000E+00 0. -1.
<mgrwt>
<rscale>  0 0.64907064E+02</rscale>
<asrwt>0</asrwt>
<pdfrwt beam="1">  1        2 0.55469256E-01 0.93181113E+02</pdfrwt>
<pdfrwt beam="2">  1       -2 0.14598945E-02 0.93181113E+02</pdfrwt>
<totfact> 0.95078666E+04</totfact>
</mgrwt>
</event>
<event>
 6    1  0.1727544E-002  0.9508156E+02  0.7546771E-02  0.1370145E+00
         -2   -1    0    0    0  501 -0.00000000000E+00  0.00000000000E+00  0.33892476631E+03  0.33892476631E+03  0.00000000000E+00 0.  1.
          2   -1    0    0  501    0  0.00000000000E+00 -0.00000000000E+00 -0.21108170685E+02  0.21108170685E+02  0.00000000000E+00 0. -1.
         23    2    1    2    0    0 -0.13902846422E+02 -0.19096156879E+02  0.32226311345E+03  0.33599704993E+03  0.92100765065E+02 0.  0.
         13    1    3    3    0    0  0.25335886661E+02 -0.25782263730E+02  0.25717250156E+03  0.25970045791E+03  0.00000000000E+00 0.  1.
        -13    1    3    3    0    0 -0.39238733084E+02  0.66861068514E+01  0.65090611882E+02  0.76296592021E+02  0.00000000000E+00 0. -1.
         22    1    1    2    0    0  0.13902846422E+02  0.19096156879E+02 -0.44465178256E+01  0.24035887064E+02  0.00000000000E+00 0. -1.
<mgrwt>
<rscale>  0 0.67126943E+02</rscale>
<asrwt>0</asrwt>
<pdfrwt beam="1">  1        2 0.32474111E-02 0.95081561E+02</pdfrwt>
<pdfrwt beam="2">  1       -2 0.52142268E-01 0.95081561E+02</pdfrwt>
<totfact> 0.89747063E+03</totfact>
</mgrwt>
</event>
<event>
 6    1  0.1727544E-002  0.8635610E+02  0.7546771E-02  0.1412082E+00
          1   -1    0    0  501    0  0.00000000000E+00  0.00000000000E+00  0.10605780066E+03  0.10605780066E+03  0.00000000000E+00 0. -1.
         -1   -1    0    0    0  501 -0.00000000000E+00 -0.00000000000E+00 -0.26373737201E+02  0.26373737201E+02  0.00000000000E+00 0.  1.
         23    2    1    2    0    0  0.15716272764E+02 -0.34256192538E+01  0.53147073512E+02  0.10140013550E+03  0.84844799252E+02 0.  0.
         13    1    3    3    0    0  0.33673193775E+02  0.28212870491E+01 -0.10171410459E+02  0.35288825857E+02  0.00000000000E+00 0.  1.
        -13    1    3    3    0    0 -0.17956921011E+02 -0.62469063029E+01  0.63318483972E+02  0.66111309645E+02  0.00000000000E+00 0. -1.
         22    1    1    2    0    0 -0.15716272764E+02  0.34256192538E+01  0.26536989951E+02  0.31031402362E+02  0.00000000000E+00 0. -1.
<mgrwt>
<rscale>  0 0.56731843E+02</rscale>
<asrwt>0</asrwt>
<pdfrwt beam="1">  1        1 0.16316584E-01 0.86356100E+02</pdfrwt>
<pdfrwt beam="2">  1       -1 0.40574981E-02 0.86356100E+02</pdfrwt>
<totfact> 0.68078444E+04</totfact>
</mgrwt>
</event>
<event>
 6    1  0.1727544E-002  0.9395458E+02  0.7546771E-02  0.1422341E+00
         -1   -1    0    0    0  501 -0.00000000000E+00  0.00000000000E+00  0.22498381500E+03  0.22498381500E+03  0.00000000000E+00 0.  1.
          1   -1    0    0  501    0  0.00000000000E+00 -0.00000000000E+00 -0.15044195479E+02  0.15044195479E+02  0.00000000000E+00 0. -1.
         23    2    1    2    0    0 -0.38537308589E+01  0.99386577158E+01  0.20921546383E+03  0.22934379033E+03  0.93347928202E+02 0.  0.
         13    1    3    3    0    0 -0.32076448972E+02  0.37781313728E+02  0.79298494847E+02  0.93512445860E+02  0.00000000000E+00 0. -1.
        -13    1    3    3    0    0  0.28222718113E+02 -0.27842656012E+02  0.12991696898E+03  0.13583134447E+03  0.00000000000E+00 0.  1.
         22    1    1    2    0    0  0.38537308589E+01 -0.99386577158E+01  0.72415569375E+00  0.10684220149E+02  0.00000000000E+00 0. -1.
<mgrwt>
<rscale>  0 0.54528585E+02</rscale>
<asrwt>0</asrwt>
<pdfrwt beam="1">  1        1 0.23144918E-02 0.93954584E+02</pdfrwt>
<pdfrwt beam="2">  1       -1 0.34612892E-01 0.93954584E+02</pdfrwt>
<totfact> 0.34336428E+04</totfact>
</mgrwt>
</event>
<event>
 6    1  0.1727544E-002  0.6565697E+02  0.7546771E-02  0.1466261E+00
          2   -1    0    0  501    0  0.00000000000E+00  0.00000000000E+00  0.50468125469E+02  0.50468125469E+02  0.00000000000E+00 0. -1.
         -2   -1    0    0    0  501 -0.00000000000E+00 -0.00000000000E+00 -0.35259468323E+02  0.35259468323E+02  0.00000000000E+00 0.  1.
         23    2    1    2    0    0  0.13483810372E+02  0.90962011690E+01  0.20233578941E+02  0.68703967359E+02  0.63610403208E+02 0.  0.
         13    1    3    3    0    0  0.15684101933E+02  0.95722702934E+01  0.42511551538E+02  0.46312540701E+02  0.00000000000E+00 0. -1.
        -13    1    3    3    0    0 -0.22002915610E+01 -0.47606912439E+00 -0.22277972597E+02  0.22391426659E+02  0.00000000000E+00 0.  1.
         22    1    1    2    0    0 -0.13483810372E+02 -0.90962011690E+01 -0.50249217952E+01  0.17023626432E+02  0.00000000000E+00 0.  1.
<mgrwt>
<rscale>  0 0.46320678E+02</rscale>
<asrwt>0</asrwt>
<pdfrwt beam="1">  1        2 0.77643270E-02 0.65656968E+02</pdfrwt>
<pdfrwt beam="2">  1       -2 0.54245336E-02 0.65656968E+02</pdfrwt>
<totfact> 0.12073484E+05</totfact>
</mgrwt>
</event>
<event>
 6    1  0.1727544E-002  0.9181539E+02  0.7546771E-02  0.1402023E+00
          2   -1    0    0  501    0  0.00000000000E+00  0.00000000000E+00  0.90382906366E+02  0.90382906366E+02  0.00000000000E+00 0.  1.
         -2   -1    0    0    0  501 -0.00000000000E+00 -0.00000000000E+00 -0.32283009007E+02  0.32283009007E+02  0.00000000000E+00 0. -1.
         23    2    1    2    0    0  0.15281423299E+02 -0.34617414038E+01  0.45037094116E+02  0.10226634724E+03  0.90468560168E+02 0.  0.
         11    1    3    3    0    0  0.21422469201E+02  0.20309522196E+02 -0.18029091680E+02  0.34589695363E+02  0.00000000000E+00 0. -1.
        -11    1    3    3    0    0 -0.61410459023E+01 -0.23771263600E+02  0.63066185795E+02  0.67676651872E+02  0.00000000000E+00 0.  1.
         22    1    1    2    0    0 -0.15281423299E+02  0.34617414038E+01  0.13062803244E+02  0.20399568137E+02  0.00000000000E+00 0. -1.
<mgrwt>
<rscale>  0 0.59012536E+02</rscale>
<asrwt>0</asrwt>
<pdfrwt beam="1">  1        2 0.13905062E-01 0.91815390E+02</pdfrwt>
<pdfrwt beam="2">  1       -2 0.49666168E-02 0.91815390E+02</pdfrwt>
<totfact> 0.72255697E+04</totfact>
</mgrwt>
</event>
<event>
 6    1  0.1727544E-002  0.9728458E+02  0.7546771E-02  0.1352825E+00
         -4   -1    0    0    0  501 -0.00000000000E+00  0.00000000000E+00  0.12532034048E+03  0.12532034048E+03  0.00000000000E+00 0.  1.
          4   -1    0    0  501    0  0.00000000000E+00 -0.00000000000E+00 -0.68438824779E+02  0.68438824779E+02  0.00000000000E+00 0. -1.
         23    2    1    2    0    0  0.14458171092E+02 -0.25696143678E+02  0.10129770524E+03  0.14044754922E+03  0.92708998938E+02 0.  0.
         13    1    3    3    0    0  0.28983545864E+02  0.18267942467E+02  0.63944974330E+01  0.34851875850E+02  0.00000000000E+00 0. -1.
        -13    1    3    3    0    0 -0.14525374773E+02 -0.43964086145E+02  0.94903207802E+02  0.10559567337E+03  0.00000000000E+00 0.  1.
         22    1    1    2    0    0 -0.14458171092E+02  0.25696143678E+02 -0.44416189539E+02  0.53311616037E+02  0.00000000000E+00 0. -1.
<mgrwt>
<rscale>  0 0.72182366E+02</rscale>
<asrwt>0</asrwt>
<pdfrwt beam="1">  1        4 0.10529050E-01 0.97284577E+02</pdfrwt>
<pdfrwt beam="2">  1       -4 0.19280052E-01 0.97284577E+02</pdfrwt>
<totfact> 0.25317179E+03</totfact>
</mgrwt>
</event>
<event>
 6    1  0.1727544E-002  0.1017432E+03  0.7546771E-02  0.1321070E+00
         -2   -1    0    0    0  501 -0.00000000000E+00  0.00000000000E+00  0.49675729239E+02  0.49675729239E+02  0.00000000000E+00 0.  1.
          2   -1    0    0  501    0  0.00000000000E+00 -0.00000000000E+00 -0.11635618950E+03  0.11635618950E+03  0.00000000000E+00 0. -1.
         23    2    1    2    0    0 -0.83115509457E+01  0.44023648886E+02 -0.65905612940E+02  0.12122383990E+03  0.91348267656E+02 0.  0.
         11    1    3    3    0    0 -0.57349619607E+01 -0.59964094416E+01 -0.70445191187E+02  0.70932162496E+02  0.00000000000E+00 0. -1.
        -11    1    3    3    0    0 -0.25765889850E+01  0.50020058328E+02  0.45395782478E+01  0.50291677408E+02  0.00000000000E+00 0.  1.
         22    1    1    2    0    0  0.83115509457E+01 -0.44023648886E+02 -0.77484731967E+00  0.44808078833E+02  0.00000000000E+00 0.  1.
<mgrwt>
<rscale>  0 0.82880382E+02</rscale>
<asrwt>0</asrwt>
<pdfrwt beam="1">  1        2 0.17900952E-01 0.10174315E+03</pdfrwt>
<pdfrwt beam="2">  1       -2 0.76424200E-02 0.10174315E+03</pdfrwt>
<totfact> 0.28612342E+04</totfact>
</mgrwt>
</event>
<event>
 6    1  0.1727544E-002  0.9375808E+02  0.7546771E-02  0.1409216E+00
         -2   -1    0    0    0  501 -0.00000000000E+00  0.00000000000E+00  0.29432485938E+03  0.29432485938E+03  0.00000000000E+00 0.  1.
          2   -1    0    0  501    0  0.00000000000E+00 -0.00000000000E+00 -0.15249666568E+02  0.15249666568E+02  0.00000000000E+00 0. -1.
         23    2    1    2    0    0 -0.62388050839E+01  0.11567615398E+02  0.28105716151E+03  0.29628315226E+03  0.92832353523E+02 0.  0.
         11    1    3    3    0    0 -0.14771088677E+02  0.12020582834E+02  0.44669644447E+01  0.19561013361E+02  0.00000000000E+00 0. -1.
        -11    1    3    3    0    0  0.85322835927E+01 -0.45296743531E+00  0.27659019706E+03  0.27672213889E+03  0.00000000000E+00 0.  1.
         22    1    1    2    0    0  0.62388050839E+01 -0.11567615398E+02 -0.19819686918E+01  0.13291373698E+02  0.00000000000E+00 0. -1.
<mgrwt>
<rscale>  0 0.57369131E+02</rscale>
<asrwt>0</asrwt>
<pdfrwt beam="1">  1        2 0.23461028E-02 0.93758084E+02</pdfrwt>
<pdfrwt beam="2">  1       -2 0.45280743E-01 0.93758084E+02</pdfrwt>
<totfact> 0.18209088E+04</totfact>
</mgrwt>
</event>
<event>
 6    1  0.1727544E-002  0.9040886E+02  0.7546771E-02  0.1412866E+00
         -2   -1    0    0    0  501 -0.00000000000E+00  0.00000000000E+00  0.17078297472E+02  0.17078297472E+02  0.00000000000E+00 0.  1.
          2   -1    0    0  501    0  0.00000000000E+00 -0.00000000000E+00 -0.16508601768E+03  0.16508601768E+03  0.00000000000E+00 0. -1.
         23    2    1    2    0    0 -0.49603009630E+01  0.12928844228E+02 -0.11437479192E+03  0.14579216284E+03  0.89342051241E+02 0.  0.
         11    1    3    3    0    0  0.34407467088E+02 -0.51514601424E+01 -0.89066076440E+02  0.95619962902E+02  0.00000000000E+00 0. -1.
        -11    1    3    3    0    0 -0.39367768051E+02  0.18080304370E+02 -0.25308715484E+02  0.50172199941E+02  0.00000000000E+00 0.  1.
         22    1    1    2    0    0  0.49603009630E+01 -0.12928844228E+02 -0.33632928286E+02  0.36372152312E+02  0.00000000000E+00 0.  1.
<mgrwt>
<rscale>  0 0.56559151E+02</rscale>
<asrwt>0</asrwt>
<pdfrwt beam="1">  1        2 0.25397849E-01 0.90408859E+02</pdfrwt>
<pdfrwt beam="2">  1       -2 0.26274304E-02 0.90408859E+02</pdfrwt>
<totfact> 0.92980265E+04</totfact>
</mgrwt>
</event>
<event>
 6    1  0.1727544E-002  0.9109923E+02  0.7546771E-02  0.1425308E+00
         -2   -1    0    0    0  501 -0.00000000000E+00  0.00000000000E+00  0.16480844081E+03  0.16480844081E+03  0.00000000000E+00 0. -1.
          2   -1    0    0  501    0  0.00000000000E+00 -0.00000000000E+00 -0.28989798017E+02  0.28989798017E+02  0.00000000000E+00 0.  1.
         23    2    1    2    0    0  0.10823125500E+02  0.27820969452E+01  0.15015006121E+03  0.17562491599E+03  0.90411227871E+02 0.  0.
         13    1    3    3    0    0 -0.31824236383E+02 -0.74854421455E+01  0.20103044581E+02  0.38378982098E+02  0.00000000000E+00 0.  1.
        -13    1    3    3    0    0  0.42647361884E+02  0.10267539091E+02  0.13004701663E+03  0.13724593389E+03  0.00000000000E+00 0. -1.
         22    1    1    2    0    0 -0.10823125500E+02 -0.27820969452E+01 -0.14331418421E+02  0.18173322837E+02  0.00000000000E+00 0.  1.
<mgrwt>
<rscale>  0 0.53913521E+02</rscale>
<asrwt>0</asrwt>
<pdfrwt beam="1">  1        2 0.44599691E-02 0.91099233E+02</pdfrwt>
<pdfrwt beam="2">  1       -2 0.25355144E-01 0.91099233E+02</pdfrwt>
<totfact> 0.22330146E+04</totfact>
</mgrwt>
</event>
<event>
 6    1  0.1727544E-002  0.9083263E+02  0.7546771E-02  0.1421430E+00
         -2   -1    0    0    0  501 -0.00000000000E+00  0.00000000000E+00  0.61748677242E+01  0.61748677242E+01  0.00000000000E+00 0.  1.
          2   -1    0    0  501    0  0.00000000000E+00 -0.00000000000E+00 -0.43560451476E+03  0.43560451476E+03  0.00000000000E+00 0. -1.
         23    2    1    2    0    0  0.71841266623E+01  0.95656654299E+01 -0.35733216293E+03  0.36869613649E+03  0.90041394734E+02 0.  0.
         11    1    3    3    0    0  0.39247844138E+02  0.32829230283E+02 -0.20748620972E+03  0.21370231364E+03  0.00000000000E+00 0. -1.
        -11    1    3    3    0    0 -0.32063717476E+02 -0.23263564853E+02 -0.14984595321E+03  0.15499382285E+03  0.00000000000E+00 0.  1.
         22    1    1    2    0    0 -0.71841266623E+01 -0.95656654299E+01 -0.72097484105E+02  0.73083245996E+02  0.00000000000E+00 0.  1.
<mgrwt>
<rscale>  0 0.54719426E+02</rscale>
<asrwt>0</asrwt>
<pdfrwt beam="1">  1        2 0.67016100E-01 0.90832628E+02</pdfrwt>
<pdfrwt beam="2">  1       -2 0.94997936E-03 0.90832628E+02</pdfrwt>
<totfact> 0.14286317E+05</totfact>
</mgrwt>
</event>
<event>
 6    1  0.1727544E-002  0.9664597E+02  0.7546771E-02  0.1340315E+00
         -2   -1    0    0    0  501 -0.00000000000E+00  0.00000000000E+00  0.58065849916E+02  0.58065849916E+02  0.00000000000E+00 0. -1.
          2   -1    0    0  501    0  0.00000000000E+00 -0.00000000000E+00 -0.77707363955E+02  0.77707363955E+02  0.00000000000E+00 0.  1.
         23    2    1    2    0    0 -0.28881322554E+02  0.23557670110E+02 -0.92876797186E+01  0.97091221955E+02  0.89170341328E+02 0.  0.
         13    1    3    3    0    0 -0.30898877733E+02 -0.26974170216E+02  0.11213564381E+02  0.42521647783E+02  0.00000000000E+00 0. -1.
        -13    1    3    3    0    0  0.20175551797E+01  0.50531840327E+02 -0.20501244099E+02  0.54569574172E+02  0.00000000000E+00 0.  1.
         22    1    1    2    0    0  0.28881322554E+02 -0.23557670110E+02 -0.10353834320E+02  0.38681991916E+02  0.00000000000E+00 0. -1.
<mgrwt>
<rscale>  0 0.76160416E+02</rscale>
<asrwt>0</asrwt>
<pdfrwt beam="1">  1        2 0.11954979E-01 0.96645974E+02</pdfrwt>
<pdfrwt beam="2">  1       -2 0.89332077E-02 0.96645974E+02</pdfrwt>
<totfact> 0.35784641E+04</totfact>
</mgrwt>
</event>
<event>
 6    1  0.1727544E-002  0.9475253E+02  0.7546771E-02  0.1355676E+00
          2   -1    0    0  501    0  0.00000000000E+00  0.00000000000E+00  0.20879645687E+03  0.20879645687E+03  0.00000000000E+00 0.  1.
         -2   -1    0    0    0  501 -0.00000000000E+00 -0.00000000000E+00 -0.48605144976E+02  0.48605144976E+02  0.00000000000E+00 0. -1.
         23    2    1    2    0    0  0.84243958121E+01 -0.29215714461E+02  0.41051051833E+00  0.94753414324E+02  0.89741364993E+02 0.  0.
         13    1    3    3    0    0 -0.42838995429E+01 -0.53229004907E+02 -0.23704731427E+02  0.58425962129E+02  0.00000000000E+00 0. -1.
        -13    1    3    3    0    0  0.12708295355E+02  0.24013290446E+02  0.24115241945E+02  0.36327452195E+02  0.00000000000E+00 0.  1.
         22    1    1    2    0    0 -0.84243958121E+01  0.29215714461E+02  0.15978080137E+03  0.16264818752E+03  0.00000000000E+00 0.  1.
<mgrwt>
<rscale>  0 0.71315368E+02</rscale>
<asrwt>0</asrwt>
<pdfrwt beam="1">  1        2 0.32122531E-01 0.94752525E+02</pdfrwt>
<pdfrwt beam="2">  1       -2 0.74777147E-02 0.94752525E+02</pdfrwt>
<totfact> 0.15448364E+04</totfact>
</mgrwt>
</event>
<event>
 6    1  0.1727544E-002  0.8990263E+02  0.7546771E-02  0.1376710E+00
          2   -1    0    0  501    0  0.00000000000E+00  0.00000000000E+00  0.39738265261E+03  0.39738265261E+03  0.00000000000E+00 0. -1.
         -2   -1    0    0    0  501 -0.00000000000E+00 -0.00000000000E+00 -0.87715176911E+01  0.87715176911E+01  0.00000000000E+00 0.  1.
         23    2    1    2    0    0  0.24307508426E+02 -0.61715735286E+01  0.25955652272E+03  0.27468540513E+03  0.86333886856E+02 0.  0.
         13    1    3    3    0    0  0.51520583686E+02  0.99743043263E+01  0.11077558055E+03  0.12257685971E+03  0.00000000000E+00 0.  1.
        -13    1    3    3    0    0 -0.27213075261E+02 -0.16145877855E+02  0.14878094218E+03  0.15210854543E+03  0.00000000000E+00 0. -1.
         22    1    1    2    0    0 -0.24307508426E+02  0.61715735286E+01  0.12905461220E+03  0.13146876517E+03  0.00000000000E+00 0.  1.
<mgrwt>
<rscale>  0 0.65336481E+02</rscale>
<asrwt>0</asrwt>
<pdfrwt beam="1">  1        2 0.61135779E-01 0.89902632E+02</pdfrwt>
<pdfrwt beam="2">  1       -2 0.13494646E-02 0.89902632E+02</pdfrwt>
<totfact> 0.95528437E+04</totfact>
</mgrwt>
</event>
<event>
 6    1  0.1727544E-002  0.7589357E+02  0.7546771E-02  0.1444386E+00
         -2   -1    0    0    0  501 -0.00000000000E+00  0.00000000000E+00  0.41709699410E+02  0.41709699410E+02  0.00000000000E+00 0. -1.
          2   -1    0    0  501    0  0.00000000000E+00 -0.00000000000E+00 -0.50765016861E+02  0.50765016861E+02  0.00000000000E+00 0.  1.
         23    2    1    2    0    0  0.13672109126E+02 -0.48348786531E+01 -0.10303644421E+01  0.75900565001E+02  0.74495177676E+02 0.  0.
         11    1    3    3    0    0  0.42857150525E+01  0.13352628600E+01  0.36474509295E+02  0.36749695355E+02  0.00000000000E+00 0. -1.
        -11    1    3    3    0    0  0.93863940733E+01 -0.61701415131E+01 -0.37504873737E+02  0.39150869646E+02  0.00000000000E+00 0.  1.
         22    1    1    2    0    0 -0.13672109126E+02  0.48348786531E+01 -0.80249530081E+01  0.16574151270E+02  0.00000000000E+00 0.  1.
<mgrwt>
<rscale>  0 0.50177535E+02</rscale>
<asrwt>0</asrwt>
<pdfrwt beam="1">  1        2 0.78100026E-02 0.75893571E+02</pdfrwt>
<pdfrwt beam="2">  1       -2 0.64168768E-02 0.75893571E+02</pdfrwt>
<totfact> 0.95754456E+04</totfact>
</mgrwt>
</event>
<event>
 6    1  0.1727544E-002  0.9708110E+02  0.7546771E-02  0.1417214E+00
         -2   -1    0    0    0  501 -0.00000000000E+00  0.00000000000E+00  0.75006180941E+01  0.75006180941E+01  0.00000000000E+00 0.  1.
          2   -1    0    0  501    0  0.00000000000E+00 -0.00000000000E+00 -0.39067524862E+03  0.39067524862E+03  0.00000000000E+00 0. -1.
         23    2    1    2    0    0 -0.63581881933E+01  0.83003948209E+01 -0.33002801663E+03  0.34401051174E+03  0.96516409553E+02 0.  0.
         11    1    3    3    0    0 -0.41279734156E+02 -0.24780015436E+02 -0.14261010383E+03  0.15051812958E+03  0.00000000000E+00 0. -1.
        -11    1    3    3    0    0  0.34921545963E+02  0.33080410257E+02 -0.18741791280E+03  0.19349238216E+03  0.00000000000E+00 0.  1.
         22    1    1    2    0    0  0.63581881933E+01 -0.83003948209E+01 -0.53146613896E+02  0.54165354978E+02  0.00000000000E+00 0. -1.
<mgrwt>
<rscale>  0 0.55614754E+02</rscale>
<asrwt>0</asrwt>
<pdfrwt beam="1">  1        2 0.60103884E-01 0.97081102E+02</pdfrwt>
<pdfrwt beam="2">  1       -2 0.11539413E-02 0.97081102E+02</pdfrwt>
<totfact> 0.12289059E+05</totfact>
</mgrwt>
</event>
<event>
 6    1  0.1727544E-002  0.9379578E+02  0.7546771E-02  0.1371771E+00
         -2   -1    0    0    0  501 -0.00000000000E+00  0.00000000000E+00  0.19653795389E+03  0.19653795389E+03  0.00000000000E+00 0.  1.
          2   -1    0    0  501    0  0.00000000000E+00 -0.00000000000E+00 -0.62345061916E+02  0.62345061916E+02  0.00000000000E+00 0. -1.
         23    2    1    2    0    0  0.11930868541E+02 -0.20770507017E+02  0.18237168099E+03  0.20507822701E+03  0.90685663585E+02 0.  0.
         11    1    3    3    0    0 -0.24141916285E+02 -0.40157968646E+02  0.13253473668E+03  0.14057364972E+03  0.00000000000E+00 0. -1.
        -11    1    3    3    0    0  0.36072784825E+02  0.19387461629E+02  0.49836944308E+02  0.64504577291E+02  0.00000000000E+00 0.  1.
         22    1    1    2    0    0 -0.11930868541E+02  0.20770507017E+02 -0.48178789019E+02  0.53804788794E+02  0.00000000000E+00 0. -1.
<mgrwt>
<rscale>  0 0.66677412E+02</rscale>
<asrwt>0</asrwt>
<pdfrwt beam="1">  1        2 0.95915481E-02 0.93795784E+02</pdfrwt>
<pdfrwt beam="2">  1       -2 0.30236608E-01 0.93795784E+02</pdfrwt>
<totfact> 0.62510403E+03</totfact>
</mgrwt>
</event>
<event>
 6    1  0.1727544E-002  0.9534716E+02  0.7546771E-02  0.1407896E+00
          2   -1    0    0  501    0  0.00000000000E+00  0.00000000000E+00  0.82488310766E+02  0.82488310766E+02  0.00000000000E+00 0. -1.
         -2   -1    0    0    0  501 -0.00000000000E+00 -0.00000000000E+00 -0.37905260782E+02  0.37905260782E+02  0.00000000000E+00 0.  1.
         23    2    1    2    0    0  0.12211486728E+02  0.36911656725E+01  0.27809456954E+02  0.99319926035E+02  0.94489876174E+02 0.  0.
         11    1    3    3    0    0 -0.22058456829E+02 -0.33697867701E+02  0.27195836534E+02  0.48597688525E+02  0.00000000000E+00 0. -1.
        -11    1    3    3    0    0  0.34269943557E+02  0.37389033373E+02  0.61362042084E+00  0.50722237510E+02  0.00000000000E+00 0.  1.
         22    1    1    2    0    0 -0.12211486728E+02 -0.36911656725E+01  0.16773593029E+02  0.21073645513E+02  0.00000000000E+00 0.  1.
<mgrwt>
<rscale>  0 0.57665934E+02</rscale>
<asrwt>0</asrwt>
<pdfrwt beam="1">  1        2 0.12690509E-01 0.95347165E+02</pdfrwt>
<pdfrwt beam="2">  1       -2 0.58315786E-02 0.95347165E+02</pdfrwt>
<totfact> 0.63645700E+04</totfact>
</mgrwt>
</event>
<event>
 6    1  0.1727544E-002  0.9775484E+02  0.7546771E-02  0.1352482E+00
          4   -1    0    0  501    0  0.00000000000E+00  0.00000000000E+00  0.46521731970E+02  0.46521731970E+02  0.00000000000E+00 0. -1.
         -4   -1    0    0    0  501 -0.00000000000E+00 -0.00000000000E+00 -0.88967881283E+02  0.88967881283E+02  0.00000000000E+00 0.  1.
         23    2    1    2    0    0 -0.26441496616E+02  0.12461934808E+02 -0.41622271988E+02  0.10624698450E+03  0.93282129199E+02 0.  0.
         11    1    3    3    0    0 -0.44976163018E+02  0.12675006150E+01 -0.61937925674E+02  0.76555655797E+02  0.00000000000E+00 0.  1.
        -11    1    3    3    0    0  0.18534666403E+02  0.11194434193E+02  0.20315653686E+02  0.29691328705E+02  0.00000000000E+00 0. -1.
         22    1    1    2    0    0  0.26441496616E+02 -0.12461934808E+02 -0.82387732372E+00  0.29242628751E+02  0.00000000000E+00 0. -1.
<mgrwt>
<rscale>  0 0.72287747E+02</rscale>
<asrwt>0</asrwt>
<pdfrwt beam="1">  1        4 0.71571897E-02 0.97754837E+02</pdfrwt>
<pdfrwt beam="2">  1       -4 0.13687366E-01 0.97754837E+02</pdfrwt>
<totfact> 0.87388473E+03</totfact>
</mgrwt>
</event>
<event>
 6    1  0.1727544E-002  0.9248987E+02  0.7546771E-02  0.1395362E+00
         -2   -1    0    0    0  501 -0.00000000000E+00  0.00000000000E+00  0.21791096189E+02  0.21791096189E+02  0.00000000000E+00 0.  1.
          2   -1    0    0  501    0  0.00000000000E+00 -0.00000000000E+00 -0.14847499515E+03  0.14847499515E+03  0.00000000000E+00 0. -1.
         23    2    1    2    0    0 -0.13778254070E+02  0.10020979320E+02 -0.86567758324E+02  0.12668209139E+03  0.90907178959E+02 0.  0.
         13    1    3    3    0    0 -0.50874253558E+02  0.86214887488E+01 -0.67457437422E+02  0.84929533184E+02  0.00000000000E+00 0.  1.
        -13    1    3    3    0    0  0.37095999488E+02  0.13994905716E+01 -0.19110320901E+02  0.41752558207E+02  0.00000000000E+00 0. -1.
         22    1    1    2    0    0  0.13778254070E+02 -0.10020979320E+02 -0.40116140638E+02  0.43583999948E+02  0.00000000000E+00 0.  1.
<mgrwt>
<rscale>  0 0.60592528E+02</rscale>
<asrwt>0</asrwt>
<pdfrwt beam="1">  1        2 0.22842309E-01 0.92489867E+02</pdfrwt>
<pdfrwt beam="2">  1       -2 0.33524761E-02 0.92489867E+02</pdfrwt>
<totfact> 0.73513678E+04</totfact>
</mgrwt>
</event>
<event>
 6    1  0.1727544E-002  0.9964765E+02  0.7546771E-02  0.1329662E+00
         -2   -1    0    0    0  501 -0.00000000000E+00  0.00000000000E+00  0.20885694253E+02  0.20885694253E+02  0.00000000000E+00 0.  1.
          2   -1    0    0  501    0  0.00000000000E+00 -0.00000000000E+00 -0.23683474596E+03  0.23683474596E+03  0.00000000000E+00 0. -1.
         23    2    1    2    0    0  0.37670241988E+02  0.16067188953E+02 -0.14956615940E+03  0.17972114481E+03  0.90843008327E+02 0.  0.
         11    1    3    3    0    0  0.42190450210E+02  0.35695474710E+02 -0.14970350489E+03  0.15957863385E+03  0.00000000000E+00 0. -1.
        -11    1    3    3    0    0 -0.45202082216E+01 -0.19628285757E+02  0.13734549187E+00  0.20142510963E+02  0.00000000000E+00 0.  1.
         22    1    1    2    0    0 -0.37670241988E+02 -0.16067188953E+02 -0.66382892309E+02  0.77999295405E+02  0.00000000000E+00 0. -1.
<mgrwt>
<rscale>  0 0.79785405E+02</rscale>
<asrwt>0</asrwt>
<pdfrwt beam="1">  1        2 0.36436113E-01 0.99647649E+02</pdfrwt>
<pdfrwt beam="2">  1       -2 0.32131839E-02 0.99647649E+02</pdfrwt>
<totfact> 0.47791524E+04</totfact>
</mgrwt>
</event>
<event>
 6    1  0.1727544E-002  0.1017926E+03  0.7546771E-02  0.1317273E+00
         -2   -1    0    0    0  501 -0.00000000000E+00  0.00000000000E+00  0.48444591272E+01  0.48444591272E+01  0.00000000000E+00 0.  1.
          2   -1    0    0  501    0  0.00000000000E+00 -0.00000000000E+00 -0.12174239078E+04  0.12174239078E+04  0.00000000000E+00 0. -1.
         23    2    1    2    0    0  0.10410774543E+02  0.46736061388E+02 -0.94211964993E+03  0.94760284962E+03  0.89828070029E+02 0.  0.
         13    1    3    3    0    0 -0.89561895126E+01  0.70073828368E+02 -0.60096064547E+03  0.60509854748E+03  0.00000000000E+00 0. -1.
        -13    1    3    3    0    0  0.19366964056E+02 -0.23337766981E+02 -0.34115900445E+03  0.34250430214E+03  0.00000000000E+00 0.  1.
         22    1    1    2    0    0 -0.10410774543E+02 -0.46736061388E+02 -0.27045979870E+03  0.27466551726E+03  0.00000000000E+00 0.  1.
<mgrwt>
<rscale>  0 0.84300297E+02</rscale>
<asrwt>0</asrwt>
<pdfrwt beam="1">  1        2 0.18729630E+00 0.10179256E+03</pdfrwt>
<pdfrwt beam="2">  1       -2 0.74530015E-03 0.10179256E+03</pdfrwt>
<totfact> 0.58360695E+04</totfact>
</mgrwt>
</event>
